 vasp.5.4.4.18Apr17-6-g9f103f2a35 (build Oct 18 2021 20:38:43) complex          
  
 executed on             LinuxIFC date 2024.06.16  13:04:20
 running on   24 total cores
 distrk:  each k-point on   24 cores,    1 groups
 distr:  one band on NCORES_PER_BAND=   1 cores,   24 groups


--------------------------------------------------------------------------------------------------------


 INCAR:
 POTCAR:   PAW_PBE Hf_pv 06Sep2000                
 POTCAR:   PAW_PBE V_sv 07Sep2000                 
 POTCAR:   PAW_PBE Ti_sv 07Sep2000                
 POTCAR:   PAW_PBE N 08Apr2002                    
 POTCAR:   PAW_PBE C 08Apr2002                    
 POTCAR:   PAW_PBE Cr_pv 07Sep2000                
 POTCAR:   PAW_PBE Nb_sv 17Jan2003                

 ----------------------------------------------------------------------------- 
|                                                                             |
|           W    W    AA    RRRRR   N    N  II  N    N   GGGG   !!!           |
|           W    W   A  A   R    R  NN   N  II  NN   N  G    G  !!!           |
|           W    W  A    A  R    R  N N  N  II  N N  N  G       !!!           |
|           W WW W  AAAAAA  RRRRR   N  N N  II  N  N N  G  GGG   !            |
|           WW  WW  A    A  R   R   N   NN  II  N   NN  G    G                |
|           W    W  A    A  R    R  N    N  II  N    N   GGGG   !!!           |
|                                                                             |
|      For optimal performance we recommend to set                            |
|        NCORE= 4 - approx SQRT( number of cores)                             |
|      NCORE specifies how many cores store one orbital (NPAR=cpu/NCORE).     |
|      This setting can  greatly improve the performance of VASP for DFT.     |
|      The default,   NCORE=1            might be grossly inefficient         |
|      on modern multi-core architectures or massively parallel machines.     |
|      Do your own testing !!!!                                               |
|      Unfortunately you need to use the default for GW and RPA calculations. |
|      (for HF NCORE is supported but not extensively tested yet)             |
|                                                                             |
 ----------------------------------------------------------------------------- 

 POTCAR:   PAW_PBE Hf_pv 06Sep2000                
   VRHFIN =Hf: 5p6s5d                                                           
   LEXCH  = PE                                                                  
   EATOM  =   859.6195 eV,   63.1803 Ry                                         
                                                                                
   TITEL  = PAW_PBE Hf_pv 06Sep2000                                             
   LULTRA =        F    use ultrasoft PP ?                                      
   IUNSCR =        1    unscreen: 0-lin 1-nonlin 2-no                           
   RPACOR =    2.500    partial core radius                                     
   POMASS =  178.490; ZVAL   =   10.000    mass and valenz                      
   RCORE  =    2.600    outmost cutoff radius                                   
   RWIGS  =    3.050; RWIGS  =    1.614    wigner-seitz radius (au A)           
   ENMAX  =  220.342; ENMIN  =  165.256 eV                                      
   RCLOC  =    2.212    cutoff for local pot                                    
   LCOR   =        T    correct aug charges                                     
   LPAW   =        T    paw PP                                                  
   EAUG   =  380.878                                                            
   DEXC   =    -.057                                                            
   RMAX   =    3.106    core radius for proj-oper                               
   RAUG   =    1.300    factor for augmentation sphere                          
   RDEP   =    2.681    radius for radial grids                                 
   QCUT   =   -4.024; QGAM   =    8.049    optimization parameters              
                                                                                
   Description                                                                  
     l     E      TYP  RCUT    TYP  RCUT                                        
     1   .000     23  2.500                                                     
     1   .000     23  2.500                                                     
     2   .000     23  2.500                                                     
     2   .000     23  2.500                                                     
     0   .000     23  2.600                                                     
     0   .000     23  2.600                                                     
     3   .000      7   .000                                                     
  local pseudopotential read in
  partial core-charges read in
  atomic valenz-charges read in
  non local Contribution for L=           1  read in
    real space projection operators read in
  non local Contribution for L=           1  read in
    real space projection operators read in
  non local Contribution for L=           2  read in
    real space projection operators read in
  non local Contribution for L=           2  read in
    real space projection operators read in
  non local Contribution for L=           0  read in
    real space projection operators read in
  non local Contribution for L=           0  read in
    real space projection operators read in
    PAW grid and wavefunctions read in
 
   number of l-projection  operators is LMAX  =           6
   number of lm-projection operators is LMMAX =          18
 
 POTCAR:   PAW_PBE V_sv 07Sep2000                 
   VRHFIN =V: p6 d4 s1                                                          
   LEXCH  = PE                                                                  
   EATOM  =  1951.3925 eV,  143.4233 Ry                                         
                                                                                
   TITEL  = PAW_PBE V_sv 07Sep2000                                              
   LULTRA =        F    use ultrasoft PP ?                                      
   IUNSCR =        1    unscreen: 0-lin 1-nonlin 2-no                           
   RPACOR =    2.000    partial core radius                                     
   POMASS =   50.941; ZVAL   =   13.000    mass and valenz                      
   RCORE  =    2.300    outmost cutoff radius                                   
   RWIGS  =    2.300; RWIGS  =    1.217    wigner-seitz radius (au A)           
   ENMAX  =  263.675; ENMIN  =  197.756 eV                                      
   RCLOC  =    1.779    cutoff for local pot                                    
   LCOR   =        T    correct aug charges                                     
   LPAW   =        T    paw PP                                                  
   EAUG   =  526.568                                                            
   DEXC   =     .000                                                            
   RMAX   =    2.839    core radius for proj-oper                               
   RAUG   =    1.300    factor for augmentation sphere                          
   RDEP   =    2.430    radius for radial grids                                 
   QCUT   =   -4.402; QGAM   =    8.804    optimization parameters              
                                                                                
   Description                                                                  
     l     E      TYP  RCUT    TYP  RCUT                                        
     0   .000     23  1.800                                                     
     0   .000     23  2.300                                                     
     0   .000     23  1.800                                                     
     0   .000     23  2.300                                                     
     1   .000     23  2.000                                                     
     1   .400     23  2.000                                                     
     2   .000     23  2.300                                                     
     2   .000     23  2.300                                                     
     3   .000      7   .000                                                     
  local pseudopotential read in
  partial core-charges read in
  atomic valenz-charges read in
  non local Contribution for L=           0  read in
    real space projection operators read in
  non local Contribution for L=           0  read in
    real space projection operators read in
  non local Contribution for L=           1  read in
    real space projection operators read in
  non local Contribution for L=           1  read in
    real space projection operators read in
  non local Contribution for L=           2  read in
    real space projection operators read in
  non local Contribution for L=           2  read in
    real space projection operators read in
    PAW grid and wavefunctions read in
 
   number of l-projection  operators is LMAX  =           6
   number of lm-projection operators is LMMAX =          18
 
 POTCAR:   PAW_PBE Ti_sv 07Sep2000                
   VRHFIN =Ti: 3p4s3d                                                           
   LEXCH  = PE                                                                  
   EATOM  =  1587.5048 eV,  116.6783 Ry                                         
                                                                                
   TITEL  = PAW_PBE Ti_sv 07Sep2000                                             
   LULTRA =        F    use ultrasoft PP ?                                      
   IUNSCR =        1    unscreen: 0-lin 1-nonlin 2-no                           
   RPACOR =    2.000    partial core radius                                     
   POMASS =   47.880; ZVAL   =   12.000    mass and valenz                      
   RCORE  =    2.300    outmost cutoff radius                                   
   RWIGS  =    2.300; RWIGS  =    1.217    wigner-seitz radius (au A)           
   ENMAX  =  274.574; ENMIN  =  205.930 eV                                      
   RCLOC  =    1.701    cutoff for local pot                                    
   LCOR   =        T    correct aug charges                                     
   LPAW   =        T    paw PP                                                  
   EAUG   =  482.848                                                            
   DEXC   =     .000                                                            
   RMAX   =    2.783    core radius for proj-oper                               
   RAUG   =    1.300    factor for augmentation sphere                          
   RDEP   =    2.381    radius for radial grids                                 
   QCUT   =   -4.492; QGAM   =    8.985    optimization parameters              
                                                                                
   Description                                                                  
     l     E      TYP  RCUT    TYP  RCUT                                        
     0   .000     23  1.800                                                     
     0   .000     23  2.300                                                     
     0   .000     23  1.800                                                     
     0   .000     23  2.300                                                     
     1   .000     23  2.300                                                     
     1  -.100     23  2.300                                                     
     2   .000     23  2.300                                                     
     2   .000     23  2.300                                                     
     3   .000      7   .000                                                     
  local pseudopotential read in
  partial core-charges read in
  atomic valenz-charges read in
  non local Contribution for L=           0  read in
    real space projection operators read in
  non local Contribution for L=           0  read in
    real space projection operators read in
  non local Contribution for L=           1  read in
    real space projection operators read in
  non local Contribution for L=           1  read in
    real space projection operators read in
  non local Contribution for L=           2  read in
    real space projection operators read in
  non local Contribution for L=           2  read in
    real space projection operators read in
    PAW grid and wavefunctions read in
 
   number of l-projection  operators is LMAX  =           6
   number of lm-projection operators is LMMAX =          18
 
 POTCAR:   PAW_PBE N 08Apr2002                    
   VRHFIN =N: s2p3                                                              
   LEXCH  = PE                                                                  
   EATOM  =   264.5486 eV,   19.4438 Ry                                         
                                                                                
   TITEL  = PAW_PBE N 08Apr2002                                                 
   LULTRA =        F    use ultrasoft PP ?                                      
   IUNSCR =        0    unscreen: 0-lin 1-nonlin 2-no                           
   RPACOR =     .000    partial core radius                                     
   POMASS =   14.001; ZVAL   =    5.000    mass and valenz                      
   RCORE  =    1.500    outmost cutoff radius                                   
   RWIGS  =    1.400; RWIGS  =     .741    wigner-seitz radius (au A)           
   ENMAX  =  400.000; ENMIN  =  300.000 eV                                      
   ICORE  =        2    local potential                                         
   LCOR   =        T    correct aug charges                                     
   LPAW   =        T    paw PP                                                  
   EAUG   =  627.112                                                            
   DEXC   =     .000                                                            
   RMAX   =    2.247    core radius for proj-oper                               
   RAUG   =    1.300    factor for augmentation sphere                          
   RDEP   =    1.514    radius for radial grids                                 
   QCUT   =   -5.562; QGAM   =   11.124    optimization parameters              
                                                                                
   Description                                                                  
     l     E      TYP  RCUT    TYP  RCUT                                        
     0   .000     23  1.200                                                     
     0   .000     23  1.200                                                     
     1   .000     23  1.500                                                     
     1   .700     23  1.500                                                     
     2   .000      7  1.500                                                     
  local pseudopotential read in
  atomic valenz-charges read in
  non local Contribution for L=           0  read in
    real space projection operators read in
  non local Contribution for L=           0  read in
    real space projection operators read in
  non local Contribution for L=           1  read in
    real space projection operators read in
  non local Contribution for L=           1  read in
    real space projection operators read in
    PAW grid and wavefunctions read in
 
   number of l-projection  operators is LMAX  =           4
   number of lm-projection operators is LMMAX =           8
 
 POTCAR:   PAW_PBE C 08Apr2002                    
   VRHFIN =C: s2p2                                                              
   LEXCH  = PE                                                                  
   EATOM  =   147.1560 eV,   10.8157 Ry                                         
                                                                                
   TITEL  = PAW_PBE C 08Apr2002                                                 
   LULTRA =        F    use ultrasoft PP ?                                      
   IUNSCR =        0    unscreen: 0-lin 1-nonlin 2-no                           
   RPACOR =     .000    partial core radius                                     
   POMASS =   12.011; ZVAL   =    4.000    mass and valenz                      
   RCORE  =    1.500    outmost cutoff radius                                   
   RWIGS  =    1.630; RWIGS  =     .863    wigner-seitz radius (au A)           
   ENMAX  =  400.000; ENMIN  =  300.000 eV                                      
   ICORE  =        2    local potential                                         
   LCOR   =        T    correct aug charges                                     
   LPAW   =        T    paw PP                                                  
   EAUG   =  644.873                                                            
   DEXC   =     .000                                                            
   RMAX   =    2.266    core radius for proj-oper                               
   RAUG   =    1.300    factor for augmentation sphere                          
   RDEP   =    1.501    radius for radial grids                                 
   RDEPT  =    1.300    core radius for aug-charge                              
   QCUT   =   -5.516; QGAM   =   11.032    optimization parameters              
                                                                                
   Description                                                                  
     l     E      TYP  RCUT    TYP  RCUT                                        
     0   .000     23  1.200                                                     
     0   .000     23  1.200                                                     
     1   .000     23  1.500                                                     
     1  2.500     23  1.500                                                     
     2   .000      7  1.500                                                     
  local pseudopotential read in
  atomic valenz-charges read in
  non local Contribution for L=           0  read in
    real space projection operators read in
  non local Contribution for L=           0  read in
    real space projection operators read in
  non local Contribution for L=           1  read in
    real space projection operators read in
  non local Contribution for L=           1  read in
    real space projection operators read in
    PAW grid and wavefunctions read in
 
   number of l-projection  operators is LMAX  =           4
   number of lm-projection operators is LMMAX =           8
 
 POTCAR:   PAW_PBE Cr_pv 07Sep2000                
   VRHFIN =Cr : p6d5s1                                                          
   LEXCH  = PE                                                                  
   EATOM  =  1647.5667 eV,  121.0927 Ry                                         
                                                                                
   TITEL  = PAW_PBE Cr_pv 07Sep2000                                             
   LULTRA =        F    use ultrasoft PP ?                                      
   IUNSCR =        1    unscreen: 0-lin 1-nonlin 2-no                           
   RPACOR =    2.080    partial core radius                                     
   POMASS =   51.996; ZVAL   =   12.000    mass and valenz                      
   RCORE  =    2.300    outmost cutoff radius                                   
   RWIGS  =    2.500; RWIGS  =    1.323    wigner-seitz radius (au A)           
   ENMAX  =  265.683; ENMIN  =  199.262 eV                                      
   RCLOC  =    1.721    cutoff for local pot                                    
   LCOR   =        T    correct aug charges                                     
   LPAW   =        T    paw PP                                                  
   EAUG   =  519.424                                                            
   DEXC   =    -.003                                                            
   RMAX   =    2.829    core radius for proj-oper                               
   RAUG   =    1.300    factor for augmentation sphere                          
   RDEP   =    2.447    radius for radial grids                                 
   QCUT   =   -4.419; QGAM   =    8.838    optimization parameters              
                                                                                
   Description                                                                  
     l     E      TYP  RCUT    TYP  RCUT                                        
     1   .000     23  2.000                                                     
     1   .100     23  2.000                                                     
     2   .000     23  2.300                                                     
     2   .000     23  2.300                                                     
     0   .000     23  2.300                                                     
     0   .000     23  2.300                                                     
     3   .000      7   .000                                                     
  local pseudopotential read in
  partial core-charges read in
  atomic valenz-charges read in
  non local Contribution for L=           1  read in
    real space projection operators read in
  non local Contribution for L=           1  read in
    real space projection operators read in
  non local Contribution for L=           2  read in
    real space projection operators read in
  non local Contribution for L=           2  read in
    real space projection operators read in
  non local Contribution for L=           0  read in
    real space projection operators read in
  non local Contribution for L=           0  read in
    real space projection operators read in
    PAW grid and wavefunctions read in
 
   number of l-projection  operators is LMAX  =           6
   number of lm-projection operators is LMMAX =          18
 
 POTCAR:   PAW_PBE Nb_sv 17Jan2003                
   VRHFIN =Nb: 4p5s4d                                                           
   LEXCH  = PE                                                                  
   EATOM  =  1555.1913 eV,  114.3033 Ry                                         
                                                                                
   TITEL  = PAW_PBE Nb_sv 17Jan2003                                             
   LULTRA =        F    use ultrasoft PP ?                                      
   IUNSCR =        1    unscreen: 0-lin 1-nonlin 2-no                           
   RPACOR =    1.800    partial core radius                                     
   POMASS =   92.910; ZVAL   =   13.000    mass and valenz                      
   RCORE  =    2.200    outmost cutoff radius                                   
   RWIGS  =    2.400; RWIGS  =    1.270    wigner-seitz radius (au A)           
   ENMAX  =  293.235; ENMIN  =  219.927 eV                                      
   RCLOC  =    1.411    cutoff for local pot                                    
   LCOR   =        T    correct aug charges                                     
   LPAW   =        T    paw PP                                                  
   EAUG   =  455.659                                                            
   DEXC   =     .000                                                            
   RMAX   =    2.693    core radius for proj-oper                               
   RAUG   =    1.300    factor for augmentation sphere                          
   RDEP   =    2.299    radius for radial grids                                 
   QCUT   =   -4.642; QGAM   =    9.285    optimization parameters              
                                                                                
   Description                                                                  
     l     E      TYP  RCUT    TYP  RCUT                                        
     0   .000     23  2.200                                                     
     0   .000     23  2.200                                                     
     0   .000     23  2.200                                                     
     0   .000     23  2.200                                                     
     1   .000     23  2.200                                                     
     1  1.000     23  2.200                                                     
     2   .000     23  2.200                                                     
     2   .000     23  2.200                                                     
     3   .000      7   .000                                                     
  local pseudopotential read in
  partial core-charges read in
  atomic valenz-charges read in
  non local Contribution for L=           0  read in
    real space projection operators read in
  non local Contribution for L=           0  read in
    real space projection operators read in
  non local Contribution for L=           1  read in
    real space projection operators read in
  non local Contribution for L=           1  read in
    real space projection operators read in
  non local Contribution for L=           2  read in
    real space projection operators read in
  non local Contribution for L=           2  read in
    real space projection operators read in
    PAW grid and wavefunctions read in
 
   number of l-projection  operators is LMAX  =           6
   number of lm-projection operators is LMMAX =          18
 

 ----------------------------------------------------------------------------- 
|                                                                             |
|  ADVICE TO THIS USER RUNNING 'VASP/VAMP'   (HEAR YOUR MASTER'S VOICE ...):  |
|                                                                             |
|      You have a (more or less) 'large supercell' and for larger cells       |
|      it might be more efficient to use real space projection operators      |
|      So try LREAL= Auto  in the INCAR   file.                               |
|      Mind: If you want to do a very accurate calculations keep the          |
|      reciprocal projection scheme          (i.e. LREAL=.FALSE.)             |
|                                                                             |
 ----------------------------------------------------------------------------- 

 PAW_PBE Hf_pv 06Sep2000                :
 energy of atom  1       EATOM= -859.6195
 kinetic energy error for atom=    0.0038 (will be added to EATOM!!)
 PAW_PBE V_sv 07Sep2000                 :
 energy of atom  2       EATOM=-1951.3925
 kinetic energy error for atom=    0.0321 (will be added to EATOM!!)
 PAW_PBE Ti_sv 07Sep2000                :
 energy of atom  3       EATOM=-1587.5048
 kinetic energy error for atom=    0.0139 (will be added to EATOM!!)
 PAW_PBE N 08Apr2002                    :
 energy of atom  4       EATOM= -264.5486
 kinetic energy error for atom=    0.0736 (will be added to EATOM!!)
 PAW_PBE C 08Apr2002                    :
 energy of atom  5       EATOM= -147.1560
 kinetic energy error for atom=    0.0288 (will be added to EATOM!!)
 PAW_PBE Cr_pv 07Sep2000                :
 energy of atom  6       EATOM=-1647.5667
 kinetic energy error for atom=    0.0284 (will be added to EATOM!!)
 PAW_PBE Nb_sv 17Jan2003                :
 energy of atom  7       EATOM=-1555.1913
 kinetic energy error for atom=    0.0212 (will be added to EATOM!!)
 
 
 POSCAR: 103-TiHfVNbCr                           
  positions in direct lattice
  velocities in cartesian coordinates
 exchange correlation table for  LEXCH =        8
   RHO(1)=    0.500       N(1)  =     2000
   RHO(2)=  100.500       N(2)  =     4000
 


--------------------------------------------------------------------------------------------------------


 ion  position               nearest neighbor table
   1  0.999  0.002  0.993-  29 2.14  23 2.19  25 2.19  22 2.21  38 2.25  34 2.25  58 2.90  56 2.98
                            14 3.03  17 3.04  18 3.05   9 3.06  12 3.06  59 3.09   8 3.11  10 3.13
   2  0.268  0.002  0.246-  26 2.09  21 2.14  36 2.21  22 2.21  43 2.29  34 2.36  55 3.05  15 3.06
                            19 3.10  18 3.10  14 3.11  57 3.12  59 3.12  20 3.15   8 3.16  53 3.20
   3  0.242  0.494  0.247-  27 2.14  21 2.15  36 2.23  37 2.23  41 2.24  46 2.25  55 3.04   6 3.07
                             4 3.08  14 3.08  15 3.10  19 3.10  59 3.11  54 3.11  62 3.13  18 3.13
   4  0.498  0.501  0.001-  41 2.19  52 2.20  37 2.24  28 2.25  35 2.27  40 2.29  55 3.01  15 3.07
                             3 3.08   7 3.08  18 3.08  13 3.09  17 3.10  63 3.10  60 3.10  14 3.12
   5  0.511  0.244  0.743-  33 2.12  30 2.17  32 2.18  52 2.23  35 2.26  42 2.31  53 2.90  57 2.91
                            19 3.08  58 3.10  13 3.10  17 3.12  63 3.12  11 3.13  56 3.14  14 3.16
   6  1.000  0.500  0.505-  46 2.18  44 2.19  50 2.20  47 2.21  48 2.21  27 2.25  10 2.97  12 3.02
                            63 3.03  13 3.04  11 3.07   3 3.07  20 3.09  19 3.09  60 3.10   8 3.11
   7  0.492  0.757  0.758-  33 2.14  28 2.17  45 2.22  52 2.24  49 2.28  51 2.29  57 2.83  58 2.90
                            53 2.95  18 2.99  20 3.06   4 3.08  62 3.10  63 3.14  64 3.16   9 3.19
   8  0.987  0.233  0.267-  34 2.00  44 2.05  24 2.05  27 2.26  21 2.29  23 2.33  11 2.71  61 2.90
                             6 3.11   1 3.11   2 3.16   3 3.19
   9  0.766  0.741  1.000-  38 2.03  40 2.08  49 2.11  39 2.14  25 2.25  28 2.32  58 2.80  54 2.86
                            63 2.96   1 3.06   4 3.13   7 3.19
  10  0.003  0.249  0.733-  44 2.02  30 2.10  42 2.11  29 2.12  48 2.17  23 2.34  56 2.81  61 2.90
                             6 2.97   1 3.13
  11  0.761  0.243  0.484-  31 2.03  24 2.06  44 2.08  50 2.21  32 2.25  30 2.33   8 2.71  61 2.97
                             6 3.07   5 3.13
  12  0.002  0.740  0.757-  45 2.04  38 2.08  48 2.12  49 2.15  47 2.18  29 2.33  54 2.81  63 2.97
                             6 3.02  58 3.04   1 3.06
  13  0.246  0.483  0.752-  42 2.04  48 2.08  37 2.09  46 2.16  52 2.19  45 2.38  54 2.92   6 3.04
                             4 3.09   5 3.10   7 3.21
  14  0.245  0.248  0.991-  23 2.11  42 2.12  22 2.14  37 2.18  21 2.25  35 2.25  56 2.96   1 3.03
                             3 3.08   2 3.11   4 3.12   5 3.16
  15  0.509  0.257  0.252-  32 2.10  24 2.11  41 2.11  35 2.19  26 2.21  21 2.26   2 3.06   4 3.07
                             3 3.10
  16  0.737  0.997  0.246-  26 1.98  39 2.13  25 2.13  24 2.17  31 2.19  34 2.25  53 2.99   1 3.17

  17  0.757  0.256  0.003-  23 2.12  24 2.14  40 2.15  35 2.20  30 2.21  25 2.25  53 2.96   1 3.04
                             4 3.10   5 3.12
  18  0.242  0.748  0.995-  38 2.11  45 2.12  37 2.18  36 2.21  22 2.22  28 2.23  54 2.93   7 2.99
                             1 3.05   4 3.08   2 3.10   3 3.13
  19  0.252  0.248  0.503-  42 2.13  43 2.15  32 2.17  46 2.17  44 2.19  21 2.22  56 2.89   5 3.08
                             6 3.09   2 3.10   3 3.10
  20  0.248  0.753  0.506-  51 2.13  45 2.15  47 2.16  43 2.17  46 2.23  36 2.24  57 2.90   7 3.06
                             6 3.09   2 3.15   3 3.18
  21  0.249  0.247  0.249-   2 2.14   3 2.15  19 2.22  14 2.25  15 2.26   8 2.29
  22  0.254  0.003  0.993-  14 2.14   2 2.21   1 2.21  18 2.22  56 2.23  53 2.33
  23  0.002  0.254  0.001-  14 2.11  17 2.12   1 2.19  54 2.26   8 2.33  10 2.34
  24  0.752  0.246  0.248-   8 2.05  11 2.06  15 2.11  17 2.14  16 2.17  60 2.25
  25  0.746  0.998  0.002-  58 1.93  53 1.96  16 2.13   1 2.19   9 2.25  17 2.25
  26  0.509  0.003  0.238-  16 1.98   2 2.09  15 2.21  53 2.26  55 2.36
  27  0.996  0.492  0.247-  60 2.14   3 2.14   6 2.25   8 2.26  54 2.31  59 2.34
  28  0.499  0.759  0.007-   7 2.17  55 2.20  53 2.23  18 2.23   4 2.25   9 2.32
  29  0.991  0.007  0.748-  56 2.08  61 2.11  10 2.12   1 2.14  58 2.19  12 2.33
  30  0.761  0.246  0.750-  10 2.10   5 2.17  17 2.21  63 2.28  11 2.33  58 2.39
  31  0.741  0.011  0.498-  11 2.03  64 2.18  16 2.19  57 2.26  61 2.29
  32  0.502  0.243  0.493-  15 2.10  19 2.17   5 2.18  11 2.25  57 2.26  62 2.33
  33  0.516  0.000  0.751-  57 1.95  53 2.00  58 2.00   5 2.12   7 2.14
  34  0.996  0.004  0.251-   8 2.00  59 2.13  61 2.22  16 2.25   1 2.25   2 2.36
  35  0.504  0.241  0.002-  53 2.01  15 2.19  17 2.20  14 2.25   5 2.26   4 2.27
  36  0.255  0.749  0.249-  55 2.09  59 2.19   2 2.21  18 2.21   3 2.23  20 2.24
  37  0.241  0.499  0.991-  54 2.07  13 2.09  18 2.18  14 2.18   3 2.23   4 2.24
  38  0.999  0.745  0.996-   9 2.03  54 2.03  12 2.08  18 2.11  59 2.22   1 2.25
  39  0.741  0.753  0.244-  16 2.13   9 2.14  55 2.15  60 2.17  64 2.20  59 2.27
  40  0.762  0.503  0.001-   9 2.08  54 2.10  17 2.15  63 2.17  60 2.18   4 2.29
  41  0.500  0.498  0.252-  55 2.06  15 2.11  62 2.16  60 2.17   4 2.19   3 2.24
  42  0.246  0.249  0.748-  56 2.01  13 2.04  10 2.11  14 2.12  19 2.13   5 2.31
  43  0.256  0.001  0.509-  57 1.99  56 2.03  19 2.15  20 2.17  61 2.18   2 2.29
  44  1.000  0.249  0.501-  10 2.02   8 2.05  11 2.08  61 2.14  19 2.19   6 2.19
  45  0.237  0.756  0.753-  12 2.04  18 2.12  20 2.15   7 2.22  56 2.29  13 2.38
  46  0.251  0.498  0.505-  62 2.13  13 2.16  19 2.17   6 2.18  20 2.23   3 2.25
  47  1.000  0.754  0.507-  20 2.16  12 2.18  61 2.18  64 2.21   6 2.21  59 2.24
  48  0.006  0.497  0.759-  54 1.96  13 2.08  12 2.12  10 2.17  63 2.19   6 2.21
  49  0.755  0.756  0.758-  58 1.91   9 2.11  12 2.15  63 2.17   7 2.28  64 2.28
  50  0.747  0.495  0.499-  60 2.16  62 2.18   6 2.20  63 2.21  11 2.21  64 2.31
  51  0.493  0.762  0.495-  57 1.99  55 2.08  20 2.13  62 2.19  64 2.19   7 2.29
  52  0.497  0.500  0.748-  62 2.16  13 2.19   4 2.20  63 2.23   5 2.23   7 2.24
  53  0.522  0.012  0.979-  25 1.96  33 2.00  35 2.01  28 2.23  26 2.26  22 2.33  58 2.59   5 2.90
                             7 2.95  17 2.96  16 2.99   2 3.20
  54  0.003  0.512  0.983-  48 1.96  38 2.03  37 2.07  40 2.10  23 2.26  27 2.31  12 2.81   9 2.86
                            13 2.92  18 2.93  63 2.95   3 3.11
  55  0.495  0.734  0.257-  41 2.06  51 2.08  36 2.09  39 2.15  28 2.20  26 2.36  62 2.89  60 2.98
                             4 3.01  64 3.03   3 3.04   2 3.05
  56  0.230  0.019  0.740-  42 2.01  43 2.03  29 2.08  22 2.23  45 2.29  10 2.81  61 2.83  57 2.87
                            19 2.89  14 2.96   1 2.98   5 3.14   7 3.22
  57  0.484  0.987  0.530-  33 1.95  51 1.99  43 1.99  31 2.26  32 2.26   7 2.83  56 2.87  20 2.90
                             5 2.91  64 3.01   2 3.12  58 3.15
  58  0.743  0.974  0.782-  49 1.91  25 1.93  33 2.00  29 2.19  30 2.39  53 2.59   9 2.80   7 2.90
                             1 2.90  12 3.04  64 3.10   5 3.10  57 3.15
  59  0.003  0.760  0.250-  34 2.13  36 2.19  38 2.22  47 2.24  39 2.27  27 2.34   1 3.09   3 3.11
                             2 3.12   6 3.19
  60  0.750  0.504  0.251-  27 2.14  50 2.16  41 2.17  39 2.17  40 2.18  24 2.25  55 2.98   4 3.10
                             6 3.10
  61  0.005  0.004  0.506-  29 2.11  44 2.14  43 2.18  47 2.18  34 2.22  31 2.29  56 2.83   8 2.90
                            10 2.90  11 2.97   2 3.21
  62  0.496  0.511  0.500-  46 2.13  41 2.16  52 2.16  50 2.18  51 2.19  32 2.33  55 2.89   7 3.10
                             3 3.13   5 3.16
  63  0.754  0.508  0.752-  40 2.17  49 2.17  48 2.19  50 2.21  52 2.23  30 2.28  54 2.95   9 2.96
                            12 2.97   6 3.03   4 3.10   5 3.12   7 3.14
  64  0.746  0.761  0.497-  31 2.18  51 2.19  39 2.20  47 2.21  49 2.28  50 2.31  57 3.01  55 3.03
                            58 3.10   6 3.16   7 3.16
 
  LATTYP: Found a triclinic cell.
 ALAT       =     8.6781523614
 B/A-ratio  =     1.4141745945
 C/A-ratio  =     1.7380231472
 COS(alpha) =     0.0009609323
 COS(beta)  =     0.5802595997
 COS(gamma) =     0.7040063616
  
  Lattice vectors:
  
 A1 = (  -8.6781369562,  -0.0162065209,  -0.0021740989)
 A2 = (  -8.6561192948,   8.6996167288,  -0.0249781992)
 A3 = (  -8.7335567084,  -8.6944120929,  -8.6962024300)


Analysis of symmetry for initial positions (statically):
=====================================================================
 Subroutine PRICEL returns:
 Original cell was already a primitive cell.
 

 Routine SETGRP: Setting up the symmetry group for a 
 triclinic supercell.


 Subroutine GETGRP returns: Found  1 space group operations
 (whereof  1 operations were pure point group operations)
 out of a pool of  2 trial point group operations.


The static configuration has the point symmetry C_1 .


Analysis of symmetry for dynamics (positions and initial velocities):
=====================================================================
 Subroutine PRICEL returns:
 Original cell was already a primitive cell.
 

 Routine SETGRP: Setting up the symmetry group for a 
 triclinic supercell.


 Subroutine GETGRP returns: Found  1 space group operations
 (whereof  1 operations were pure point group operations)
 out of a pool of  2 trial point group operations.


The dynamic configuration has the point symmetry C_1 .


 Subroutine INISYM returns: Found  1 space group operations
 (whereof  1 operations are pure point group operations),
 and found     1 'primitive' translations

 
 
 KPOINTS: HECN                                    

Automatic generation of k-mesh.
Space group operators:
 irot       det(A)        alpha          n_x          n_y          n_z        tau_x        tau_y        tau_z
    1     1.000000     0.000001     1.000000     0.000000     0.000000     0.000000     0.000000     0.000000
 
 Subroutine IBZKPT returns following result:
 ===========================================
 
 Found     14 irreducible k-points:
 
 Following reciprocal coordinates:
            Coordinates               Weight
  0.000000  0.000000  0.000000      1.000000
  0.333333  0.000000  0.000000      2.000000
  0.000000  0.333333 -0.000000      2.000000
  0.333333  0.333333 -0.000000      2.000000
 -0.333333  0.333333  0.000000      2.000000
  0.000000  0.000000  0.333333      2.000000
  0.333333  0.000000  0.333333      2.000000
 -0.333333 -0.000000  0.333333      2.000000
 -0.000000  0.333333  0.333333      2.000000
  0.333333  0.333333  0.333333      2.000000
 -0.333333  0.333333  0.333333      2.000000
 -0.000000 -0.333333  0.333333      2.000000
  0.333333 -0.333333  0.333333      2.000000
 -0.333333 -0.333333  0.333333      2.000000
 
 Following cartesian coordinates:
            Coordinates               Weight
  0.000000  0.000000  0.000000      1.000000
  0.038411 -0.000097 -0.000148      2.000000
 -0.000071  0.038245  0.000165      2.000000
  0.038339  0.038148  0.000018      2.000000
 -0.038482  0.038343  0.000313      2.000000
 -0.000010  0.000100  0.038241      2.000000
  0.038401  0.000003  0.038093      2.000000
 -0.038421  0.000197  0.038388      2.000000
 -0.000081  0.038345  0.038406      2.000000
  0.038330  0.038248  0.038258      2.000000
 -0.038492  0.038443  0.038554      2.000000
  0.000062 -0.038145  0.038075      2.000000
  0.038473 -0.038243  0.037928      2.000000
 -0.038349 -0.038048  0.038223      2.000000
 


--------------------------------------------------------------------------------------------------------




 Dimension of arrays:
   k-points           NKPTS =     14   k-points in BZ     NKDIM =     14   number of bands    NBANDS=    336
   number of dos      NEDOS =    301   number of ions     NIONS =     64
   non local maximal  LDIM  =      6   non local SUM 2l+1 LMDIM =     18
   total plane-waves  NPLWV =  96768
   max r-space proj   IRMAX =      1   max aug-charges    IRDMAX=   8332
   dimension x,y,z NGX =    42 NGY =   48 NGZ =   48
   dimension x,y,z NGXF=    84 NGYF=   96 NGZF=   96
   support grid    NGXF=    84 NGYF=   96 NGZF=   96
   ions per type =               7   6   7  13  19   6   6
   NGX,Y,Z   is equivalent  to a cutoff of   8.05,  9.16,  9.15 a.u.
   NGXF,Y,Z  is equivalent  to a cutoff of  16.09, 18.31, 18.31 a.u.

 SYSTEM =  HECN                                    
 POSCAR =  103-TiHfVNbCr                           

 Startparameter for this run:
   NWRITE =      2    write-flag & timer
   PREC   = normal    normal or accurate (medium, high low for compatibility)
   ISTART =      0    job   : 0-new  1-cont  2-samecut
   ICHARG =      2    charge: 1-file 2-atom 10-const
   ISPIN  =      1    spin polarized calculation?
   LNONCOLLINEAR =      F non collinear calculations
   LSORBIT =      F    spin-orbit coupling
   INIWAV =      1    electr: 0-lowe 1-rand  2-diag
   LASPH  =      F    aspherical Exc in radial PAW
   METAGGA=      F    non-selfconsistent MetaGGA calc.

 Electronic Relaxation 1
   ENCUT  =  400.0 eV  29.40 Ry    5.42 a.u.  14.15 14.21 14.22*2*pi/ulx,y,z
   ENINI  =  400.0     initial cutoff
   ENAUG  =  644.9 eV  augmentation charge cutoff
   NELM   =     60;   NELMIN=  2; NELMDL= -5     # of ELM steps 
   EDIFF  = 0.1E-04   stopping-criterion for ELM
   LREAL  =      F    real-space projection
   NLSPLINE    = F    spline interpolate recip. space projectors
   LCOMPAT=      F    compatible to vasp.4.4
   GGA_COMPAT  = T    GGA compatible to vasp.4.4-vasp.4.6
   LMAXPAW     = -100 max onsite density
   LMAXMIX     =    2 max onsite mixed and CHGCAR
   VOSKOWN=      0    Vosko Wilk Nusair interpolation
   ROPT   =    0.00000   0.00000   0.00000   0.00000
   ROPT   =    0.00000   0.00000   0.00000
 Ionic relaxation
   EDIFFG = -.1E-01   stopping-criterion for IOM
   NSW    =    100    number of steps for IOM
   NBLOCK =      1;   KBLOCK =    100    inner block; outer block 
   IBRION =      2    ionic relax: 0-MD 1-quasi-New 2-CG
   NFREE  =      1    steps in history (QN), initial steepest desc. (CG)
   ISIF   =      3    stress and relaxation
   IWAVPR =     11    prediction:  0-non 1-charg 2-wave 3-comb
   ISYM   =      2    0-nonsym 1-usesym 2-fastsym
   LCORR  =      T    Harris-Foulkes like correction to forces

   POTIM  = 0.5000    time-step for ionic-motion
   TEIN   =    0.0    initial temperature
   TEBEG  =    0.0;   TEEND  =   0.0 temperature during run
   SMASS  =  -3.00    Nose mass-parameter (am)
   estimated Nose-frequenzy (Omega)   =  0.10E-29 period in steps =****** mass=  -0.172E-26a.u.
   SCALEE = 1.0000    scale energy and forces
   NPACO  =    256;   APACO  = 16.0  distance and # of slots for P.C.
   PSTRESS=    0.0 pullay stress

  Mass of Ions in am
   POMASS = 178.49 50.94 47.88 14.00 12.01 52.00 92.91
  Ionic Valenz
   ZVAL   =  10.00 13.00 12.00  5.00  4.00 12.00 13.00
  Atomic Wigner-Seitz radii
   RWIGS  =  -1.00 -1.00 -1.00 -1.00 -1.00 -1.00 -1.00
  virtual crystal weights 
   VCA    =   1.00  1.00  1.00  1.00  1.00  1.00  1.00
   NELECT =     523.0000    total number of electrons
   NUPDOWN=      -1.0000    fix difference up-down

 DOS related values:
   EMIN   =  10.00;   EMAX   =-10.00  energy-range for DOS
   EFERMI =   0.00
   ISMEAR =     0;   SIGMA  =   0.10  broadening in eV -4-tet -1-fermi 0-gaus

 Electronic relaxation 2 (details)
   IALGO  =     68    algorithm
   LDIAG  =      T    sub-space diagonalisation (order eigenvalues)
   LSUBROT=      F    optimize rotation matrix (better conditioning)
   TURBO    =      0    0=normal 1=particle mesh
   IRESTART =      0    0=no restart 2=restart with 2 vectors
   NREBOOT  =      0    no. of reboots
   NMIN     =      0    reboot dimension
   EREF     =   0.00    reference energy to select bands
   IMIX   =      4    mixing-type and parameters
     AMIX     =   0.40;   BMIX     =  1.00
     AMIX_MAG =   1.60;   BMIX_MAG =  1.00
     AMIN     =   0.10
     WC   =   100.;   INIMIX=   1;  MIXPRE=   1;  MAXMIX= -45

 Intra band minimization:
   WEIMIN = 0.0010     energy-eigenvalue tresh-hold
   EBREAK =  0.74E-08  absolut break condition
   DEPER  =   0.30     relativ break condition  

   TIME   =   0.40     timestep for ELM

  volume/ion in A,a.u.               =      10.30        69.52
  Fermi-wavevector in a.u.,A,eV,Ry     =   1.515468  2.863818 31.247711  2.296642
  Thomas-Fermi vector in A             =   2.624987
 
 Write flags
   LWAVE        =      F    write WAVECAR
   LDOWNSAMPLE  =      F    k-point downsampling of WAVECAR
   LCHARG       =      F    write CHGCAR
   LVTOT        =      F    write LOCPOT, total local potential
   LVHAR        =      F    write LOCPOT, Hartree potential only
   LELF         =      F    write electronic localiz. function (ELF)
   LORBIT       =      0    0 simple, 1 ext, 2 COOP (PROOUT), +10 PAW based schemes


 Dipole corrections
   LMONO  =      F    monopole corrections only (constant potential shift)
   LDIPOL =      F    correct potential (dipole corrections)
   IDIPOL =      0    1-x, 2-y, 3-z, 4-all directions 
   EPSILON=  1.0000000 bulk dielectric constant

 Exchange correlation treatment:
   GGA     =    --    GGA type
   LEXCH   =     8    internal setting for exchange type
   VOSKOWN=      0    Vosko Wilk Nusair interpolation
   LHFCALC =     F    Hartree Fock is set to
   LHFONE  =     F    Hartree Fock one center treatment
   AEXX    =    0.0000 exact exchange contribution

 Linear response parameters
   LEPSILON=     F    determine dielectric tensor
   LRPA    =     F    only Hartree local field effects (RPA)
   LNABLA  =     F    use nabla operator in PAW spheres
   LVEL    =     F    velocity operator in full k-point grid
   LINTERFAST=   F  fast interpolation
   KINTER  =     0    interpolate to denser k-point grid
   CSHIFT  =0.1000    complex shift for real part using Kramers Kronig
   OMEGAMAX=  -1.0    maximum frequency
   DEG_THRESHOLD= 0.2000000E-02 threshold for treating states as degnerate
   RTIME   =   -0.100 relaxation time in fs
  (WPLASMAI=    0.000 imaginary part of plasma frequency in eV, 0.658/RTIME)
   DFIELD  = 0.0000000 0.0000000 0.0000000 field for delta impulse in time
 
 Orbital magnetization related:
   ORBITALMAG=     F  switch on orbital magnetization
   LCHIMAG   =     F  perturbation theory with respect to B field
   DQ        =  0.001000  dq finite difference perturbation B field
   LLRAUG    =     F  two centre corrections for induced B field



--------------------------------------------------------------------------------------------------------


 conjugate gradient relaxation of ions
 charge density and potential will be updated during run
 non-spin polarized calculation
 RMM-DIIS sequential band-by-band and
  variant of blocked Davidson during initial phase
 perform sub-space diagonalisation
    before iterative eigenvector-optimisation
 modified Broyden-mixing scheme, WC =      100.0
 initial mixing is a Kerker type mixing with AMIX =  0.4000 and BMIX =      1.0000
 Hartree-type preconditioning will be used
 using additional bands           74
 reciprocal scheme for non local part
 use partial core corrections
 calculate Harris-corrections to forces 
   (improved forces if not selfconsistent)
 use gradient corrections 
 use of overlap-Matrix (Vanderbilt PP)
 Gauss-broadening in eV      SIGMA  =   0.10


--------------------------------------------------------------------------------------------------------


  energy-cutoff  :      400.00
  volume of cell :      659.30
      direct lattice vectors                 reciprocal lattice vectors
     8.678136956  0.016206521  0.002174099     0.115232763 -0.000292256 -0.000442822
     0.022017661  8.715823250 -0.022804100    -0.000214394  0.114735694  0.000495966
     0.033402091 -0.037617678  8.716832431    -0.000029302  0.000300233  0.114721980

  length of vectors
     8.678152361  8.715880892  8.716977597     0.115233984  0.114736966  0.114722376


 
 k-points in units of 2pi/SCALE and weight: HECN                                    
   0.00000000  0.00000000  0.00000000       0.037
   0.03841092 -0.00009742 -0.00014761       0.074
  -0.00007146  0.03824523  0.00016532       0.074
   0.03833946  0.03814781  0.00001771       0.074
  -0.03848239  0.03834265  0.00031293       0.074
  -0.00000977  0.00010008  0.03824066       0.074
   0.03840115  0.00000266  0.03809305       0.074
  -0.03842069  0.00019750  0.03838827       0.074
  -0.00008123  0.03834531  0.03840598       0.074
   0.03832969  0.03824789  0.03825837       0.074
  -0.03849215  0.03844273  0.03855359       0.074
   0.00006170 -0.03814515  0.03807534       0.074
   0.03847262 -0.03824257  0.03792773       0.074
  -0.03834922 -0.03804773  0.03822295       0.074
 
 k-points in reciprocal lattice and weights: HECN                                    
   0.00000000  0.00000000  0.00000000       0.037
   0.33333333  0.00000000  0.00000000       0.074
   0.00000000  0.33333333 -0.00000000       0.074
   0.33333333  0.33333333 -0.00000000       0.074
  -0.33333333  0.33333333  0.00000000       0.074
   0.00000000  0.00000000  0.33333333       0.074
   0.33333333  0.00000000  0.33333333       0.074
  -0.33333333 -0.00000000  0.33333333       0.074
  -0.00000000  0.33333333  0.33333333       0.074
   0.33333333  0.33333333  0.33333333       0.074
  -0.33333333  0.33333333  0.33333333       0.074
  -0.00000000 -0.33333333  0.33333333       0.074
   0.33333333 -0.33333333  0.33333333       0.074
  -0.33333333 -0.33333333  0.33333333       0.074
 
 position of ions in fractional coordinates (direct lattice) 
   0.99919431  0.00247634  0.99280274
   0.26784062  0.00165542  0.24582683
   0.24244419  0.49389228  0.24697457
   0.49791258  0.50117442  0.00061183
   0.51149627  0.24376999  0.74306382
   0.99973115  0.50013721  0.50485283
   0.49200938  0.75660242  0.75778506
   0.98683862  0.23299902  0.26709739
   0.76590181  0.74090698  0.99960092
   0.00272709  0.24905357  0.73301410
   0.76116679  0.24263936  0.48353577
   0.00232591  0.74034593  0.75693472
   0.24550110  0.48310167  0.75186972
   0.24509920  0.24806118  0.99116979
   0.50949137  0.25661234  0.25220646
   0.73716269  0.99727754  0.24636318
   0.75691355  0.25594068  0.00338236
   0.24249134  0.74821973  0.99535827
   0.25161609  0.24847287  0.50309151
   0.24795159  0.75317032  0.50609290
   0.24920105  0.24696772  0.24869631
   0.25369375  0.00310549  0.99314328
   0.00175205  0.25351941  0.00116624
   0.75196840  0.24618112  0.24805367
   0.74649612  0.99790677  0.00185776
   0.50881015  0.00312446  0.23825602
   0.99585094  0.49174956  0.24701594
   0.49917217  0.75882842  0.00654222
   0.99114058  0.00688398  0.74809811
   0.76145107  0.24620704  0.75044574
   0.74094497  0.01127630  0.49752918
   0.50175895  0.24297407  0.49296390
   0.51646046  0.00031802  0.75082150
   0.99637525  0.00419433  0.25143786
   0.50444154  0.24076279  0.00175039
   0.25463040  0.74895132  0.24883523
   0.24055950  0.49869415  0.99139491
   0.99949672  0.74487479  0.99573791
   0.74144220  0.75297784  0.24381899
   0.76170066  0.50250363  0.00082811
   0.50021574  0.49818307  0.25225444
   0.24577676  0.24870995  0.74794573
   0.25575292  0.00143010  0.50859436
   0.99971133  0.24909422  0.50120896
   0.23660560  0.75597250  0.75254986
   0.25130699  0.49785846  0.50510460
   0.99953867  0.75379412  0.50702132
   0.00601505  0.49711587  0.75861179
   0.75487538  0.75634724  0.75837367
   0.74667736  0.49548357  0.49912921
   0.49293519  0.76164363  0.49471046
   0.49696473  0.49984030  0.74779799
   0.52178506  0.01195078  0.97942341
   0.00274210  0.51242845  0.98270413
   0.49526373  0.73405416  0.25702757
   0.22982417  0.01858153  0.73955431
   0.48410448  0.98700568  0.53013764
   0.74273916  0.97446538  0.78198923
   0.00296389  0.76023664  0.24985252
   0.74997840  0.50435037  0.25118867
   0.00499303  0.00418427  0.50586782
   0.49637533  0.51059004  0.49996345
   0.75397772  0.50754734  0.75231181
   0.74571496  0.76062165  0.49664915
 
 position of ions in cartesian coordinates  (Angst):
   8.70436125  0.00042989  8.65621100
   2.33260519  0.00952165  2.14337586
   2.12308772  4.29931638  2.14210029
   4.33200871  4.37619407 -0.00501313
   4.46902181  2.10499339  6.47271591
   8.70367884  4.35631828  4.39148588
   4.31169501  6.57388058  6.58930144
   8.57797239  2.03672392  2.32507533
   6.69630258  6.43242422  8.69812313
   0.05363388  2.14317683  6.38388759
   6.62700314  2.10894813  4.21102198
   0.06176850  6.42428788  6.58119522
   2.16624293  4.18632388  6.54343944
   2.16557333  2.12874410  8.63473706
   4.43551014  2.23535747  2.19369731
   6.42738557  8.69477399  2.12636720
   6.57434764  2.24287344  0.02529255
   2.15409419  6.48783777  8.65983593
   2.20583403  2.15079835  4.38024523
   2.18524551  6.54947979  4.39489072
   2.17634546  2.14721034  2.16275400
   2.23483058 -0.00618136  8.65754431
   0.02082537  2.20961487  0.00438846
   6.53939061  2.14852673  2.15826315
   6.50022916  8.70960723 -0.00493966
   4.42355121  0.02651560  2.07787279
   8.66120885  4.29284932  2.14414773
   4.34881059  6.62165810  0.04080832
   8.62639329  0.04792080  6.52304375
   6.63846405  2.13000751  6.53755067
   6.44688868  0.09157444  4.33823222
   4.37614865  2.10730663  4.29263376
   4.50700058 -0.01710236  6.54590081
   8.65517174  0.04324631  2.19381230
   4.38297230  2.10655528  0.01086420
   2.23451929  6.52249338  2.15252943
   2.13170300  4.31313471  8.63097400
   8.72342959  6.47093804  8.66486734
   6.45905987  6.56566605  2.10977028
   6.62123424  4.39204620 -0.00258466
   4.36033538  4.34069311  2.18858656
   2.16334338  2.14355919  6.51458029
   2.23647845 -0.00252277  4.43385525
   8.69785777  2.16840869  4.36544763
   2.09507728  6.56444805  6.54312613
   2.20870975  4.32431830  4.39210529
   8.70766581  6.56706236  4.40460335
   0.08848401  4.30433428  6.60136866
   6.59289616  6.57589447  6.59500958
   6.50734975  4.31187215  4.34114994
   4.31105307  6.62773015  4.29601128
   4.34871133  4.33644334  6.50811184
   4.56110014  0.07577353  8.53833162
   0.06790317  4.42931322  8.55438775
   4.32271386  6.39624403  2.22480357
   2.01955743  0.13785767  6.44664690
   4.24056424  8.59047016  4.59966570
   6.49316764  8.47588860  6.79586205
   0.05080531  6.61673732  2.16059245
   6.52791010  4.39853407  2.17969878
   0.06031935  0.01752074  4.40948050
   4.33555493  4.43944959  4.34753324
   6.57942574  4.40761203  6.54784101
   6.50475278  6.62284650  4.31348341
 


--------------------------------------------------------------------------------------------------------


 k-point  1 :   0.0000 0.0000 0.0000  plane waves:   11951
 k-point  2 :   0.3333 0.0000 0.0000  plane waves:   11968
 k-point  3 :   0.0000 0.3333-0.0000  plane waves:   11962
 k-point  4 :   0.3333 0.3333-0.0000  plane waves:   11976
 k-point  5 :  -0.3333 0.3333 0.0000  plane waves:   12008
 k-point  6 :   0.0000 0.0000 0.3333  plane waves:   11963
 k-point  7 :   0.3333 0.0000 0.3333  plane waves:   11976
 k-point  8 :  -0.3333-0.0000 0.3333  plane waves:   12004
 k-point  9 :  -0.0000 0.3333 0.3333  plane waves:   11987
 k-point 10 :   0.3333 0.3333 0.3333  plane waves:   11974
 k-point 11 :  -0.3333 0.3333 0.3333  plane waves:   11989
 k-point 12 :  -0.0000-0.3333 0.3333  plane waves:   11972
 k-point 13 :   0.3333-0.3333 0.3333  plane waves:   11974
 k-point 14 :  -0.3333-0.3333 0.3333  plane waves:   11975

 maximum and minimum number of plane-waves per node :     12008    11951

 maximum number of plane-waves:     12008
 maximum index in each direction: 
   IXMAX=   14   IYMAX=   14   IZMAX=   14
   IXMIN=  -14   IYMIN=  -14   IZMIN=  -14


 serial   3D FFT for wavefunctions
 parallel 3D FFT for charge:
    minimum data exchange during FFTs selected (reduces bandwidth)


 total amount of memory used by VASP MPI-rank0   262462. kBytes
=======================================================================

   base      :      30000. kBytes
   nonl-proj :     181995. kBytes
   fftplans  :       1628. kBytes
   grid      :       7503. kBytes
   one-center:        995. kBytes
   wavefun   :      40341. kBytes
 
     INWAV:  cpu time    0.0000: real time    0.0000
 Broyden mixing: mesh for mixing (old mesh)
   NGX = 29   NGY = 29   NGZ = 29
  (NGX  = 84   NGY  = 96   NGZ  = 96)
  gives a total of  24389 points

 initial charge density was supplied:
 charge density of overlapping atoms calculated
 number of electron     523.0000000 magnetization 
 keeping initial charge density in first step


--------------------------------------------------------------------------------------------------------


 Maximum index for augmentation-charges          523 (set IRDMAX)


--------------------------------------------------------------------------------------------------------


 First call to EWALD:  gamma=   0.204
 Maximum number of real-space cells 3x 3x 3
 Maximum number of reciprocal cells 3x 3x 3

    FEWALD:  cpu time    0.0031: real time    0.0031


--------------------------------------- Iteration      1(   1)  ---------------------------------------


    POTLOK:  cpu time    0.0275: real time    0.0347
    SETDIJ:  cpu time    0.0070: real time    0.0074
     EDDAV:  cpu time   20.0608: real time   20.1539
       DOS:  cpu time    0.0012: real time    0.0013
    --------------------------------------------
      LOOP:  cpu time   20.0966: real time   20.1973

 eigenvalue-minimisations  :  9600
 total energy-change (2. order) : 0.7420444E+04  (-0.2141296E+05)
 number of electron     523.0000000 magnetization 
 augmentation part      523.0000000 magnetization 

 Free energy of the ion-electron system (eV)
  ---------------------------------------------------
  alpha Z        PSCENC =      4142.37212360
  Ewald energy   TEWEN  =    -45176.62073063
  -Hartree energ DENC   =    -10512.63224793
  -exchange      EXHF   =         0.00000000
  -V(xc)+E(xc)   XCENC  =      2221.36082582
  PAW double counting   =     35001.64816172   -35081.79203647
  entropy T*S    EENTRO =        -0.09228654
  eigenvalues    EBANDS =      2538.44904299
  atomic energy  EATOM  =     54287.75104140
  Solvation  Ediel_sol  =         0.00000000
  ---------------------------------------------------
  free energy    TOTEN  =      7420.44389397 eV

  energy without entropy =     7420.53618051  energy(sigma->0) =     7420.49003724


--------------------------------------------------------------------------------------------------------




--------------------------------------- Iteration      1(   2)  ---------------------------------------


     EDDAV:  cpu time   20.4974: real time   20.5242
       DOS:  cpu time    0.0013: real time    0.0013
    --------------------------------------------
      LOOP:  cpu time   20.4988: real time   20.5255

 eigenvalue-minimisations  :  9408
 total energy-change (2. order) :-0.6889223E+04  (-0.6641970E+04)
 number of electron     523.0000000 magnetization 
 augmentation part      523.0000000 magnetization 

 Free energy of the ion-electron system (eV)
  ---------------------------------------------------
  alpha Z        PSCENC =      4142.37212360
  Ewald energy   TEWEN  =    -45176.62073063
  -Hartree energ DENC   =    -10512.63224793
  -exchange      EXHF   =         0.00000000
  -V(xc)+E(xc)   XCENC  =      2221.36082582
  PAW double counting   =     35001.64816172   -35081.79203647
  entropy T*S    EENTRO =        -0.14937660
  eigenvalues    EBANDS =     -4350.71645143
  atomic energy  EATOM  =     54287.75104140
  Solvation  Ediel_sol  =         0.00000000
  ---------------------------------------------------
  free energy    TOTEN  =       531.22130948 eV

  energy without entropy =      531.37068608  energy(sigma->0) =      531.29599778


--------------------------------------------------------------------------------------------------------




--------------------------------------- Iteration      1(   3)  ---------------------------------------


     EDDAV:  cpu time   28.8660: real time   28.8850
       DOS:  cpu time    0.0012: real time    0.0012
    --------------------------------------------
      LOOP:  cpu time   28.8672: real time   28.8861

 eigenvalue-minimisations  : 14328
 total energy-change (2. order) :-0.1160433E+04  (-0.1066686E+04)
 number of electron     523.0000000 magnetization 
 augmentation part      523.0000000 magnetization 

 Free energy of the ion-electron system (eV)
  ---------------------------------------------------
  alpha Z        PSCENC =      4142.37212360
  Ewald energy   TEWEN  =    -45176.62073063
  -Hartree energ DENC   =    -10512.63224793
  -exchange      EXHF   =         0.00000000
  -V(xc)+E(xc)   XCENC  =      2221.36082582
  PAW double counting   =     35001.64816172   -35081.79203647
  entropy T*S    EENTRO =        -0.08640008
  eigenvalues    EBANDS =     -5511.21242466
  atomic energy  EATOM  =     54287.75104140
  Solvation  Ediel_sol  =         0.00000000
  ---------------------------------------------------
  free energy    TOTEN  =      -629.21168722 eV

  energy without entropy =     -629.12528714  energy(sigma->0) =     -629.16848718


--------------------------------------------------------------------------------------------------------




--------------------------------------- Iteration      1(   4)  ---------------------------------------


     EDDAV:  cpu time   31.3315: real time   32.2364
       DOS:  cpu time    0.0012: real time    0.0012
    --------------------------------------------
      LOOP:  cpu time   31.3327: real time   32.2376

 eigenvalue-minimisations  : 16248
 total energy-change (2. order) :-0.1500514E+03  (-0.1455003E+03)
 number of electron     523.0000000 magnetization 
 augmentation part      523.0000000 magnetization 

 Free energy of the ion-electron system (eV)
  ---------------------------------------------------
  alpha Z        PSCENC =      4142.37212360
  Ewald energy   TEWEN  =    -45176.62073063
  -Hartree energ DENC   =    -10512.63224793
  -exchange      EXHF   =         0.00000000
  -V(xc)+E(xc)   XCENC  =      2221.36082582
  PAW double counting   =     35001.64816172   -35081.79203647
  entropy T*S    EENTRO =        -0.09466740
  eigenvalues    EBANDS =     -5661.25553615
  atomic energy  EATOM  =     54287.75104140
  Solvation  Ediel_sol  =         0.00000000
  ---------------------------------------------------
  free energy    TOTEN  =      -779.26306603 eV

  energy without entropy =     -779.16839863  energy(sigma->0) =     -779.21573233


--------------------------------------------------------------------------------------------------------




--------------------------------------- Iteration      1(   5)  ---------------------------------------


     EDDAV:  cpu time   35.9033: real time   36.3674
       DOS:  cpu time    0.0013: real time    0.0013
    CHARGE:  cpu time    0.2150: real time    0.2184
    MIXING:  cpu time    0.0009: real time    0.0009
    --------------------------------------------
      LOOP:  cpu time   36.1204: real time   36.5881

 eigenvalue-minimisations  : 18816
 total energy-change (2. order) :-0.1831301E+02  (-0.1801820E+02)
 number of electron     522.9999945 magnetization 
 augmentation part      107.8837813 magnetization 

 Broyden mixing:
  rms(total) = 0.81182E+01    rms(broyden)= 0.81169E+01
  rms(prec ) = 0.12838E+02
  weight for this iteration     100.00

 Free energy of the ion-electron system (eV)
  ---------------------------------------------------
  alpha Z        PSCENC =      4142.37212360
  Ewald energy   TEWEN  =    -45176.62073063
  -Hartree energ DENC   =    -10512.63224793
  -exchange      EXHF   =         0.00000000
  -V(xc)+E(xc)   XCENC  =      2221.36082582
  PAW double counting   =     35001.64816172   -35081.79203647
  entropy T*S    EENTRO =        -0.10208115
  eigenvalues    EBANDS =     -5679.56113639
  atomic energy  EATOM  =     54287.75104140
  Solvation  Ediel_sol  =         0.00000000
  ---------------------------------------------------
  free energy    TOTEN  =      -797.57608002 eV

  energy without entropy =     -797.47399887  energy(sigma->0) =     -797.52503945


--------------------------------------------------------------------------------------------------------




--------------------------------------- Iteration      1(   6)  ---------------------------------------


    POTLOK:  cpu time    0.0221: real time    0.0258
    SETDIJ:  cpu time    0.0067: real time    0.0068
    EDDIAG:  cpu time    1.7798: real time    1.8163
  RMM-DIIS:  cpu time   16.6796: real time   17.2414
    ORTHCH:  cpu time    0.4569: real time    0.4632
       DOS:  cpu time    0.0011: real time    0.0011
    CHARGE:  cpu time    0.2184: real time    0.2219
    MIXING:  cpu time    0.0010: real time    0.0016
    --------------------------------------------
      LOOP:  cpu time   19.1656: real time   19.7779

 eigenvalue-minimisations  : 12404
 total energy-change (2. order) :-0.7782281E+02  (-0.2161302E+03)
 number of electron     523.0000108 magnetization 
 augmentation part      152.7219937 magnetization 

 Broyden mixing:
  rms(total) = 0.11983E+02    rms(broyden)= 0.11982E+02
  rms(prec ) = 0.19727E+02
  weight for this iteration     100.00

 eigenvalues of (default mixing * dielectric matrix)
  average eigenvalue GAMMA=   0.3886
  0.3886

 Free energy of the ion-electron system (eV)
  ---------------------------------------------------
  alpha Z        PSCENC =      4142.37212360
  Ewald energy   TEWEN  =    -45176.62073063
  -Hartree energ DENC   =     -9410.26196792
  -exchange      EXHF   =         0.00000000
  -V(xc)+E(xc)   XCENC  =      2192.21523195
  PAW double counting   =     33345.55863191   -33447.11430576
  entropy T*S    EENTRO =        -0.16038549
  eigenvalues    EBANDS =     -6809.13852942
  atomic energy  EATOM  =     54287.75104140
  Solvation  Ediel_sol  =         0.00000000
  ---------------------------------------------------
  free energy    TOTEN  =      -875.39889037 eV

  energy without entropy =     -875.23850488  energy(sigma->0) =     -875.31869762


--------------------------------------------------------------------------------------------------------




--------------------------------------- Iteration      1(   7)  ---------------------------------------


    POTLOK:  cpu time    0.0217: real time    0.0242
    SETDIJ:  cpu time    0.0081: real time    0.0081
    EDDIAG:  cpu time    1.8175: real time    1.8541
  RMM-DIIS:  cpu time   19.4585: real time   20.1014
    ORTHCH:  cpu time    0.4591: real time    0.4653
       DOS:  cpu time    0.0011: real time    0.0011
    CHARGE:  cpu time    0.2185: real time    0.2220
    MIXING:  cpu time    0.0009: real time    0.0012
    --------------------------------------------
      LOOP:  cpu time   21.9854: real time   22.6775

 eigenvalue-minimisations  : 14515
 total energy-change (2. order) : 0.2170510E+03  (-0.2507415E+02)
 number of electron     523.0000004 magnetization 
 augmentation part      119.5812721 magnetization 

 Broyden mixing:
  rms(total) = 0.52565E+01    rms(broyden)= 0.52548E+01
  rms(prec ) = 0.91820E+01
  weight for this iteration     100.00

 eigenvalues of (default mixing * dielectric matrix)
  average eigenvalue GAMMA=   0.4604
  0.6570  0.2638

 Free energy of the ion-electron system (eV)
  ---------------------------------------------------
  alpha Z        PSCENC =      4142.37212360
  Ewald energy   TEWEN  =    -45176.62073063
  -Hartree energ DENC   =     -9893.28830805
  -exchange      EXHF   =         0.00000000
  -V(xc)+E(xc)   XCENC  =      2209.01368244
  PAW double counting   =     34645.11321700   -34809.30434811
  entropy T*S    EENTRO =        -0.16125510
  eigenvalues    EBANDS =     -6063.22327328
  atomic energy  EATOM  =     54287.75104140
  Solvation  Ediel_sol  =         0.00000000
  ---------------------------------------------------
  free energy    TOTEN  =      -658.34785073 eV

  energy without entropy =     -658.18659563  energy(sigma->0) =     -658.26722318


--------------------------------------------------------------------------------------------------------




--------------------------------------- Iteration      1(   8)  ---------------------------------------


    POTLOK:  cpu time    0.0249: real time    0.0253
    SETDIJ:  cpu time    0.0068: real time    0.0068
    EDDIAG:  cpu time    1.8285: real time    1.8293
  RMM-DIIS:  cpu time   20.3069: real time   20.3192
    ORTHCH:  cpu time    0.4627: real time    0.4629
       DOS:  cpu time    0.0011: real time    0.0011
    CHARGE:  cpu time    0.2228: real time    0.2229
    MIXING:  cpu time    0.0010: real time    0.0010
    --------------------------------------------
      LOOP:  cpu time   22.8547: real time   22.8685

 eigenvalue-minimisations  : 14706
 total energy-change (2. order) : 0.1593861E+02  (-0.6182307E+01)
 number of electron     522.9999991 magnetization 
 augmentation part      122.3152468 magnetization 

 Broyden mixing:
  rms(total) = 0.29909E+01    rms(broyden)= 0.29860E+01
  rms(prec ) = 0.53423E+01
  weight for this iteration     100.00

 eigenvalues of (default mixing * dielectric matrix)
  average eigenvalue GAMMA=   0.4470
  0.7610  0.3724  0.2077

 Free energy of the ion-electron system (eV)
  ---------------------------------------------------
  alpha Z        PSCENC =      4142.37212360
  Ewald energy   TEWEN  =    -45176.62073063
  -Hartree energ DENC   =     -9905.12448263
  -exchange      EXHF   =         0.00000000
  -V(xc)+E(xc)   XCENC  =      2208.75575041
  PAW double counting   =     35048.18499044   -35209.26976360
  entropy T*S    EENTRO =        -0.14359035
  eigenvalues    EBANDS =     -6038.31458387
  atomic energy  EATOM  =     54287.75104140
  Solvation  Ediel_sol  =         0.00000000
  ---------------------------------------------------
  free energy    TOTEN  =      -642.40924523 eV

  energy without entropy =     -642.26565488  energy(sigma->0) =     -642.33745005


--------------------------------------------------------------------------------------------------------




--------------------------------------- Iteration      1(   9)  ---------------------------------------


    POTLOK:  cpu time    0.0216: real time    0.0249
    SETDIJ:  cpu time    0.0067: real time    0.0068
    EDDIAG:  cpu time    1.8418: real time    1.8581
  RMM-DIIS:  cpu time   20.3158: real time   20.3935
    ORTHCH:  cpu time    0.4622: real time    0.4624
       DOS:  cpu time    0.0011: real time    0.0011
    CHARGE:  cpu time    0.2172: real time    0.2173
    MIXING:  cpu time    0.0009: real time    0.0009
    --------------------------------------------
      LOOP:  cpu time   22.8673: real time   22.9648

 eigenvalue-minimisations  : 14823
 total energy-change (2. order) : 0.8316834E+01  (-0.2241257E+01)
 number of electron     523.0000013 magnetization 
 augmentation part      121.3008617 magnetization 

 Broyden mixing:
  rms(total) = 0.18015E+01    rms(broyden)= 0.17998E+01
  rms(prec ) = 0.29860E+01
  weight for this iteration     100.00

 eigenvalues of (default mixing * dielectric matrix)
  average eigenvalue GAMMA=   0.3908
  0.7297  0.3277  0.3019  0.2040

 Free energy of the ion-electron system (eV)
  ---------------------------------------------------
  alpha Z        PSCENC =      4142.37212360
  Ewald energy   TEWEN  =    -45176.62073063
  -Hartree energ DENC   =     -9840.86097757
  -exchange      EXHF   =         0.00000000
  -V(xc)+E(xc)   XCENC  =      2205.82964198
  PAW double counting   =     35209.15714917   -35369.97149534
  entropy T*S    EENTRO =        -0.13514230
  eigenvalues    EBANDS =     -6091.61402148
  atomic energy  EATOM  =     54287.75104140
  Solvation  Ediel_sol  =         0.00000000
  ---------------------------------------------------
  free energy    TOTEN  =      -634.09241117 eV

  energy without entropy =     -633.95726887  energy(sigma->0) =     -634.02484002


--------------------------------------------------------------------------------------------------------




--------------------------------------- Iteration      1(  10)  ---------------------------------------


    POTLOK:  cpu time    0.0217: real time    0.0250
    SETDIJ:  cpu time    0.0068: real time    0.0068
    EDDIAG:  cpu time    1.8238: real time    1.8246
  RMM-DIIS:  cpu time   20.9501: real time   20.9701
    ORTHCH:  cpu time    0.4643: real time    0.4649
       DOS:  cpu time    0.0011: real time    0.0011
    CHARGE:  cpu time    0.2166: real time    0.2166
    MIXING:  cpu time    0.0010: real time    0.0010
    --------------------------------------------
      LOOP:  cpu time   23.4854: real time   23.5100

 eigenvalue-minimisations  : 15134
 total energy-change (2. order) : 0.9178994E+00  (-0.9895795E+00)
 number of electron     523.0000012 magnetization 
 augmentation part      121.4356959 magnetization 

 Broyden mixing:
  rms(total) = 0.14794E+01    rms(broyden)= 0.14778E+01
  rms(prec ) = 0.23992E+01
  weight for this iteration     100.00

 eigenvalues of (default mixing * dielectric matrix)
  average eigenvalue GAMMA=   0.4177
  0.6463  0.6463  0.4503  0.2182  0.1272

 Free energy of the ion-electron system (eV)
  ---------------------------------------------------
  alpha Z        PSCENC =      4142.37212360
  Ewald energy   TEWEN  =    -45176.62073063
  -Hartree energ DENC   =     -9827.30762153
  -exchange      EXHF   =         0.00000000
  -V(xc)+E(xc)   XCENC  =      2204.90327094
  PAW double counting   =     35293.21793923   -35451.61598297
  entropy T*S    EENTRO =        -0.13267043
  eigenvalues    EBANDS =     -6105.74188137
  atomic energy  EATOM  =     54287.75104140
  Solvation  Ediel_sol  =         0.00000000
  ---------------------------------------------------
  free energy    TOTEN  =      -633.17451177 eV

  energy without entropy =     -633.04184134  energy(sigma->0) =     -633.10817655


--------------------------------------------------------------------------------------------------------




--------------------------------------- Iteration      1(  11)  ---------------------------------------


    POTLOK:  cpu time    0.0248: real time    0.0250
    SETDIJ:  cpu time    0.0068: real time    0.0068
    EDDIAG:  cpu time    1.8511: real time    1.8542
  RMM-DIIS:  cpu time   20.5541: real time   20.5747
    ORTHCH:  cpu time    0.4575: real time    0.4578
       DOS:  cpu time    0.0011: real time    0.0011
    CHARGE:  cpu time    0.2149: real time    0.2149
    MIXING:  cpu time    0.0010: real time    0.0010
    --------------------------------------------
      LOOP:  cpu time   23.1114: real time   23.1355

 eigenvalue-minimisations  : 14826
 total energy-change (2. order) : 0.5198454E+00  (-0.4892911E+00)
 number of electron     523.0000010 magnetization 
 augmentation part      121.4726616 magnetization 

 Broyden mixing:
  rms(total) = 0.12207E+01    rms(broyden)= 0.12196E+01
  rms(prec ) = 0.19011E+01
  weight for this iteration     100.00

 eigenvalues of (default mixing * dielectric matrix)
  average eigenvalue GAMMA=   0.4721
  0.9119  0.9119  0.4437  0.2532  0.1974  0.1146

 Free energy of the ion-electron system (eV)
  ---------------------------------------------------
  alpha Z        PSCENC =      4142.37212360
  Ewald energy   TEWEN  =    -45176.62073063
  -Hartree energ DENC   =     -9811.55881202
  -exchange      EXHF   =         0.00000000
  -V(xc)+E(xc)   XCENC  =      2203.76145964
  PAW double counting   =     35415.90154807   -35569.89372360
  entropy T*S    EENTRO =        -0.13063382
  eigenvalues    EBANDS =     -6124.23693905
  atomic energy  EATOM  =     54287.75104140
  Solvation  Ediel_sol  =         0.00000000
  ---------------------------------------------------
  free energy    TOTEN  =      -632.65466641 eV

  energy without entropy =     -632.52403260  energy(sigma->0) =     -632.58934951


--------------------------------------------------------------------------------------------------------




--------------------------------------- Iteration      1(  12)  ---------------------------------------


    POTLOK:  cpu time    0.0218: real time    0.0256
    SETDIJ:  cpu time    0.0066: real time    0.0067
    EDDIAG:  cpu time    1.8504: real time    1.9002
  RMM-DIIS:  cpu time   20.1906: real time   20.6871
    ORTHCH:  cpu time    0.4605: real time    0.4609
       DOS:  cpu time    0.0012: real time    0.0012
    CHARGE:  cpu time    0.2160: real time    0.2160
    MIXING:  cpu time    0.0011: real time    0.0011
    --------------------------------------------
      LOOP:  cpu time   22.7483: real time   23.2989

 eigenvalue-minimisations  : 14928
 total energy-change (2. order) : 0.3779651E+00  (-0.3431774E+00)
 number of electron     523.0000015 magnetization 
 augmentation part      121.5179472 magnetization 

 Broyden mixing:
  rms(total) = 0.10240E+01    rms(broyden)= 0.10231E+01
  rms(prec ) = 0.15860E+01
  weight for this iteration     100.00

 eigenvalues of (default mixing * dielectric matrix)
  average eigenvalue GAMMA=   0.5260
  1.1928  1.1928  0.4581  0.3285  0.2234  0.1776  0.1086

 Free energy of the ion-electron system (eV)
  ---------------------------------------------------
  alpha Z        PSCENC =      4142.37212360
  Ewald energy   TEWEN  =    -45176.62073063
  -Hartree energ DENC   =     -9796.28045213
  -exchange      EXHF   =         0.00000000
  -V(xc)+E(xc)   XCENC  =      2202.56415469
  PAW double counting   =     35580.63977358   -35728.23045660
  entropy T*S    EENTRO =        -0.14165076
  eigenvalues    EBANDS =     -6144.33050452
  atomic energy  EATOM  =     54287.75104140
  Solvation  Ediel_sol  =         0.00000000
  ---------------------------------------------------
  free energy    TOTEN  =      -632.27670136 eV

  energy without entropy =     -632.13505060  energy(sigma->0) =     -632.20587598


--------------------------------------------------------------------------------------------------------




--------------------------------------- Iteration      1(  13)  ---------------------------------------


    POTLOK:  cpu time    0.0224: real time    0.0251
    SETDIJ:  cpu time    0.0067: real time    0.0067
    EDDIAG:  cpu time    1.8242: real time    1.8254
  RMM-DIIS:  cpu time   20.5243: real time   20.5487
    ORTHCH:  cpu time    0.4574: real time    0.4577
       DOS:  cpu time    0.0011: real time    0.0011
    CHARGE:  cpu time    0.2157: real time    0.2158
    MIXING:  cpu time    0.0013: real time    0.0013
    --------------------------------------------
      LOOP:  cpu time   23.0532: real time   23.0818

 eigenvalue-minimisations  : 14720
 total energy-change (2. order) :-0.2322745E+00  (-0.2421665E+00)
 number of electron     523.0000007 magnetization 
 augmentation part      121.5325773 magnetization 

 Broyden mixing:
  rms(total) = 0.12445E+01    rms(broyden)= 0.12432E+01
  rms(prec ) = 0.20935E+01
  weight for this iteration     100.00

 eigenvalues of (default mixing * dielectric matrix)
  average eigenvalue GAMMA=   0.5474
  1.4116  1.4116  0.4491  0.4265  0.2547  0.1948  0.1256  0.1054

 Free energy of the ion-electron system (eV)
  ---------------------------------------------------
  alpha Z        PSCENC =      4142.37212360
  Ewald energy   TEWEN  =    -45176.62073063
  -Hartree energ DENC   =     -9784.61135331
  -exchange      EXHF   =         0.00000000
  -V(xc)+E(xc)   XCENC  =      2201.39808824
  PAW double counting   =     35811.92687325   -35949.62321660
  entropy T*S    EENTRO =        -0.12472839
  eigenvalues    EBANDS =     -6164.97707346
  atomic energy  EATOM  =     54287.75104140
  Solvation  Ediel_sol  =         0.00000000
  ---------------------------------------------------
  free energy    TOTEN  =      -632.50897589 eV

[...]
 -0.001  -0.005   0.001   0.009   0.036   0.003   0.001  -0.004  -0.022  -0.591  -0.002  -0.005   0.012   0.064   1.035  -0.010
 -0.008  -0.001  -0.005   0.011   0.015   0.025  -0.008  -0.002  -0.018  -0.002  -1.173   0.018  -0.007  -0.027  -0.010   2.862
  0.003   0.003  -0.003  -0.012  -0.009   0.007  -0.008  -0.009   0.032   0.015  -0.027  -0.009   0.018  -0.062  -0.021   0.019
  0.007  -0.004  -0.015   0.001   0.011   0.008  -0.000   0.005  -0.022  -0.004   0.020   0.008  -0.009   0.046   0.008  -0.022


------------------------ aborting loop because EDIFF is reached ----------------------------------------


    CHARGE:  cpu time    0.2115: real time    0.2116
    FORLOC:  cpu time    0.0119: real time    0.0119
    FORNL :  cpu time   13.6074: real time   13.6186
    STRESS:  cpu time   24.8922: real time   24.9643
    FORCOR:  cpu time    0.0270: real time    0.0270
    FORHAR:  cpu time    0.0157: real time    0.0157
    MIXING:  cpu time    0.0009: real time    0.0009
    OFIELD:  cpu time    0.0000: real time    0.0000

  FORCE on cell =-STRESS in cart. coord.  units (eV):
  Direction    XX          YY          ZZ          XY          YZ          ZX
  --------------------------------------------------------------------------------------
  Alpha Z  4159.19706  4159.19706  4159.19706
  Ewald  -15084.88599-15104.57411-15054.09321   -88.53544    29.25339   -34.83364
  Hartree  3222.67585  3255.93290  3299.69769   -67.45894     1.70004   -69.66084
  E(xc)   -2474.06648 -2474.54795 -2474.32986     0.00368     0.11306     0.15410
  Local    2650.00910  2617.94276  2534.98923   153.39523   -33.29799    99.43027
  n-local -1668.02128 -1665.51159 -1670.68408     2.58270     0.32673     1.19605
  augment  1184.89473  1188.81243  1186.68024     1.16007     0.60053     2.27445
  Kinetic  8010.16149  8022.57748  8018.63099    -1.11376     1.26953     1.43589
  Fock        0.00000     0.00000     0.00000     0.00000     0.00000     0.00000
  -------------------------------------------------------------------------------------
  Total      -0.03552    -0.17102     0.08806     0.03354    -0.03471    -0.00372
  in kB      -0.08666    -0.41729     0.21486     0.08183    -0.08469    -0.00907
  external pressure =       -0.10 kB  Pullay stress =        0.00 kB


 VOLUME and BASIS-vectors are now :
 -----------------------------------------------------------------------------
  energy-cutoff  :      400.00
  volume of cell :      656.64
      direct lattice vectors                 reciprocal lattice vectors
     8.667573048  0.016872324  0.002394439     0.115373261 -0.000302008 -0.000446322
     0.022686683  8.701099268 -0.023216752    -0.000223862  0.114929931  0.000502335
     0.033583114 -0.037990528  8.706867703    -0.000032325  0.000306542  0.114853328

  length of vectors
     8.667589801  8.701159817  8.707015350     0.115374519  0.114931247  0.114853742


 FORCES acting on ions
    electron-ion (+dipol)            ewald-force                    non-local-force                 convergence-correction
 -----------------------------------------------------------------------------------------------
   -.898E+02 0.889E+01 -.103E+03   0.903E+02 -.913E+01 0.104E+03   -.526E+00 0.231E+00 -.283E+00   0.113E-01 0.583E-02 -.330E-01
   0.208E+02 0.398E+02 0.196E+02   -.202E+02 -.404E+02 -.194E+02   -.547E+00 0.507E+00 -.125E+00   -.768E-02 0.136E-01 -.300E-01
   -.332E+02 -.305E+02 0.810E+01   0.335E+02 0.308E+02 -.831E+01   -.322E+00 -.276E+00 0.187E+00   0.826E-02 -.168E-01 0.142E-01
   0.549E+02 0.205E+02 0.199E+02   -.554E+02 -.213E+02 -.202E+02   0.487E+00 0.826E+00 0.299E+00   -.670E-02 -.234E-01 -.159E-01
   0.316E+02 -.118E+03 -.408E+02   -.316E+02 0.119E+03 0.415E+02   0.248E-01 -.101E+01 -.780E+00   -.203E-01 -.109E-01 0.367E-01
   -.423E+02 -.691E+02 0.643E+02   0.430E+02 0.694E+02 -.634E+02   -.689E+00 -.218E+00 -.864E+00   0.176E-01 0.421E-02 0.960E-02
   0.621E+02 0.125E+03 -.650E+01   -.631E+02 -.127E+03 0.656E+01   0.102E+01 0.109E+01 -.894E-01   -.172E-01 0.134E-01 0.255E-01
   -.203E+03 -.577E+02 0.114E+03   0.203E+03 0.566E+02 -.114E+03   -.406E+00 0.110E+01 -.488E+00   0.230E-01 -.203E-01 -.112E-01
   0.123E+03 0.473E+02 -.759E+02   -.123E+03 -.488E+02 0.765E+02   -.270E+00 0.138E+01 -.586E+00   -.266E-01 0.644E-01 -.161E-01
   0.242E+02 -.729E+02 -.681E+02   -.251E+02 0.737E+02 0.672E+02   0.897E+00 -.751E+00 0.858E+00   0.365E-01 -.610E-01 0.159E-02
   0.114E+03 -.101E+03 -.126E+03   -.114E+03 0.998E+02 0.127E+03   0.414E-01 0.936E+00 -.764E+00   0.704E-02 -.507E-02 0.129E-01
   -.543E+02 -.138E+02 0.103E+03   0.561E+02 0.124E+02 -.104E+03   -.179E+01 0.137E+01 0.448E+00   0.254E-01 0.740E-01 -.373E-01
   -.176E+03 -.870E+02 0.130E+02   0.177E+03 0.869E+02 -.131E+02   -.413E+00 0.144E+00 0.104E+00   0.264E-01 -.183E-01 -.269E-01
   -.114E+03 -.369E+02 -.109E+03   0.114E+03 0.378E+02 0.108E+03   -.257E+00 -.765E+00 0.466E+00   0.212E-01 -.565E-01 -.283E-01
   0.163E+03 -.408E+02 0.661E+02   -.163E+03 0.409E+02 -.663E+02   0.162E+00 -.200E-01 0.217E+00   -.934E-02 -.115E-01 -.406E-01
   -.151E+02 0.794E+02 -.111E+02   0.136E+02 -.806E+02 0.114E+02   0.148E+01 0.119E+01 -.228E+00   0.756E-02 0.103E-01 -.452E-01
   0.704E+02 -.757E+02 0.418E+02   -.706E+02 0.772E+02 -.422E+02   0.182E+00 -.146E+01 0.467E+00   -.280E-01 -.433E-01 -.708E-02
   -.114E+03 -.523E+01 -.851E+02   0.114E+03 0.472E+01 0.847E+02   -.545E-01 0.439E+00 0.521E+00   0.216E-01 0.653E-01 -.321E-01
   -.701E+02 -.722E+02 0.109E+03   0.700E+02 0.726E+02 -.109E+03   0.151E+00 -.405E+00 -.346E+00   -.182E-01 -.710E-02 0.289E-01
   0.570E-01 0.773E+02 0.771E+02   -.198E+00 -.777E+02 -.765E+02   0.179E+00 0.405E+00 -.619E+00   -.396E-01 0.626E-02 0.354E-01
   -.158E+02 -.127E+02 0.235E+02   0.157E+02 0.131E+02 -.240E+02   0.992E-01 -.382E+00 0.463E+00   0.396E-02 -.459E-02 -.360E-02
   -.179E+02 0.265E+02 -.489E+02   0.199E+02 -.278E+02 0.484E+02   -.201E+01 0.126E+01 0.514E+00   0.150E-01 0.292E-02 -.298E-01
   -.259E+02 0.131E+01 -.330E+02   0.262E+02 0.686E+00 0.336E+02   -.292E+00 -.197E+01 -.590E+00   0.266E-02 -.312E-01 -.735E-02
   0.348E+02 -.248E+02 0.466E+02   -.357E+02 0.240E+02 -.482E+02   0.936E+00 0.730E+00 0.161E+01   -.118E-01 -.802E-02 -.283E-01
   -.532E+02 -.154E+02 -.656E+02   0.543E+02 0.155E+02 0.688E+02   -.106E+01 -.140E+00 -.323E+01   -.153E-01 0.112E-01 -.115E-01
   0.892E+02 0.259E+02 -.170E+02   -.888E+02 -.267E+02 0.180E+02   -.446E+00 0.779E+00 -.103E+01   0.753E-04 0.176E-01 -.448E-01
   -.663E+02 -.206E+02 -.150E+02   0.670E+02 0.193E+02 0.133E+02   -.716E+00 0.127E+01 0.171E+01   0.459E-02 -.424E-02 0.240E-01
   0.419E+02 0.395E+02 -.469E+01   -.417E+02 -.380E+02 0.659E+01   -.208E+00 -.156E+01 -.187E+01   -.102E-01 0.317E-01 -.174E-01
   0.200E+02 0.376E+02 -.361E+02   -.224E+02 -.379E+02 0.360E+02   0.238E+01 0.245E+00 0.474E-01   0.180E-01 0.172E-02 0.272E-02
   0.679E+02 -.132E+02 0.245E+01   -.671E+02 0.105E+02 -.319E+01   -.837E+00 0.275E+01 0.723E+00   0.441E-02 -.135E-01 0.185E-01
   0.273E+02 0.382E+02 -.298E+02   -.289E+02 -.358E+02 0.315E+02   0.165E+01 -.234E+01 -.174E+01   0.204E-01 -.104E-01 0.973E-02
   0.176E+02 -.171E+02 -.235E+02   -.172E+02 0.156E+02 0.219E+02   -.424E+00 0.151E+01 0.155E+01   -.177E-01 0.136E-01 -.245E-02
   0.741E+02 -.886E+01 0.316E+01   -.757E+02 0.934E+01 -.334E+01   0.160E+01 -.484E+00 0.127E+00   -.604E-02 0.737E-02 0.516E-01
   -.572E+02 0.389E+02 0.377E+02   0.572E+02 -.388E+02 -.381E+02   -.566E-01 -.677E-01 0.418E+00   0.208E-02 -.376E-02 -.453E-02
   0.414E+02 -.696E+02 0.111E+02   -.417E+02 0.706E+02 -.106E+02   0.299E+00 -.941E+00 -.430E+00   -.731E-03 -.195E-01 -.146E-02
   0.178E+01 0.636E+01 0.248E+01   -.167E+01 -.639E+01 -.258E+01   -.964E-01 0.205E-01 0.110E+00   -.112E-01 0.625E-02 -.305E-02
   -.700E+02 -.850E+00 -.623E+02   0.707E+02 0.894E+00 0.627E+02   -.704E+00 -.368E-01 -.369E+00   0.281E-01 -.627E-02 -.415E-02
   -.488E+02 -.449E+02 -.536E+02   0.495E+02 0.456E+02 0.535E+02   -.615E+00 -.694E+00 0.693E-01   0.102E-01 0.404E-01 -.502E-02
   0.209E+01 0.541E+01 -.116E+02   -.261E+01 -.442E+01 0.109E+02   0.517E+00 -.998E+00 0.699E+00   0.113E-01 0.104E-01 0.652E-03
   0.649E+02 0.290E+02 -.710E+01   -.653E+02 -.296E+02 0.715E+01   0.519E+00 0.567E+00 -.496E-01   -.275E-01 -.152E-01 -.183E-02
   0.575E+02 0.706E+01 0.400E+02   -.582E+02 -.794E+01 -.407E+02   0.727E+00 0.895E+00 0.658E+00   -.311E-02 -.204E-01 -.227E-02
   -.792E+02 -.137E+02 -.188E+02   0.797E+02 0.141E+02 0.189E+02   -.546E+00 -.451E+00 -.128E+00   -.442E-02 -.250E-01 0.119E-02
   -.386E+01 0.172E+02 0.792E+02   0.380E+01 -.174E+02 -.800E+02   0.921E-01 0.215E+00 0.780E+00   -.306E-01 0.660E-02 0.249E-01
   -.397E+02 -.563E+02 0.182E+02   0.403E+02 0.572E+02 -.181E+02   -.645E+00 -.886E+00 -.188E+00   0.211E-01 -.488E-02 0.131E-01
   -.691E+02 0.817E+01 0.166E+01   0.695E+02 -.833E+01 -.157E+01   -.401E+00 0.132E+00 -.874E-01   -.300E-02 0.227E-01 0.158E-02
   0.144E+02 -.208E+02 0.469E+02   -.150E+02 0.210E+02 -.471E+02   0.600E+00 -.227E+00 0.243E+00   -.146E-02 -.497E-02 0.614E-02
   -.101E+02 0.408E+02 0.297E+02   0.109E+02 -.415E+02 -.293E+02   -.812E+00 0.701E+00 -.353E+00   0.521E-02 0.774E-02 0.925E-02
   0.639E+01 0.689E+01 0.559E+02   -.597E+01 -.724E+01 -.565E+02   -.430E+00 0.357E+00 0.635E+00   0.645E-02 -.644E-02 -.318E-01
   0.506E+02 0.503E+02 0.511E+02   -.508E+02 -.506E+02 -.511E+02   0.181E+00 0.238E+00 0.407E-01   0.236E-02 0.135E-01 -.407E-02
   -.653E+01 -.194E+02 -.188E+02   0.704E+01 0.188E+02 0.191E+02   -.502E+00 0.584E+00 -.287E+00   -.649E-03 0.916E-02 0.403E-02
   0.104E+02 0.279E+02 -.149E+02   -.113E+02 -.277E+02 0.149E+02   0.852E+00 -.206E+00 -.358E-01   -.232E-02 -.176E-01 0.157E-01
   0.646E-01 -.146E+01 -.334E+02   -.469E+00 0.168E+01 0.341E+02   0.413E+00 -.221E+00 -.717E+00   -.656E-02 -.370E-02 0.152E-02
   0.226E+03 0.831E+01 -.101E+03   -.226E+03 -.712E+01 0.102E+03   0.341E+00 -.120E+01 -.137E+01   -.191E-01 0.123E-01 -.951E-02
   -.678E+02 0.732E+02 -.150E+03   0.688E+02 -.729E+02 0.149E+03   -.982E+00 -.280E+00 0.869E+00   0.122E-01 -.238E-01 -.125E-01
   0.103E+03 -.138E+02 0.546E+02   -.104E+03 0.129E+02 -.548E+02   0.123E+01 0.867E+00 0.161E+00   -.124E-01 0.127E-01 -.297E-01
   -.135E+03 0.946E+02 -.983E+02   0.134E+03 -.941E+02 0.970E+02   0.931E+00 -.441E+00 0.128E+01   -.296E-01 0.401E-02 0.349E-01
   0.117E+02 -.127E+02 0.123E+03   -.135E+02 0.112E+02 -.122E+03   0.178E+01 0.151E+01 -.542E+00   -.218E-01 0.172E-01 0.426E-01
   -.326E+02 -.601E+02 0.142E+03   0.327E+02 0.585E+02 -.142E+03   -.132E+00 0.162E+01 -.522E+00   0.213E-01 0.182E-01 0.364E-01
   -.112E+03 0.290E+02 -.428E+02   0.112E+03 -.286E+02 0.426E+02   -.225E+00 -.464E+00 0.143E+00   0.872E-02 0.296E-01 0.182E-01
   0.279E+02 -.490E+02 0.261E+01   -.273E+02 0.494E+02 -.266E+01   -.599E+00 -.402E+00 0.492E-01   -.999E-02 -.171E-01 0.724E-02
   -.395E+02 0.123E+03 0.113E+03   0.397E+02 -.123E+03 -.113E+03   -.246E+00 -.272E-02 -.466E+00   0.386E-01 -.131E-01 0.522E-01
   0.462E+02 0.338E+01 -.481E+02   -.464E+02 -.283E+01 0.482E+02   0.234E+00 -.532E+00 -.133E+00   -.171E-01 -.201E-01 0.269E-01
   0.161E+03 0.313E+02 0.509E+02   -.161E+03 -.311E+02 -.508E+02   -.172E+00 -.218E+00 -.668E-01   -.262E-01 -.105E-01 -.144E-01
   -.229E+01 0.823E+02 -.970E+01   0.211E+01 -.816E+02 0.948E+01   0.146E+00 -.778E+00 0.201E+00   0.357E-01 -.117E-02 0.214E-01
 -----------------------------------------------------------------------------------------------
   -.172E+01 -.503E+01 0.273E+01   0.265E-12 0.313E-12 -.711E-14   0.171E+01 0.504E+01 -.273E+01   0.157E-01 -.532E-02 -.378E-02
 
 
 POSITION                                       TOTAL-FORCE (eV/Angst)
 -----------------------------------------------------------------------------------
      8.69612      0.00056      8.64707        -0.001042     -0.000980     -0.001574
      2.32754      0.00838      2.14376         0.005553     -0.000100      0.001588
      2.12111      4.29208      2.13948         0.000250      0.001079     -0.002079
      4.32736      4.36954     -0.00592         0.000152     -0.000460      0.003692
      4.46294      2.10169      6.46439         0.000012     -0.000048     -0.001085
      8.69335      4.35022      4.38686        -0.001753     -0.001264      0.000084
      4.30747      6.56287      6.58085         0.000461      0.001382     -0.000715
      8.56901      2.03562      2.32070        -0.002348     -0.001882      0.001967
      6.68852      6.42348      8.68706         0.001444     -0.001088     -0.000293
      0.05657      2.13873      6.37737         0.000389      0.000587      0.001347
      6.61958      2.10842      4.20662         0.002844      0.000738     -0.000641
      0.06271      6.41648      6.57404         0.000943     -0.002606      0.000247
      2.16474      4.18153      6.53588        -0.001498      0.000752     -0.000008
      2.16698      2.12404      8.62542         0.002787      0.000892     -0.000001
      4.42962      2.23080      2.19124         0.000171      0.000762      0.002427
      6.42106      8.68069      2.12192        -0.001552      0.000615      0.000205
      6.56528      2.23671      0.02486        -0.001485     -0.000696     -0.000797
      2.15311      6.47663      8.65090         0.000371     -0.001362      0.000137
      2.20154      2.14828      4.37460         0.000722      0.001124      0.000316
      2.18339      6.53824      4.38898        -0.001732     -0.001847     -0.000947
      2.17163      2.14315      2.15932         0.004020      0.000148      0.000676
      2.23795     -0.00831      8.64757        -0.005171      0.002435      0.002103
      0.02202      2.20750      0.00609        -0.000048     -0.005028     -0.003965
      6.53154      2.14419      2.15528         0.000441     -0.000430      0.002133
      6.49234      8.69378     -0.00393        -0.002144      0.000858     -0.002021
      4.41866      0.02392      2.08112        -0.006155      0.003319      0.003998
      8.65075      4.28389      2.13918        -0.000333      0.003189      0.003048
      4.34475      6.61388      0.04224        -0.000513     -0.006085     -0.001879
      8.61827      0.04555      6.51640         0.008103     -0.000303     -0.000171
      6.63258      2.12157      6.52920        -0.000651      0.002912      0.001695
      6.43705      0.09399      4.33760         0.002694     -0.003668     -0.003049
      4.37194      2.10326      4.28603        -0.001950      0.004379      0.002416
      4.49590     -0.01638      6.53952        -0.007796     -0.001234     -0.003035
      8.64351      0.04376      2.19130        -0.000270      0.000539      0.000441
      4.37710      2.10361      0.01121         0.000912      0.000605     -0.000195
      2.23231      6.51080      2.15019        -0.000537     -0.001198     -0.000515
      2.12967      4.30515      8.62070        -0.001402      0.000248     -0.000037
      8.71408      6.45949      8.65444         0.000297      0.000901      0.000200
      6.44983      6.55536      2.10571         0.001422     -0.001348      0.000486
      6.61320      4.38459     -0.00362         0.002350      0.001065      0.000404
      4.35508      4.33388      2.18564         0.000164     -0.001366     -0.000442
      2.16141      2.14030      6.50694         0.000854      0.000982      0.000717
      2.23363     -0.00184      4.42827        -0.001190     -0.001528     -0.002518
      8.68780      2.16635      4.36011        -0.002110     -0.002177      0.000790
      2.09355      6.55263      6.53521        -0.000130     -0.001657     -0.000151
      2.20618      4.31830      4.38729         0.001626     -0.000076     -0.000290
      8.69727      6.55677      4.40070         0.001372     -0.000561     -0.002362
      0.09036      4.29613      6.59423        -0.001702      0.001236      0.002643
      6.58579      6.56681      6.58766         0.000376     -0.000218     -0.000692
      6.49989      4.30402      4.33545         0.000747      0.002012      0.000523
      4.30508      6.61823      4.29021         0.000648     -0.001582     -0.001141
      4.34357      4.32941      6.50037         0.001749     -0.000224     -0.000864
      4.55105      0.07482      8.53028         0.000042      0.001988      0.001541
      0.06758      4.41933      8.54705        -0.000842      0.005415     -0.003208
      4.31914      6.38704      2.22258        -0.000179      0.002323      0.000038
      2.02386      0.13516      6.43782         0.006958      0.001206     -0.000755
      4.23643      8.57828      4.59115        -0.001742     -0.000907     -0.001131
      6.48521      8.46686      6.78640        -0.005847      0.001959     -0.000176
      0.04953      6.60320      2.15638        -0.000715     -0.001371     -0.000567
      6.51924      4.39054      2.17517         0.000767     -0.000998      0.000415
      0.05821      0.01732      4.40352        -0.000734      0.001160      0.001707
      4.33141      4.43120      4.34214         0.000016     -0.000722     -0.001325
      6.57247      4.40020      6.54056         0.002652     -0.000421      0.000843
      6.49653      6.61117      4.30880        -0.000733     -0.001378     -0.000200
 -----------------------------------------------------------------------------------
    total drift:                                0.008457      0.002135     -0.000263


--------------------------------------------------------------------------------------------------------



  FREE ENERGIE OF THE ION-ELECTRON SYSTEM (eV)
  ---------------------------------------------------
  free  energy   TOTEN  =      -631.84778731 eV

  energy  without entropy=     -631.71097627  energy(sigma->0) =     -631.77938179
 
 d Force = 0.4400440E-04[ 0.241E-04, 0.639E-04]  d Energy = 0.4347898E-04 0.525E-06
 d Force = 0.5368012E-01[ 0.534E-01, 0.540E-01]  d Ewald  =-0.6329977E+00 0.687E+00


--------------------------------------------------------------------------------------------------------


    POTLOK:  cpu time    0.0302: real time    0.0304


--------------------------------------------------------------------------------------------------------


 Conjugate gradient step on ions:
 trial-energy change:   -0.000043  1 .order   -0.000041   -0.000056   -0.000026
  (g-gl).g = 0.339E-03      g.g   = 0.313E-03  gl.gl    = 0.307E-03
 g(Force)  = 0.161E-03   g(Stress)= 0.152E-03 ortho     = 0.229E-04
 gamma     =   1.10313
 trial     =   0.16550
 opt step  =   0.30598  (harmonic =   0.30598) maximal distance =0.00060554
 next E    =  -631.847796   (d E  =  -0.00005)


--------------------------------------------------------------------------------------------------------


  
 reached required accuracy - stopping structural energy minimisation
     LOOP+:  cpu time  109.3990: real time  111.2597
    4ORBIT:  cpu time    0.0000: real time    0.0000

 total amount of memory used by VASP MPI-rank0   262462. kBytes
=======================================================================

   base      :      30000. kBytes
   nonl-proj :     181995. kBytes
   fftplans  :       1628. kBytes
   grid      :       7503. kBytes
   one-center:        995. kBytes
   wavefun   :      40341. kBytes
 
  
  
 General timing and accounting informations for this job:
 ========================================================
  
                  Total CPU time used (sec):     4084.966
                            User time (sec):     4049.516
                          System time (sec):       35.450
                         Elapsed time (sec):     4132.722
  
                   Maximum memory used (kb):      364240.
                   Average memory used (kb):           0.
  
                          Minor page faults:       983799
                          Major page faults:           17
                 Voluntary context switches:         5477
