HECN                                    
           1
     8.678137    0.016207    0.002174
     0.022018    8.715823   -0.022804
     0.033402   -0.037618    8.716832
   Hf   V    Ti   N    C    Cr   Nb
   7   6   7  13  19   6   6
Direct configuration=     1
   0.99919431  0.00247634  0.99280274
   0.26784062  0.00165542  0.24582683
   0.24244419  0.49389228  0.24697457
   0.49791258  0.50117442  0.00061183
   0.51149627  0.24376999  0.74306382
   0.99973115  0.50013721  0.50485283
   0.49200938  0.75660242  0.75778506
   0.98683862  0.23299902  0.26709739
   0.76590181  0.74090698  0.99960092
   0.00272709  0.24905357  0.73301410
   0.76116679  0.24263936  0.48353577
   0.00232591  0.74034593  0.75693472
   0.24550110  0.48310167  0.75186972
   0.24509920  0.24806118  0.99116979
   0.50949137  0.25661234  0.25220646
   0.73716269  0.99727754  0.24636318
   0.75691355  0.25594068  0.00338236
   0.24249134  0.74821973  0.99535827
   0.25161609  0.24847287  0.50309151
   0.24795159  0.75317032  0.50609290
   0.24920105  0.24696772  0.24869631
   0.25369375  0.00310549  0.99314328
   0.00175205  0.25351941  0.00116624
   0.75196840  0.24618112  0.24805367
   0.74649612  0.99790677  0.00185776
   0.50881015  0.00312446  0.23825602
   0.99585094  0.49174956  0.24701594
   0.49917217  0.75882842  0.00654222
   0.99114058  0.00688398  0.74809811
   0.76145107  0.24620704  0.75044574
   0.74094497  0.01127630  0.49752918
   0.50175895  0.24297407  0.49296390
   0.51646046  0.00031802  0.75082150
   0.99637525  0.00419433  0.25143786
   0.50444154  0.24076279  0.00175039
   0.25463040  0.74895132  0.24883523
   0.24055950  0.49869415  0.99139491
   0.99949672  0.74487479  0.99573791
   0.74144220  0.75297784  0.24381899
   0.76170066  0.50250363  0.00082811
   0.50021574  0.49818307  0.25225444
   0.24577676  0.24870995  0.74794573
   0.25575292  0.00143010  0.50859436
   0.99971133  0.24909422  0.50120896
   0.23660560  0.75597250  0.75254986
   0.25130699  0.49785846  0.50510460
   0.99953867  0.75379412  0.50702132
   0.00601505  0.49711587  0.75861179
   0.75487538  0.75634724  0.75837367
   0.74667736  0.49548357  0.49912921
   0.49293519  0.76164363  0.49471046
   0.49696473  0.49984030  0.74779799
   0.52178506  0.01195078  0.97942341
   0.00274210  0.51242845  0.98270413
   0.49526373  0.73405416  0.25702757
   0.22982417  0.01858153  0.73955431
   0.48410448  0.98700568  0.53013764
   0.74273916  0.97446538  0.78198923
   0.00296389  0.76023664  0.24985252
   0.74997840  0.50435037  0.25118867
   0.00499303  0.00418427  0.50586782
   0.49637533  0.51059004  0.49996345
   0.75397772  0.50754734  0.75231181
   0.74571496  0.76062165  0.49664915
HECN                                    
           1
     8.648489    0.017191    0.002369
     0.022996    8.680984   -0.023918
     0.033489   -0.038651    8.688585
   Hf   V    Ti   N    C    Cr   Nb
   7   6   7  13  19   6   6
Direct configuration=     2
   0.99922969  0.00246342  0.99281158
   0.26772229  0.00162876  0.24588738
   0.24241619  0.49388530  0.24698904
   0.49791140  0.50116438  0.00052977
   0.51149846  0.24379042  0.74302987
   0.99973864  0.50015123  0.50491366
   0.49200048  0.75652951  0.75778561
   0.98681992  0.23294451  0.26710435
   0.76595956  0.74086168  0.99958428
   0.00277650  0.24904161  0.73294977
   0.76120223  0.24257590  0.48349755
   0.00238981  0.74038106  0.75697792
   0.24548297  0.48307080  0.75189769
   0.24514801  0.24806157  0.99116403
   0.50950141  0.25665825  0.25223243
   0.73711359  0.99724870  0.24630951
   0.75689284  0.25593161  0.00338672
   0.24246015  0.74818036  0.99538171
   0.25156993  0.24849556  0.50309334
   0.24801274  0.75317984  0.50609672
   0.24913983  0.24694528  0.24867556
   0.25380730  0.00309241  0.99314571
   0.00177289  0.25351302  0.00121999
   0.75200921  0.24613790  0.24806781
   0.74642227  0.99785439  0.00188613
   0.50894756  0.00308098  0.23832110
   0.99585578  0.49170632  0.24700333
   0.49916124  0.75886601  0.00658180
   0.99116602  0.00687032  0.74814726
   0.76153110  0.24616551  0.75042208
   0.74089907  0.01140057  0.49758277
   0.50178528  0.24296169  0.49291405
   0.51645316  0.00033929  0.75089708
   0.99631990  0.00422517  0.25145598
   0.50444551  0.24073729  0.00175894
   0.25468076  0.74895332  0.24884620
   0.24051050  0.49866773  0.99135034
   0.99949383  0.74480735  0.99570237
   0.74136733  0.75300552  0.24374934
   0.76173700  0.50252305  0.00080531
   0.50023341  0.49820507  0.25225662
   0.24571807  0.24871506  0.74794023
   0.25582364  0.00144372  0.50862994
   0.99967576  0.24913553  0.50118820
   0.23657412  0.75596546  0.75254927
   0.25127952  0.49787943  0.50511773
   0.99953174  0.75378309  0.50708903
   0.00610889  0.49708186  0.75862113
   0.75490256  0.75644439  0.75844908
   0.74667190  0.49547520  0.49908838
   0.49282798  0.76172884  0.49468999
   0.49694385  0.49984687  0.74781272
   0.52176448  0.01201144  0.97941252
   0.00271650  0.51248395  0.98273053
   0.49527080  0.73401208  0.25707936
   0.22992308  0.01863153  0.73946967
   0.48405848  0.98698542  0.53010602
   0.74269218  0.97443480  0.78197447
   0.00294393  0.76025077  0.24980825
   0.74991731  0.50438284  0.25114255
   0.00496388  0.00420259  0.50577993
   0.49641625  0.51062103  0.49997867
   0.75396089  0.50759177  0.75231758
   0.74572880  0.76058942  0.49661221
HECN                                    
           1
     8.667527    0.016559    0.002244
     0.022368    8.703356   -0.023203
     0.033433   -0.037988    8.706724
   Hf   V    Ti   N    C    Cr   Nb
   7   6   7  13  19   6   6
Direct configuration=     3
   0.99920689  0.00247175  0.99280589
   0.26779854  0.00164593  0.24584837
   0.24243423  0.49388979  0.24697972
   0.49791216  0.50117086  0.00058263
   0.51149705  0.24377725  0.74305174
   0.99973382  0.50014218  0.50487447
   0.49200621  0.75657651  0.75778526
   0.98683197  0.23297965  0.26709987
   0.76592234  0.74089089  0.99959500
   0.00274466  0.24904933  0.73299122
   0.76117939  0.24261682  0.48352218
   0.00234864  0.74035841  0.75695009
   0.24549465  0.48309070  0.75187968
   0.24511656  0.24806132  0.99116774
   0.50949495  0.25662865  0.25221569
   0.73714523  0.99726729  0.24634409
   0.75690618  0.25593746  0.00338391
   0.24248025  0.74820574  0.99536661
   0.25159968  0.24848093  0.50309216
   0.24797334  0.75317371  0.50609426
   0.24917927  0.24695975  0.24868893
   0.25373414  0.00310085  0.99314415
   0.00175946  0.25351714  0.00118537
   0.75198291  0.24616577  0.24805870
   0.74646985  0.99788815  0.00186786
   0.50885902  0.00310901  0.23827918
   0.99585266  0.49173419  0.24701146
   0.49916828  0.75884177  0.00655630
   0.99114963  0.00687913  0.74811560
   0.76147953  0.24619229  0.75043733
   0.74092865  0.01132044  0.49754823
   0.50176831  0.24296968  0.49294616
   0.51645786  0.00032557  0.75084839
   0.99635556  0.00420528  0.25144431
   0.50444295  0.24075373  0.00175343
   0.25464832  0.74895203  0.24883913
   0.24054207  0.49868476  0.99137905
   0.99949569  0.74485083  0.99572527
   0.74141557  0.75298767  0.24379421
   0.76171358  0.50251054  0.00081999
   0.50022203  0.49819089  0.25225521
   0.24575589  0.24871176  0.74794377
   0.25577807  0.00143494  0.50860702
   0.99969868  0.24910889  0.50120157
   0.23659440  0.75596999  0.75254965
   0.25129722  0.49786591  0.50510927
   0.99953620  0.75379019  0.50704541
   0.00604842  0.49710379  0.75861512
   0.75488505  0.75638175  0.75840049
   0.74667542  0.49548060  0.49911468
   0.49289707  0.76167390  0.49470317
   0.49695731  0.49984263  0.74780323
   0.52177775  0.01197233  0.97941953
   0.00273300  0.51244816  0.98271352
   0.49526624  0.73403920  0.25704600
   0.22985935  0.01859931  0.73952419
   0.48408812  0.98699848  0.53012639
   0.74272245  0.97445451  0.78198398
   0.00295679  0.76024166  0.24983676
   0.74995667  0.50436190  0.25117226
   0.00498266  0.00419079  0.50583655
   0.49638989  0.51060105  0.49996886
   0.75397174  0.50756312  0.75231386
   0.74571988  0.76061020  0.49663601
HECN                                    
           1
     8.667845    0.017113    0.002552
     0.022928    8.701393   -0.023840
     0.033743   -0.038613    8.707575
   Hf   V    Ti   N    C    Cr   Nb
   7   6   7  13  19   6   6
Direct configuration=     4
   0.99923561  0.00244942  0.99284069
   0.26769907  0.00161753  0.24591414
   0.24243681  0.49389345  0.24698614
   0.49790986  0.50116945  0.00055361
   0.51146883  0.24381535  0.74301997
   0.99973153  0.50017111  0.50488897
   0.49198019  0.75651922  0.75777285
   0.98689296  0.23305631  0.26701750
   0.76588513  0.74092843  0.99959997
   0.00277105  0.24904711  0.73303368
   0.76113832  0.24262804  0.48356019
   0.00236812  0.74044967  0.75695173
   0.24552133  0.48315685  0.75187392
   0.24518528  0.24805054  0.99121036
   0.50945918  0.25662015  0.25222932
   0.73718129  0.99727085  0.24630431
   0.75688698  0.25588621  0.00337336
   0.24250793  0.74820465  0.99540523
   0.25158399  0.24851753  0.50304488
   0.24799592  0.75315892  0.50607545
   0.24910784  0.24695054  0.24866590
   0.25391137  0.00306409  0.99308989
   0.00177662  0.25361198  0.00123765
   0.75199850  0.24612136  0.24803799
   0.74642698  0.99783772  0.00195526
   0.50894627  0.00303181  0.23835550
   0.99583615  0.49166447  0.24693366
   0.49918195  0.75894105  0.00666760
   0.99113152  0.00682606  0.74813315
   0.76158158  0.24609206  0.75039853
   0.74084885  0.01142496  0.49764903
   0.50180321  0.24292533  0.49287031
   0.51637535  0.00033703  0.75089891
   0.99630473  0.00423798  0.25144439
   0.50442316  0.24074192  0.00178562
   0.25470966  0.74893464  0.24885310
   0.24049397  0.49866633  0.99134642
   0.99952044  0.74480708  0.99570441
   0.74133023  0.75303885  0.24370512
   0.76175083  0.50249877  0.00081074
   0.50020718  0.49820222  0.25224950
   0.24573293  0.24872105  0.74794337
   0.25582761  0.00144280  0.50860110
   0.99970157  0.24915783  0.50118050
   0.23657080  0.75596527  0.75254206
   0.25127773  0.49789224  0.50514337
   0.99955718  0.75378338  0.50712329
   0.00612825  0.49706079  0.75861526
   0.75491807  0.75641931  0.75843834
   0.74666936  0.49544245  0.49909648
   0.49280842  0.76174637  0.49467169
   0.49690957  0.49984219  0.74780885
   0.52164929  0.01194556  0.97948018
   0.00272030  0.51239156  0.98282973
   0.49527666  0.73409997  0.25704551
   0.23000769  0.01854323  0.73953118
   0.48412198  0.98708574  0.53001968
   0.74276140  0.97459099  0.78186980
   0.00292273  0.76013810  0.24980421
   0.74993135  0.50433376  0.25111906
   0.00491117  0.00417150  0.50576962
   0.49642181  0.51055018  0.49997482
   0.75395613  0.50752804  0.75229484
   0.74571257  0.76058038  0.49664827
HECN                                    
           1
     8.668028    0.017433    0.002730
     0.023251    8.700261   -0.024207
     0.033921   -0.038973    8.708065
   Hf   V    Ti   N    C    Cr   Nb
   7   6   7  13  19   6   6
Direct configuration=     5
   0.99925216  0.00243655  0.99286076
   0.26764173  0.00160116  0.24595206
   0.24243829  0.49389556  0.24698985
   0.49790854  0.50116864  0.00053688
   0.51145256  0.24383733  0.74300166
   0.99973021  0.50018780  0.50489732
   0.49196519  0.75648618  0.75776570
   0.98692813  0.23310052  0.26697002
   0.76586367  0.74095007  0.99960283
   0.00278626  0.24904584  0.73305816
   0.76111464  0.24263452  0.48358210
   0.00237935  0.74050230  0.75695267
   0.24553671  0.48319499  0.75187060
   0.24522489  0.24804432  0.99123492
   0.50943856  0.25661525  0.25223717
   0.73720209  0.99727289  0.24628138
   0.75687591  0.25585666  0.00336728
   0.24252390  0.74820402  0.99542749
   0.25157494  0.24853864  0.50301762
   0.24800894  0.75315039  0.50606460
   0.24906665  0.24694523  0.24865262
   0.25401356  0.00304289  0.99305860
   0.00178650  0.25366667  0.00126779
   0.75200750  0.24609575  0.24802605
   0.74640227  0.99780864  0.00200565
   0.50899658  0.00298728  0.23839949
   0.99582663  0.49162426  0.24688881
   0.49918983  0.75899830  0.00673177
   0.99112108  0.00679546  0.74814327
   0.76164042  0.24603425  0.75037615
   0.74080284  0.01148524  0.49770714
   0.50182334  0.24289976  0.49282657
   0.51632778  0.00034364  0.75092804
   0.99627542  0.00425685  0.25144444
   0.50441175  0.24073512  0.00180417
   0.25474503  0.74892460  0.24886115
   0.24046624  0.49865570  0.99132760
   0.99953472  0.74478184  0.99569237
   0.74128103  0.75306836  0.24365376
   0.76177231  0.50249198  0.00080541
   0.50019863  0.49820876  0.25224620
   0.24571968  0.24872640  0.74794315
   0.25585617  0.00144733  0.50859769
   0.99970324  0.24918605  0.50116836
   0.23655720  0.75596255  0.75253768
   0.25126649  0.49790743  0.50516303
   0.99956927  0.75377946  0.50716819
   0.00617427  0.49703599  0.75861533
   0.75493711  0.75644097  0.75846016
   0.74666587  0.49542044  0.49908599
   0.49275730  0.76178816  0.49465355
   0.49688206  0.49984194  0.74781209
   0.52157523  0.01193013  0.97951514
   0.00271298  0.51235892  0.98289673
   0.49528267  0.73413501  0.25704523
   0.23009321  0.01851089  0.73953521
   0.48414150  0.98713606  0.52995816
   0.74278385  0.97466969  0.78180399
   0.00290310  0.76007838  0.24978543
   0.74991675  0.50431752  0.25108839
   0.00486996  0.00416038  0.50573103
   0.49644021  0.51052084  0.49997825
   0.75394713  0.50750781  0.75228387
   0.74570835  0.76056318  0.49665533
HECN                                    
           1
     8.667241    0.017306    0.002756
     0.023124    8.699445   -0.024156
     0.033945   -0.038922    8.707144
   Hf   V    Ti   N    C    Cr   Nb
   7   6   7  13  19   6   6
Direct configuration=     6
   0.99927500  0.00241806  0.99285360
   0.26767254  0.00157268  0.24601083
   0.24247149  0.49390523  0.24697852
   0.49790841  0.50117054  0.00058495
   0.51142353  0.24378261  0.74298109
   0.99969776  0.50019627  0.50490310
   0.49197945  0.75658435  0.75773501
   0.98694976  0.23317418  0.26695595
   0.76586541  0.74101505  0.99958833
   0.00286284  0.24904204  0.73305291
   0.76115793  0.24271845  0.48356187
   0.00238215  0.74057970  0.75697448
   0.24554446  0.48324872  0.75186589
   0.24530237  0.24801770  0.99122561
   0.50943985  0.25658036  0.25223096
   0.73723738  0.99728905  0.24624470
   0.75685482  0.25578371  0.00336359
   0.24253798  0.74821495  0.99544635
   0.25152195  0.24856376  0.50302400
   0.24798150  0.75315075  0.50605241
   0.24900316  0.24694053  0.24862991
   0.25415928  0.00299006  0.99306217
   0.00181332  0.25372399  0.00132437
   0.75199869  0.24607650  0.24801335
   0.74639882  0.99776998  0.00198108
   0.50889029  0.00291600  0.23852296
   0.99582382  0.49156763  0.24682055
   0.49920680  0.75908115  0.00676239
   0.99116353  0.00672974  0.74815230
   0.76166436  0.24590735  0.75034845
   0.74075302  0.01154130  0.49782719
   0.50184893  0.24287685  0.49279855
   0.51619152  0.00034788  0.75092042
   0.99626818  0.00424614  0.25142217
   0.50438969  0.24074835  0.00179551
   0.25473565  0.74889423  0.24886940
   0.24048587  0.49865123  0.99136412
   0.99954064  0.74477058  0.99569547
   0.74124186  0.75306325  0.24362662
   0.76174616  0.50247669  0.00077316
   0.50017828  0.49822865  0.25222751
   0.24574220  0.24873813  0.74794014
   0.25582421  0.00147373  0.50857515
   0.99969655  0.24918357  0.50115143
   0.23657862  0.75594836  0.75254170
   0.25127996  0.49793750  0.50516031
   0.99956221  0.75379586  0.50719682
   0.00618048  0.49704209  0.75865605
   0.75492000  0.75647976  0.75845612
   0.74667433  0.49539149  0.49906984
   0.49278522  0.76181761  0.49464847
   0.49686694  0.49983917  0.74780451
   0.52147596  0.01189991  0.97956376
   0.00268785  0.51227162  0.98291699
   0.49530756  0.73418184  0.25705876
   0.23022105  0.01844690  0.73949216
   0.48415673  0.98719731  0.52993415
   0.74278574  0.97479747  0.78182507
   0.00285676  0.75999935  0.24973998
   0.74988112  0.50428382  0.25104636
   0.00483803  0.00419428  0.50575168
   0.49644777  0.51048945  0.49993160
   0.75401904  0.50749775  0.75229475
   0.74564363  0.76053654  0.49667254
HECN                                    
           1
     8.666690    0.017217    0.002774
     0.023034    8.698874   -0.024121
     0.033961   -0.038886    8.706499
   Hf   V    Ti   N    C    Cr   Nb
   7   6   7  13  19   6   6
Direct configuration=     7
   0.99929097  0.00240513  0.99284859
   0.26769408  0.00155276  0.24605193
   0.24249470  0.49391200  0.24697059
   0.49790832  0.50117187  0.00061856
   0.51140323  0.24374435  0.74296671
   0.99967508  0.50020220  0.50490714
   0.49198941  0.75665300  0.75771356
   0.98696489  0.23322569  0.26694610
   0.76586663  0.74106049  0.99957818
   0.00291638  0.24903938  0.73304924
   0.76118820  0.24277713  0.48354772
   0.00238411  0.74063383  0.75698973
   0.24554989  0.48328629  0.75186260
   0.24535655  0.24799909  0.99121910
   0.50944075  0.25655597  0.25222662
   0.73726205  0.99730035  0.24621905
   0.75684008  0.25573270  0.00336100
   0.24254783  0.74822259  0.99545954
   0.25148489  0.24858132  0.50302846
   0.24796231  0.75315100  0.50604389
   0.24895876  0.24693724  0.24861402
   0.25426118  0.00295312  0.99306467
   0.00183207  0.25376408  0.00136393
   0.75199253  0.24606304  0.24800447
   0.74639640  0.99774295  0.00196390
   0.50881596  0.00286616  0.23860930
   0.99582185  0.49152803  0.24677282
   0.49921866  0.75913908  0.00678380
   0.99119322  0.00668378  0.74815861
   0.76168110  0.24581862  0.75032908
   0.74071819  0.01158050  0.49791114
   0.50186682  0.24286084  0.49277896
   0.51609624  0.00035084  0.75091509
   0.99626312  0.00423866  0.25140660
   0.50437426  0.24075760  0.00178946
   0.25472910  0.74887299  0.24887518
   0.24049959  0.49864810  0.99138965
   0.99954479  0.74476271  0.99569763
   0.74121447  0.75305968  0.24360764
   0.76172787  0.50246600  0.00075062
   0.50016406  0.49824255  0.25221444
   0.24575794  0.24874634  0.74793804
   0.25580186  0.00149218  0.50855939
   0.99969187  0.24918183  0.50113960
   0.23659360  0.75593843  0.75254450
   0.25128938  0.49795853  0.50515841
   0.99955728  0.75380732  0.50721684
   0.00618483  0.49704636  0.75868452
   0.75490804  0.75650688  0.75845329
   0.74668024  0.49537125  0.49905855
   0.49280474  0.76183820  0.49464492
   0.49685637  0.49983723  0.74779921
   0.52140655  0.01187878  0.97959776
   0.00267028  0.51221057  0.98293116
   0.49532497  0.73421458  0.25706821
   0.23031044  0.01840216  0.73946206
   0.48416738  0.98724014  0.52991736
   0.74278705  0.97488682  0.78183980
   0.00282435  0.75994410  0.24970820
   0.74985620  0.50426025  0.25101697
   0.00481570  0.00421798  0.50576612
   0.49645306  0.51046749  0.49989898
   0.75406932  0.50749072  0.75230236
   0.74559837  0.76051791  0.49668457
HECN                                    
           1
     8.666973    0.017030    0.002707
     0.022845    8.699791   -0.023860
     0.033896   -0.038630    8.706485
   Hf   V    Ti   N    C    Cr   Nb
   7   6   7  13  19   6   6
Direct configuration=     8
   0.99933495  0.00241166  0.99284499
   0.26767894  0.00153290  0.24608745
   0.24249835  0.49390944  0.24697269
   0.49791815  0.50118530  0.00060060
   0.51138795  0.24373213  0.74296421
   0.99967754  0.50020979  0.50490484
   0.49200474  0.75667633  0.75770995
   0.98698379  0.23326551  0.26692061
   0.76586022  0.74110561  0.99955558
   0.00297530  0.24902632  0.73305709
   0.76120333  0.24284966  0.48354891
   0.00238110  0.74069507  0.75700377
   0.24556130  0.48333087  0.75186419
   0.24541922  0.24797590  0.99121677
   0.50943561  0.25652516  0.25221658
   0.73727337  0.99730568  0.24619015
   0.75681672  0.25567432  0.00335149
   0.24256684  0.74823205  0.99547427
   0.25144183  0.24859743  0.50303402
   0.24795011  0.75315177  0.50603511
   0.24892377  0.24693125  0.24859917
   0.25434704  0.00291370  0.99307781
   0.00185100  0.25378479  0.00139408
   0.75197988  0.24605409  0.24799365
   0.74640189  0.99772108  0.00195771
   0.50878326  0.00282013  0.23871326
   0.99582016  0.49149213  0.24673070
   0.49923362  0.75919342  0.00678784
   0.99124530  0.00663386  0.74816158
   0.76168804  0.24572128  0.75031668
   0.74069116  0.01159884  0.49798604
   0.50187744  0.24285503  0.49276272
   0.51598150  0.00036711  0.75091529
   0.99625720  0.00421959  0.25139581
   0.50436115  0.24076824  0.00178585
   0.25470229  0.74885935  0.24887899
   0.24052379  0.49864615  0.99140382
   0.99955056  0.74476349  0.99569934
   0.74119906  0.75305076  0.24360686
   0.76170113  0.50245082  0.00072831
   0.50015738  0.49824668  0.25221051
   0.24577950  0.24875423  0.74793373
   0.25576861  0.00151056  0.50854598
   0.99970290  0.24919403  0.50114115
   0.23661533  0.75592869  0.75254464
   0.25128964  0.49798183  0.50515269
   0.99953730  0.75382328  0.50721749
   0.00618624  0.49704606  0.75870016
   0.75489751  0.75653193  0.75844126
   0.74668100  0.49536010  0.49904853
   0.49281480  0.76184454  0.49464215
   0.49686286  0.49984443  0.74779157
   0.52132763  0.01185742  0.97961831
   0.00265664  0.51215302  0.98296047
   0.49535209  0.73424501  0.25707593
   0.23040307  0.01835761  0.73943070
   0.48417283  0.98728439  0.52988275
   0.74276429  0.97498406  0.78184886
   0.00278934  0.75990727  0.24968442
   0.74984163  0.50423913  0.25098772
   0.00479069  0.00421664  0.50578745
   0.49645760  0.51045279  0.49989135
   0.75408904  0.50748880  0.75232092
   0.74557387  0.76050927  0.49669265
HECN                                    
           1
     8.667132    0.016925    0.002670
     0.022739    8.700305   -0.023714
     0.033859   -0.038486    8.706476
   Hf   V    Ti   N    C    Cr   Nb
   7   6   7  13  19   6   6
Direct configuration=     9
   0.99935963  0.00241532  0.99284297
   0.26767045  0.00152176  0.24610738
   0.24250040  0.49390801  0.24697387
   0.49792366  0.50119283  0.00059052
   0.51137938  0.24372528  0.74296280
   0.99967893  0.50021405  0.50490356
   0.49201333  0.75668942  0.75770792
   0.98699439  0.23328785  0.26690630
   0.76585662  0.74113092  0.99954290
   0.00300836  0.24901899  0.73306149
   0.76121181  0.24289035  0.48354957
   0.00237942  0.74072943  0.75701164
   0.24556770  0.48335588  0.75186508
   0.24545438  0.24796288  0.99121546
   0.50943273  0.25650787  0.25221095
   0.73727973  0.99730868  0.24617394
   0.75680362  0.25564157  0.00334616
   0.24257751  0.74823736  0.99548253
   0.25141766  0.24860647  0.50303714
   0.24794326  0.75315220  0.50603018
   0.24890414  0.24692789  0.24859084
   0.25439521  0.00289159  0.99308518
   0.00186162  0.25379641  0.00141099
   0.75197277  0.24604907  0.24798758
   0.74640497  0.99770881  0.00195424
   0.50876490  0.00279431  0.23877160
   0.99581922  0.49147198  0.24670706
   0.49924201  0.75922391  0.00679011
   0.99127452  0.00660584  0.74816325
   0.76169193  0.24566667  0.75030972
   0.74067600  0.01160913  0.49802808
   0.50188340  0.24285176  0.49275360
   0.51591712  0.00037624  0.75091541
   0.99625388  0.00420888  0.25138975
   0.50435379  0.24077421  0.00178382
   0.25468725  0.74885169  0.24888113
   0.24053737  0.49864505  0.99141177
   0.99955379  0.74476393  0.99570030
   0.74119041  0.75304576  0.24360642
   0.76168613  0.50244230  0.00071579
   0.50015362  0.49824900  0.25220831
   0.24579160  0.24875866  0.74793132
   0.25574996  0.00152087  0.50853845
   0.99970910  0.24920087  0.50114203
   0.23662753  0.75592322  0.75254471
   0.25128978  0.49799491  0.50514948
   0.99952608  0.75383223  0.50721785
   0.00618703  0.49704589  0.75870894
   0.75489161  0.75654599  0.75843451
   0.74668143  0.49535385  0.49904291
   0.49282044  0.76184809  0.49464059
   0.49686650  0.49984847  0.74778728
   0.52128335  0.01184543  0.97962984
   0.00264899  0.51212073  0.98297692
   0.49536731  0.73426208  0.25708025
   0.23045506  0.01833261  0.73941310
   0.48417589  0.98730922  0.52986333
   0.74275151  0.97503863  0.78185394
   0.00276969  0.75988661  0.24967108
   0.74983345  0.50422727  0.25097131
   0.00477665  0.00421588  0.50579942
   0.49646015  0.51044454  0.49988707
   0.75410011  0.50748772  0.75233134
   0.74556012  0.76050442  0.49669718
HECN                                    
           1
     8.667291    0.016874    0.002562
     0.022688    8.700695   -0.023480
     0.033751   -0.038253    8.706532
   Hf   V    Ti   N    C    Cr   Nb
   7   6   7  13  19   6   6
Direct configuration=    10
   0.99939773  0.00243525  0.99285550
   0.26762011  0.00152062  0.24612015
   0.24248448  0.49389717  0.24697810
   0.49793411  0.50120490  0.00054878
   0.51138100  0.24375913  0.74296286
   0.99969633  0.50021788  0.50490115
   0.49202424  0.75664570  0.75771009
   0.98699168  0.23325414  0.26689683
   0.76585745  0.74112540  0.99952180
   0.00302165  0.24900979  0.73308155
   0.76120921  0.24291737  0.48355961
   0.00237141  0.74073561  0.75701455
   0.24557306  0.48336767  0.75187138
   0.24548039  0.24796135  0.99122509
   0.50942299  0.25650046  0.25220893
   0.73726883  0.99730541  0.24616854
   0.75679065  0.25562833  0.00333999
   0.24258459  0.74823359  0.99548903
   0.25140642  0.24860673  0.50303246
   0.24795707  0.75315433  0.50602941
   0.24891389  0.24692081  0.24859034
   0.25438080  0.00288713  0.99310083
   0.00186592  0.25376467  0.00140042
   0.75196486  0.24605046  0.24798506
   0.74641333  0.99771212  0.00197794
   0.50881265  0.00279492  0.23881742
   0.99581965  0.49147402  0.24671115
   0.49924671  0.75921432  0.00677038
   0.99131874  0.00659386  0.74816473
   0.76168263  0.24564541  0.75031880
   0.74068210  0.01158458  0.49802434
   0.50187434  0.24286838  0.49275724
   0.51586899  0.00038803  0.75092631
   0.99624747  0.00420229  0.25139860
   0.50435501  0.24078157  0.00178642
   0.25466016  0.74885847  0.24888095
   0.24054906  0.49864438  0.99139374
   0.99955562  0.74477210  0.99569597
   0.74120087  0.75303673  0.24362323
   0.76167449  0.50243955  0.00071447
   0.50016257  0.49823568  0.25221213
   0.24580261  0.24876288  0.74793013
   0.25573883  0.00151962  0.50853556
   0.99972343  0.24921490  0.50114755
   0.23663529  0.75591772  0.75253918
   0.25127986  0.49800254  0.50514801
   0.99950839  0.75383423  0.50719714
   0.00618864  0.49704454  0.75869499
   0.75489485  0.75654934  0.75842619
   0.74667890  0.49536425  0.49904484
   0.49280131  0.76183886  0.49463970
   0.49688916  0.49985905  0.74778304
   0.52125958  0.01185251  0.97962204
   0.00264835  0.51214401  0.98299222
   0.49537615  0.73424344  0.25708278
   0.23050332  0.01832322  0.73939871
   0.48416076  0.98729060  0.52983859
   0.74271029  0.97504503  0.78184095
   0.00276478  0.75992724  0.24967858
   0.74984017  0.50423203  0.25096641
   0.00476552  0.00419858  0.50578004
   0.49645816  0.51046228  0.49991419
   0.75406388  0.50750530  0.75233778
   0.74558488  0.76051727  0.49669525
HECN                                    
           1
     8.667431    0.016828    0.002468
     0.022642    8.701037   -0.023274
     0.033657   -0.038048    8.706581
   Hf   V    Ti   N    C    Cr   Nb
   7   6   7  13  19   6   6
Direct configuration=    11
   0.99943118  0.00245274  0.99286651
   0.26757591  0.00151961  0.24613135
   0.24247050  0.49388765  0.24698181
   0.49794327  0.50121550  0.00051214
   0.51138243  0.24378884  0.74296291
   0.99971160  0.50022125  0.50489904
   0.49203381  0.75660733  0.75771200
   0.98698931  0.23322455  0.26688851
   0.76585817  0.74112055  0.99950328
   0.00303332  0.24900171  0.73309915
   0.76120692  0.24294110  0.48356843
   0.00236439  0.74074103  0.75701711
   0.24557776  0.48337802  0.75187691
   0.24550322  0.24796000  0.99123354
   0.50941444  0.25649395  0.25220715
   0.73725926  0.99730254  0.24616380
   0.75677926  0.25561671  0.00333459
   0.24259081  0.74823028  0.99549473
   0.25139654  0.24860695  0.50302835
   0.24796919  0.75315621  0.50602873
   0.24892245  0.24691460  0.24858991
   0.25436815  0.00288322  0.99311456
   0.00186969  0.25373681  0.00139114
   0.75195791  0.24605168  0.24798285
   0.74642067  0.99771501  0.00199875
   0.50885456  0.00279545  0.23885765
   0.99582002  0.49147581  0.24671474
   0.49925084  0.75920591  0.00675306
   0.99135756  0.00658335  0.74816604
   0.76167447  0.24562675  0.75032676
   0.74068746  0.01156302  0.49802107
   0.50186638  0.24288297  0.49276044
   0.51582674  0.00039838  0.75093587
   0.99624185  0.00419650  0.25140637
   0.50435609  0.24078804  0.00178869
   0.25463638  0.74886442  0.24888080
   0.24055933  0.49864378  0.99137792
   0.99955723  0.74477927  0.99569217
   0.74121006  0.75302880  0.24363798
   0.76166428  0.50243714  0.00071330
   0.50017042  0.49822400  0.25221548
   0.24581227  0.24876658  0.74792909
   0.25572906  0.00151853  0.50853302
   0.99973601  0.24922721  0.50115239
   0.23664211  0.75591290  0.75253432
   0.25127114  0.49800924  0.50514671
   0.99949286  0.75383599  0.50717895
   0.00619005  0.49704336  0.75868274
   0.75489769  0.75655228  0.75841889
   0.74667669  0.49537338  0.49904654
   0.49278453  0.76183075  0.49463892
   0.49690906  0.49986834  0.74777933
   0.52123872  0.01185871  0.97961518
   0.00264779  0.51216445  0.98300566
   0.49538391  0.73422708  0.25708500
   0.23054569  0.01831498  0.73938608
   0.48414748  0.98727426  0.52981686
   0.74267411  0.97505065  0.78182954
   0.00276046  0.75996290  0.24968517
   0.74984607  0.50423621  0.25096211
   0.00475574  0.00418340  0.50576304
   0.49645641  0.51047785  0.49993800
   0.75403208  0.50752074  0.75234343
   0.74560661  0.76052855  0.49669355
HECN                                    
           1
     8.668166    0.016856    0.002325
     0.022671    8.701907   -0.023100
     0.033516   -0.037875    8.707395
   Hf   V    Ti   N    C    Cr   Nb
   7   6   7  13  19   6   6
Direct configuration=    12
   0.99944485  0.00246465  0.99286522
   0.26756853  0.00151809  0.24614799
   0.24246569  0.49388715  0.24697395