  64  64   0   0
  0.2218804E+02  0.1124000E-08  0.1124000E-08  0.1124000E-08  0.5000000E-15
  1.000000000000000E-004
  CAR 
 HECN                                    
     13.49025970    -60.19276184  301      8.10632463      1.00000000
    -60.193  0.0000E+00  0.0000E+00
    -59.947  0.0000E+00  0.0000E+00
    -59.702  0.0000E+00  0.0000E+00
    -59.456  0.0000E+00  0.0000E+00
    -59.210  0.0000E+00  0.0000E+00
    -58.965  0.0000E+00  0.0000E+00
    -58.719  0.0000E+00  0.0000E+00
    -58.473  0.0000E+00  0.0000E+00
    -58.228  0.0000E+00  0.0000E+00
    -57.982  0.0000E+00  0.0000E+00
    -57.737  0.0000E+00  0.0000E+00
    -57.491  0.0000E+00  0.0000E+00
    -57.245  0.7629E-09  0.1874E-09
    -57.000  0.2354E-02  0.5781E-03
    -56.754  0.3252E+00  0.8044E-01
    -56.509  0.1607E+00  0.1199E+00
    -56.263  0.3427E-03  0.1200E+00
    -56.017  0.3580E-10  0.1200E+00
    -55.772  0.0000E+00  0.1200E+00
    -55.526  0.0000E+00  0.1200E+00
    -55.281  0.0000E+00  0.1200E+00
    -55.035  0.0000E+00  0.1200E+00
    -54.789  0.0000E+00  0.1200E+00
    -54.544  0.0000E+00  0.1200E+00
    -54.298  0.0000E+00  0.1200E+00
    -54.053  0.0000E+00  0.1200E+00
    -53.807  0.0000E+00  0.1200E+00
    -53.561  0.0000E+00  0.1200E+00
    -53.316  0.0000E+00  0.1200E+00
    -53.070  0.0000E+00  0.1200E+00
    -52.824  0.0000E+00  0.1200E+00
    -52.579  0.0000E+00  0.1200E+00
    -52.333  0.0000E+00  0.1200E+00
    -52.088  0.0000E+00  0.1200E+00
    -51.842  0.0000E+00  0.1200E+00
    -51.596  0.0000E+00  0.1200E+00
    -51.351  0.0000E+00  0.1200E+00
    -51.105  0.0000E+00  0.1200E+00
    -50.860  0.0000E+00  0.1200E+00
    -50.614  0.0000E+00  0.1200E+00
    -50.368  0.0000E+00  0.1200E+00
    -50.123  0.2214E-09  0.1200E+00
    -49.877  0.7445E-03  0.1202E+00
    -49.632  0.7025E-01  0.1374E+00
    -49.386  0.1091E+00  0.1642E+00
    -49.140  0.3045E+00  0.2390E+00
    -48.895  0.8488E-01  0.2599E+00
    -48.649  0.5485E-03  0.2600E+00
    -48.403  0.1128E-09  0.2600E+00
    -48.158  0.0000E+00  0.2600E+00
    -47.912  0.0000E+00  0.2600E+00
    -47.667  0.0000E+00  0.2600E+00
    -47.421  0.0000E+00  0.2600E+00
    -47.175  0.0000E+00  0.2600E+00
    -46.930  0.0000E+00  0.2600E+00
    -46.684  0.0000E+00  0.2600E+00
    -46.439  0.0000E+00  0.2600E+00
    -46.193  0.0000E+00  0.2600E+00
    -45.947  0.0000E+00  0.2600E+00
    -45.702  0.0000E+00  0.2600E+00
    -45.456  0.0000E+00  0.2600E+00
    -45.211  0.0000E+00  0.2600E+00
    -44.965  0.0000E+00  0.2600E+00
    -44.719  0.0000E+00  0.2600E+00
    -44.474  0.0000E+00  0.2600E+00
    -44.228  0.0000E+00  0.2600E+00
    -43.982  0.0000E+00  0.2600E+00
    -43.737  0.0000E+00  0.2600E+00
    -43.491  0.0000E+00  0.2600E+00
    -43.246  0.0000E+00  0.2600E+00
    -43.000  0.0000E+00  0.2600E+00
    -42.754  0.0000E+00  0.2600E+00
    -42.509  0.0000E+00  0.2600E+00
    -42.263  0.0000E+00  0.2600E+00
    -42.018  0.0000E+00  0.2600E+00
    -41.772  0.0000E+00  0.2600E+00
    -41.526  0.0000E+00  0.2600E+00
    -41.281  0.0000E+00  0.2600E+00
    -41.035  0.0000E+00  0.2600E+00
    -40.790  0.0000E+00  0.2600E+00
    -40.544  0.0000E+00  0.2600E+00
    -40.298  0.0000E+00  0.2600E+00
    -40.053  0.0000E+00  0.2600E+00
    -39.807  0.0000E+00  0.2600E+00
    -39.562  0.0000E+00  0.2600E+00
    -39.316  0.0000E+00  0.2600E+00
    -39.070  0.0000E+00  0.2600E+00
    -38.825  0.0000E+00  0.2600E+00
    -38.579  0.0000E+00  0.2600E+00
    -38.333  0.0000E+00  0.2600E+00
    -38.088  0.0000E+00  0.2600E+00
    -37.842  0.0000E+00  0.2600E+00
    -37.597  0.0000E+00  0.2600E+00
    -37.351  0.0000E+00  0.2600E+00
    -37.105  0.0000E+00  0.2600E+00
    -36.860  0.0000E+00  0.2600E+00
    -36.614  0.0000E+00  0.2600E+00
    -36.369  0.0000E+00  0.2600E+00
    -36.123  0.0000E+00  0.2600E+00
    -35.877  0.0000E+00  0.2600E+00
    -35.632  0.0000E+00  0.2600E+00
    -35.386  0.0000E+00  0.2600E+00
    -35.141  0.0000E+00  0.2600E+00
    -34.895  0.0000E+00  0.2600E+00
    -34.649  0.0000E+00  0.2600E+00
    -34.404  0.0000E+00  0.2600E+00
    -34.158  0.0000E+00  0.2600E+00
    -33.912  0.0000E+00  0.2600E+00
    -33.667  0.0000E+00  0.2600E+00
    -33.421  0.0000E+00  0.2600E+00
    -33.176  0.0000E+00  0.2600E+00
    -32.930  0.0000E+00  0.2600E+00
    -32.684  0.0000E+00  0.2600E+00
    -32.439  0.0000E+00  0.2600E+00
    -32.193  0.8905E-12  0.2600E+00
    -31.948  0.5229E-04  0.2600E+00
    -31.702  0.5548E-01  0.2736E+00
    -31.456  0.3096E+00  0.3497E+00
    -31.211  0.6901E+00  0.5192E+00
    -30.965  0.4099E+00  0.6198E+00
    -30.720  0.8626E+00  0.8317E+00
    -30.474  0.5923E+00  0.9772E+00
    -30.228  0.1144E-01  0.9800E+00
    -29.983  0.4388E-07  0.9800E+00
    -29.737  0.0000E+00  0.9800E+00
    -29.492  0.0000E+00  0.9800E+00
    -29.246  0.0000E+00  0.9800E+00
    -29.000  0.0000E+00  0.9800E+00
    -28.755  0.0000E+00  0.9800E+00
    -28.509  0.0000E+00  0.9800E+00
    -28.263  0.0000E+00  0.9800E+00
    -28.018  0.0000E+00  0.9800E+00
    -27.772  0.0000E+00  0.9800E+00
    -27.527  0.0000E+00  0.9800E+00
    -27.281  0.0000E+00  0.9800E+00
    -27.035  0.0000E+00  0.9800E+00
    -26.790  0.0000E+00  0.9800E+00
    -26.544  0.3677E-09  0.9800E+00
    -26.299  0.1104E-02  0.9803E+00
    -26.053  0.1706E+00  0.1022E+01
    -25.807  0.3022E+00  0.1096E+01
    -25.562  0.8224E+00  0.1298E+01
    -25.316  0.3953E+00  0.1395E+01
    -25.071  0.1855E-01  0.1400E+01
    -24.825  0.2932E-06  0.1400E+01
    -24.579  0.0000E+00  0.1400E+01
    -24.334  0.0000E+00  0.1400E+01
    -24.088  0.0000E+00  0.1400E+01
    -23.842  0.0000E+00  0.1400E+01
    -23.597  0.8022E-13  0.1400E+01
    -23.351  0.1531E-04  0.1400E+01
    -23.106  0.5485E-01  0.1413E+01
    -22.860  0.3333E+00  0.1495E+01
    -22.614  0.3318E+00  0.1577E+01
    -22.369  0.3782E+00  0.1670E+01
    -22.123  0.3690E+00  0.1760E+01
    -21.878  0.2022E+00  0.1810E+01
    -21.632  0.4072E-01  0.1820E+01
    -21.386  0.1597E-05  0.1820E+01
    -21.141  0.6509E-15  0.1820E+01
    -20.895  0.0000E+00  0.1820E+01
    -20.650  0.0000E+00  0.1820E+01
    -20.404  0.0000E+00  0.1820E+01
    -20.158  0.0000E+00  0.1820E+01
    -19.913  0.0000E+00  0.1820E+01
    -19.667  0.0000E+00  0.1820E+01
    -19.421  0.0000E+00  0.1820E+01
    -19.176  0.0000E+00  0.1820E+01
    -18.930  0.0000E+00  0.1820E+01
    -18.685  0.0000E+00  0.1820E+01
    -18.439  0.0000E+00  0.1820E+01
    -18.193  0.0000E+00  0.1820E+01
    -17.948  0.0000E+00  0.1820E+01
    -17.702  0.0000E+00  0.1820E+01
    -17.457  0.0000E+00  0.1820E+01
    -17.211  0.0000E+00  0.1820E+01
    -16.965  0.0000E+00  0.1820E+01
    -16.720  0.0000E+00  0.1820E+01
    -16.474  0.0000E+00  0.1820E+01
    -16.229  0.0000E+00  0.1820E+01
    -15.983  0.0000E+00  0.1820E+01
    -15.737  0.0000E+00  0.1820E+01
    -15.492  0.0000E+00  0.1820E+01
    -15.246  0.0000E+00  0.1820E+01
    -15.001  0.0000E+00  0.1820E+01
    -14.755  0.0000E+00  0.1820E+01
    -14.509  0.0000E+00  0.1820E+01
    -14.264  0.0000E+00  0.1820E+01
    -14.018  0.0000E+00  0.1820E+01
    -13.772  0.0000E+00  0.1820E+01
    -13.527  0.0000E+00  0.1820E+01
    -13.281  0.0000E+00  0.1820E+01
    -13.036  0.0000E+00  0.1820E+01
    -12.790  0.0000E+00  0.1820E+01
    -12.544  0.0000E+00  0.1820E+01
    -12.299  0.0000E+00  0.1820E+01
    -12.053  0.0000E+00  0.1820E+01
    -11.808  0.0000E+00  0.1820E+01
    -11.562  0.0000E+00  0.1820E+01
    -11.316  0.0000E+00  0.1820E+01
    -11.071  0.0000E+00  0.1820E+01
    -10.825  0.0000E+00  0.1820E+01
    -10.580  0.0000E+00  0.1820E+01
    -10.334  0.0000E+00  0.1820E+01
    -10.088  0.0000E+00  0.1820E+01
     -9.843  0.0000E+00  0.1820E+01
     -9.597  0.0000E+00  0.1820E+01
     -9.351  0.8170E-16  0.1820E+01
     -9.106  0.1149E-06  0.1820E+01
     -8.860  0.2623E-02  0.1821E+01
     -8.615  0.5543E-01  0.1834E+01
     -8.369  0.2564E-01  0.1841E+01
     -8.123  0.7356E-01  0.1859E+01
     -7.878  0.4044E-01  0.1869E+01
     -7.632  0.1315E+00  0.1901E+01
     -7.387  0.1057E+00  0.1927E+01
     -7.141  0.1777E+00  0.1970E+01
     -6.895  0.2221E+00  0.2025E+01
     -6.650  0.1897E+00  0.2072E+01
     -6.404  0.3424E-01  0.2080E+01
     -6.159  0.1338E-04  0.2080E+01
     -5.913  0.1457E-12  0.2080E+01
     -5.667  0.0000E+00  0.2080E+01
     -5.422  0.0000E+00  0.2080E+01
     -5.176  0.8318E-10  0.2080E+01
     -4.930  0.1485E-03  0.2080E+01
     -4.685  0.3142E-01  0.2088E+01
     -4.439  0.5622E-01  0.2102E+01
     -4.194  0.7715E-01  0.2121E+01
     -3.948  0.8759E-01  0.2142E+01
     -3.702  0.1658E+00  0.2183E+01
     -3.457  0.2109E+00  0.2235E+01
     -3.211  0.2599E+00  0.2298E+01
     -2.966  0.2232E+00  0.2353E+01
     -2.720  0.1939E+00  0.2401E+01
     -2.474  0.1433E+00  0.2436E+01
     -2.229  0.9268E-01  0.2459E+01
     -1.983  0.4896E-02  0.2460E+01
     -1.738  0.1886E-05  0.2460E+01
     -1.492  0.2185E-13  0.2460E+01
     -1.246  0.0000E+00  0.2460E+01
     -1.001  0.0000E+00  0.2460E+01
     -0.755  0.8179E-10  0.2460E+01
     -0.510  0.9086E-04  0.2460E+01
     -0.264  0.7028E-02  0.2462E+01
     -0.018  0.4187E-01  0.2472E+01
      0.227  0.6796E-01  0.2489E+01
      0.473  0.9163E-01  0.2511E+01
      0.719  0.1057E+00  0.2537E+01
      0.964  0.1582E+00  0.2576E+01
      1.210  0.2304E+00  0.2633E+01
      1.455  0.2790E+00  0.2701E+01
      1.701  0.2748E+00  0.2769E+01
      1.947  0.3055E+00  0.2844E+01
      2.192  0.3231E+00  0.2923E+01
      2.438  0.3431E+00  0.3007E+01
      2.683  0.4117E+00  0.3108E+01
      2.929  0.4843E+00  0.3227E+01
      3.175  0.5452E+00  0.3361E+01
      3.420  0.5962E+00  0.3508E+01
      3.666  0.5746E+00  0.3649E+01
      3.911  0.5777E+00  0.3791E+01
      4.157  0.5286E+00  0.3921E+01
      4.403  0.4366E+00  0.4028E+01
      4.648  0.3776E+00  0.4121E+01
      4.894  0.3083E+00  0.4196E+01
      5.140  0.2927E+00  0.4268E+01
      5.385  0.1684E+00  0.4309E+01
      5.631  0.1861E+00  0.4355E+01
      5.876  0.1113E+00  0.4383E+01
      6.122  0.1110E+00  0.4410E+01
      6.368  0.1866E+00  0.4456E+01
      6.613  0.1379E+00  0.4490E+01
      6.859  0.2013E+00  0.4539E+01
      7.104  0.1998E+00  0.4588E+01
      7.350  0.2009E+00  0.4637E+01
      7.596  0.2107E+00  0.4689E+01
      7.841  0.2589E+00  0.4753E+01
      8.087  0.2176E+00  0.4806E+01
      8.332  0.2603E+00  0.4870E+01
      8.578  0.3895E+00  0.4966E+01
      8.824  0.4484E+00  0.5076E+01
      9.069  0.5022E+00  0.5199E+01
      9.315  0.5119E+00  0.5325E+01
      9.560  0.5806E+00  0.5468E+01
      9.806  0.5782E+00  0.5610E+01
     10.052  0.5137E+00  0.5736E+01
     10.297  0.9842E-01  0.5760E+01
     10.543  0.1953E-03  0.5760E+01
     10.789  0.5147E-10  0.5760E+01
     11.034  0.0000E+00  0.5760E+01
     11.280  0.0000E+00  0.5760E+01
     11.525  0.0000E+00  0.5760E+01
     11.771  0.0000E+00  0.5760E+01
     12.017  0.0000E+00  0.5760E+01
     12.262  0.0000E+00  0.5760E+01
     12.508  0.0000E+00  0.5760E+01
     12.753  0.0000E+00  0.5760E+01
     12.999  0.0000E+00  0.5760E+01
     13.245  0.0000E+00  0.5760E+01
     13.490  0.0000E+00  0.5760E+01
