<?xml version="1.0" encoding="ISO-8859-1"?>
<modeling>
 <generator>
  <i name="program" type="string">vasp </i>
  <i name="version" type="string">5.4.4.18Apr17-6-g9f103f2a35  </i>
  <i name="subversion" type="string">(build Oct 18 2021 20:38:43) complex            parallel </i>
  <i name="platform" type="string">LinuxIFC </i>
  <i name="date" type="string">2024 05 30 </i>
  <i name="time" type="string">10:50:39 </i>
 </generator>
 <incar>
  <i type="string" name="SYSTEM">HECN</i>
  <i type="int" name="ISTART">     0</i>
  <i type="string" name="PREC">normal</i>
  <i type="string" name="ALGO">Fast</i>
  <i type="int" name="ICHARG">     2</i>
  <i type="int" name="NELM">    60</i>
  <i type="int" name="IBRION">     2</i>
  <i name="EDIFF">      0.00001000</i>
  <i name="EDIFFG">     -0.01000000</i>
  <i type="int" name="NSW">   100</i>
  <i type="int" name="ISIF">     3</i>
  <i name="ENCUT">    400.00000000</i>
  <i name="POTIM">      0.50000000</i>
  <i type="logical" name="LREAL"> F  </i>
  <i type="int" name="ISMEAR">     0</i>
  <i name="SIGMA">      0.10000000</i>
  <i type="logical" name="LWAVE"> F  </i>
  <i type="logical" name="LCHARG"> F  </i>
  <v type="int" name="KPOINT_BSE">    -1     0     0     0</v>
  <i type="int" name="NELM">    60</i>
 </incar>
 <structure name="primitive_cell" >
  <crystal>
   <varray name="basis" >
    <v>      11.23999977       0.00000000       0.00000000 </v>
    <v>       0.00000000      11.23999977       0.00000000 </v>
    <v>       0.00000000       0.00000000      11.23999977 </v>
   </varray>
   <i name="volume">   1420.03453724 </i>
   <varray name="rec_basis" >
    <v>       0.08896797       0.00000000       0.00000000 </v>
    <v>       0.00000000       0.08896797       0.00000000 </v>
    <v>       0.00000000       0.00000000       0.08896797 </v>
   </varray>
  </crystal>
  <varray name="positions" >
   <v>       0.00000000       0.00000000       0.00000000 </v>
   <v>      -0.24999996       0.00000000       0.00000000 </v>
   <v>       0.00000000       0.00000000      -0.24999996 </v>
   <v>       0.00000000      -0.24999996       0.00000000 </v>
   <v>       0.25000000       0.00000000       0.00000000 </v>
   <v>       0.00000000       0.25000000       0.00000000 </v>
   <v>       0.00000000       0.00000000       0.25000000 </v>
   <v>      -0.24999996      -0.24999996       0.00000000 </v>
   <v>       0.00000000      -0.24999996      -0.24999996 </v>
   <v>      -0.24999996       0.00000000      -0.24999996 </v>
   <v>       0.00000000       0.25000000      -0.24999996 </v>
   <v>      -0.24999996       0.00000000       0.25000000 </v>
   <v>      -0.24999996       0.25000000       0.00000000 </v>
   <v>       0.25000000      -0.24999996       0.00000000 </v>
   <v>       0.25000000       0.00000000      -0.24999996 </v>
   <v>       0.00000000      -0.24999996       0.25000000 </v>
   <v>       0.25000000       0.00000000       0.25000000 </v>
   <v>       0.00000000       0.25000000       0.25000000 </v>
   <v>       0.25000000       0.25000000       0.00000000 </v>
   <v>      -0.24999996      -0.24999996      -0.24999996 </v>
   <v>      -0.24999996       0.25000000      -0.24999996 </v>
   <v>       0.25000000      -0.24999996      -0.24999996 </v>
   <v>      -0.24999996      -0.24999996       0.25000000 </v>
   <v>      -0.24999996       0.25000000       0.25000000 </v>
   <v>       0.25000000      -0.24999996       0.25000000 </v>
   <v>       0.25000000       0.25000000      -0.24999996 </v>
   <v>       0.25000000       0.25000000       0.25000000 </v>
   <v>      -0.50000000       0.00000000       0.00000000 </v>
   <v>       0.00000000      -0.50000000       0.00000000 </v>
   <v>       0.00000000       0.00000000      -0.50000000 </v>
   <v>      -0.50000000      -0.24999996       0.00000000 </v>
   <v>      -0.24999996       0.00000000      -0.50000000 </v>
   <v>      -0.50000000       0.00000000      -0.24999996 </v>
   <v>      -0.24999996      -0.50000000       0.00000000 </v>
   <v>       0.00000000      -0.24999996      -0.50000000 </v>
   <v>       0.00000000      -0.50000000      -0.24999996 </v>
   <v>      -0.50000000       0.00000000       0.25000000 </v>
   <v>       0.00000000      -0.50000000       0.25000000 </v>
   <v>      -0.50000000       0.25000000       0.00000000 </v>
   <v>       0.25000000      -0.50000000       0.00000000 </v>
   <v>       0.25000000       0.00000000      -0.50000000 </v>
   <v>       0.00000000       0.25000000      -0.50000000 </v>
   <v>      -0.24999996      -0.24999996      -0.50000000 </v>
   <v>      -0.50000000      -0.24999996      -0.24999996 </v>
   <v>      -0.24999996      -0.50000000      -0.24999996 </v>
   <v>      -0.50000000       0.25000000      -0.24999996 </v>
   <v>      -0.24999996       0.25000000      -0.50000000 </v>
   <v>       0.25000000      -0.50000000      -0.24999996 </v>
   <v>       0.25000000      -0.24999996      -0.50000000 </v>
   <v>      -0.50000000      -0.24999996       0.25000000 </v>
   <v>      -0.24999996      -0.50000000       0.25000000 </v>
   <v>       0.25000000      -0.50000000       0.25000000 </v>
   <v>      -0.50000000       0.25000000       0.25000000 </v>
   <v>       0.25000000       0.25000000      -0.50000000 </v>
   <v>      -0.50000000      -0.50000000       0.00000000 </v>
   <v>       0.00000000      -0.50000000      -0.50000000 </v>
   <v>      -0.50000000       0.00000000      -0.50000000 </v>
   <v>      -0.24999996      -0.50000000      -0.50000000 </v>
   <v>      -0.50000000      -0.24999996      -0.50000000 </v>
   <v>      -0.50000000      -0.50000000      -0.24999996 </v>
   <v>      -0.50000000       0.25000000      -0.50000000 </v>
   <v>      -0.50000000      -0.50000000       0.25000000 </v>
   <v>       0.25000000      -0.50000000      -0.50000000 </v>
   <v>      -0.50000000      -0.50000000      -0.50000000 </v>
  </varray>
 </structure>
 <varray name="primitive_index" >
  <v type="int" >        1 </v>
  <v type="int" >       25 </v>
  <v type="int" >       29 </v>
  <v type="int" >       38 </v>
  <v type="int" >       22 </v>
  <v type="int" >       23 </v>
  <v type="int" >       34 </v>
  <v type="int" >        9 </v>
  <v type="int" >       12 </v>
  <v type="int" >       58 </v>
  <v type="int" >       10 </v>
  <v type="int" >       16 </v>
  <v type="int" >       17 </v>
  <v type="int" >       18 </v>
  <v type="int" >       56 </v>
  <v type="int" >       59 </v>
  <v type="int" >        2 </v>
  <v type="int" >        8 </v>
  <v type="int" >       14 </v>
  <v type="int" >       49 </v>
  <v type="int" >       30 </v>
  <v type="int" >       45 </v>
  <v type="int" >       39 </v>
  <v type="int" >       24 </v>
  <v type="int" >       36 </v>
  <v type="int" >       42 </v>
  <v type="int" >       21 </v>
  <v type="int" >       53 </v>
  <v type="int" >       54 </v>
  <v type="int" >       61 </v>
  <v type="int" >       28 </v>
  <v type="int" >       31 </v>
  <v type="int" >       33 </v>
  <v type="int" >       40 </v>
  <v type="int" >       47 </v>
  <v type="int" >       48 </v>
  <v type="int" >       26 </v>
  <v type="int" >       27 </v>
  <v type="int" >       35 </v>
  <v type="int" >       37 </v>
  <v type="int" >       43 </v>
  <v type="int" >       44 </v>
  <v type="int" >       64 </v>
  <v type="int" >        7 </v>
  <v type="int" >       63 </v>
  <v type="int" >        5 </v>
  <v type="int" >       11 </v>
  <v type="int" >       13 </v>
  <v type="int" >       20 </v>
  <v type="int" >       55 </v>
  <v type="int" >       60 </v>
  <v type="int" >        3 </v>
  <v type="int" >       15 </v>
  <v type="int" >       19 </v>
  <v type="int" >        4 </v>
  <v type="int" >        6 </v>
  <v type="int" >       57 </v>
  <v type="int" >       50 </v>
  <v type="int" >       51 </v>
  <v type="int" >       52 </v>
  <v type="int" >       32 </v>
  <v type="int" >       41 </v>
  <v type="int" >       46 </v>
  <v type="int" >       62 </v>
 </varray>
 <kpoints>
  <generation param="Gamma">
   <v type="int" name="divisions">       3        3        3 </v>
   <v name="usershift">      0.00000000       0.00000000       0.00000000 </v>
   <v name="genvec1">      0.33333333       0.00000000       0.00000000 </v>
   <v name="genvec2">      0.00000000       0.33333333       0.00000000 </v>
   <v name="genvec3">      0.00000000       0.00000000       0.33333333 </v>
   <v name="shift">      0.00000000       0.00000000       0.00000000 </v>
  </generation>
  <varray name="kpointlist" >
   <v>       0.00000000       0.00000000       0.00000000 </v>
   <v>       0.33333333       0.00000000       0.00000000 </v>
   <v>       0.00000000       0.33333333       0.00000000 </v>
   <v>       0.33333333       0.33333333       0.00000000 </v>
   <v>      -0.33333333       0.33333333       0.00000000 </v>
   <v>       0.00000000       0.00000000       0.33333333 </v>
   <v>       0.33333333       0.00000000       0.33333333 </v>
   <v>      -0.33333333       0.00000000       0.33333333 </v>
   <v>       0.00000000       0.33333333       0.33333333 </v>
   <v>       0.33333333       0.33333333       0.33333333 </v>
   <v>      -0.33333333       0.33333333       0.33333333 </v>
   <v>       0.00000000      -0.33333333       0.33333333 </v>
   <v>       0.33333333      -0.33333333       0.33333333 </v>
   <v>      -0.33333333      -0.33333333       0.33333333 </v>
  </varray>
  <varray name="weights" >
   <v>       0.03703704 </v>
   <v>       0.07407407 </v>
   <v>       0.07407407 </v>
   <v>       0.07407407 </v>
   <v>       0.07407407 </v>
   <v>       0.07407407 </v>
   <v>       0.07407407 </v>
   <v>       0.07407407 </v>
   <v>       0.07407407 </v>
   <v>       0.07407407 </v>
   <v>       0.07407407 </v>
   <v>       0.07407407 </v>
   <v>       0.07407407 </v>
   <v>       0.07407407 </v>
  </varray>
 </kpoints>
 <parameters>
  <separator name="general" >
   <i type="string" name="SYSTEM">HECN</i>
   <i type="logical" name="LCOMPAT"> F  </i>
  </separator>
  <separator name="electronic" >
   <i type="string" name="PREC">normal</i>
   <i name="ENMAX">    400.00000000</i>
   <i name="ENAUG">    644.87300000</i>
   <i name="EDIFF">      0.00001000</i>
   <i type="int" name="IALGO">    68</i>
   <i type="int" name="IWAVPR">    11</i>
   <i type="int" name="NBANDS">   288</i>
   <i name="NELECT">    481.00000000</i>
   <i type="int" name="TURBO">     0</i>
   <i type="int" name="IRESTART">     0</i>
   <i type="int" name="NREBOOT">     0</i>
   <i type="int" name="NMIN">     0</i>
   <i name="EREF">      0.00000000</i>
   <separator name="electronic smearing" >
    <i type="int" name="ISMEAR">     0</i>
    <i name="SIGMA">      0.10000000</i>
    <i name="KSPACING">      0.50000000</i>
    <i type="logical" name="KGAMMA"> T  </i>
   </separator>
   <separator name="electronic projectors" >
    <i type="logical" name="LREAL"> F  </i>
    <v name="ROPT">      0.00000000      0.00000000      0.00000000      0.00000000      0.00000000      0.00000000      0.00000000</v>
    <i type="int" name="LMAXPAW">  -100</i>
    <i type="int" name="LMAXMIX">     2</i>
    <i type="logical" name="NLSPLINE"> F  </i>
   </separator>
   <separator name="electronic startup" >
    <i type="int" name="ISTART">     0</i>
    <i type="int" name="ICHARG">     2</i>
    <i type="int" name="INIWAV">     1</i>
   </separator>
   <separator name="electronic spin" >
    <i type="int" name="ISPIN">     1</i>
    <i type="logical" name="LNONCOLLINEAR"> F  </i>
    <v name="MAGMOM">      1.00000000      1.00000000      1.00000000      1.00000000      1.00000000      1.00000000      1.00000000      1.00000000      1.00000000      1.00000000      1.00000000      1.00000000      1.00000000      1.00000000      1.00000000      1.00000000      1.00000000      1.00000000      1.00000000      1.00000000
      1.00000000      1.00000000      1.00000000      1.00000000      1.00000000      1.00000000      1.00000000      1.00000000      1.00000000      1.00000000      1.00000000      1.00000000      1.00000000      1.00000000      1.00000000      1.00000000      1.00000000      1.00000000      1.00000000      1.00000000
      1.00000000      1.00000000      1.00000000      1.00000000      1.00000000      1.00000000      1.00000000      1.00000000      1.00000000      1.00000000      1.00000000      1.00000000      1.00000000      1.00000000      1.00000000      1.00000000      1.00000000      1.00000000      1.00000000      1.00000000
      1.00000000      1.00000000      1.00000000      1.00000000</v>
    <i name="NUPDOWN">     -1.00000000</i>
    <i type="logical" name="LSORBIT"> F  </i>
    <v name="SAXIS">      0.00000000      0.00000000      1.00000000</v>
    <i type="logical" name="LSPIRAL"> F  </i>
    <v name="QSPIRAL">      0.00000000      0.00000000      0.00000000</v>
    <i type="logical" name="LZEROZ"> F  </i>
   </separator>
   <separator name="electronic exchange-correlation" >
    <i type="logical" name="LASPH"> F  </i>
    <i type="logical" name="LMETAGGA"> F  </i>
   </separator>
   <separator name="electronic convergence" >
    <i type="int" name="NELM">    60</i>
    <i type="int" name="NELMDL">    -5</i>
    <i type="int" name="NELMIN">     2</i>
    <i name="ENINI">    400.00000000</i>
    <separator name="electronic convergence detail" >
     <i type="logical" name="LDIAG"> T  </i>
     <i type="logical" name="LSUBROT"> F  </i>
     <i name="WEIMIN">      0.00100000</i>
     <i name="EBREAK">      0.00000001</i>
     <i name="DEPER">      0.30000000</i>
     <i type="int" name="NRMM">     4</i>
     <i name="TIME">      0.40000000</i>
    </separator>
   </separator>
   <separator name="electronic mixer" >
    <i name="AMIX">      0.40000000</i>
    <i name="BMIX">      1.00000000</i>
    <i name="AMIN">      0.10000000</i>
    <i name="AMIX_MAG">      1.60000000</i>
    <i name="BMIX_MAG">      1.00000000</i>
    <separator name="electronic mixer details" >
     <i type="int" name="IMIX">     4</i>
     <i type="logical" name="MIXFIRST"> F  </i>
     <i type="int" name="MAXMIX">   -45</i>
     <i name="WC">    100.00000000</i>
     <i type="int" name="INIMIX">     1</i>
     <i type="int" name="MIXPRE">     1</i>
     <i type="int" name="MREMOVE">     5</i>
    </separator>
   </separator>
   <separator name="electronic dipolcorrection" >
    <i type="logical" name="LDIPOL"> F  </i>
    <i type="logical" name="LMONO"> F  </i>
    <i type="int" name="IDIPOL">     0</i>
    <i name="EPSILON">      1.00000000</i>
    <v name="DIPOL">   -100.00000000   -100.00000000   -100.00000000</v>
    <i name="EFIELD">      0.00000000</i>
   </separator>
  </separator>
  <separator name="grids" >
   <i type="int" name="NGX">    56</i>
   <i type="int" name="NGY">    56</i>
   <i type="int" name="NGZ">    56</i>
   <i type="int" name="NGXF">   112</i>
   <i type="int" name="NGYF">   112</i>
   <i type="int" name="NGZF">   112</i>
   <i type="logical" name="ADDGRID"> F  </i>
  </separator>
  <separator name="ionic" >
   <i type="int" name="NSW">   100</i>
   <i type="int" name="IBRION">     2</i>
   <i type="int" name="MDALGO">     0</i>
   <i type="int" name="ISIF">     3</i>
   <i name="PSTRESS">      0.00000000</i>
   <i name="EDIFFG">     -0.01000000</i>
   <i type="int" name="NFREE">     1</i>
   <i name="POTIM">      0.50000000</i>
   <i name="SMASS">     -3.00000000</i>
   <i name="SCALEE">      1.00000000</i>
  </separator>
  <separator name="ionic md" >
   <i name="TEBEG">      0.00010000</i>
   <i name="TEEND">      0.00010000</i>
   <i type="int" name="NBLOCK">     1</i>
   <i type="int" name="KBLOCK">   100</i>
   <i type="int" name="NPACO">   256</i>
   <i name="APACO">     16.00000000</i>
  </separator>
  <separator name="symmetry" >
   <i type="int" name="ISYM">     2</i>
   <i name="SYMPREC">      0.00001000</i>
  </separator>
  <separator name="dos" >
   <i type="int" name="LORBIT">     0</i>
   <v name="RWIGS">     -1.00000000     -1.00000000     -1.00000000     -1.00000000     -1.00000000     -1.00000000     -1.00000000</v>
   <i type="int" name="NEDOS">   301</i>
   <i name="EMIN">     10.00000000</i>
   <i name="EMAX">    -10.00000000</i>
   <i name="EFERMI">      0.00000000</i>
  </separator>
  <separator name="writing" >
   <i type="int" name="NWRITE">     2</i>
   <i type="logical" name="LWAVE"> F  </i>
   <i type="logical" name="LDOWNSAMPLE"> F  </i>
   <i type="logical" name="LCHARG"> F  </i>
   <i type="logical" name="LPARD"> F  </i>
   <i type="logical" name="LVTOT"> F  </i>
   <i type="logical" name="LVHAR"> F  </i>
   <i type="logical" name="LELF"> F  </i>
   <i type="logical" name="LOPTICS"> F  </i>
   <v name="STM">      0.00000000      0.00000000      0.00000000      0.00000000      0.00000000      0.00000000      0.00000000</v>
  </separator>
  <separator name="performance" >
   <i type="int" name="NPAR">    24</i>
   <i type="int" name="NSIM">     4</i>
   <i type="int" name="NBLK">    -1</i>
   <i type="logical" name="LPLANE"> T  </i>
   <i type="logical" name="LSCALAPACK"> T  </i>
   <i type="logical" name="LSCAAWARE"> F  </i>
   <i type="logical" name="LSCALU"> F  </i>
   <i type="logical" name="LASYNC"> F  </i>
   <i type="logical" name="LORBITALREAL"> F  </i>
  </separator>
  <separator name="miscellaneous" >
   <i type="int" name="IDIOT">     3</i>
   <i type="int" name="ISPECIAL">     0</i>
   <i type="logical" name="LMUSIC"> F  </i>
   <v name="POMASS">     47.88000000     95.94000000    178.49000000     14.00100000     12.01100000    183.85000000     50.94100000</v>
   <v name="DARWINR">      0.00000000      0.00000000      0.00000000      0.00000000      0.00000000      0.00000000      0.00000000</v>
   <v name="DARWINV">      1.00000000      1.00000000      1.00000000      1.00000000      1.00000000      1.00000000      1.00000000</v>
   <i type="logical" name="LCORR"> T  </i>
  </separator>
  <i type="logical" name="GGA_COMPAT"> T  </i>
  <i type="logical" name="LBERRY"> F  </i>
  <i type="int" name="ICORELEVEL">     0</i>
  <i type="logical" name="LDAU"> F  </i>
  <i type="int" name="I_CONSTRAINED_M">     0</i>
  <separator name="electronic exchange-correlation" >
   <i type="string" name="GGA">--</i>
   <i type="int" name="VOSKOWN">     0</i>
   <i type="logical" name="LHFCALC"> F  </i>
   <i type="string" name="PRECFOCK"></i>
   <i type="logical" name="LSYMGRAD"> F  </i>
   <i type="logical" name="LHFONE"> F  </i>
   <i type="logical" name="LRHFCALC"> F  </i>
   <i type="logical" name="LTHOMAS"> F  </i>
   <i type="logical" name="LMODELHF"> F  </i>
   <i name="ENCUT4O">     -1.00000000</i>
   <i type="int" name="EXXOEP">     0</i>
   <i type="int" name="FOURORBIT">     0</i>
   <i name="AEXX">      0.00000000</i>
   <i name="HFALPHA">      0.00000000</i>
   <i name="MCALPHA">      0.00000000</i>
   <i name="ALDAX">      1.00000000</i>
   <i name="AGGAX">      1.00000000</i>
   <i name="ALDAC">      1.00000000</i>
   <i name="AGGAC">      1.00000000</i>
   <i type="int" name="NKREDX">     1</i>
   <i type="int" name="NKREDY">     1</i>
   <i type="int" name="NKREDZ">     1</i>
   <i type="logical" name="SHIFTRED"> F  </i>
   <i type="logical" name="ODDONLY"> F  </i>
   <i type="logical" name="EVENONLY"> F  </i>
   <i type="int" name="LMAXFOCK">     0</i>
   <i type="int" name="NMAXFOCKAE">     0</i>
   <i type="logical" name="LFOCKAEDFT"> F  </i>
   <i name="HFSCREEN">      0.00000000</i>
   <i name="HFSCREENC">      0.00000000</i>
   <i type="int" name="NBANDSGWLOW">     0</i>
  </separator>
  <separator name="vdW DFT" >
   <i type="logical" name="LUSE_VDW"> F  </i>
   <i name="Zab_VDW">     -0.84910000</i>
   <i name="PARAM1">      0.12340000</i>
   <i name="PARAM2">      1.00000000</i>
   <i name="PARAM3">      0.00000000</i>
  </separator>
  <separator name="model GW" >
   <i type="int" name="MODEL_GW">     0</i>
   <i name="MODEL_EPS0">     13.31282379</i>
   <i name="MODEL_ALPHA">      1.00000000</i>
  </separator>
  <separator name="linear response parameters" >
   <i type="logical" name="LEPSILON"> F  </i>
   <i type="logical" name="LRPA"> F  </i>
   <i type="logical" name="LNABLA"> F  </i>
   <i type="logical" name="LVEL"> F  </i>
   <i type="int" name="KINTER">     0</i>
   <i name="CSHIFT">      0.10000000</i>
   <i name="OMEGAMAX">     -1.00000000</i>
   <i name="DEG_THRESHOLD">      0.00200000</i>
   <i name="RTIME">     -0.10000000</i>
   <i name="WPLASMAI">      0.00000000</i>
   <v name="DFIELD">      0.00000000      0.00000000      0.00000000</v>
   <v name="WPLASMA">      0.00000000      0.00000000      0.00000000      0.00000000      0.00000000      0.00000000      0.00000000      0.00000000      0.00000000</v>
  </separator>
  <separator name="orbital magnetization" >
   <i type="logical" name="NUCIND"> F  </i>
   <v name="MAGPOS">      0.00000000      0.00000000      0.00000000</v>
   <i type="logical" name="LNICSALL"> T  </i>
   <i type="logical" name="ORBITALMAG"> F  </i>
   <i type="logical" name="LMAGBLOCH"> F  </i>
   <i type="logical" name="LCHIMAG"> F  </i>
   <i type="logical" name="LGAUGE"> T  </i>
   <i type="int" name="MAGATOM">     0</i>
   <v name="MAGDIPOL">      0.00000000      0.00000000      0.00000000</v>
   <v name="AVECCONST">      0.00000000      0.00000000      0.00000000</v>
  </separator>
  <separator name="response functions" >
   <i type="logical" name="LADDER"> F  </i>
   <i type="logical" name="LRPAFORCE"> F  </i>
   <i type="logical" name="LFXC"> F  </i>
   <i type="logical" name="LHARTREE"> T  </i>
   <i type="int" name="IBSE">     0</i>
   <v type="int" name="KPOINT">    -1     0     0     0</v>
   <i type="logical" name="LTCTE"> F  </i>
   <i type="logical" name="LTETE"> F  </i>
   <i type="logical" name="LTRIPLET"> F  </i>
   <i type="logical" name="LFXCEPS"> F  </i>
   <i type="logical" name="LFXHEG"> F  </i>
   <i type="int" name="NATURALO">     2</i>
   <i type="logical" name="L2ORDER"> F  </i>
   <i type="logical" name="LMP2LT"> F  </i>
   <i type="logical" name="LUSEW"> F  </i>
   <i name="ENCUTGW">     -2.00000000</i>
   <i name="ENCUTGWSOFT">     -2.00000000</i>
   <i name="ENCUTLF">     -1.00000000</i>
   <i type="int" name="LMAXMP2">    -1</i>
   <i name="SCISSOR">      0.00000000</i>
   <i type="int" name="NOMEGA">     0</i>
   <i type="int" name="NOMEGAR">     0</i>
   <i type="int" name="NBANDSGW">    -1</i>
   <i type="int" name="NBANDSO">    -1</i>
   <i type="int" name="NBANDSV">    -1</i>
   <i type="int" name="NELM">    60</i>
   <i type="int" name="NELMHF">     1</i>
   <i type="int" name="DIM">     3</i>
   <i type="int" name="ANTIRES">     0</i>
   <i name="OMEGAMAX">    -30.00000000</i>
   <i name="OMEGAMIN">    -30.00000000</i>
   <i name="OMEGATL">   -200.00000000</i>
   <i type="int" name="OMEGAGRID">   140</i>
   <i name="CSHIFT">     -0.10000000</i>
   <i type="logical" name="SELFENERGY"> F  </i>
   <i type="logical" name="LSPECTRAL"> F  </i>
   <i type="logical" name="LSPECTRALGW"> F  </i>
   <i type="logical" name="LSINGLES"> F  </i>
   <i type="logical" name="LFERMIGW"> F  </i>
   <i type="logical" name="ODDONLYGW"> F  </i>
   <i type="logical" name="EVENONLYGW"> F  </i>
   <i type="int" name="NKREDLFX">     1</i>
   <i type="int" name="NKREDLFY">     1</i>
   <i type="int" name="NKREDLFZ">     1</i>
   <i type="int" name="MAXMEM">  2800</i>
   <i type="int" name="TELESCOPE">     0</i>
   <i type="int" name="TAUPAR">     1</i>
   <i type="int" name="OMEGAPAR">    -1</i>
   <i name="LAMBDA">      1.00000000</i>
  </separator>
  <separator name="External order field" >
   <i name="OFIELD_KAPPA">      0.00000000</i>
   <v name="OFIELD_K">      0.00000000      0.00000000      0.00000000</v>
   <i name="OFIELD_Q6_NEAR">      0.00000000</i>
   <i name="OFIELD_Q6_FAR">      0.00000000</i>
   <i name="OFIELD_A">      0.00000000</i>
  </separator>
 </parameters>
 <atominfo>
  <atoms>      64 </atoms>
  <types>       7 </types>
  <array name="atoms" >
   <dimension dim="1">ion</dimension>
   <field type="string">element</field>
   <field type="int">atomtype</field>
   <set>
    <rc><c>Ti</c><c>   1</c></rc>
    <rc><c>Ti</c><c>   1</c></rc>
    <rc><c>Ti</c><c>   1</c></rc>
    <rc><c>Ti</c><c>   1</c></rc>
    <rc><c>Ti</c><c>   1</c></rc>
    <rc><c>Ti</c><c>   1</c></rc>
    <rc><c>Ti</c><c>   1</c></rc>
    <rc><c>Mo</c><c>   2</c></rc>
    <rc><c>Mo</c><c>   2</c></rc>
    <rc><c>Mo</c><c>   2</c></rc>
    <rc><c>Mo</c><c>   2</c></rc>
    <rc><c>Mo</c><c>   2</c></rc>
    <rc><c>Mo</c><c>   2</c></rc>
    <rc><c>Hf</c><c>   3</c></rc>
    <rc><c>Hf</c><c>   3</c></rc>
    <rc><c>Hf</c><c>   3</c></rc>
    <rc><c>Hf</c><c>   3</c></rc>
    <rc><c>Hf</c><c>   3</c></rc>
    <rc><c>Hf</c><c>   3</c></rc>
    <rc><c>Hf</c><c>   3</c></rc>
    <rc><c>N </c><c>   4</c></rc>
    <rc><c>N </c><c>   4</c></rc>
    <rc><c>N </c><c>   4</c></rc>
    <rc><c>N </c><c>   4</c></rc>
    <rc><c>N </c><c>   4</c></rc>
    <rc><c>N </c><c>   4</c></rc>
    <rc><c>N </c><c>   4</c></rc>
    <rc><c>N </c><c>   4</c></rc>
    <rc><c>N </c><c>   4</c></rc>
    <rc><c>N </c><c>   4</c></rc>
    <rc><c>N </c><c>   4</c></rc>
    <rc><c>N </c><c>   4</c></rc>
    <rc><c>N </c><c>   4</c></rc>
    <rc><c>C </c><c>   5</c></rc>
    <rc><c>C </c><c>   5</c></rc>
    <rc><c>C </c><c>   5</c></rc>
    <rc><c>C </c><c>   5</c></rc>
    <rc><c>C </c><c>   5</c></rc>
    <rc><c>C </c><c>   5</c></rc>
    <rc><c>C </c><c>   5</c></rc>
    <rc><c>C </c><c>   5</c></rc>
    <rc><c>C </c><c>   5</c></rc>
    <rc><c>C </c><c>   5</c></rc>
    <rc><c>C </c><c>   5</c></rc>
    <rc><c>C </c><c>   5</c></rc>
    <rc><c>C </c><c>   5</c></rc>
    <rc><c>C </c><c>   5</c></rc>
    <rc><c>C </c><c>   5</c></rc>
    <rc><c>C </c><c>   5</c></rc>
    <rc><c>C </c><c>   5</c></rc>
    <rc><c>C </c><c>   5</c></rc>
    <rc><c>C </c><c>   5</c></rc>
    <rc><c>W </c><c>   6</c></rc>
    <rc><c>W </c><c>   6</c></rc>
    <rc><c>W </c><c>   6</c></rc>
    <rc><c>W </c><c>   6</c></rc>
    <rc><c>W </c><c>   6</c></rc>
    <rc><c>W </c><c>   6</c></rc>
    <rc><c>V </c><c>   7</c></rc>
    <rc><c>V </c><c>   7</c></rc>
    <rc><c>V </c><c>   7</c></rc>
    <rc><c>V </c><c>   7</c></rc>
    <rc><c>V </c><c>   7</c></rc>
    <rc><c>V </c><c>   7</c></rc>
   </set>
  </array>
  <array name="atomtypes" >
   <dimension dim="1">type</dimension>
   <field type="int">atomspertype</field>
   <field type="string">element</field>
   <field>mass</field>
   <field>valence</field>
   <field type="string">pseudopotential</field>
   <set>
    <rc><c>   7</c><c>Ti</c><c>     47.88000000</c><c>     12.00000000</c><c> PAW_PBE Ti_sv 07Sep2000                </c></rc>
    <rc><c>   6</c><c>Mo</c><c>     95.94000000</c><c>      6.00000000</c><c> PAW_PBE Mo 08Apr2002                   </c></rc>
    <rc><c>   7</c><c>Hf</c><c>    178.49000000</c><c>     10.00000000</c><c> PAW_PBE Hf_pv 06Sep2000                </c></rc>
    <rc><c>  13</c><c>N </c><c>     14.00100000</c><c>      5.00000000</c><c> PAW_PBE N 08Apr2002                    </c></rc>
    <rc><c>  19</c><c>C </c><c>     12.01100000</c><c>      4.00000000</c><c> PAW_PBE C 08Apr2002                    </c></rc>
    <rc><c>   6</c><c>W </c><c>    183.85000000</c><c>     12.00000000</c><c> PAW_PBE W_pv 06Sep2000                 </c></rc>
    <rc><c>   6</c><c>V </c><c>     50.94100000</c><c>     13.00000000</c><c> PAW_PBE V_sv 07Sep2000                 </c></rc>
   </set>
  </array>
 </atominfo>
 <structure name="initialpos" >
  <crystal>
   <varray name="basis" >
    <v>      11.23999977       0.00000000       0.00000000 </v>
    <v>       0.00000000      11.23999977       0.00000000 </v>
    <v>       0.00000000       0.00000000      11.23999977 </v>
   </varray>
   <i name="volume">   1420.03453724 </i>
   <varray name="rec_basis" >
    <v>       0.08896797       0.00000000       0.00000000 </v>
    <v>       0.00000000       0.08896797       0.00000000 </v>
    <v>       0.00000000       0.00000000       0.08896797 </v>
   </varray>
  </crystal>
  <varray name="positions" >
   <v>       0.00000000       0.00000000       0.00000000 </v>
   <v>       0.25000000       0.00000000       0.25000000 </v>
   <v>       0.25000000       0.50000000       0.25000000 </v>
   <v>       0.50000000       0.50000000       0.00000000 </v>
   <v>       0.50000000       0.25000000       0.75000004 </v>
   <v>       0.00000000       0.50000000       0.50000000 </v>
   <v>       0.50000000       0.75000004       0.75000004 </v>
   <v>       0.00000000       0.25000000       0.25000000 </v>
   <v>       0.75000004       0.75000004       0.00000000 </v>
   <v>       0.00000000       0.25000000       0.75000004 </v>
   <v>       0.75000004       0.25000000       0.50000000 </v>
   <v>       0.00000000       0.75000004       0.75000004 </v>
   <v>       0.25000000       0.50000000       0.75000004 </v>
   <v>       0.25000000       0.25000000       0.00000000 </v>
   <v>       0.50000000       0.25000000       0.25000000 </v>
   <v>       0.75000004       0.00000000       0.25000000 </v>
   <v>       0.75000004       0.25000000       0.00000000 </v>
   <v>       0.25000000       0.75000004       0.00000000 </v>
   <v>       0.25000000       0.25000000       0.50000000 </v>
   <v>       0.25000000       0.75000004       0.50000000 </v>
   <v>       0.25000000       0.25000000       0.25000000 </v>
   <v>       0.25000000       0.00000000       0.00000000 </v>
   <v>       0.00000000       0.25000000       0.00000000 </v>
   <v>       0.75000004       0.25000000       0.25000000 </v>
   <v>       0.75000004       0.00000000       0.00000000 </v>
   <v>       0.50000000       0.00000000       0.25000000 </v>
   <v>       0.00000000       0.50000000       0.25000000 </v>
   <v>       0.50000000       0.75000004       0.00000000 </v>
   <v>       0.00000000       0.00000000       0.75000004 </v>
   <v>       0.75000004       0.25000000       0.75000004 </v>
   <v>       0.75000004       0.00000000       0.50000000 </v>
   <v>       0.50000000       0.25000000       0.50000000 </v>
   <v>       0.50000000       0.00000000       0.75000004 </v>
   <v>       0.00000000       0.00000000       0.25000000 </v>
   <v>       0.50000000       0.25000000       0.00000000 </v>
   <v>       0.25000000       0.75000004       0.25000000 </v>
   <v>       0.25000000       0.50000000       0.00000000 </v>
   <v>       0.00000000       0.75000004       0.00000000 </v>
   <v>       0.75000004       0.75000004       0.25000000 </v>
   <v>       0.75000004       0.50000000       0.00000000 </v>
   <v>       0.50000000       0.50000000       0.25000000 </v>
   <v>       0.25000000       0.25000000       0.75000004 </v>
   <v>       0.25000000       0.00000000       0.50000000 </v>
   <v>       0.00000000       0.25000000       0.50000000 </v>
   <v>       0.25000000       0.75000004       0.75000004 </v>
   <v>       0.25000000       0.50000000       0.50000000 </v>
   <v>       0.00000000       0.75000004       0.50000000 </v>
   <v>       0.00000000       0.50000000       0.75000004 </v>
   <v>       0.75000004       0.75000004       0.75000004 </v>
   <v>       0.75000004       0.50000000       0.50000000 </v>
   <v>       0.50000000       0.75000004       0.50000000 </v>
   <v>       0.50000000       0.50000000       0.75000004 </v>
   <v>       0.50000000       0.00000000       0.00000000 </v>
   <v>       0.00000000       0.50000000       0.00000000 </v>
   <v>       0.50000000       0.75000004       0.25000000 </v>
   <v>       0.25000000       0.00000000       0.75000004 </v>
   <v>       0.50000000       0.00000000       0.50000000 </v>
   <v>       0.75000004       0.00000000       0.75000004 </v>
   <v>       0.00000000       0.75000004       0.25000000 </v>
   <v>       0.75000004       0.50000000       0.25000000 </v>
   <v>       0.00000000       0.00000000       0.50000000 </v>
   <v>       0.50000000       0.50000000       0.50000000 </v>
   <v>       0.75000004       0.50000000       0.75000004 </v>
   <v>       0.75000004       0.75000004       0.50000000 </v>
  </varray>
 </structure>
 <calculation>
  <scstep>
   <time name="dav">   87.84   88.03</time>
   <time name="total">   87.89   88.10</time>
   <energy>
    <i name="alphaZ">   1949.67077820 </i>
    <i name="ewald"> -29426.53342278 </i>
    <i name="hartreedc"> -12002.84533697 </i>
    <i name="XCdc">   1272.75239394 </i>
    <i name="pawpsdc">  28169.92640679 </i>
    <i name="pawaedc"> -27572.65111808 </i>
    <i name="eentropy">     -0.10550189 </i>
    <i name="bandstr">  -2103.77922771 </i>
    <i name="atom">  43936.78918556 </i>
    <i name="e_fr_energy">   4223.22415705 </i>
    <i name="e_wo_entrp">   4223.32965894 </i>
    <i name="e_0_energy">   4223.27690799 </i>
   </energy>
  </scstep>
  <scstep>
   <time name="dav">   80.61   80.74</time>
   <time name="total">   80.61   80.74</time>
   <energy>
    <i name="e_fr_energy">    162.61167784 </i>
    <i name="e_wo_entrp">    162.89460771 </i>
    <i name="e_0_energy">    162.75314277 </i>
   </energy>
  </scstep>
  <scstep>
   <time name="dav">  110.61  111.01</time>
   <time name="total">  110.61  111.01</time>
   <energy>
    <i name="e_fr_energy">   -528.83288749 </i>
    <i name="e_wo_entrp">   -528.60246191 </i>
    <i name="e_0_energy">   -528.71767470 </i>
   </energy>
  </scstep>
  <scstep>
   <time name="dav">  112.07  112.45</time>
   <time name="total">  112.08  112.45</time>
   <energy>
    <i name="e_fr_energy">   -616.95138152 </i>
    <i name="e_wo_entrp">   -616.71676511 </i>
    <i name="e_0_energy">   -616.83407332 </i>
   </energy>
  </scstep>
  <scstep>
   <time name="dav">  118.65  119.03</time>
   <time name="total">  119.29  119.67</time>
   <energy>
    <i name="e_fr_energy">   -626.80680658 </i>
    <i name="e_wo_entrp">   -626.53915688 </i>
    <i name="e_0_energy">   -626.67298173 </i>
   </energy>
  </scstep>
  <scstep>
   <time name="diag">    2.67    2.67</time>
   <time name="diis">   83.95   85.09</time>
   <time name="orth">    0.61    0.61</time>
   <time name="total">   87.95   89.10</time>
   <energy>
    <i name="e_fr_energy">   -657.12823924 </i>
    <i name="e_wo_entrp">   -656.53127381 </i>
    <i name="e_0_energy">   -656.82975653 </i>
   </energy>
  </scstep>
  <scstep>
   <time name="diag">    2.71    2.73</time>
   <time name="diis">   85.45   85.64</time>
   <time name="orth">    0.61    0.61</time>
   <time name="total">   89.47   89.68</time>
   <energy>
    <i name="e_fr_energy">   -507.38542793 </i>
    <i name="e_wo_entrp">   -507.13180084 </i>
    <i name="e_0_energy">   -507.25861439 </i>
   </energy>
  </scstep>
  <scstep>
   <time name="diag">    2.68    2.68</time>
   <time name="diis">   77.04   77.35</time>
   <time name="orth">    0.61    0.61</time>
   <time name="total">   81.03   81.34</time>
   <energy>
    <i name="e_fr_energy">   -468.96203929 </i>
    <i name="e_wo_entrp">   -468.57718548 </i>
    <i name="e_0_energy">   -468.76961239 </i>
   </energy>
  </scstep>
  <scstep>
   <time name="diag">    2.67    2.67</time>
   <time name="diis">   88.33   88.68</time>
   <time name="orth">    0.60    0.60</time>
   <time name="total">   92.35   92.70</time>
   <energy>
    <i name="e_fr_energy">   -458.56593425 </i>
    <i name="e_wo_entrp">   -458.02549609 </i>
    <i name="e_0_energy">   -458.29571517 </i>
   </energy>
  </scstep>
  <scstep>
   <time name="diag">    2.69    2.69</time>
   <time name="diis">   86.64   86.94</time>
   <time name="orth">    0.60    0.60</time>
   <time name="total">   90.66   90.97</time>
   <energy>
    <i name="e_fr_energy">   -457.53490375 </i>
    <i name="e_wo_entrp">   -457.09628532 </i>
    <i name="e_0_energy">   -457.31559453 </i>
   </energy>
  </scstep>
  <scstep>
   <time name="diag">    2.69    2.69</time>
   <time name="diis">   87.18   87.36</time>
   <time name="orth">    0.60    0.60</time>
   <time name="total">   91.19   91.38</time>
   <energy>
    <i name="e_fr_energy">   -454.61241921 </i>
    <i name="e_wo_entrp">   -454.12391940 </i>
    <i name="e_0_energy">   -454.36816930 </i>
   </energy>
  </scstep>
  <scstep>
   <time name="diag">    2.69    2.71</time>
   <time name="diis">   87.87   88.03</time>
   <time name="orth">    0.60    0.60</time>
   <time name="total">   91.90   92.08</time>
   <energy>
    <i name="e_fr_energy">   -452.02695608 </i>
    <i name="e_wo_entrp">   -451.56381811 </i>
    <i name="e_0_energy">   -451.79538710 </i>
   </energy>
  </scstep>
  <scstep>
   <time name="diag">    2.68    2.70</time>
   <time name="diis">   87.04   87.26</time>
   <time name="orth">    0.60    0.60</time>
   <time name="total">   91.05   91.29</time>
   <energy>
    <i name="e_fr_energy">   -452.34737515 </i>
    <i name="e_wo_entrp">   -451.83813842 </i>
    <i name="e_0_energy">   -452.09275679 </i>
   </energy>
  </scstep>
  <scstep>
   <time name="diag">    2.67    2.67</time>
   <time name="diis">   86.35   86.48</time>
   <time name="orth">    0.60    0.60</time>
   <time name="total">   90.35   90.48</time>
   <energy>
    <i name="e_fr_energy">   -453.19548086 </i>
    <i name="e_wo_entrp">   -452.63390977 </i>
    <i name="e_0_energy">   -452.91469531 </i>
   </energy>
  </scstep>
  <scstep>
   <time name="diag">    2.68    2.68</time>
   <time name="diis">   87.60   87.85</time>
   <time name="orth">    0.59    0.59</time>
   <time name="total">   91.59   91.86</time>
   <energy>
    <i name="e_fr_energy">   -452.39503512 </i>
    <i name="e_wo_entrp">   -451.84550152 </i>
    <i name="e_0_energy">   -452.12026832 </i>
   </energy>
  </scstep>
  <scstep>
   <time name="diag">    2.67    2.68</time>
   <time name="diis">   88.36   88.50</time>
   <time name="orth">    0.60    0.60</time>
   <time name="total">   92.39   92.53</time>
   <energy>
    <i name="e_fr_energy">   -450.74567065 </i>
    <i name="e_wo_entrp">   -450.13572183 </i>
    <i name="e_0_energy">   -450.44069624 </i>
   </energy>
  </scstep>
  <scstep>
   <time name="diag">    2.67    2.70</time>
   <time name="diis">   87.95   88.13</time>
   <time name="orth">    0.60    0.60</time>
   <time name="total">   91.98   92.19</time>
   <energy>
    <i name="e_fr_energy">   -450.55860604 </i>
    <i name="e_wo_entrp">   -449.93919794 </i>
    <i name="e_0_energy">   -450.24890199 </i>
   </energy>
  </scstep>
  <scstep>
   <time name="diag">    2.69    2.69</time>
   <time name="diis">   87.57   87.77</time>
   <time name="orth">    0.61    0.61</time>
   <time name="total">   91.61   91.82</time>
   <energy>
    <i name="e_fr_energy">   -450.54217852 </i>
    <i name="e_wo_entrp">   -449.97915469 </i>
    <i name="e_0_energy">   -450.26066661 </i>
   </energy>
  </scstep>
  <scstep>
   <time name="diag">    2.71    2.71</time>
   <time name="diis">   87.16   87.55</time>
   <time name="orth">    0.61    0.61</time>
   <time name="total">   91.23   91.62</time>
   <energy>
    <i name="e_fr_energy">   -450.44893355 </i>
    <i name="e_wo_entrp">   -449.87524718 </i>
    <i name="e_0_energy">   -450.16209037 </i>
   </energy>
  </scstep>
  <scstep>
   <time name="diag">    2.70    2.70</time>
   <time name="diis">   86.58   86.81</time>
   <time name="orth">    0.60    0.60</time>
   <time name="total">   90.63   90.87</time>
   <energy>
    <i name="e_fr_energy">   -450.46620950 </i>
    <i name="e_wo_entrp">   -449.88118581 </i>
    <i name="e_0_energy">   -450.17369765 </i>
   </energy>
  </scstep>
  <scstep>
   <time name="diag">    2.80    2.82</time>
   <time name="diis">   87.12   87.49</time>
   <time name="orth">    0.60    0.60</time>
   <time name="total">   91.29   91.67</time>
   <energy>
    <i name="e_fr_energy">   -450.44830264 </i>
    <i name="e_wo_entrp">   -449.87049540 </i>
    <i name="e_0_energy">   -450.15939902 </i>
   </energy>
  </scstep>
  <scstep>
   <time name="diag">    2.69    2.70</time>
   <time name="diis">   86.34   86.61</time>
   <time name="orth">    0.60    0.61</time>
   <time name="total">   90.39   90.69</time>
   <energy>
    <i name="e_fr_energy">   -450.34031130 </i>
    <i name="e_wo_entrp">   -449.73774582 </i>
    <i name="e_0_energy">   -450.03902856 </i>
   </energy>
  </scstep>
  <scstep>
   <time name="diag">    2.70    2.70</time>
   <time name="diis">   88.76   88.96</time>
   <time name="orth">    0.60    0.60</time>
   <time name="total">   92.81   93.01</time>
   <energy>
    <i name="e_fr_energy">   -450.31351158 </i>
    <i name="e_wo_entrp">   -449.69446555 </i>
    <i name="e_0_energy">   -450.00398856 </i>
   </energy>
  </scstep>
  <scstep>
   <time name="diag">    2.67    2.67</time>
   <time name="diis">   90.06   90.30</time>
   <time name="orth">    0.60    0.60</time>
   <time name="total">   94.09   94.33</time>
   <energy>
    <i name="e_fr_energy">   -450.32689588 </i>
    <i name="e_wo_entrp">   -449.70066297 </i>
    <i name="e_0_energy">   -450.01377943 </i>
   </energy>
  </scstep>
  <scstep>
   <time name="diag">    2.67    2.67</time>
   <time name="diis">   88.62   88.78</time>
   <time name="orth">    0.60    0.60</time>
   <time name="total">   92.66   92.82</time>
   <energy>
    <i name="e_fr_energy">   -450.34571185 </i>
    <i name="e_wo_entrp">   -449.71916496 </i>
    <i name="e_0_energy">   -450.03243840 </i>
   </energy>
  </scstep>
  <scstep>
   <time name="diag">    2.67    2.67</time>
   <time name="diis">   88.52   88.87</time>
   <time name="orth">    0.60    0.60</time>
   <time name="total">   92.55   92.91</time>
   <energy>
    <i name="e_fr_energy">   -450.33432776 </i>
    <i name="e_wo_entrp">   -449.70184495 </i>
    <i name="e_0_energy">   -450.01808636 </i>
   </energy>
  </scstep>
  <scstep>
   <time name="diag">    2.70    2.70</time>
   <time name="diis">   87.74   87.95</time>
   <time name="orth">    0.60    0.62</time>
   <time name="total">   91.78   92.02</time>
   <energy>
    <i name="e_fr_energy">   -450.33441014 </i>
    <i name="e_wo_entrp">   -449.69960435 </i>
    <i name="e_0_energy">   -450.01700725 </i>
   </energy>
  </scstep>
  <scstep>
   <time name="diag">    2.68    2.69</time>
   <time name="diis">   89.94   90.20</time>
   <time name="orth">    0.60    0.60</time>
   <time name="total">   93.99   94.26</time>
   <energy>
    <i name="e_fr_energy">   -450.34191360 </i>
    <i name="e_wo_entrp">   -449.70201893 </i>
    <i name="e_0_energy">   -450.02196627 </i>
   </energy>
  </scstep>
  <scstep>
   <time name="diag">    2.67    2.68</time>
   <time name="diis">   87.31   87.43</time>
   <time name="orth">    0.61    0.61</time>
   <time name="total">   91.34   91.47</time>
   <energy>
    <i name="e_fr_energy">   -450.34427204 </i>
    <i name="e_wo_entrp">   -449.70284915 </i>
    <i name="e_0_energy">   -450.02356060 </i>
   </energy>
  </scstep>
  <scstep>
   <time name="diag">    2.73    2.75</time>
   <time name="diis">   87.46   87.72</time>
   <time name="orth">    0.60    0.60</time>
   <time name="total">   91.55   91.83</time>
   <energy>
    <i name="e_fr_energy">   -450.34483794 </i>
    <i name="e_wo_entrp">   -449.70693496 </i>
    <i name="e_0_energy">   -450.02588645 </i>
   </energy>
  </scstep>
  <scstep>
   <time name="diag">    2.67    2.67</time>
   <time name="diis">   83.47   83.71</time>
   <time name="orth">    0.62    0.62</time>
   <time name="total">   87.56   87.80</time>
   <energy>
    <i name="e_fr_energy">   -450.34720720 </i>
    <i name="e_wo_entrp">   -449.70927012 </i>
    <i name="e_0_energy">   -450.02823866 </i>
   </energy>
  </scstep>
  <scstep>
   <time name="diag">    2.68    2.69</time>
   <time name="diis">   82.00   82.24</time>
   <time name="orth">    0.61    0.61</time>
   <time name="total">   86.07   86.32</time>
   <energy>
    <i name="e_fr_energy">   -450.34946276 </i>
    <i name="e_wo_entrp">   -449.70966281 </i>
    <i name="e_0_energy">   -450.02956278 </i>
   </energy>
  </scstep>
  <scstep>
   <time name="diag">    2.67    2.67</time>
   <time name="diis">   83.29   83.48</time>
   <time name="orth">    0.60    0.60</time>
   <time name="total">   87.33   87.53</time>
   <energy>
    <i name="e_fr_energy">   -450.35149155 </i>
    <i name="e_wo_entrp">   -449.71003347 </i>
    <i name="e_0_energy">   -450.03076251 </i>
   </energy>
  </scstep>
  <scstep>
   <time name="diag">    2.69    2.72</time>
   <time name="diis">   83.96   84.25</time>
   <time name="orth">    0.61    0.61</time>
   <time name="total">   88.01   88.35</time>
   <energy>
    <i name="e_fr_energy">   -450.35304963 </i>
    <i name="e_wo_entrp">   -449.71096988 </i>
    <i name="e_0_energy">   -450.03200975 </i>
   </energy>
  </scstep>
  <scstep>
   <time name="diag">    2.68    2.70</time>
   <time name="diis">   78.55   78.78</time>
   <time name="orth">    0.60    0.61</time>
   <time name="total">   82.60   82.84</time>
   <energy>
    <i name="e_fr_energy">   -450.35419846 </i>
    <i name="e_wo_entrp">   -449.71151732 </i>
    <i name="e_0_energy">   -450.03285789 </i>
   </energy>
  </scstep>
  <scstep>
   <time name="diag">    2.67    2.68</time>
   <time name="diis">   77.37   77.58</time>
   <time name="orth">    0.62    0.62</time>
   <time name="total">   81.44   81.66</time>
   <energy>
    <i name="e_fr_energy">   -450.35514184 </i>
    <i name="e_wo_entrp">   -449.71220758 </i>
    <i name="e_0_energy">   -450.03367471 </i>
   </energy>
  </scstep>
  <scstep>
   <time name="diag">    2.75    2.80</time>
   <time name="diis">   76.71   76.87</time>
   <time name="orth">    0.61    0.61</time>
   <time name="total">   80.83   81.04</time>
   <energy>
    <i name="e_fr_energy">   -450.35595453 </i>
    <i name="e_wo_entrp">   -449.71247662 </i>
    <i name="e_0_energy">   -450.03421558 </i>
   </energy>
  </scstep>
  <scstep>
   <time name="diag">    2.68    2.68</time>
   <time name="diis">   76.80   76.97</time>
   <time name="orth">    0.60    0.60</time>
   <time name="total">   80.86   81.03</time>
   <energy>
    <i name="e_fr_energy">   -450.35662104 </i>
    <i name="e_wo_entrp">   -449.71260150 </i>
    <i name="e_0_energy">   -450.03461127 </i>
   </energy>
  </scstep>
  <scstep>
   <time name="diag">    2.67    2.67</time>
   <time name="diis">   76.63   76.84</time>
   <time name="orth">    0.61    0.62</time>
   <time name="total">   80.66   80.90</time>
   <energy>
    <i name="e_fr_energy">   -450.35722262 </i>
    <i name="e_wo_entrp">   -449.71246759 </i>
    <i name="e_0_energy">   -450.03484511 </i>
   </energy>
  </scstep>
  <scstep>
   <time name="diag">    2.68    2.68</time>
   <time name="diis">   64.88   65.20</time>
   <time name="orth">    0.61    0.61</time>
   <time name="total">   68.94   69.26</time>
   <energy>
    <i name="e_fr_energy">   -450.35769791 </i>
    <i name="e_wo_entrp">   -449.71252168 </i>
    <i name="e_0_energy">   -450.03510980 </i>
   </energy>
  </scstep>
  <scstep>
   <time name="diag">    2.67    2.68</time>
   <time name="diis">   48.54   48.67</time>
   <time name="orth">    0.60    0.60</time>
   <time name="total">   52.59   52.72</time>
   <energy>
    <i name="e_fr_energy">   -450.35808377 </i>
    <i name="e_wo_entrp">   -449.71241076 </i>
    <i name="e_0_energy">   -450.03524727 </i>
   </energy>
  </scstep>
  <scstep>
   <time name="diag">    2.67    2.67</time>
   <time name="diis">   57.13   57.34</time>
   <time name="orth">    0.60    0.60</time>
   <time name="total">   61.17   61.38</time>
   <energy>
    <i name="e_fr_energy">   -450.35840083 </i>
    <i name="e_wo_entrp">   -449.71200955 </i>
    <i name="e_0_energy">   -450.03520519 </i>
   </energy>
  </scstep>
  <scstep>
   <time name="diag">    2.69    2.69</time>
   <time name="diis">   66.94   67.18</time>
   <time name="orth">    0.60    0.60</time>
   <time name="total">   70.97   71.24</time>
   <energy>
    <i name="e_fr_energy">   -450.35868371 </i>
    <i name="e_wo_entrp">   -449.71200292 </i>
    <i name="e_0_energy">   -450.03534331 </i>
   </energy>
  </scstep>
  <scstep>
   <time name="diag">    2.67    2.68</time>
   <time name="diis">   54.96   55.17</time>
   <time name="orth">    0.60    0.60</time>
   <time name="total">   58.98   59.20</time>
   <energy>
    <i name="e_fr_energy">   -450.35892313 </i>
    <i name="e_wo_entrp">   -449.71203107 </i>
    <i name="e_0_energy">   -450.03547710 </i>
   </energy>
  </scstep>
  <scstep>
   <time name="diag">    2.68    2.69</time>
   <time name="diis">   46.48   46.66</time>
   <time name="orth">    0.59    0.60</time>
   <time name="total">   50.51   50.71</time>
   <energy>
    <i name="e_fr_energy">   -450.35912769 </i>
    <i name="e_wo_entrp">   -449.71185536 </i>
    <i name="e_0_energy">   -450.03549153 </i>
   </energy>
  </scstep>
  <scstep>
   <time name="diag">    2.68    2.68</time>
   <time name="diis">   46.65   46.81</time>
   <time name="orth">    0.62    0.62</time>
   <time name="total">   50.71   50.88</time>
   <energy>
    <i name="e_fr_energy">   -450.35929935 </i>
    <i name="e_wo_entrp">   -449.71172107 </i>
    <i name="e_0_energy">   -450.03551021 </i>
   </energy>
  </scstep>
  <scstep>
   <time name="diag">    2.69    2.69</time>
   <time name="diis">   46.54   46.64</time>
   <time name="orth">    0.60    0.60</time>
   <time name="total">   50.60   50.70</time>
   <energy>
    <i name="e_fr_energy">   -450.35944116 </i>
    <i name="e_wo_entrp">   -449.71174980 </i>
    <i name="e_0_energy">   -450.03559548 </i>
   </energy>
  </scstep>
  <scstep>
   <time name="diag">    2.68    2.68</time>
   <time name="diis">   45.61   45.81</time>
   <time name="orth">    0.59    0.59</time>
   <time name="total">   49.67   49.87</time>
   <energy>
    <i name="e_fr_energy">   -450.35956540 </i>
    <i name="e_wo_entrp">   -449.71166545 </i>
    <i name="e_0_energy">   -450.03561542 </i>
   </energy>
  </scstep>
  <scstep>
   <time name="diag">    2.67    2.67</time>
   <time name="diis">   45.79   45.95</time>
   <time name="orth">    0.59    0.60</time>
   <time name="total">   49.82   50.00</time>
   <energy>
    <i name="e_fr_energy">   -450.35967364 </i>
    <i name="e_wo_entrp">   -449.71161749 </i>
    <i name="e_0_energy">   -450.03564556 </i>
   </energy>
  </scstep>
  <scstep>
   <time name="diag">    2.68    2.69</time>
   <time name="diis">   44.78   45.34</time>
   <time name="orth">    1.07    1.17</time>
   <time name="total">   49.38   50.05</time>
   <energy>
    <i name="e_fr_energy">   -450.35976259 </i>
    <i name="e_wo_entrp">   -449.71156340 </i>
    <i name="e_0_energy">   -450.03566299 </i>
   </energy>
  </scstep>
  <scstep>
   <time name="diag">    3.40    3.48</time>
   <time name="diis">   44.99   45.11</time>
   <time name="orth">    0.60    0.60</time>
   <time name="total">   49.84   50.06</time>
   <energy>
    <i name="e_fr_energy">   -450.35984061 </i>
    <i name="e_wo_entrp">   -449.71150408 </i>
    <i name="e_0_energy">   -450.03567235 </i>
   </energy>
  </scstep>
  <scstep>
   <time name="diag">    2.68    2.68</time>
   <time name="diis">   44.78   44.96</time>
   <time name="orth">    0.60    0.60</time>
   <time name="total">   48.83   49.02</time>
   <energy>
    <i name="e_fr_energy">   -450.35990733 </i>
    <i name="e_wo_entrp">   -449.71142457 </i>
    <i name="e_0_energy">   -450.03566595 </i>
   </energy>
  </scstep>
  <scstep>
   <time name="diag">    2.71    2.72</time>
   <time name="diis">   44.78   44.97</time>
   <time name="orth">    0.60    0.60</time>
   <time name="total">   48.87   49.07</time>
   <energy>
    <i name="e_fr_energy">   -450.35996285 </i>
    <i name="e_wo_entrp">   -449.71135011 </i>
    <i name="e_0_energy">   -450.03565648 </i>
   </energy>
  </scstep>
  <scstep>
   <time name="diag">    2.70    2.71</time>
   <time name="diis">   44.02   44.26</time>
   <time name="orth">    0.60    0.60</time>
   <time name="total">   48.09   48.35</time>
   <energy>
    <i name="e_fr_energy">   -450.36001298 </i>
    <i name="e_wo_entrp">   -449.71130079 </i>
    <i name="e_0_energy">   -450.03565688 </i>
   </energy>
  </scstep>
  <scstep>
   <time name="diag">    2.68    2.68</time>
   <time name="diis">   44.92   45.10</time>
   <time name="orth">    0.59    0.59</time>
   <time name="total">   48.98   49.16</time>
   <energy>
    <i name="e_fr_energy">   -450.36005543 </i>
    <i name="e_wo_entrp">   -449.71124789 </i>
    <i name="e_0_energy">   -450.03565166 </i>
   </energy>
  </scstep>
  <scstep>
   <time name="diag">    2.68    2.68</time>
   <time name="diis">   44.50   44.63</time>
   <time name="orth">    0.60    0.60</time>
   <time name="total">   48.56   48.70</time>
   <energy>
    <i name="e_fr_energy">   -450.36009252 </i>
    <i name="e_wo_entrp">   -449.71120199 </i>
    <i name="e_0_energy">   -450.03564725 </i>
   </energy>
  </scstep>
  <scstep>
   <time name="diag">    2.66    2.66</time>
   <time name="diis">   44.46   44.59</time>
   <time name="orth">    0.59    0.60</time>
   <time name="total">   48.50   48.62</time>
   <energy>
    <i name="e_fr_energy">   -450.36012429 </i>
    <i name="e_wo_entrp">   -449.71115078 </i>
    <i name="e_0_energy">   -450.03563754 </i>
   </energy>
  </scstep>
  <scstep>
   <time name="diag">    2.66    2.67</time>
   <time name="diis">   42.91   43.12</time>
   <time name="orth">    0.59    0.59</time>
   <time name="total">   46.93   47.16</time>
   <energy>
    <i name="e_fr_energy">   -450.36015201 </i>
    <i name="e_wo_entrp">   -449.71110062 </i>
    <i name="e_0_energy">   -450.03562631 </i>
   </energy>
  </scstep>
  <scstep>
   <time name="diag">    2.68    2.68</time>
   <time name="diis">   42.90   43.06</time>
   <time name="orth">    0.60    0.60</time>
   <time name="total">   46.96   47.12</time>
   <energy>
    <i name="e_fr_energy">   -450.36017622 </i>
    <i name="e_wo_entrp">   -449.71105945 </i>
    <i name="e_0_energy">   -450.03561784 </i>
   </energy>
  </scstep>
  <scstep>
   <time name="diag">    2.68    2.68</time>
   <time name="diis">   42.25   42.41</time>
   <time name="orth">    0.60    0.60</time>
   <time name="total">   45.58   45.73</time>
   <energy>
    <i name="alphaZ">   1949.67077820 </i>
    <i name="ewald"> -29426.53342278 </i>
    <i name="hartreedc"> -11210.24196213 </i>
    <i name="XCdc">   1249.75618467 </i>
    <i name="pawpsdc">  26260.68126544 </i>
    <i name="pawaedc"> -25722.67984931 </i>
    <i name="eentropy">     -0.64917817 </i>
    <i name="bandstr">  -7487.15319812 </i>
    <i name="atom">  43936.78918556 </i>
    <i name="e_fr_energy">   -450.36019664 </i>
    <i name="e_wo_entrp">   -449.71101847 </i>
    <i name="e_0_energy">   -450.03560755 </i>
   </energy>
  </scstep>
  <structure>
   <crystal>
    <varray name="basis" >
     <v>      11.23999977       0.00000000       0.00000000 </v>
     <v>       0.00000000      11.23999977       0.00000000 </v>
     <v>       0.00000000       0.00000000      11.23999977 </v>
    </varray>
    <i name="volume">   1420.03453724 </i>
    <varray name="rec_basis" >
     <v>       0.08896797       0.00000000       0.00000000 </v>
     <v>       0.00000000       0.08896797       0.00000000 </v>
     <v>       0.00000000       0.00000000       0.08896797 </v>
    </varray>
   </crystal>
   <varray name="positions" >
    <v>       0.00000000       0.00000000       0.00000000 </v>
    <v>       0.25000000       0.00000000       0.25000000 </v>
    <v>       0.25000000       0.50000000       0.25000000 </v>
    <v>       0.50000000       0.50000000       0.00000000 </v>
    <v>       0.50000000       0.25000000       0.75000004 </v>
    <v>       0.00000000       0.50000000       0.50000000 </v>
    <v>       0.50000000       0.75000004       0.75000004 </v>
    <v>       0.00000000       0.25000000       0.25000000 </v>
    <v>       0.75000004       0.75000004       0.00000000 </v>
    <v>       0.00000000       0.25000000       0.75000004 </v>
    <v>       0.75000004       0.25000000       0.50000000 </v>
    <v>       0.00000000       0.75000004       0.75000004 </v>
    <v>       0.25000000       0.50000000       0.75000004 </v>
    <v>       0.25000000       0.25000000       0.00000000 </v>
    <v>       0.50000000       0.25000000       0.25000000 </v>
    <v>       0.75000004       0.00000000       0.25000000 </v>
    <v>       0.75000004       0.25000000       0.00000000 </v>
    <v>       0.25000000       0.75000004       0.00000000 </v>
    <v>       0.25000000       0.25000000       0.50000000 </v>
    <v>       0.25000000       0.75000004       0.50000000 </v>
    <v>       0.25000000       0.25000000       0.25000000 </v>
    <v>       0.25000000       0.00000000       0.00000000 </v>
    <v>       0.00000000       0.25000000       0.00000000 </v>
    <v>       0.75000004       0.25000000       0.25000000 </v>
    <v>       0.75000004       0.00000000       0.00000000 </v>
    <v>       0.50000000       0.00000000       0.25000000 </v>
    <v>       0.00000000       0.50000000       0.25000000 </v>
    <v>       0.50000000       0.75000004       0.00000000 </v>
    <v>       0.00000000       0.00000000       0.75000004 </v>
    <v>       0.75000004       0.25000000       0.75000004 </v>
    <v>       0.75000004       0.00000000       0.50000000 </v>
    <v>       0.50000000       0.25000000       0.50000000 </v>
    <v>       0.50000000       0.00000000       0.75000004 </v>
    <v>       0.00000000       0.00000000       0.25000000 </v>
    <v>       0.50000000       0.25000000       0.00000000 </v>
    <v>       0.25000000       0.75000004       0.25000000 </v>
    <v>       0.25000000       0.50000000       0.00000000 </v>
    <v>       0.00000000       0.75000004       0.00000000 </v>
    <v>       0.75000004       0.75000004       0.25000000 </v>
    <v>       0.75000004       0.50000000       0.00000000 </v>
    <v>       0.50000000       0.50000000       0.25000000 </v>
    <v>       0.25000000       0.25000000       0.75000004 </v>
    <v>       0.25000000       0.00000000       0.50000000 </v>
    <v>       0.00000000       0.25000000       0.50000000 </v>
    <v>       0.25000000       0.75000004       0.75000004 </v>
    <v>       0.25000000       0.50000000       0.50000000 </v>
    <v>       0.00000000       0.75000004       0.50000000 </v>
    <v>       0.00000000       0.50000000       0.75000004 </v>
    <v>       0.75000004       0.75000004       0.75000004 </v>
    <v>       0.75000004       0.50000000       0.50000000 </v>
    <v>       0.50000000       0.75000004       0.50000000 </v>
    <v>       0.50000000       0.50000000       0.75000004 </v>
    <v>       0.50000000       0.00000000       0.00000000 </v>
    <v>       0.00000000       0.50000000       0.00000000 </v>
    <v>       0.50000000       0.75000004       0.25000000 </v>
    <v>       0.25000000       0.00000000       0.75000004 </v>
    <v>       0.50000000       0.00000000       0.50000000 </v>
    <v>       0.75000004       0.00000000       0.75000004 </v>
    <v>       0.00000000       0.75000004       0.25000000 </v>
    <v>       0.75000004       0.50000000       0.25000000 </v>
    <v>       0.00000000       0.00000000       0.50000000 </v>
    <v>       0.50000000       0.50000000       0.50000000 </v>
    <v>       0.75000004       0.50000000       0.75000004 </v>
    <v>       0.75000004       0.75000004       0.50000000 </v>
   </varray>
  </structure>
  <varray name="forces" >
   <v>      -0.04025415      -0.35377337       0.09480692 </v>
   <v>      -0.28685316      -0.40100191       0.36210714 </v>
   <v>       0.11862029       0.37966029       0.03796305 </v>
   <v>       0.04066088      -0.14590232      -0.05057522 </v>
   <v>      -0.19477127       0.10096451       0.09659975 </v>
   <v>      -0.07987803      -0.01084103       0.21081689 </v>
   <v>       0.04778271      -0.14868715      -0.26924157 </v>
   <v>      -0.14386461      -0.49800036       0.51312983 </v>
   <v>       0.58244300      -0.56305238      -0.07009950 </v>
   <v>       0.43498330       0.42334485      -0.60685065 </v>
   <v>       0.61755362       0.47993939       0.25168614 </v>
   <v>      -0.13367657      -0.42148058      -0.06442357 </v>
   <v>       0.03412494       0.04341653       0.00766689 </v>
   <v>      -0.03427207       0.23309450      -0.44371807 </v>
   <v>       0.11621582       0.30348285      -0.03542137 </v>
   <v>       0.21126815      -0.33721278       0.17325773 </v>
   <v>      -0.03609272       0.31338102      -0.21710141 </v>
   <v>      -0.15775902      -0.21443177      -0.07898048 </v>
   <v>      -0.25723042      -0.00994231       0.42556245 </v>
   <v>      -0.01893246       0.01606455       0.09226833 </v>
   <v>       0.61477015      -0.03992491      -0.04549030 </v>
   <v>       0.29382739       0.03254639      -0.20313513 </v>
   <v>       0.03645526       0.23403832       0.02105299 </v>
   <v>      -0.55412934      -0.67596530      -0.49972158 </v>
   <v>      -0.31612318       0.54415767       0.15128531 </v>
   <v>       0.54467331       0.28904349       0.00215222 </v>
   <v>       0.04952935      -0.22741295      -0.40102944 </v>
   <v>      -0.51791669       0.32610386       0.25418501 </v>
   <v>      -0.11437752       0.03698903       0.15671565 </v>
   <v>      -0.03611128      -0.52654967       0.48325687 </v>
   <v>      -0.43310765       0.19232338      -0.09338168 </v>
   <v>      -0.48050173      -0.44209684      -0.51605250 </v>
   <v>       0.07835681       0.02787235       0.00293030 </v>
   <v>      -0.44826457       0.33378241      -0.09215848 </v>
   <v>       0.03491395      -0.57448329       0.43833881 </v>
   <v>       0.59116903       0.04542501      -0.08785756 </v>
   <v>      -0.51039979      -0.05089245      -0.03998988 </v>
   <v>       0.09989053      -0.51871648      -0.24781013 </v>
   <v>      -0.58666512       0.43838295      -0.25211670 </v>
   <v>       0.53595668      -0.18412574       0.03462782 </v>
   <v>       0.01883318       0.12692076      -0.02966457 </v>
   <v>      -0.17428641      -0.37256872       0.06541555 </v>
   <v>       0.58873565       0.07096730       0.48939378 </v>
   <v>       0.05712880       0.04954825       0.02187238 </v>
   <v>      -0.13629752       0.37879805       0.06479344 </v>
   <v>      -0.09219173      -0.06624182       0.05590718 </v>
   <v>       0.35395970      -0.04831459       0.30279705 </v>
   <v>       0.13041801      -0.01286013       0.58121044 </v>
   <v>       0.19277952       0.68036462       0.24730787 </v>
   <v>       0.07555015      -0.32351646      -0.01891620 </v>
   <v>      -0.34029172       0.63408520      -0.52541805 </v>
   <v>      -0.17066798      -0.00130721       0.01860450 </v>
   <v>       0.13254173       0.40817919      -0.14359126 </v>
   <v>      -0.10582961       0.58533746      -0.51789830 </v>
   <v>       0.15864937      -0.54262901       0.48783758 </v>
   <v>      -0.06175063      -0.06791575      -0.58391349 </v>
   <v>      -0.38629708      -0.55025204       0.13643278 </v>
   <v>       0.07252455      -0.61253704      -0.12944781 </v>
   <v>      -0.09537977       0.32974518       0.06277881 </v>
   <v>      -0.22222202       0.49973199       0.03756350 </v>
   <v>       0.23876282       0.03712550      -0.16841722 </v>
   <v>       0.07295623       0.33203691       0.08378524 </v>
   <v>      -0.06889457       0.39668283      -0.04773457 </v>
   <v>       0.05925552      -0.38090025       0.01404649 </v>
  </varray>
  <varray name="stress" >
   <v>    -416.51399089      -0.35911214       0.14295646 </v>
   <v>      -0.35911186    -418.29462243       0.14505495 </v>
   <v>       0.14295659       0.14505504    -415.25420490 </v>
  </varray>
  <energy>
   <i name="e_fr_energy">   -450.36019664 </i>
   <i name="e_wo_entrp">   -450.03560755 </i>
   <i name="e_0_energy">     -0.64917817 </i>
  </energy>
  <time name="totalsc"> 4778.65 4798.72</time>
 </calculation>
 <calculation>
  <scstep>
   <time name="dav">   77.43   78.22</time>
   <time name="total">   78.10   78.90</time>
   <energy>
    <i name="alphaZ">   5188.60404773 </i>
    <i name="ewald"> -40791.21565750 </i>
    <i name="hartreedc"> -15519.05580536 </i>
    <i name="XCdc">   1920.32117891 </i>
    <i name="pawpsdc">  26260.67799025 </i>
    <i name="pawaedc"> -25722.67674173 </i>
    <i name="eentropy">     -0.04887258 </i>
    <i name="bandstr">   1187.58757251 </i>
    <i name="atom">  43936.78918556 </i>
    <i name="e_fr_energy">  -3539.01710222 </i>
    <i name="e_wo_entrp">  -3538.96822964 </i>
    <i name="e_0_energy">  -3538.99266593 </i>
   </energy>
  </scstep>
  <scstep>
   <time name="diag">    2.68    2.68</time>
   <time name="diis">   87.76   87.98</time>
   <time name="orth">    0.59    0.59</time>
   <time name="total">   91.71   91.93</time>
   <energy>
    <i name="e_fr_energy">  -1405.36828322 </i>
    <i name="e_wo_entrp">  -1405.27631593 </i>
    <i name="e_0_energy">  -1405.32229957 </i>
   </energy>
  </scstep>
  <scstep>
   <time name="diag">    2.67    2.67</time>
   <time name="diis">   61.20   61.32</time>
   <time name="orth">    0.60    0.60</time>
   <time name="total">   65.17   65.30</time>
   <energy>
    <i name="e_fr_energy">   -669.24284382 </i>
    <i name="e_wo_entrp">   -669.13119478 </i>
    <i name="e_0_energy">   -669.18701930 </i>
   </energy>
  </scstep>
  <scstep>
   <time name="diag">    2.69    2.69</time>
   <time name="diis">   71.45   71.58</time>
   <time name="orth">    0.62    0.62</time>
   <time name="total">   75.43   75.58</time>
   <energy>
    <i name="e_fr_energy">   -634.89450410 </i>
    <i name="e_wo_entrp">   -634.77140684 </i>
    <i name="e_0_energy">   -634.83295547 </i>
   </energy>
  </scstep>
  <scstep>
   <time name="diag">    2.71    2.71</time>
   <time name="diis">   84.31   86.62</time>
   <time name="orth">    0.60    0.61</time>
   <time name="total">   88.33   90.65</time>
   <energy>
    <i name="e_fr_energy">   -613.67776856 </i>
    <i name="e_wo_entrp">   -613.55907706 </i>
    <i name="e_0_energy">   -613.61842281 </i>
   </energy>
  </scstep>
  <scstep>
   <time name="diag">    2.69    2.70</time>
   <time name="diis">   89.57   89.82</time>
   <time name="orth">    0.61    0.61</time>
   <time name="total">   93.57   93.83</time>
   <energy>
    <i name="e_fr_energy">   -603.21344175 </i>
    <i name="e_wo_entrp">   -603.09417343 </i>
    <i name="e_0_energy">   -603.15380759 </i>
   </energy>
  </scstep>
  <scstep>
   <time name="diag">    2.69    2.70</time>
   <time name="diis">   96.07   96.40</time>
   <time name="orth">    0.60    0.60</time>
   <time name="total">  100.05  100.38</time>
   <energy>
    <i name="e_fr_energy">   -605.23769370 </i>
    <i name="e_wo_entrp">   -605.11199296 </i>
    <i name="e_0_energy">   -605.17484333 </i>
   </energy>
  </scstep>
  <scstep>
   <time name="diag">    2.70    2.70</time>
   <time name="diis">   97.15   97.45</time>
   <time name="orth">    0.60    0.60</time>
   <time name="total">  101.14  101.47</time>
   <energy>
    <i name="e_fr_energy">   -605.48605909 </i>
    <i name="e_wo_entrp">   -605.35601514 </i>
    <i name="e_0_energy">   -605.42103711 </i>
   </energy>
  </scstep>
  <scstep>
   <time name="diag">    2.70    2.71</time>
   <time name="diis">   95.39   95.71</time>
   <time name="orth">    0.59    0.59</time>
   <time name="total">   99.38   99.71</time>
   <energy>
    <i name="e_fr_energy">   -605.95445449 </i>
    <i name="e_wo_entrp">   -605.83163016 </i>
    <i name="e_0_energy">   -605.89304232 </i>
   </energy>
  </scstep>
  <scstep>
   <time name="diag">    2.68    2.69</time>
   <time name="diis">   97.34   97.78</time>
   <time name="orth">    0.59    0.60</time>
   <time name="total">  101.32  101.76</time>
   <energy>
    <i name="e_fr_energy">   -606.46454196 </i>
    <i name="e_wo_entrp">   -606.33391076 </i>
    <i name="e_0_energy">   -606.39922636 </i>
   </energy>
  </scstep>
  <scstep>
   <time name="diag">    2.71    2.72</time>
   <time name="diis">   92.52   94.33</time>
   <time name="orth">    0.60    0.60</time>
   <time name="total">   96.51   98.34</time>
   <energy>
    <i name="e_fr_energy">   -606.87416151 </i>
    <i name="e_wo_entrp">   -606.74652878 </i>
    <i name="e_0_energy">   -606.81034515 </i>
   </energy>
  </scstep>
  <scstep>
   <time name="diag">    2.69    2.69</time>
   <time name="diis">   93.58   94.87</time>
   <time name="orth">    0.60    0.60</time>
   <time name="total">   97.55   98.84</time>
   <energy>
    <i name="e_fr_energy">   -606.80667932 </i>
    <i name="e_wo_entrp">   -606.68483658 </i>
    <i name="e_0_energy">   -606.74575795 </i>
   </energy>
  </scstep>
  <scstep>
   <time name="diag">    2.69    2.69</time>
   <time name="diis">   95.60   96.05</time>
   <time name="orth">    0.59    0.60</time>
   <time name="total">   99.57  100.02</time>
   <energy>
    <i name="e_fr_energy">   -606.83667389 </i>
    <i name="e_wo_entrp">   -606.70766674 </i>
    <i name="e_0_energy">   -606.77217031 </i>
   </energy>
  </scstep>
  <scstep>
   <time name="diag">    2.69    2.70</time>
   <time name="diis">   95.98   96.30</time>
   <time name="orth">    0.60    0.60</time>
   <time name="total">   99.98  100.31</time>
   <energy>
    <i name="e_fr_energy">   -606.81095708 </i>
    <i name="e_wo_entrp">   -606.68517940 </i>
    <i name="e_0_energy">   -606.74806824 </i>
   </energy>
  </scstep>
  <scstep>
   <time name="diag">    2.70    2.71</time>
   <time name="diis">   97.61   97.96</time>
   <time name="orth">    0.60    0.60</time>
   <time name="total">  101.59  101.95</time>
   <energy>
    <i name="e_fr_energy">   -606.81504754 </i>
    <i name="e_wo_entrp">   -606.68864520 </i>
    <i name="e_0_energy">   -606.75184637 </i>
   </energy>
  </scstep>
  <scstep>
   <time name="diag">    2.70    2.70</time>
   <time name="diis">   95.90   96.29</time>
   <time name="orth">    0.59    0.59</time>
   <time name="total">   99.89  100.28</time>
   <energy>
    <i name="e_fr_energy">   -606.81454176 </i>
    <i name="e_wo_entrp">   -606.68842767 </i>
    <i name="e_0_energy">   -606.75148471 </i>
   </energy>
  </scstep>
  <scstep>
   <time name="diag">    2.70    2.72</time>
   <time name="diis">   96.31   96.60</time>
   <time name="orth">    0.60    0.60</time>
   <time name="total">  100.30  100.61</time>
   <energy>
    <i name="e_fr_energy">   -606.81490820 </i>
    <i name="e_wo_entrp">   -606.68881719 </i>
    <i name="e_0_energy">   -606.75186270 </i>
   </energy>
  </scstep>
  <scstep>
   <time name="diag">    2.70    2.71</time>
   <time name="diis">   96.72   97.00</time>
   <time name="orth">    0.59    0.59</time>
   <time name="total">  100.71  100.99</time>
   <energy>
    <i name="e_fr_energy">   -606.81503300 </i>
    <i name="e_wo_entrp">   -606.68897829 </i>
    <i name="e_0_energy">   -606.75200564 </i>
   </energy>
  </scstep>
  <scstep>
   <time name="diag">    2.71    2.71</time>
   <time name="diis">   94.69   94.93</time>
   <time name="orth">    0.60    0.60</time>
   <time name="total">   98.68   98.92</time>
   <energy>
    <i name="e_fr_energy">   -606.81509170 </i>
    <i name="e_wo_entrp">   -606.68888581 </i>
    <i name="e_0_energy">   -606.75198875 </i>
   </energy>
  </scstep>
  <scstep>
   <time name="diag">    2.73    2.74</time>
   <time name="diis">   90.22   90.49</time>
   <time name="orth">    0.59    0.59</time>
   <time name="total">   94.24   94.52</time>
   <energy>
    <i name="e_fr_energy">   -606.81513848 </i>
    <i name="e_wo_entrp">   -606.68897575 </i>
    <i name="e_0_energy">   -606.75205712 </i>
   </energy>
  </scstep>
  <scstep>
   <time name="diag">    2.65    2.72</time>
   <time name="diis">   84.76   87.63</time>
   <time name="orth">    0.60    0.60</time>
   <time name="total">   88.74   91.70</time>
   <energy>
    <i name="e_fr_energy">   -606.81516214 </i>
    <i name="e_wo_entrp">   -606.68903178 </i>
    <i name="e_0_energy">   -606.75209696 </i>
   </energy>
  </scstep>
  <scstep>
   <time name="diag">    2.74    2.75</time>
   <time name="diis">   82.88   83.16</time>
   <time name="orth">    0.60    0.60</time>
   <time name="total">   86.91   87.20</time>
   <energy>
    <i name="e_fr_energy">   -606.81517741 </i>
    <i name="e_wo_entrp">   -606.68902566 </i>
    <i name="e_0_energy">   -606.75210154 </i>
   </energy>
  </scstep>
  <scstep>
   <time name="diag">    2.73    2.73</time>
   <time name="diis">   69.32   69.52</time>
   <time name="orth">    0.60    0.60</time>
   <time name="total">   73.34   73.54</time>
   <energy>
    <i name="e_fr_energy">   -606.81518459 </i>
    <i name="e_wo_entrp">   -606.68904469 </i>
    <i name="e_0_energy">   -606.75211464 </i>
   </energy>
  </scstep>
  <scstep>
   <time name="diag">    2.72    2.72</time>
   <time name="diis">   61.17   61.34</time>
   <time name="orth">    0.60    0.60</time>
   <time name="total">   64.54   64.71</time>
   <energy>
    <i name="alphaZ">   5188.60404773 </i>
    <i name="ewald"> -40791.21565750 </i>
    <i name="hartreedc">  -6970.38532956 </i>
    <i name="XCdc">   1448.37814792 </i>
    <i name="pawpsdc">  33224.34654354 </i>
    <i name="pawaedc"> -32685.53275528 </i>
    <i name="eentropy">     -0.12614674 </i>
    <i name="bandstr">  -3957.67322548 </i>
    <i name="atom">  43936.78918556 </i>
    <i name="e_fr_energy">   -606.81518981 </i>
    <i name="e_wo_entrp">   -606.68904307 </i>
    <i name="e_0_energy">   -606.75211644 </i>
   </energy>
  </scstep>
  <structure>
   <crystal>
    <varray name="basis" >
     <v>       8.11222523      -0.00269672       0.00107352 </v>
     <v>      -0.00269672       8.09885374       0.00108928 </v>
     <v>       0.00107352       0.00108928       8.12168548 </v>
    </varray>
    <i name="volume">    533.59242984 </i>
    <varray name="rec_basis" >
     <v>       0.12327075       0.00004105      -0.00001630 </v>
     <v>       0.00004105       0.12347428      -0.00001657 </v>
     <v>      -0.00001630      -0.00001657       0.12312716 </v>
    </varray>
   </crystal>
   <varray name="positions" >
    <v>      -0.00017277      -0.00151841       0.00040692 </v>
    <v>       0.24876881      -0.00172112       0.25155418 </v>
    <v>       0.25050912       0.50162952       0.25016294 </v>
    <v>       0.50017452       0.49937378      -0.00021707 </v>
    <v>       0.49916403       0.25043334       0.75041465 </v>
    <v>      -0.00034284       0.49995347       0.50090484 </v>
    <v>       0.50020509       0.74936187       0.74884444 </v>
    <v>      -0.00061747       0.24786256       0.25220238 </v>
    <v>       0.75249992       0.74758339      -0.00030087 </v>
    <v>       0.00186697       0.25181702       0.74739541 </v>
    <v>       0.75265061       0.25205992       0.50108025 </v>
    <v>      -0.00057375       0.74819103       0.74972353 </v>
    <v>       0.25014647       0.50018635       0.75003295 </v>
    <v>       0.24985290       0.25100045      -0.00190446 </v>
    <v>       0.50049880       0.25130256       0.24984797 </v>
    <v>       0.75090682      -0.00144733       0.25074363 </v>
    <v>       0.74984513       0.25134505      -0.00093181 </v>
    <v>       0.24932289       0.74907969      -0.00033899 </v>
    <v>       0.24889595       0.24995733       0.50182654 </v>
    <v>       0.24991874       0.75006899       0.50039602 </v>
    <v>       0.25263862       0.24982864       0.24980475 </v>
    <v>       0.25126112       0.00013969      -0.00087187 </v>
    <v>       0.00015647       0.25100450       0.00009036 </v>
    <v>       0.74762169       0.24709872       0.24785517 </v>
    <v>       0.74864323       0.00233555       0.00064932 </v>
    <v>       0.50233777       0.00124059       0.25000924 </v>
    <v>       0.00021258       0.49902393       0.24827876 </v>
    <v>       0.49777708       0.75139970       0.00109098 </v>
    <v>      -0.00049091       0.00015876       0.75067267 </v>
    <v>       0.74984505       0.24774002       0.75207421 </v>
    <v>       0.74814112       0.00082546       0.49959920 </v>
    <v>       0.49793766       0.24810250       0.49778508 </v>
    <v>       0.50033631       0.00011963       0.75001262 </v>
    <v>      -0.00192397       0.00143261       0.24960445 </v>
    <v>       0.50014985       0.24753429       0.00188137 </v>
    <v>       0.25253733       0.75019501       0.24962291 </v>
    <v>       0.24780934       0.49978157      -0.00017164 </v>
    <v>       0.00042874       0.74777368      -0.00106361 </v>
    <v>       0.74748205       0.75188160       0.24891790 </v>
    <v>       0.75230040       0.49920972       0.00014862 </v>
    <v>       0.50008083       0.50054475       0.24987268 </v>
    <v>       0.24925195       0.24840092       0.75028081 </v>
    <v>       0.25252688       0.00030460       0.50210050 </v>
    <v>       0.00024520       0.25021266       0.50009388 </v>
    <v>       0.24941500       0.75162586       0.75027814 </v>
    <v>       0.24960431       0.49971569       0.50023996 </v>
    <v>       0.00151921       0.74979267       0.50129962 </v>
    <v>       0.00055976       0.49994480       0.75249463 </v>
    <v>       0.75082746       0.75292020       0.75106150 </v>
    <v>       0.75032431       0.49861145       0.49991881 </v>
    <v>       0.49853945       0.75272157       0.49774488 </v>
    <v>       0.49926748       0.49999439       0.75007989 </v>
    <v>       0.50056888       0.00175193      -0.00061630 </v>
    <v>      -0.00045423       0.50251230      -0.00222285 </v>
    <v>       0.50068093       0.74767105       0.25209382 </v>
    <v>       0.24973496      -0.00029150       0.74749386 </v>
    <v>       0.49834199      -0.00236171       0.50058558 </v>
    <v>       0.75031132      -0.00262904       0.74944445 </v>
    <v>      -0.00040937       0.75141533       0.25026945 </v>
    <v>       0.74904625       0.50214488       0.25016122 </v>
    <v>       0.00102478       0.00015934       0.49927714 </v>
    <v>       0.50031313       0.50142512       0.50035961 </v>
    <v>       0.74970434       0.50170258       0.74979516 </v>
    <v>       0.75025437       0.74836520       0.50006029 </v>
   </varray>
  </structure>
  <varray name="forces" >
   <v>       0.09820468      -0.41612624       0.47389335 </v>
   <v>      -0.51549486       0.00101712       0.00916691 </v>
   <v>       0.00088529       0.18690337       0.14567658 </v>
   <v>       0.28902867      -0.37733182      -0.28905731 </v>
   <v>       0.15922274       0.24691027      -0.30132747 </v>
   <v>      -0.72377844       0.23733444      -0.53793656 </v>
   <v>       0.81598092      -0.58130136      -0.52042797 </v>
   <v>      -0.11502725      -0.93405365       0.66309266 </v>
   <v>       0.78368614      -0.95939875       0.03133403 </v>
   <v>       0.06852708       0.55826234      -0.47832667 </v>
   <v>       0.39047979       1.49571846       0.43788190 </v>
   <v>      -0.85357778      -0.63962403      -0.47005429 </v>
   <v>       1.10595862       0.05397891      -0.31239076 </v>
   <v>      -0.92509830      -0.86389449       0.98223149 </v>
   <v>      -0.26242157       1.13981268       0.65994082 </v>
   <v>       1.03488512      -0.43033690       0.73223092 </v>
   <v>       0.67633970       0.61702127      -0.51479029 </v>
   <v>       0.00607481       0.71853084       0.51668899 </v>
   <v>       0.15019570       0.38457636      -0.94608908 </v>
   <v>      -0.50944461      -0.39655916      -0.50336119 </v>
   <v>      -0.72136812      -0.01109766       0.08597199 </v>
   <v>      -1.38378892      -0.09013441       1.55819199 </v>
   <v>       0.10593069      -1.10152234       0.16993150 </v>
   <v>       0.82361098       2.61022807       0.93372113 </v>
   <v>       1.67650217      -0.89110182      -0.62129102 </v>
   <v>      -2.20948576      -0.75105763       0.00955875 </v>
[...]
      </set>
     </set>
    </set>
   </array>
  </eigenvalues>
  <separator name="orbital magnetization" >
   <v name="MAGDIPOLOUT">      0.00000000      0.00000000      0.00000000</v>
  </separator>
  <dos>
   <i name="efermi">      8.10632463 </i>
   <total>
    <array>
     <dimension dim="1">gridpoints</dimension>
     <dimension dim="2">spin</dimension>
     <field>energy</field>
     <field>total</field>
     <field>integrated</field>
     <set>
      <set comment="spin 1">
       <r>   -60.1928     0.0000     0.0000 </r>
       <r>   -59.9472     0.0000     0.0000 </r>
       <r>   -59.7015     0.0000     0.0000 </r>
       <r>   -59.4559     0.0000     0.0000 </r>
       <r>   -59.2103     0.0000     0.0000 </r>
       <r>   -58.9647     0.0000     0.0000 </r>
       <r>   -58.7191     0.0000     0.0000 </r>
       <r>   -58.4735     0.0000     0.0000 </r>
       <r>   -58.2279     0.0000     0.0000 </r>
       <r>   -57.9823     0.0000     0.0000 </r>
       <r>   -57.7367     0.0000     0.0000 </r>
       <r>   -57.4911     0.0000     0.0000 </r>
       <r>   -57.2454     0.0000     0.0000 </r>
       <r>   -56.9998     0.2354     0.0578 </r>
       <r>   -56.7542    32.5159     8.0440 </r>
       <r>   -56.5086    16.0724    11.9916 </r>
       <r>   -56.2630     0.0343    12.0000 </r>
       <r>   -56.0174     0.0000    12.0000 </r>
       <r>   -55.7718     0.0000    12.0000 </r>
       <r>   -55.5262     0.0000    12.0000 </r>
       <r>   -55.2806     0.0000    12.0000 </r>
       <r>   -55.0350     0.0000    12.0000 </r>
       <r>   -54.7893     0.0000    12.0000 </r>
       <r>   -54.5437     0.0000    12.0000 </r>
       <r>   -54.2981     0.0000    12.0000 </r>
       <r>   -54.0525     0.0000    12.0000 </r>
       <r>   -53.8069     0.0000    12.0000 </r>
       <r>   -53.5613     0.0000    12.0000 </r>
       <r>   -53.3157     0.0000    12.0000 </r>
       <r>   -53.0701     0.0000    12.0000 </r>
       <r>   -52.8245     0.0000    12.0000 </r>
       <r>   -52.5788     0.0000    12.0000 </r>
       <r>   -52.3332     0.0000    12.0000 </r>
       <r>   -52.0876     0.0000    12.0000 </r>
       <r>   -51.8420     0.0000    12.0000 </r>
       <r>   -51.5964     0.0000    12.0000 </r>
       <r>   -51.3508     0.0000    12.0000 </r>
       <r>   -51.1052     0.0000    12.0000 </r>
       <r>   -50.8596     0.0000    12.0000 </r>
       <r>   -50.6140     0.0000    12.0000 </r>
       <r>   -50.3684     0.0000    12.0000 </r>
       <r>   -50.1227     0.0000    12.0000 </r>
       <r>   -49.8771     0.0745    12.0183 </r>
       <r>   -49.6315     7.0247    13.7436 </r>
       <r>   -49.3859    10.9070    16.4225 </r>
       <r>   -49.1403    30.4517    23.9017 </r>
       <r>   -48.8947     8.4882    25.9865 </r>
       <r>   -48.6491     0.0548    26.0000 </r>
       <r>   -48.4035     0.0000    26.0000 </r>
       <r>   -48.1579     0.0000    26.0000 </r>
       <r>   -47.9123     0.0000    26.0000 </r>
       <r>   -47.6666     0.0000    26.0000 </r>
       <r>   -47.4210     0.0000    26.0000 </r>
       <r>   -47.1754     0.0000    26.0000 </r>
       <r>   -46.9298     0.0000    26.0000 </r>
       <r>   -46.6842     0.0000    26.0000 </r>
       <r>   -46.4386     0.0000    26.0000 </r>
       <r>   -46.1930     0.0000    26.0000 </r>
       <r>   -45.9474     0.0000    26.0000 </r>
       <r>   -45.7018     0.0000    26.0000 </r>
       <r>   -45.4562     0.0000    26.0000 </r>
       <r>   -45.2105     0.0000    26.0000 </r>
       <r>   -44.9649     0.0000    26.0000 </r>
       <r>   -44.7193     0.0000    26.0000 </r>
       <r>   -44.4737     0.0000    26.0000 </r>
       <r>   -44.2281     0.0000    26.0000 </r>
       <r>   -43.9825     0.0000    26.0000 </r>
       <r>   -43.7369     0.0000    26.0000 </r>
       <r>   -43.4913     0.0000    26.0000 </r>
       <r>   -43.2457     0.0000    26.0000 </r>
       <r>   -43.0001     0.0000    26.0000 </r>
       <r>   -42.7544     0.0000    26.0000 </r>
       <r>   -42.5088     0.0000    26.0000 </r>
       <r>   -42.2632     0.0000    26.0000 </r>
       <r>   -42.0176     0.0000    26.0000 </r>
       <r>   -41.7720     0.0000    26.0000 </r>
       <r>   -41.5264     0.0000    26.0000 </r>
       <r>   -41.2808     0.0000    26.0000 </r>
       <r>   -41.0352     0.0000    26.0000 </r>
       <r>   -40.7896     0.0000    26.0000 </r>
       <r>   -40.5440     0.0000    26.0000 </r>
       <r>   -40.2983     0.0000    26.0000 </r>
       <r>   -40.0527     0.0000    26.0000 </r>
       <r>   -39.8071     0.0000    26.0000 </r>
       <r>   -39.5615     0.0000    26.0000 </r>
       <r>   -39.3159     0.0000    26.0000 </r>
       <r>   -39.0703     0.0000    26.0000 </r>
       <r>   -38.8247     0.0000    26.0000 </r>
       <r>   -38.5791     0.0000    26.0000 </r>
       <r>   -38.3335     0.0000    26.0000 </r>
       <r>   -38.0879     0.0000    26.0000 </r>
       <r>   -37.8422     0.0000    26.0000 </r>
       <r>   -37.5966     0.0000    26.0000 </r>
       <r>   -37.3510     0.0000    26.0000 </r>
       <r>   -37.1054     0.0000    26.0000 </r>
       <r>   -36.8598     0.0000    26.0000 </r>
       <r>   -36.6142     0.0000    26.0000 </r>
       <r>   -36.3686     0.0000    26.0000 </r>
       <r>   -36.1230     0.0000    26.0000 </r>
       <r>   -35.8774     0.0000    26.0000 </r>
       <r>   -35.6318     0.0000    26.0000 </r>
       <r>   -35.3861     0.0000    26.0000 </r>
       <r>   -35.1405     0.0000    26.0000 </r>
       <r>   -34.8949     0.0000    26.0000 </r>
       <r>   -34.6493     0.0000    26.0000 </r>
       <r>   -34.4037     0.0000    26.0000 </r>
       <r>   -34.1581     0.0000    26.0000 </r>
       <r>   -33.9125     0.0000    26.0000 </r>
       <r>   -33.6669     0.0000    26.0000 </r>
       <r>   -33.4213     0.0000    26.0000 </r>
       <r>   -33.1757     0.0000    26.0000 </r>
       <r>   -32.9300     0.0000    26.0000 </r>
       <r>   -32.6844     0.0000    26.0000 </r>
       <r>   -32.4388     0.0000    26.0000 </r>
       <r>   -32.1932     0.0000    26.0000 </r>
       <r>   -31.9476     0.0052    26.0013 </r>
       <r>   -31.7020     5.5484    27.3640 </r>
       <r>   -31.4564    30.9599    34.9681 </r>
       <r>   -31.2108    69.0112    51.9179 </r>
       <r>   -30.9652    40.9866    61.9846 </r>
       <r>   -30.7196    86.2650    83.1722 </r>
       <r>   -30.4739    59.2273    97.7190 </r>
       <r>   -30.2283     1.1441    98.0000 </r>
       <r>   -29.9827     0.0000    98.0000 </r>
       <r>   -29.7371     0.0000    98.0000 </r>
       <r>   -29.4915     0.0000    98.0000 </r>
       <r>   -29.2459     0.0000    98.0000 </r>
       <r>   -29.0003     0.0000    98.0000 </r>
       <r>   -28.7547     0.0000    98.0000 </r>
       <r>   -28.5091     0.0000    98.0000 </r>
       <r>   -28.2635     0.0000    98.0000 </r>
       <r>   -28.0178     0.0000    98.0000 </r>
       <r>   -27.7722     0.0000    98.0000 </r>
       <r>   -27.5266     0.0000    98.0000 </r>
       <r>   -27.2810     0.0000    98.0000 </r>
       <r>   -27.0354     0.0000    98.0000 </r>
       <r>   -26.7898     0.0000    98.0000 </r>
       <r>   -26.5442     0.0000    98.0000 </r>
       <r>   -26.2986     0.1104    98.0271 </r>
       <r>   -26.0530    17.0599   102.2172 </r>
       <r>   -25.8074    30.2151   109.6383 </r>
       <r>   -25.5617    82.2363   129.8364 </r>
       <r>   -25.3161    39.5260   139.5444 </r>
       <r>   -25.0705     1.8550   140.0000 </r>
       <r>   -24.8249     0.0000   140.0000 </r>
       <r>   -24.5793     0.0000   140.0000 </r>
       <r>   -24.3337     0.0000   140.0000 </r>
       <r>   -24.0881     0.0000   140.0000 </r>
       <r>   -23.8425     0.0000   140.0000 </r>
       <r>   -23.5969     0.0000   140.0000 </r>
       <r>   -23.3513     0.0015   140.0004 </r>
       <r>   -23.1056     5.4847   141.3475 </r>
       <r>   -22.8600    33.3257   149.5326 </r>
       <r>   -22.6144    33.1801   157.6820 </r>
       <r>   -22.3688    37.8229   166.9716 </r>
       <r>   -22.1232    36.8959   176.0337 </r>
       <r>   -21.8776    20.2202   180.9999 </r>
       <r>   -21.6320     4.0716   182.0000 </r>
       <r>   -21.3864     0.0002   182.0000 </r>
       <r>   -21.1408     0.0000   182.0000 </r>
       <r>   -20.8952     0.0000   182.0000 </r>
       <r>   -20.6495     0.0000   182.0000 </r>
       <r>   -20.4039     0.0000   182.0000 </r>
       <r>   -20.1583     0.0000   182.0000 </r>
       <r>   -19.9127     0.0000   182.0000 </r>
       <r>   -19.6671     0.0000   182.0000 </r>
       <r>   -19.4215     0.0000   182.0000 </r>
       <r>   -19.1759     0.0000   182.0000 </r>
       <r>   -18.9303     0.0000   182.0000 </r>
       <r>   -18.6847     0.0000   182.0000 </r>
       <r>   -18.4390     0.0000   182.0000 </r>
       <r>   -18.1934     0.0000   182.0000 </r>
       <r>   -17.9478     0.0000   182.0000 </r>
       <r>   -17.7022     0.0000   182.0000 </r>
       <r>   -17.4566     0.0000   182.0000 </r>
       <r>   -17.2110     0.0000   182.0000 </r>
       <r>   -16.9654     0.0000   182.0000 </r>
       <r>   -16.7198     0.0000   182.0000 </r>
       <r>   -16.4742     0.0000   182.0000 </r>
       <r>   -16.2286     0.0000   182.0000 </r>
       <r>   -15.9829     0.0000   182.0000 </r>
       <r>   -15.7373     0.0000   182.0000 </r>
       <r>   -15.4917     0.0000   182.0000 </r>
       <r>   -15.2461     0.0000   182.0000 </r>
       <r>   -15.0005     0.0000   182.0000 </r>
       <r>   -14.7549     0.0000   182.0000 </r>
       <r>   -14.5093     0.0000   182.0000 </r>
       <r>   -14.2637     0.0000   182.0000 </r>
       <r>   -14.0181     0.0000   182.0000 </r>
       <r>   -13.7725     0.0000   182.0000 </r>
       <r>   -13.5268     0.0000   182.0000 </r>
       <r>   -13.2812     0.0000   182.0000 </r>
       <r>   -13.0356     0.0000   182.0000 </r>
       <r>   -12.7900     0.0000   182.0000 </r>
       <r>   -12.5444     0.0000   182.0000 </r>
       <r>   -12.2988     0.0000   182.0000 </r>
       <r>   -12.0532     0.0000   182.0000 </r>
       <r>   -11.8076     0.0000   182.0000 </r>
       <r>   -11.5620     0.0000   182.0000 </r>
       <r>   -11.3164     0.0000   182.0000 </r>
       <r>   -11.0707     0.0000   182.0000 </r>
       <r>   -10.8251     0.0000   182.0000 </r>
       <r>   -10.5795     0.0000   182.0000 </r>
       <r>   -10.3339     0.0000   182.0000 </r>
       <r>   -10.0883     0.0000   182.0000 </r>
       <r>    -9.8427     0.0000   182.0000 </r>
       <r>    -9.5971     0.0000   182.0000 </r>
       <r>    -9.3515     0.0000   182.0000 </r>
       <r>    -9.1059     0.0000   182.0000 </r>
       <r>    -8.8603     0.2623   182.0644 </r>
       <r>    -8.6146     5.5428   183.4258 </r>
       <r>    -8.3690     2.5638   184.0555 </r>
       <r>    -8.1234     7.3556   185.8621 </r>
       <r>    -7.8778     4.0445   186.8555 </r>
       <r>    -7.6322    13.1485   190.0849 </r>
       <r>    -7.3866    10.5706   192.6811 </r>
       <r>    -7.1410    17.7717   197.0460 </r>
       <r>    -6.8954    22.2085   202.5006 </r>
       <r>    -6.6498    18.9655   207.1588 </r>
       <r>    -6.4042     3.4237   207.9997 </r>
       <r>    -6.1585     0.0013   208.0000 </r>
       <r>    -5.9129     0.0000   208.0000 </r>
       <r>    -5.6673     0.0000   208.0000 </r>
       <r>    -5.4217     0.0000   208.0000 </r>
       <r>    -5.1761     0.0000   208.0000 </r>
       <r>    -4.9305     0.0149   208.0036 </r>
       <r>    -4.6849     3.1415   208.7752 </r>
       <r>    -4.4393     5.6222   210.1561 </r>
       <r>    -4.1937     7.7152   212.0510 </r>
       <r>    -3.9481     8.7590   214.2023 </r>
       <r>    -3.7024    16.5757   218.2735 </r>
       <r>    -3.4568    21.0862   223.4525 </r>
       <r>    -3.2112    25.9943   229.8369 </r>
       <r>    -2.9656    22.3229   235.3196 </r>
       <r>    -2.7200    19.3948   240.0832 </r>
       <r>    -2.4744    14.3327   243.6035 </r>
       <r>    -2.2288     9.2678   245.8797 </r>
       <r>    -1.9832     0.4896   246.0000 </r>
       <r>    -1.7376     0.0002   246.0000 </r>
       <r>    -1.4920     0.0000   246.0000 </r>
       <r>    -1.2463     0.0000   246.0000 </r>
       <r>    -1.0007     0.0000   246.0000 </r>
       <r>    -0.7551     0.0000   246.0000 </r>
       <r>    -0.5095     0.0091   246.0022 </r>
       <r>    -0.2639     0.7028   246.1749 </r>
       <r>    -0.0183     4.1872   247.2033 </r>
       <r>     0.2273     6.7959   248.8724 </r>
       <r>     0.4729     9.1626   251.1228 </r>
       <r>     0.7185    10.5692   253.7187 </r>
       <r>     0.9641    15.8200   257.6043 </r>
       <r>     1.2098    23.0413   263.2635 </r>
       <r>     1.4554    27.9026   270.1166 </r>
       <r>     1.7010    27.4807   276.8662 </r>
       <r>     1.9466    30.5535   284.3704 </r>
       <r>     2.1922    32.3052   292.3049 </r>
       <r>     2.4378    34.3063   300.7309 </r>
       <r>     2.6834    41.1702   310.8427 </r>
       <r>     2.9290    48.4292   322.7374 </r>
       <r>     3.1746    54.5152   336.1269 </r>
       <r>     3.4202    59.6227   350.7708 </r>
       <r>     3.6659    57.4586   364.8832 </r>
       <r>     3.9115    57.7705   379.0722 </r>
       <r>     4.1571    52.8632   392.0560 </r>
       <r>     4.4027    43.6624   402.7799 </r>
       <r>     4.6483    37.7588   412.0538 </r>
       <r>     4.8939    30.8269   419.6252 </r>
       <r>     5.1395    29.2711   426.8145 </r>
       <r>     5.3851    16.8372   430.9499 </r>
       <r>     5.6307    18.6071   435.5200 </r>
       <r>     5.8763    11.1335   438.2545 </r>
       <r>     6.1220    11.1030   440.9815 </r>
       <r>     6.3676    18.6602   445.5646 </r>
       <r>     6.6132    13.7908   448.9518 </r>
       <r>     6.8588    20.1306   453.8961 </r>
       <r>     7.1044    19.9807   458.8035 </r>
       <r>     7.3500    20.0877   463.7373 </r>
       <r>     7.5956    21.0746   468.9134 </r>
       <r>     7.8412    25.8897   475.2722 </r>
       <r>     8.0868    21.7589   480.6164 </r>
       <r>     8.3324    26.0340   487.0106 </r>
       <r>     8.5781    38.9470   496.5763 </r>
       <r>     8.8237    44.8439   507.5905 </r>
       <r>     9.0693    50.2243   519.9260 </r>
       <r>     9.3149    51.1926   532.4995 </r>
       <r>     9.5605    58.0579   546.7591 </r>
       <r>     9.8061    57.8239   560.9612 </r>
       <r>    10.0517    51.3690   573.5779 </r>
       <r>    10.2973     9.8418   575.9952 </r>
       <r>    10.5429     0.0195   576.0000 </r>
       <r>    10.7885     0.0000   576.0000 </r>
       <r>    11.0342     0.0000   576.0000 </r>
       <r>    11.2798     0.0000   576.0000 </r>
       <r>    11.5254     0.0000   576.0000 </r>
       <r>    11.7710     0.0000   576.0000 </r>
       <r>    12.0166     0.0000   576.0000 </r>
       <r>    12.2622     0.0000   576.0000 </r>
       <r>    12.5078     0.0000   576.0000 </r>
       <r>    12.7534     0.0000   576.0000 </r>
       <r>    12.9990     0.0000   576.0000 </r>
       <r>    13.2446     0.0000   576.0000 </r>
       <r>    13.4903     0.0000   576.0000 </r>
      </set>
     </set>
    </array>
   </total>
  </dos>
 </calculation>
 <structure name="finalpos" >
  <crystal>
   <varray name="basis" >
    <v>       8.74763407       0.00081902       0.03563379 </v>
    <v>       0.00082349       8.83022452      -0.00645401 </v>
    <v>       0.03554164      -0.00634418       8.73702342 </v>
   </varray>
   <i name="volume">    674.86735763 </i>
   <varray name="rec_basis" >
    <v>       0.11431852      -0.00001100      -0.00046505 </v>
    <v>      -0.00001094       0.11324746       0.00008228 </v>
    <v>      -0.00046625       0.00008370       0.11445741 </v>
   </varray>
  </crystal>
  <varray name="positions" >
   <v>      -0.00675030      -0.01245838       0.00485154 </v>
   <v>       0.24639409      -0.00531916       0.25524997 </v>
   <v>       0.25605232       0.50776098       0.24884940 </v>
   <v>       0.50035638       0.49198557      -0.00462863 </v>
   <v>       0.49485329       0.24825551       0.74973452 </v>
   <v>      -0.00223849       0.50019369       0.48581614 </v>
   <v>       0.50327298       0.74725813       0.74096915 </v>
   <v>      -0.00632198       0.23016518       0.26824065 </v>
   <v>       0.76447517       0.74502704      -0.00867090 </v>
   <v>       0.01572108       0.27447762       0.74478202 </v>
   <v>       0.75788431       0.27501453       0.49338099 </v>
   <v>      -0.00898866       0.73156590       0.75495211 </v>
   <v>       0.26149082       0.50453418       0.74933960 </v>
   <v>       0.24450684       0.24814459       0.00047193 </v>
   <v>       0.50359962       0.25586878       0.25112410 </v>
   <v>       0.75022821      -0.00580107       0.26530178 </v>
   <v>       0.75659455       0.25677365      -0.01161112 </v>
   <v>       0.25686067       0.75362614       0.00128234 </v>
   <v>       0.25140549       0.25313192       0.50176816 </v>
   <v>       0.24229054       0.74840585       0.50087647 </v>
   <v>       0.25064445       0.24617816       0.25153703 </v>
   <v>       0.25375982       0.00125287       0.00037038 </v>
   <v>       0.00048741       0.24677351       0.00614912 </v>
   <v>       0.75220635       0.25252181       0.24793048 </v>
   <v>       0.75688865       0.00073023       0.00843147 </v>
   <v>       0.49725045      -0.00280475       0.24669394 </v>
   <v>      -0.00139554       0.49295994       0.24729299 </v>
   <v>       0.50600792       0.75706047       0.00079544 </v>
   <v>      -0.00819720       0.00621868       0.74913917 </v>
   <v>       0.74866175       0.24633615       0.74208625 </v>
   <v>       0.74288933      -0.00016335       0.51085750 </v>
   <v>       0.50482789       0.24230448       0.50276787 </v>
   <v>       0.49913728      -0.00163052       0.74371764 </v>
   <v>       0.00272358      -0.00760505       0.25396869 </v>
   <v>       0.50226228       0.25440882      -0.00504080 </v>
   <v>       0.25212970       0.75089420       0.25052973 </v>
   <v>       0.24898407       0.50120066       0.00417503 </v>
   <v>       0.00320334       0.75202741       0.00920301 </v>
   <v>       0.75461256       0.74009173       0.25113805 </v>
   <v>       0.75016434       0.50680441      -0.00358656 </v>
   <v>       0.50248252       0.50362546       0.25116336 </v>
   <v>       0.25642190       0.24771701       0.75086941 </v>
   <v>       0.24252226      -0.00015625       0.49708045 </v>
   <v>      -0.00438425       0.24997349       0.50813922 </v>
   <v>       0.25078823       0.75309303       0.75068745 </v>
   <v>       0.25298034       0.50068974       0.49525610 </v>
   <v>      -0.01194420       0.75172073       0.49843029 </v>
   <v>      -0.00538359       0.50198398       0.74926563 </v>
   <v>       0.74376847       0.74247758       0.73976558 </v>
   <v>       0.74955639       0.50556199       0.49853494 </v>
   <v>       0.50476492       0.74666514       0.50215225 </v>
   <v>       0.50362273       0.50056581       0.74505225 </v>
   <v>       0.51542371       0.01504781      -0.01689709 </v>
   <v>      -0.00189192       0.51544661       0.00653018 </v>
   <v>       0.50765499       0.73872381       0.26243744 </v>
   <v>       0.22922091      -0.00652399       0.74173478 </v>
   <v>       0.48156307      -0.01245305       0.50762405 </v>
   <v>       0.74936695      -0.02208649       0.76220680 </v>
   <v>      -0.00363233       0.76857532       0.25575062 </v>
   <v>       0.73791579       0.50718129       0.25402848 </v>
   <v>       0.01466395       0.00248937       0.49445270 </v>
   <v>       0.49963473       0.51626959       0.49933138 </v>
   <v>       0.72866241       0.51458669       0.74262489 </v>
   <v>       0.75728734       0.72465551       0.49354282 </v>
  </varray>
 </structure>
</modeling>
