       N       E                     dE             d eps       ncg     rms          rms(c)
DAV:   1    -0.586330897793E+03   -0.58633E+03   -0.38887E+03 97440   0.229E+02
RMM:   2    -0.649394435708E+03   -0.63064E+02   -0.62829E+02125038   0.587E+01
RMM:   3    -0.654623663845E+03   -0.52292E+01   -0.77604E+01121984   0.262E+01
RMM:   4    -0.659649262925E+03   -0.50256E+01   -0.51999E+01123548   0.113E+01
RMM:   5    -0.661011000087E+03   -0.13617E+01   -0.14267E+01106761   0.130E+01
RMM:   6    -0.662623787239E+03   -0.16128E+01   -0.16284E+01126332   0.438E+00
RMM:   7    -0.662941854820E+03   -0.31807E+00   -0.29827E+00124330   0.386E+00
RMM:   8    -0.663207603576E+03   -0.26575E+00   -0.26681E+00132508   0.223E+00
RMM:   9    -0.663331936560E+03   -0.12433E+00   -0.11949E+00126756   0.217E+00
RMM:  10    -0.663434596535E+03   -0.10266E+00   -0.10486E+00127752   0.155E+00
RMM:  11    -0.663481754496E+03   -0.47158E-01   -0.47306E-01126557   0.130E+00
RMM:  12    -0.663511974703E+03   -0.30220E-01   -0.31229E-01127571   0.934E-01
RMM:  13    -0.663531432716E+03   -0.19458E-01   -0.19572E-01124378   0.833E-01
RMM:  14    -0.663544639568E+03   -0.13207E-01   -0.13598E-01124886   0.597E-01
RMM:  15    -0.663552340022E+03   -0.77005E-02   -0.78178E-02120014   0.541E-01
RMM:  16    -0.663557536561E+03   -0.51965E-02   -0.53204E-02120420   0.381E-01
RMM:  17    -0.663560752165E+03   -0.32156E-02   -0.32441E-02116598   0.348E-01
RMM:  18    -0.663562876854E+03   -0.21247E-02   -0.21707E-02116405   0.250E-01
RMM:  19    -0.663564277201E+03   -0.14003E-02   -0.13963E-02113684   0.224E-01
RMM:  20    -0.663565211975E+03   -0.93477E-03   -0.94960E-03112742   0.165E-01
RMM:  21    -0.663565825032E+03   -0.61306E-03   -0.60679E-03109896   0.149E-01
RMM:  22    -0.663566254824E+03   -0.42979E-03   -0.43282E-03108659   0.110E-01
RMM:  23    -0.663566532697E+03   -0.27787E-03   -0.27413E-03105529   0.996E-02
RMM:  24    -0.663566729401E+03   -0.19670E-03   -0.19746E-03103340   0.735E-02
RMM:  25    -0.663566857051E+03   -0.12765E-03   -0.12568E-03 99318   0.669E-02
RMM:  26    -0.663566948879E+03   -0.91829E-04   -0.92077E-04 95779   0.504E-02
RMM:  27    -0.663567008181E+03   -0.59302E-04   -0.58387E-04 90691   0.462E-02
RMM:  28    -0.663567050719E+03   -0.42538E-04   -0.42680E-04 86411   0.353E-02
RMM:  29    -0.663567079029E+03   -0.28310E-04   -0.28058E-04 80552   0.327E-02
RMM:  30    -0.663567099542E+03   -0.20514E-04   -0.20802E-04 75603   0.259E-02
RMM:  31    -0.663567113059E+03   -0.13516E-04   -0.13729E-04 69517   0.243E-02
RMM:  32    -0.663567122904E+03   -0.98451E-05   -0.10259E-04 63996   0.202E-02
RMM:  33    -0.663567129462E+03   -0.65580E-05   -0.69806E-05 58480   0.191E-02
   1 F= -.66356713E+03 E0= -.66346227E+03  d E =-.209724E+00
