HEBCN                                   
           1
     8.932500    0.000000    0.000000
     0.005753    9.055598    0.000000
     0.032102   -0.015743    8.937128
   Nb   Ta   Hf   N    C    Cr   W 
   7   6   7  13  19   6   6
Direct configuration=     1
   0.99688001  0.99204997  0.99924002
   0.25398003  0.99714995  0.24912000
   0.24803003  0.50165000  0.24955001
   0.50501006  0.49745998  0.99834003
   0.50479003  0.24631001  0.74710002
   0.99427992  0.50449999  0.49779000
   0.49950005  0.75481999  0.74817004
   0.99437004  0.23617001  0.26379999
   0.75718000  0.74102998  0.01100000
   0.00201000  0.25541000  0.73894001
   0.75307001  0.26163001  0.50533002
   0.99514004  0.74492004  0.74511997
   0.25679999  0.49462002  0.74545002
   0.24788999  0.24839000  0.99657997
   0.50833000  0.25676999  0.25376001
   0.74879004  0.98787999  0.26967001
   0.75719000  0.25603001  0.99591997
   0.24762001  0.74973999  0.99974006
   0.25272001  0.24823001  0.50015003
   0.24457999  0.75048999  0.49983999
   0.24982001  0.24942998  0.24825000
   0.26146999  0.99984002  0.99295996
   0.00281000  0.25024000  0.00130000
   0.75313998  0.24617000  0.25492002
   0.74767001  0.99748000  0.01202000
   0.50714994  0.99977000  0.24673000
   0.99051999  0.48088002  0.24100998
   0.50519005  0.76130999  0.00855000
   0.98896989  0.00202000  0.73708999
   0.75744996  0.24437997  0.74896999
   0.73632001  0.00417000  0.51063000
   0.50563996  0.23264999  0.49544997
   0.50008998  0.00061000  0.73471998
   0.99720000  0.99771992  0.25899999
   0.50427997  0.24673000  0.00262000
   0.25133999  0.74958002  0.24910999
   0.24328000  0.50072997  0.99510994
   0.99837005  0.74313996  0.00460000
   0.75633000  0.73891003  0.25767000
   0.75839004  0.50315998  0.00288000
   0.50700002  0.50333002  0.25878999
   0.24900999  0.25315000  0.74854000
   0.24446000  0.99823996  0.50287998
   0.99804009  0.24229999  0.50128003
   0.24177002  0.75340997  0.75018002
   0.25841001  0.50062002  0.50129001
   0.99000004  0.76215003  0.49746000
   0.99203996  0.50055999  0.75138002
   0.75036005  0.74888000  0.74756004
   0.74036002  0.50197000  0.50067003
   0.50575006  0.74958002  0.49720000
   0.50501003  0.50217998  0.73912003
   0.51588997  0.01358000  0.98075008
   0.99841994  0.50976998  0.98613004
   0.50379003  0.73926997  0.25905001
   0.23780002  0.01082000  0.74607998
   0.47957999  0.98308000  0.49717999
   0.74279003  0.97869994  0.76450995
   0.99864998  0.77573999  0.26102000
   0.73551001  0.51468004  0.26666001
   0.02362000  0.99783001  0.49557002
   0.50539000  0.52833005  0.49917999
   0.73876003  0.52828003  0.73814999
   0.75400003  0.72937999  0.49116997
