  64  64   0   0
  0.1115059E+02  0.8929442E-09  0.8971589E-09  0.8908322E-09  0.5000000E-15
  1.000000000000000E-004
  CAR 
 HECN                                    
     14.63308287    -52.98751253  301      7.87675046      1.00000000
    -52.988  0.0000E+00  0.0000E+00
    -52.762  0.0000E+00  0.0000E+00
    -52.537  0.0000E+00  0.0000E+00
    -52.311  0.0000E+00  0.0000E+00
    -52.086  0.0000E+00  0.0000E+00
    -51.861  0.0000E+00  0.0000E+00
    -51.635  0.0000E+00  0.0000E+00
    -51.410  0.0000E+00  0.0000E+00
    -51.184  0.0000E+00  0.0000E+00
    -50.959  0.0000E+00  0.0000E+00
    -50.733  0.0000E+00  0.0000E+00
    -50.508  0.0000E+00  0.0000E+00
    -50.283  0.8049E-08  0.1814E-08
    -50.057  0.1880E-02  0.4238E-03
    -49.832  0.7886E-01  0.1820E-01
    -49.606  0.2691E+00  0.7885E-01
    -49.381  0.2660E+00  0.1388E+00
    -49.156  0.5294E-02  0.1400E+00
    -48.930  0.3834E-07  0.1400E+00
    -48.705  0.0000E+00  0.1400E+00
    -48.479  0.0000E+00  0.1400E+00
    -48.254  0.0000E+00  0.1400E+00
    -48.029  0.0000E+00  0.1400E+00
    -47.803  0.0000E+00  0.1400E+00
    -47.578  0.0000E+00  0.1400E+00
    -47.352  0.0000E+00  0.1400E+00
    -47.127  0.0000E+00  0.1400E+00
    -46.902  0.0000E+00  0.1400E+00
    -46.676  0.0000E+00  0.1400E+00
    -46.451  0.0000E+00  0.1400E+00
    -46.225  0.0000E+00  0.1400E+00
    -46.000  0.0000E+00  0.1400E+00
    -45.775  0.0000E+00  0.1400E+00
    -45.549  0.0000E+00  0.1400E+00
    -45.324  0.0000E+00  0.1400E+00
    -45.098  0.0000E+00  0.1400E+00
    -44.873  0.0000E+00  0.1400E+00
    -44.648  0.0000E+00  0.1400E+00
    -44.422  0.0000E+00  0.1400E+00
    -44.197  0.0000E+00  0.1400E+00
    -43.971  0.0000E+00  0.1400E+00
    -43.746  0.0000E+00  0.1400E+00
    -43.521  0.0000E+00  0.1400E+00
    -43.295  0.0000E+00  0.1400E+00
    -43.070  0.0000E+00  0.1400E+00
    -42.844  0.0000E+00  0.1400E+00
    -42.619  0.0000E+00  0.1400E+00
    -42.394  0.0000E+00  0.1400E+00
    -42.168  0.0000E+00  0.1400E+00
    -41.943  0.7228E-09  0.1400E+00
    -41.717  0.6213E-03  0.1401E+00
    -41.492  0.8881E-01  0.1602E+00
    -41.267  0.1026E+00  0.1833E+00
    -41.041  0.1355E+00  0.2138E+00
    -40.816  0.1796E+00  0.2543E+00
    -40.590  0.2689E-01  0.2604E+00
    -40.365  0.7501E-01  0.2773E+00
    -40.140  0.1210E-01  0.2800E+00
    -39.914  0.8136E-06  0.2800E+00
    -39.689  0.3507E-14  0.2800E+00
    -39.463  0.0000E+00  0.2800E+00
    -39.238  0.0000E+00  0.2800E+00
    -39.013  0.0000E+00  0.2800E+00
    -38.787  0.0000E+00  0.2800E+00
    -38.562  0.0000E+00  0.2800E+00
    -38.336  0.0000E+00  0.2800E+00
    -38.111  0.0000E+00  0.2800E+00
    -37.886  0.0000E+00  0.2800E+00
    -37.660  0.0000E+00  0.2800E+00
    -37.435  0.0000E+00  0.2800E+00
    -37.209  0.0000E+00  0.2800E+00
    -36.984  0.0000E+00  0.2800E+00
    -36.759  0.0000E+00  0.2800E+00
    -36.533  0.0000E+00  0.2800E+00
    -36.308  0.0000E+00  0.2800E+00
    -36.082  0.0000E+00  0.2800E+00
    -35.857  0.0000E+00  0.2800E+00
    -35.632  0.0000E+00  0.2800E+00
    -35.406  0.0000E+00  0.2800E+00
    -35.181  0.0000E+00  0.2800E+00
    -34.955  0.0000E+00  0.2800E+00
    -34.730  0.0000E+00  0.2800E+00
    -34.505  0.0000E+00  0.2800E+00
    -34.279  0.0000E+00  0.2800E+00
    -34.054  0.0000E+00  0.2800E+00
    -33.828  0.0000E+00  0.2800E+00
    -33.603  0.0000E+00  0.2800E+00
    -33.378  0.0000E+00  0.2800E+00
    -33.152  0.0000E+00  0.2800E+00
    -32.927  0.0000E+00  0.2800E+00
    -32.701  0.0000E+00  0.2800E+00
    -32.476  0.0000E+00  0.2800E+00
    -32.251  0.2463E-16  0.2800E+00
    -32.025  0.4432E-07  0.2800E+00
    -31.800  0.5053E-02  0.2811E+00
    -31.574  0.2354E+00  0.3342E+00
    -31.349  0.7481E+00  0.5028E+00
    -31.124  0.6039E+00  0.6389E+00
    -30.898  0.4733E-02  0.6400E+00
    -30.673  0.1418E-07  0.6400E+00
    -30.447  0.0000E+00  0.6400E+00
    -30.222  0.0000E+00  0.6400E+00
    -29.997  0.0000E+00  0.6400E+00
    -29.771  0.0000E+00  0.6400E+00
    -29.546  0.0000E+00  0.6400E+00
    -29.320  0.0000E+00  0.6400E+00
    -29.095  0.0000E+00  0.6400E+00
    -28.870  0.0000E+00  0.6400E+00
    -28.644  0.0000E+00  0.6400E+00
    -28.419  0.0000E+00  0.6400E+00
    -28.193  0.0000E+00  0.6400E+00
    -27.968  0.0000E+00  0.6400E+00
    -27.742  0.0000E+00  0.6400E+00
    -27.517  0.0000E+00  0.6400E+00
    -27.292  0.0000E+00  0.6400E+00
    -27.066  0.0000E+00  0.6400E+00
    -26.841  0.3119E-12  0.6400E+00
    -26.615  0.1087E-04  0.6400E+00
    -26.390  0.3404E-01  0.6477E+00
    -26.165  0.2762E+00  0.7099E+00
    -25.939  0.9353E+00  0.9208E+00
    -25.714  0.6017E+00  0.1056E+01
    -25.488  0.1610E-01  0.1060E+01
    -25.263  0.7831E-06  0.1060E+01
    -25.038  0.3214E-14  0.1060E+01
    -24.812  0.0000E+00  0.1060E+01
    -24.587  0.0000E+00  0.1060E+01
    -24.361  0.0000E+00  0.1060E+01
    -24.136  0.0000E+00  0.1060E+01
    -23.911  0.6248E-12  0.1060E+01
    -23.685  0.1594E-04  0.1060E+01
    -23.460  0.3707E-01  0.1068E+01
    -23.234  0.3313E+00  0.1143E+01
    -23.009  0.3723E+00  0.1227E+01
    -22.784  0.7346E-01  0.1244E+01
    -22.558  0.5580E+00  0.1369E+01
    -22.333  0.2241E+00  0.1420E+01
    -22.107  0.8887E-03  0.1420E+01
    -21.882  0.8905E-09  0.1420E+01
    -21.657  0.0000E+00  0.1420E+01
    -21.431  0.0000E+00  0.1420E+01
    -21.206  0.0000E+00  0.1420E+01
    -20.980  0.0000E+00  0.1420E+01
    -20.755  0.0000E+00  0.1420E+01
    -20.530  0.5152E-15  0.1420E+01
    -20.304  0.2631E-06  0.1420E+01
    -20.079  0.9614E-02  0.1422E+01
    -19.853  0.2215E+00  0.1472E+01
    -19.628  0.3216E+00  0.1545E+01
    -19.403  0.3003E+00  0.1612E+01
    -19.177  0.5519E+00  0.1737E+01
    -18.952  0.1959E+00  0.1781E+01
    -18.726  0.1638E+00  0.1818E+01
    -18.501  0.9839E-01  0.1840E+01
    -18.276  0.1785E-03  0.1840E+01
    -18.050  0.3506E-10  0.1840E+01
    -17.825  0.0000E+00  0.1840E+01
    -17.599  0.0000E+00  0.1840E+01
    -17.374  0.0000E+00  0.1840E+01
    -17.149  0.0000E+00  0.1840E+01
    -16.923  0.0000E+00  0.1840E+01
    -16.698  0.0000E+00  0.1840E+01
    -16.472  0.0000E+00  0.1840E+01
    -16.247  0.0000E+00  0.1840E+01
    -16.022  0.0000E+00  0.1840E+01
    -15.796  0.0000E+00  0.1840E+01
    -15.571  0.0000E+00  0.1840E+01
    -15.345  0.0000E+00  0.1840E+01
    -15.120  0.0000E+00  0.1840E+01
    -14.895  0.0000E+00  0.1840E+01
    -14.669  0.0000E+00  0.1840E+01
    -14.444  0.0000E+00  0.1840E+01
    -14.218  0.0000E+00  0.1840E+01
    -13.993  0.0000E+00  0.1840E+01
    -13.768  0.0000E+00  0.1840E+01
    -13.542  0.0000E+00  0.1840E+01
    -13.317  0.0000E+00  0.1840E+01
    -13.091  0.0000E+00  0.1840E+01
    -12.866  0.0000E+00  0.1840E+01
    -12.641  0.0000E+00  0.1840E+01
    -12.415  0.0000E+00  0.1840E+01
    -12.190  0.0000E+00  0.1840E+01
    -11.964  0.0000E+00  0.1840E+01
    -11.739  0.0000E+00  0.1840E+01
    -11.514  0.0000E+00  0.1840E+01
    -11.288  0.0000E+00  0.1840E+01
    -11.063  0.0000E+00  0.1840E+01
    -10.837  0.0000E+00  0.1840E+01
    -10.612  0.0000E+00  0.1840E+01
    -10.387  0.0000E+00  0.1840E+01
    -10.161  0.0000E+00  0.1840E+01
     -9.936  0.0000E+00  0.1840E+01
     -9.710  0.0000E+00  0.1840E+01
     -9.485  0.0000E+00  0.1840E+01
     -9.260  0.0000E+00  0.1840E+01
     -9.034  0.2007E-17  0.1840E+01
     -8.809  0.3179E-08  0.1840E+01
     -8.583  0.4655E-03  0.1840E+01
     -8.358  0.5045E-01  0.1851E+01
     -8.133  0.3773E-01  0.1860E+01
     -7.907  0.7680E-02  0.1862E+01
     -7.682  0.6413E-01  0.1876E+01
     -7.456  0.9373E-01  0.1897E+01
     -7.231  0.2015E+00  0.1943E+01
     -7.006  0.3245E+00  0.2016E+01
     -6.780  0.2646E+00  0.2076E+01
     -6.555  0.6268E-01  0.2090E+01
     -6.329  0.4327E-01  0.2099E+01
     -6.104  0.2737E-02  0.2100E+01
     -5.878  0.4411E-06  0.2100E+01
     -5.653  0.5498E-11  0.2100E+01
     -5.428  0.1664E-04  0.2100E+01
     -5.202  0.1278E-01  0.2103E+01
     -4.977  0.6628E-01  0.2118E+01
     -4.751  0.1175E-01  0.2120E+01
     -4.526  0.7395E-01  0.2137E+01
     -4.301  0.7637E-01  0.2154E+01
     -4.075  0.1565E+00  0.2190E+01
     -3.850  0.1649E+00  0.2227E+01
     -3.624  0.2061E+00  0.2273E+01
     -3.399  0.2326E+00  0.2326E+01
     -3.174  0.1982E+00  0.2370E+01
     -2.948  0.1451E+00  0.2403E+01
     -2.723  0.1418E+00  0.2435E+01
     -2.497  0.1263E+00  0.2463E+01
     -2.272  0.6442E-01  0.2478E+01
     -2.047  0.8754E-02  0.2480E+01
     -1.821  0.1788E-03  0.2480E+01
     -1.596  0.2611E-08  0.2480E+01
     -1.370  0.2189E-17  0.2480E+01
     -1.145  0.0000E+00  0.2480E+01
     -0.920  0.0000E+00  0.2480E+01
     -0.694  0.4598E-12  0.2480E+01
     -0.469  0.2953E-05  0.2480E+01
     -0.243  0.1829E-02  0.2480E+01
     -0.018  0.1361E-01  0.2483E+01
      0.207  0.4735E-01  0.2494E+01
      0.433  0.1014E+00  0.2517E+01
      0.658  0.1182E+00  0.2544E+01
      0.884  0.1447E+00  0.2576E+01
      1.109  0.2063E+00  0.2623E+01
      1.334  0.2523E+00  0.2680E+01
      1.560  0.2788E+00  0.2742E+01
      1.785  0.2445E+00  0.2798E+01
      2.011  0.3578E+00  0.2878E+01
      2.236  0.3513E+00  0.2957E+01
      2.461  0.3725E+00  0.3041E+01
      2.687  0.5168E+00  0.3158E+01
      2.912  0.6238E+00  0.3298E+01
      3.138  0.6356E+00  0.3442E+01
      3.363  0.6389E+00  0.3586E+01
      3.588  0.6387E+00  0.3730E+01
      3.814  0.6016E+00  0.3865E+01
      4.039  0.4825E+00  0.3974E+01
      4.265  0.4094E+00  0.4066E+01
      4.490  0.3745E+00  0.4151E+01
      4.715  0.2730E+00  0.4212E+01
      4.941  0.2744E+00  0.4274E+01
      5.166  0.2206E+00  0.4324E+01
      5.392  0.1819E+00  0.4365E+01
      5.617  0.1317E+00  0.4395E+01
      5.842  0.9530E-01  0.4416E+01
      6.068  0.1476E+00  0.4449E+01
      6.293  0.2047E+00  0.4495E+01
      6.519  0.1433E+00  0.4528E+01
      6.744  0.1563E+00  0.4563E+01
      6.969  0.1823E+00  0.4604E+01
      7.195  0.1876E+00  0.4646E+01
      7.420  0.1818E+00  0.4687E+01
      7.646  0.1608E+00  0.4724E+01
      7.871  0.2010E+00  0.4769E+01
      8.096  0.2430E+00  0.4824E+01
      8.322  0.3051E+00  0.4892E+01
      8.547  0.3344E+00  0.4968E+01
      8.773  0.3387E+00  0.5044E+01
      8.998  0.4014E+00  0.5135E+01
      9.223  0.4605E+00  0.5238E+01
      9.449  0.5012E+00  0.5351E+01
      9.674  0.5124E+00  0.5467E+01
      9.900  0.4871E+00  0.5577E+01
     10.125  0.4791E+00  0.5685E+01
     10.350  0.4420E+00  0.5784E+01
     10.576  0.4210E+00  0.5879E+01
     10.801  0.3964E+00  0.5968E+01
     11.027  0.3775E+00  0.6054E+01
     11.252  0.3068E+00  0.6123E+01
     11.477  0.1383E+00  0.6154E+01
     11.703  0.2679E-01  0.6160E+01
     11.928  0.2694E-03  0.6160E+01
     12.154  0.1005E-08  0.6160E+01
     12.379  0.0000E+00  0.6160E+01
     12.604  0.0000E+00  0.6160E+01
     12.830  0.0000E+00  0.6160E+01
     13.055  0.0000E+00  0.6160E+01
     13.281  0.0000E+00  0.6160E+01
     13.506  0.0000E+00  0.6160E+01
     13.731  0.0000E+00  0.6160E+01
     13.957  0.0000E+00  0.6160E+01
     14.182  0.0000E+00  0.6160E+01
     14.408  0.0000E+00  0.6160E+01
     14.633  0.0000E+00  0.6160E+01
