HECN                                    
           1
     8.929381    0.005282    0.032418
     0.005364    8.971588    0.001780
     0.032285    0.001753    8.908264
   Ti   Mo   Hf   N    C    Zr   W 
     7     6     6    13    19     7     6
Direct configuration=     1
   0.99581587  0.99453097  0.00227212
   0.24080310  0.99473641  0.25124011
   0.26071306  0.50344855  0.24915014
   0.49894825  0.50086157  0.00122843
   0.48873330  0.25821538  0.75013880
   0.00795743  0.49642747  0.49487344
   0.50428078  0.74100387  0.74709103
   0.99197615  0.23226633  0.26748260
   0.76216103  0.74838502  0.98292212
   0.02271006  0.27679184  0.75095386
   0.76393626  0.27262120  0.47813746
   0.98832478  0.72476038  0.75357675
   0.26284816  0.49942217  0.75123178
   0.24508038  0.25169532  0.00116179
   0.49924123  0.25213528  0.24961306
   0.75495756  0.99586073  0.25176620
   0.75314675  0.25383285  0.99045860
   0.24554059  0.74762154  0.99967281
   0.24727780  0.25225804  0.50122455
   0.24796061  0.24757652  0.25278275
   0.24604319  0.00070158  0.00655853
   0.99967264  0.24352479  0.00791420
   0.75016736  0.24734197  0.24143822
   0.75628444  0.00539412  0.99783688
   0.50204107  0.00257310  0.24637272
   0.99878855  0.49890774  0.26194214
   0.49694102  0.74565839  0.99148232
   0.99871968  0.00469698  0.74889618
   0.74849967  0.25724908  0.74655271
   0.75316564  0.00362747  0.49286627
   0.50241092  0.25248301  0.50269060
   0.50318733  0.00137426  0.74903577
   0.00361462  0.99730438  0.24439312
   0.50135972  0.25337259  0.99635879
   0.24374886  0.75138365  0.24867161
   0.25409857  0.49907278  0.00606950
   0.99739151  0.75646068  0.00322242
   0.75727031  0.74042115  0.24961931
   0.74313573  0.50611740  0.00734124
   0.49715613  0.49661263  0.25087890
   0.25737443  0.25305721  0.75081787
   0.24338735  0.00262801  0.49223056
   0.99349980  0.25158861  0.51308691
   0.24861882  0.74447633  0.75275648
   0.25161454  0.49774963  0.49773613
   0.99132528  0.75390998  0.50267211
   0.99819205  0.49946001  0.74745837
   0.74391142  0.74847697  0.74070269
   0.75484468  0.49859873  0.50706538
   0.50543164  0.74246767  0.50584370
   0.50324437  0.50006876  0.75160432
   0.50192586  0.99932071  0.99440150
   0.99811296  0.50311397  0.01194321
   0.50248093  0.74413578  0.24853971
   0.24086849  0.99735362  0.75015023
   0.49562797  0.99589988  0.50161514
   0.75993371  0.00052201  0.73856219
   0.24436814  0.74701320  0.50253654
   0.00170870  0.76486743  0.25561935
   0.73455539  0.49467717  0.25240211
   0.00740114  0.00748074  0.48758624
   0.49130751  0.50554677  0.50181222
   0.73740469  0.51614891  0.76870063
   0.75675069  0.72270941  0.49703725
HECN                                    
           1
     8.929217    0.005022    0.032556
     0.005103    8.971539    0.001829
     0.032419    0.001800    8.908897
   Ti   Mo   Hf   N    C    Zr   W 
     7     6     6    13    19     7     6
Direct configuration=     2
   0.99580781  0.99453666  0.00222546
   0.24082146  0.99475318  0.25122958
   0.26068944  0.50343825  0.24915689
   0.49896039  0.50086817  0.00121736
   0.48875481  0.25820534  0.75012328
   0.00792775  0.49641088  0.49490259
   0.50428512  0.74100975  0.74710813
   0.99201308  0.23225396  0.26746737
   0.76214804  0.74841623  0.98293009
   0.02270145  0.27684168  0.75094131
   0.76389244  0.27261404  0.47816833
   0.98831997  0.72479402  0.75355976
   0.26285123  0.49941447  0.75122048
   0.24508150  0.25169250  0.00117532
   0.49921913  0.25212937  0.24960345
   0.75495903  0.99585670  0.25174985
   0.75315531  0.25383359  0.99048174
   0.24552933  0.74761822  0.99967614
   0.24725847  0.25226359  0.50121295
   0.24797006  0.24757616  0.25277829
   0.24602156  0.00068839  0.00656362
   0.99967417  0.24351934  0.00790564
   0.75019351  0.24736312  0.24138781
   0.75628301  0.00540182  0.99783327
   0.50203884  0.00256907  0.24638306
   0.99880076  0.49890220  0.26194224
   0.49693836  0.74565348  0.99148340
   0.99872873  0.00469919  0.74892664
   0.74852038  0.25725846  0.74654035
   0.75316845  0.00365809  0.49285141
   0.50240991  0.25249848  0.50269290
   0.50319763  0.00136202  0.74903268
   0.00360300  0.99731047  0.24438242
   0.50137309  0.25337500  0.99635662
   0.24375806  0.75137540  0.24868592
   0.25409867  0.49905914  0.00608043
   0.99739772  0.75644943  0.00322029
   0.75727474  0.74043067  0.24960942
   0.74313670  0.50610496  0.00737554
   0.49715050  0.49661195  0.25088877
   0.25741080  0.25305002  0.75081886
   0.24340697  0.00262463  0.49223957
   0.99347959  0.25158322  0.51310416
   0.24861762  0.74447276  0.75274427
   0.25159413  0.49775597  0.49773627
   0.99131960  0.75390254  0.50264725
   0.99821964  0.49937467  0.74745586
   0.74390672  0.74846656  0.74070142
   0.75482332  0.49858794  0.50706145
   0.50542113  0.74247708  0.50584572
   0.50326545  0.50006708  0.75160405
   0.50193734  0.99930925  0.99440914
   0.99810977  0.50314432  0.01192090
   0.50248903  0.74417127  0.24855037
   0.24090137  0.99734288  0.75015236
   0.49560117  0.99589906  0.50162701
   0.75992039  0.00053720  0.73855760
   0.24436333  0.74699876  0.50252791
   0.00169664  0.76488586  0.25562953
   0.73453762  0.49469211  0.25239961
   0.00740567  0.00746013  0.48762792
   0.49129924  0.50552094  0.50183464
   0.73743934  0.51614541  0.76869171
   0.75672117  0.72271358  0.49704224
