<?xml version="1.0" encoding="ISO-8859-1"?>
<modeling>
 <generator>
  <i name="program" type="string">vasp </i>
  <i name="version" type="string">5.4.4.18Apr17-6-g9f103f2a35  </i>
  <i name="subversion" type="string">(build Oct 18 2021 20:38:43) complex            parallel </i>
  <i name="platform" type="string">LinuxIFC </i>
  <i name="date" type="string">2024 06 24 </i>
  <i name="time" type="string">10:47:28 </i>
 </generator>
 <incar>
  <i type="string" name="SYSTEM">HECN</i>
  <i type="int" name="ISTART">     0</i>
  <i type="string" name="PREC">normal</i>
  <i type="string" name="ALGO">Fast</i>
  <i type="int" name="ICHARG">     2</i>
  <i type="int" name="NELM">    60</i>
  <i type="int" name="IBRION">     2</i>
  <i name="EDIFF">      0.00001000</i>
  <i name="EDIFFG">     -0.01000000</i>
  <i type="int" name="NSW">   100</i>
  <i type="int" name="ISIF">     3</i>
  <i name="ENCUT">    400.00000000</i>
  <i name="POTIM">      0.50000000</i>
  <i type="logical" name="LREAL"> F  </i>
  <i type="int" name="ISMEAR">     0</i>
  <i name="SIGMA">      0.10000000</i>
  <i type="logical" name="LWAVE"> F  </i>
  <i type="logical" name="LCHARG"> F  </i>
  <v type="int" name="KPOINT_BSE">    -1     0     0     0</v>
  <i type="int" name="NELM">    60</i>
 </incar>
 <structure name="primitive_cell" >
  <crystal>
   <varray name="basis" >
    <v>       8.72143137       0.02140873      -0.00842112 </v>
    <v>       0.02745175       8.77778437       0.00067533 </v>
    <v>       0.02288469      -0.01455365       8.71357280 </v>
   </varray>
   <i name="volume">    667.06286619 </i>
   <varray name="rec_basis" >
    <v>       0.11466067      -0.00035857      -0.00030174 </v>
    <v>      -0.00027947       0.11392482       0.00019101 </v>
    <v>       0.00011083      -0.00000918       0.11476318 </v>
   </varray>
  </crystal>
  <varray name="positions" >
   <v>       0.00014827      -0.00595320      -0.00166297 </v>
   <v>       0.00245699      -0.26092499       0.00549189 </v>
   <v>      -0.25803413      -0.00080590       0.00502561 </v>
   <v>      -0.00291572      -0.00464727       0.25789232 </v>
   <v>       0.00198399       0.25245840       0.00005230 </v>
   <v>      -0.01135331       0.00272755      -0.26236780 </v>
   <v>       0.26183156       0.00017194      -0.00948709 </v>
   <v>      -0.25933795      -0.02765558      -0.22176070 </v>
   <v>       0.22723334       0.01227112      -0.25899224 </v>
   <v>       0.00837783      -0.23105090       0.25932872 </v>
   <v>       0.24741743      -0.25234145       0.00025804 </v>
   <v>      -0.00183119      -0.24613480      -0.25531450 </v>
   <v>      -0.00695010       0.23703649       0.25330167 </v>
   <v>      -0.24628986      -0.25660307       0.01183366 </v>
   <v>       0.00040321       0.24777971      -0.25241060 </v>
   <v>       0.25718678       0.24295650      -0.00823611 </v>
   <v>      -0.25163974       0.25192289      -0.00122761 </v>
   <v>       0.26874296      -0.00079618       0.24805033 </v>
   <v>      -0.26267766      -0.01469187       0.26000664 </v>
   <v>       0.24143604      -0.24326028      -0.24960909 </v>
   <v>      -0.24900272      -0.24816010      -0.25085480 </v>
   <v>      -0.24358820       0.24784318      -0.24867334 </v>
   <v>       0.25068409      -0.25102376       0.24944571 </v>
   <v>      -0.25159896       0.24553010       0.24972719 </v>
   <v>       0.24772783       0.24728201      -0.25193850 </v>
   <v>       0.24936340       0.24743823       0.24704571 </v>
   <v>      -0.25077414      -0.25569081       0.25803319 </v>
   <v>      -0.48234326       0.01253208      -0.02851011 </v>
   <v>      -0.00346091      -0.48749808      -0.01778496 </v>
   <v>       0.01921416       0.00045164       0.49940063 </v>
   <v>      -0.47748134       0.00144827      -0.25601734 </v>
   <v>       0.25360258      -0.00026809      -0.48821371 </v>
   <v>      -0.00363284      -0.23708396       0.49518801 </v>
   <v>      -0.49918994      -0.23640177       0.00923302 </v>
   <v>       0.23978698      -0.49997301      -0.00591897 </v>
   <v>      -0.00763167      -0.49836888      -0.24335563 </v>
   <v>      -0.48688370       0.00179270       0.26043217 </v>
   <v>      -0.49672294       0.23914822       0.00481777 </v>
   <v>      -0.23758334       0.49735181       0.00324279 </v>
   <v>      -0.01354202       0.49110821       0.24159370 </v>
   <v>       0.00254078       0.24307675       0.49938132 </v>
   <v>      -0.25090980       0.00348030       0.49852070 </v>
   <v>      -0.25443616      -0.47885533      -0.25761406 </v>
   <v>       0.49676626      -0.24109024      -0.25038497 </v>
   <v>       0.25143415      -0.24722709       0.49866028 </v>
   <v>      -0.25578323      -0.25480562       0.48991520 </v>
   <v>       0.24366632       0.49699415       0.24753527 </v>
   <v>      -0.25018356       0.23952395      -0.49965047 </v>
   <v>       0.25106102       0.49747649      -0.25199739 </v>
   <v>      -0.49438025       0.24659179      -0.25711853 </v>
   <v>       0.25357855       0.24635363      -0.49638910 </v>
   <v>      -0.49001610       0.25736004       0.25455487 </v>
   <v>      -0.25986146      -0.48763168       0.26590646 </v>
   <v>       0.49580802      -0.26894098       0.25693693 </v>
   <v>       0.47978990      -0.01059535      -0.48347755 </v>
   <v>      -0.00597678      -0.49526263       0.49926000 </v>
   <v>      -0.49617675       0.49955140       0.00221498 </v>
   <v>      -0.49994921      -0.24001099       0.48754051 </v>
   <v>      -0.49926816       0.24238864       0.49022053 </v>
   <v>       0.25792532      -0.49809831      -0.49881648 </v>
   <v>      -0.49599955      -0.49637104      -0.26009874 </v>
   <v>      -0.26149865      -0.49583094      -0.49879909 </v>
   <v>      -0.49390854       0.49985608       0.26038185 </v>
   <v>      -0.49735353      -0.47785039       0.49625265 </v>
  </varray>
 </structure>
 <varray name="primitive_index" >
  <v type="int" >        1 </v>
  <v type="int" >       38 </v>
  <v type="int" >       25 </v>
  <v type="int" >       34 </v>
  <v type="int" >       23 </v>
  <v type="int" >       29 </v>
  <v type="int" >       22 </v>
  <v type="int" >       58 </v>
  <v type="int" >       56 </v>
  <v type="int" >       59 </v>
  <v type="int" >       18 </v>
  <v type="int" >       12 </v>
  <v type="int" >        8 </v>
  <v type="int" >        9 </v>
  <v type="int" >       10 </v>
  <v type="int" >       14 </v>
  <v type="int" >       17 </v>
  <v type="int" >        2 </v>
  <v type="int" >       16 </v>
  <v type="int" >       45 </v>
  <v type="int" >       49 </v>
  <v type="int" >       30 </v>
  <v type="int" >       36 </v>
  <v type="int" >       24 </v>
  <v type="int" >       42 </v>
  <v type="int" >       21 </v>
  <v type="int" >       39 </v>
  <v type="int" >       53 </v>
  <v type="int" >       54 </v>
  <v type="int" >       61 </v>
  <v type="int" >       33 </v>
  <v type="int" >       43 </v>
  <v type="int" >       47 </v>
  <v type="int" >       28 </v>
  <v type="int" >       37 </v>
  <v type="int" >       48 </v>
  <v type="int" >       26 </v>
  <v type="int" >       35 </v>
  <v type="int" >       40 </v>
  <v type="int" >       27 </v>
  <v type="int" >       44 </v>
  <v type="int" >       31 </v>
  <v type="int" >       63 </v>
  <v type="int" >        7 </v>
  <v type="int" >       20 </v>
  <v type="int" >       64 </v>
  <v type="int" >        3 </v>
  <v type="int" >       11 </v>
  <v type="int" >       13 </v>
  <v type="int" >        5 </v>
  <v type="int" >       19 </v>
  <v type="int" >       15 </v>
  <v type="int" >       60 </v>
  <v type="int" >       55 </v>
  <v type="int" >       57 </v>
  <v type="int" >        6 </v>
  <v type="int" >        4 </v>
  <v type="int" >       51 </v>
  <v type="int" >       32 </v>
  <v type="int" >       46 </v>
  <v type="int" >       52 </v>
  <v type="int" >       50 </v>
  <v type="int" >       41 </v>
  <v type="int" >       62 </v>
 </varray>
 <kpoints>
  <generation param="Gamma">
   <v type="int" name="divisions">       3        3        3 </v>
   <v name="usershift">      0.00000000       0.00000000       0.00000000 </v>
   <v name="genvec1">      0.33333333       0.00000000       0.00000000 </v>
   <v name="genvec2">      0.00000000       0.33333333       0.00000000 </v>
   <v name="genvec3">      0.00000000       0.00000000       0.33333333 </v>
   <v name="shift">      0.00000000       0.00000000       0.00000000 </v>
  </generation>
  <varray name="kpointlist" >
   <v>       0.00000000       0.00000000       0.00000000 </v>
   <v>       0.33333333       0.00000000      -0.00000000 </v>
   <v>       0.00000000       0.33333333       0.00000000 </v>
   <v>       0.33333333       0.33333333      -0.00000000 </v>
   <v>      -0.33333333       0.33333333       0.00000000 </v>
   <v>       0.00000000       0.00000000       0.33333333 </v>
   <v>       0.33333333       0.00000000       0.33333333 </v>
   <v>      -0.33333333      -0.00000000       0.33333333 </v>
   <v>      -0.00000000       0.33333333       0.33333333 </v>
   <v>       0.33333333       0.33333333       0.33333333 </v>
   <v>      -0.33333333       0.33333333       0.33333333 </v>
   <v>       0.00000000      -0.33333333       0.33333333 </v>
   <v>       0.33333333      -0.33333333       0.33333333 </v>
   <v>      -0.33333333      -0.33333333       0.33333333 </v>
  </varray>
  <varray name="weights" >
   <v>       0.03703704 </v>
   <v>       0.07407407 </v>
   <v>       0.07407407 </v>
   <v>       0.07407407 </v>
   <v>       0.07407407 </v>
   <v>       0.07407407 </v>
   <v>       0.07407407 </v>
   <v>       0.07407407 </v>
   <v>       0.07407407 </v>
   <v>       0.07407407 </v>
   <v>       0.07407407 </v>
   <v>       0.07407407 </v>
   <v>       0.07407407 </v>
   <v>       0.07407407 </v>
  </varray>
 </kpoints>
 <parameters>
  <separator name="general" >
   <i type="string" name="SYSTEM">HECN</i>
   <i type="logical" name="LCOMPAT"> F  </i>
  </separator>
  <separator name="electronic" >
   <i type="string" name="PREC">normal</i>
   <i name="ENMAX">    400.00000000</i>
   <i name="ENAUG">    644.87300000</i>
   <i name="EDIFF">      0.00001000</i>
   <i type="int" name="IALGO">    68</i>
   <i type="int" name="IWAVPR">    11</i>
   <i type="int" name="NBANDS">   336</i>
   <i name="NELECT">    525.00000000</i>
   <i type="int" name="TURBO">     0</i>
   <i type="int" name="IRESTART">     0</i>
   <i type="int" name="NREBOOT">     0</i>
   <i type="int" name="NMIN">     0</i>
   <i name="EREF">      0.00000000</i>
   <separator name="electronic smearing" >
    <i type="int" name="ISMEAR">     0</i>
    <i name="SIGMA">      0.10000000</i>
    <i name="KSPACING">      0.50000000</i>
    <i type="logical" name="KGAMMA"> T  </i>
   </separator>
   <separator name="electronic projectors" >
    <i type="logical" name="LREAL"> F  </i>
    <v name="ROPT">      0.00000000      0.00000000      0.00000000      0.00000000      0.00000000      0.00000000      0.00000000</v>
    <i type="int" name="LMAXPAW">  -100</i>
    <i type="int" name="LMAXMIX">     2</i>
    <i type="logical" name="NLSPLINE"> F  </i>
   </separator>
   <separator name="electronic startup" >
    <i type="int" name="ISTART">     0</i>
    <i type="int" name="ICHARG">     2</i>
    <i type="int" name="INIWAV">     1</i>
   </separator>
   <separator name="electronic spin" >
    <i type="int" name="ISPIN">     1</i>
    <i type="logical" name="LNONCOLLINEAR"> F  </i>
    <v name="MAGMOM">      1.00000000      1.00000000      1.00000000      1.00000000      1.00000000      1.00000000      1.00000000      1.00000000      1.00000000      1.00000000      1.00000000      1.00000000      1.00000000      1.00000000      1.00000000      1.00000000      1.00000000      1.00000000      1.00000000      1.00000000
      1.00000000      1.00000000      1.00000000      1.00000000      1.00000000      1.00000000      1.00000000      1.00000000      1.00000000      1.00000000      1.00000000      1.00000000      1.00000000      1.00000000      1.00000000      1.00000000      1.00000000      1.00000000      1.00000000      1.00000000
      1.00000000      1.00000000      1.00000000      1.00000000      1.00000000      1.00000000      1.00000000      1.00000000      1.00000000      1.00000000      1.00000000      1.00000000      1.00000000      1.00000000      1.00000000      1.00000000      1.00000000      1.00000000      1.00000000      1.00000000
      1.00000000      1.00000000      1.00000000      1.00000000</v>
    <i name="NUPDOWN">     -1.00000000</i>
    <i type="logical" name="LSORBIT"> F  </i>
    <v name="SAXIS">      0.00000000      0.00000000      1.00000000</v>
    <i type="logical" name="LSPIRAL"> F  </i>
    <v name="QSPIRAL">      0.00000000      0.00000000      0.00000000</v>
    <i type="logical" name="LZEROZ"> F  </i>
   </separator>
   <separator name="electronic exchange-correlation" >
    <i type="logical" name="LASPH"> F  </i>
    <i type="logical" name="LMETAGGA"> F  </i>
   </separator>
   <separator name="electronic convergence" >
    <i type="int" name="NELM">    60</i>
    <i type="int" name="NELMDL">    -5</i>
    <i type="int" name="NELMIN">     2</i>
    <i name="ENINI">    400.00000000</i>
    <separator name="electronic convergence detail" >
     <i type="logical" name="LDIAG"> T  </i>
     <i type="logical" name="LSUBROT"> F  </i>
     <i name="WEIMIN">      0.00100000</i>
     <i name="EBREAK">      0.00000001</i>
     <i name="DEPER">      0.30000000</i>
     <i type="int" name="NRMM">     4</i>
     <i name="TIME">      0.40000000</i>
    </separator>
   </separator>
   <separator name="electronic mixer" >
    <i name="AMIX">      0.40000000</i>
    <i name="BMIX">      1.00000000</i>
    <i name="AMIN">      0.10000000</i>
    <i name="AMIX_MAG">      1.60000000</i>
    <i name="BMIX_MAG">      1.00000000</i>
    <separator name="electronic mixer details" >
     <i type="int" name="IMIX">     4</i>
     <i type="logical" name="MIXFIRST"> F  </i>
     <i type="int" name="MAXMIX">   -45</i>
     <i name="WC">    100.00000000</i>
     <i type="int" name="INIMIX">     1</i>
     <i type="int" name="MIXPRE">     1</i>
     <i type="int" name="MREMOVE">     5</i>
    </separator>
   </separator>
   <separator name="electronic dipolcorrection" >
    <i type="logical" name="LDIPOL"> F  </i>
    <i type="logical" name="LMONO"> F  </i>
    <i type="int" name="IDIPOL">     0</i>
    <i name="EPSILON">      1.00000000</i>
    <v name="DIPOL">   -100.00000000   -100.00000000   -100.00000000</v>
    <i name="EFIELD">      0.00000000</i>
   </separator>
  </separator>
  <separator name="grids" >
   <i type="int" name="NGX">    48</i>
   <i type="int" name="NGY">    48</i>
   <i type="int" name="NGZ">    48</i>
   <i type="int" name="NGXF">    96</i>
   <i type="int" name="NGYF">    96</i>
   <i type="int" name="NGZF">    96</i>
   <i type="logical" name="ADDGRID"> F  </i>
  </separator>
  <separator name="ionic" >
   <i type="int" name="NSW">   100</i>
   <i type="int" name="IBRION">     2</i>
   <i type="int" name="MDALGO">     0</i>
   <i type="int" name="ISIF">     3</i>
   <i name="PSTRESS">      0.00000000</i>
   <i name="EDIFFG">     -0.01000000</i>
   <i type="int" name="NFREE">     1</i>
   <i name="POTIM">      0.50000000</i>
   <i name="SMASS">     -3.00000000</i>
   <i name="SCALEE">      1.00000000</i>
  </separator>
  <separator name="ionic md" >
   <i name="TEBEG">      0.00010000</i>
   <i name="TEEND">      0.00010000</i>
   <i type="int" name="NBLOCK">     1</i>
   <i type="int" name="KBLOCK">   100</i>
   <i type="int" name="NPACO">   256</i>
   <i name="APACO">     16.00000000</i>
  </separator>
  <separator name="symmetry" >
   <i type="int" name="ISYM">     2</i>
   <i name="SYMPREC">      0.00001000</i>
  </separator>
  <separator name="dos" >
   <i type="int" name="LORBIT">     0</i>
   <v name="RWIGS">     -1.00000000     -1.00000000     -1.00000000     -1.00000000     -1.00000000     -1.00000000     -1.00000000</v>
   <i type="int" name="NEDOS">   301</i>
   <i name="EMIN">     10.00000000</i>
   <i name="EMAX">    -10.00000000</i>
   <i name="EFERMI">      0.00000000</i>
  </separator>
  <separator name="writing" >
   <i type="int" name="NWRITE">     2</i>
   <i type="logical" name="LWAVE"> F  </i>
   <i type="logical" name="LDOWNSAMPLE"> F  </i>
   <i type="logical" name="LCHARG"> F  </i>
   <i type="logical" name="LPARD"> F  </i>
   <i type="logical" name="LVTOT"> F  </i>
   <i type="logical" name="LVHAR"> F  </i>
   <i type="logical" name="LELF"> F  </i>
   <i type="logical" name="LOPTICS"> F  </i>
   <v name="STM">      0.00000000      0.00000000      0.00000000      0.00000000      0.00000000      0.00000000      0.00000000</v>
  </separator>
  <separator name="performance" >
   <i type="int" name="NPAR">    24</i>
   <i type="int" name="NSIM">     4</i>
   <i type="int" name="NBLK">    -1</i>
   <i type="logical" name="LPLANE"> T  </i>
   <i type="logical" name="LSCALAPACK"> T  </i>
   <i type="logical" name="LSCAAWARE"> F  </i>
   <i type="logical" name="LSCALU"> F  </i>
   <i type="logical" name="LASYNC"> F  </i>
   <i type="logical" name="LORBITALREAL"> F  </i>
  </separator>
  <separator name="miscellaneous" >
   <i type="int" name="IDIOT">     3</i>
   <i type="int" name="ISPECIAL">     0</i>
   <i type="logical" name="LMUSIC"> F  </i>
   <v name="POMASS">     91.22400000    180.94800000     47.88000000     14.00100000     12.01100000     51.99600000     50.94100000</v>
   <v name="DARWINR">      0.00000000      0.00000000      0.00000000      0.00000000      0.00000000      0.00000000      0.00000000</v>
   <v name="DARWINV">      1.00000000      1.00000000      1.00000000      1.00000000      1.00000000      1.00000000      1.00000000</v>
   <i type="logical" name="LCORR"> T  </i>
  </separator>
  <i type="logical" name="GGA_COMPAT"> T  </i>
  <i type="logical" name="LBERRY"> F  </i>
  <i type="int" name="ICORELEVEL">     0</i>
  <i type="logical" name="LDAU"> F  </i>
  <i type="int" name="I_CONSTRAINED_M">     0</i>
  <separator name="electronic exchange-correlation" >
   <i type="string" name="GGA">--</i>
   <i type="int" name="VOSKOWN">     0</i>
   <i type="logical" name="LHFCALC"> F  </i>
   <i type="string" name="PRECFOCK"></i>
   <i type="logical" name="LSYMGRAD"> F  </i>
   <i type="logical" name="LHFONE"> F  </i>
   <i type="logical" name="LRHFCALC"> F  </i>
   <i type="logical" name="LTHOMAS"> F  </i>
   <i type="logical" name="LMODELHF"> F  </i>
   <i name="ENCUT4O">     -1.00000000</i>
   <i type="int" name="EXXOEP">     0</i>
   <i type="int" name="FOURORBIT">     0</i>
   <i name="AEXX">      0.00000000</i>
   <i name="HFALPHA">      0.00000000</i>
   <i name="MCALPHA">      0.00000000</i>
   <i name="ALDAX">      1.00000000</i>
   <i name="AGGAX">      1.00000000</i>
   <i name="ALDAC">      1.00000000</i>
   <i name="AGGAC">      1.00000000</i>
   <i type="int" name="NKREDX">     1</i>
   <i type="int" name="NKREDY">     1</i>
   <i type="int" name="NKREDZ">     1</i>
   <i type="logical" name="SHIFTRED"> F  </i>
   <i type="logical" name="ODDONLY"> F  </i>
   <i type="logical" name="EVENONLY"> F  </i>
   <i type="int" name="LMAXFOCK">     0</i>
   <i type="int" name="NMAXFOCKAE">     0</i>
   <i type="logical" name="LFOCKAEDFT"> F  </i>
   <i name="HFSCREEN">      0.00000000</i>
   <i name="HFSCREENC">      0.00000000</i>
   <i type="int" name="NBANDSGWLOW">     0</i>
  </separator>
  <separator name="vdW DFT" >
   <i type="logical" name="LUSE_VDW"> F  </i>
   <i name="Zab_VDW">     -0.84910000</i>
   <i name="PARAM1">      0.12340000</i>
   <i name="PARAM2">      1.00000000</i>
   <i name="PARAM3">      0.00000000</i>
  </separator>
  <separator name="model GW" >
   <i type="int" name="MODEL_GW">     0</i>
   <i name="MODEL_EPS0">      6.25371437</i>
   <i name="MODEL_ALPHA">      1.00000000</i>
  </separator>
  <separator name="linear response parameters" >
   <i type="logical" name="LEPSILON"> F  </i>
   <i type="logical" name="LRPA"> F  </i>
   <i type="logical" name="LNABLA"> F  </i>
   <i type="logical" name="LVEL"> F  </i>
   <i type="int" name="KINTER">     0</i>
   <i name="CSHIFT">      0.10000000</i>
   <i name="OMEGAMAX">     -1.00000000</i>
   <i name="DEG_THRESHOLD">      0.00200000</i>
   <i name="RTIME">     -0.10000000</i>
   <i name="WPLASMAI">      0.00000000</i>
   <v name="DFIELD">      0.00000000      0.00000000      0.00000000</v>
   <v name="WPLASMA">      0.00000000      0.00000000      0.00000000      0.00000000      0.00000000      0.00000000      0.00000000      0.00000000      0.00000000</v>
  </separator>
  <separator name="orbital magnetization" >
   <i type="logical" name="NUCIND"> F  </i>
   <v name="MAGPOS">      0.00000000      0.00000000      0.00000000</v>
   <i type="logical" name="LNICSALL"> T  </i>
   <i type="logical" name="ORBITALMAG"> F  </i>
   <i type="logical" name="LMAGBLOCH"> F  </i>
   <i type="logical" name="LCHIMAG"> F  </i>
   <i type="logical" name="LGAUGE"> T  </i>
   <i type="int" name="MAGATOM">     0</i>
   <v name="MAGDIPOL">      0.00000000      0.00000000      0.00000000</v>
   <v name="AVECCONST">      0.00000000      0.00000000      0.00000000</v>
  </separator>
  <separator name="response functions" >
   <i type="logical" name="LADDER"> F  </i>
   <i type="logical" name="LRPAFORCE"> F  </i>
   <i type="logical" name="LFXC"> F  </i>
   <i type="logical" name="LHARTREE"> T  </i>
   <i type="int" name="IBSE">     0</i>
   <v type="int" name="KPOINT">    -1     0     0     0</v>
   <i type="logical" name="LTCTE"> F  </i>
   <i type="logical" name="LTETE"> F  </i>
   <i type="logical" name="LTRIPLET"> F  </i>
   <i type="logical" name="LFXCEPS"> F  </i>
   <i type="logical" name="LFXHEG"> F  </i>
   <i type="int" name="NATURALO">     2</i>
   <i type="logical" name="L2ORDER"> F  </i>
   <i type="logical" name="LMP2LT"> F  </i>
   <i type="logical" name="LUSEW"> F  </i>
   <i name="ENCUTGW">     -2.00000000</i>
   <i name="ENCUTGWSOFT">     -2.00000000</i>
   <i name="ENCUTLF">     -1.00000000</i>
   <i type="int" name="LMAXMP2">    -1</i>
   <i name="SCISSOR">      0.00000000</i>
   <i type="int" name="NOMEGA">     0</i>
   <i type="int" name="NOMEGAR">     0</i>
   <i type="int" name="NBANDSGW">    -1</i>
   <i type="int" name="NBANDSO">    -1</i>
   <i type="int" name="NBANDSV">    -1</i>
   <i type="int" name="NELM">    60</i>
   <i type="int" name="NELMHF">     1</i>
   <i type="int" name="DIM">     3</i>
   <i type="int" name="ANTIRES">     0</i>
   <i name="OMEGAMAX">    -30.00000000</i>
   <i name="OMEGAMIN">    -30.00000000</i>
   <i name="OMEGATL">   -200.00000000</i>
   <i type="int" name="OMEGAGRID">   140</i>
   <i name="CSHIFT">     -0.10000000</i>
   <i type="logical" name="SELFENERGY"> F  </i>
   <i type="logical" name="LSPECTRAL"> F  </i>
   <i type="logical" name="LSPECTRALGW"> F  </i>
   <i type="logical" name="LSINGLES"> F  </i>
   <i type="logical" name="LFERMIGW"> F  </i>
   <i type="logical" name="ODDONLYGW"> F  </i>
   <i type="logical" name="EVENONLYGW"> F  </i>
   <i type="int" name="NKREDLFX">     1</i>
   <i type="int" name="NKREDLFY">     1</i>
   <i type="int" name="NKREDLFZ">     1</i>
   <i type="int" name="MAXMEM">  2800</i>
   <i type="int" name="TELESCOPE">     0</i>
   <i type="int" name="TAUPAR">     1</i>
   <i type="int" name="OMEGAPAR">    -1</i>
   <i name="LAMBDA">      1.00000000</i>
  </separator>
  <separator name="External order field" >
   <i name="OFIELD_KAPPA">      0.00000000</i>
   <v name="OFIELD_K">      0.00000000      0.00000000      0.00000000</v>
   <i name="OFIELD_Q6_NEAR">      0.00000000</i>
   <i name="OFIELD_Q6_FAR">      0.00000000</i>
   <i name="OFIELD_A">      0.00000000</i>
  </separator>
 </parameters>
 <atominfo>
  <atoms>      64 </atoms>
  <types>       7 </types>
  <array name="atoms" >
   <dimension dim="1">ion</dimension>
   <field type="string">element</field>
   <field type="int">atomtype</field>
   <set>
    <rc><c>Zr</c><c>   1</c></rc>
    <rc><c>Zr</c><c>   1</c></rc>
    <rc><c>Zr</c><c>   1</c></rc>
    <rc><c>Zr</c><c>   1</c></rc>
    <rc><c>Zr</c><c>   1</c></rc>
    <rc><c>Zr</c><c>   1</c></rc>
    <rc><c>Zr</c><c>   1</c></rc>
    <rc><c>Ta</c><c>   2</c></rc>
    <rc><c>Ta</c><c>   2</c></rc>
    <rc><c>Ta</c><c>   2</c></rc>
    <rc><c>Ta</c><c>   2</c></rc>
    <rc><c>Ta</c><c>   2</c></rc>
    <rc><c>Ta</c><c>   2</c></rc>
    <rc><c>Ti</c><c>   3</c></rc>
    <rc><c>Ti</c><c>   3</c></rc>
    <rc><c>Ti</c><c>   3</c></rc>
    <rc><c>Ti</c><c>   3</c></rc>
    <rc><c>Ti</c><c>   3</c></rc>
    <rc><c>Ti</c><c>   3</c></rc>
    <rc><c>Ti</c><c>   3</c></rc>
    <rc><c>N </c><c>   4</c></rc>
    <rc><c>N </c><c>   4</c></rc>
    <rc><c>N </c><c>   4</c></rc>
    <rc><c>N </c><c>   4</c></rc>
    <rc><c>N </c><c>   4</c></rc>
    <rc><c>N </c><c>   4</c></rc>
    <rc><c>N </c><c>   4</c></rc>
    <rc><c>N </c><c>   4</c></rc>
    <rc><c>N </c><c>   4</c></rc>
    <rc><c>N </c><c>   4</c></rc>
    <rc><c>N </c><c>   4</c></rc>
    <rc><c>N </c><c>   4</c></rc>
    <rc><c>N </c><c>   4</c></rc>
    <rc><c>C </c><c>   5</c></rc>
    <rc><c>C </c><c>   5</c></rc>
    <rc><c>C </c><c>   5</c></rc>
    <rc><c>C </c><c>   5</c></rc>
    <rc><c>C </c><c>   5</c></rc>
    <rc><c>C </c><c>   5</c></rc>
    <rc><c>C </c><c>   5</c></rc>
    <rc><c>C </c><c>   5</c></rc>
    <rc><c>C </c><c>   5</c></rc>
    <rc><c>C </c><c>   5</c></rc>
    <rc><c>C </c><c>   5</c></rc>
    <rc><c>C </c><c>   5</c></rc>
    <rc><c>C </c><c>   5</c></rc>
    <rc><c>C </c><c>   5</c></rc>
    <rc><c>C </c><c>   5</c></rc>
    <rc><c>C </c><c>   5</c></rc>
    <rc><c>C </c><c>   5</c></rc>
    <rc><c>C </c><c>   5</c></rc>
    <rc><c>C </c><c>   5</c></rc>
    <rc><c>Cr</c><c>   6</c></rc>
    <rc><c>Cr</c><c>   6</c></rc>
    <rc><c>Cr</c><c>   6</c></rc>
    <rc><c>Cr</c><c>   6</c></rc>
    <rc><c>Cr</c><c>   6</c></rc>
    <rc><c>Cr</c><c>   6</c></rc>
    <rc><c>V </c><c>   7</c></rc>
    <rc><c>V </c><c>   7</c></rc>
    <rc><c>V </c><c>   7</c></rc>
    <rc><c>V </c><c>   7</c></rc>
    <rc><c>V </c><c>   7</c></rc>
    <rc><c>V </c><c>   7</c></rc>
   </set>
  </array>
  <array name="atomtypes" >
   <dimension dim="1">type</dimension>
   <field type="int">atomspertype</field>
   <field type="string">element</field>
   <field>mass</field>
   <field>valence</field>
   <field type="string">pseudopotential</field>
   <set>
    <rc><c>   7</c><c>Zr</c><c>     91.22400000</c><c>     12.00000000</c><c> PAW_PBE Zr_sv 07Sep2000                </c></rc>
    <rc><c>   6</c><c>Ta</c><c>    180.94800000</c><c>     11.00000000</c><c> PAW_PBE Ta_pv 07Sep2000                </c></rc>
    <rc><c>   7</c><c>Ti</c><c>     47.88000000</c><c>     12.00000000</c><c> PAW_PBE Ti_sv 07Sep2000                </c></rc>
    <rc><c>  13</c><c>N </c><c>     14.00100000</c><c>      5.00000000</c><c> PAW_PBE N 08Apr2002                    </c></rc>
    <rc><c>  19</c><c>C </c><c>     12.01100000</c><c>      4.00000000</c><c> PAW_PBE C 08Apr2002                    </c></rc>
    <rc><c>   6</c><c>Cr</c><c>     51.99600000</c><c>     12.00000000</c><c> PAW_PBE Cr_pv 07Sep2000                </c></rc>
    <rc><c>   6</c><c>V </c><c>     50.94100000</c><c>     13.00000000</c><c> PAW_PBE V_sv 07Sep2000                 </c></rc>
   </set>
  </array>
 </atominfo>
 <structure name="initialpos" >
  <crystal>
   <varray name="basis" >
    <v>       8.72143137       0.02140873      -0.00842112 </v>
    <v>       0.02745175       8.77778437       0.00067533 </v>
    <v>       0.02288469      -0.01455365       8.71357280 </v>
   </varray>
   <i name="volume">    667.06286619 </i>
   <varray name="rec_basis" >
    <v>       0.11466067      -0.00035857      -0.00030174 </v>
    <v>      -0.00027947       0.11392482       0.00019101 </v>
    <v>       0.00011083      -0.00000918       0.11476318 </v>
   </varray>
  </crystal>
  <varray name="positions" >
   <v>       0.00014827       0.99404680       0.99833703 </v>
   <v>       0.26874296       0.99920382       0.24805033 </v>
   <v>       0.24366632       0.49699415       0.24753527 </v>
   <v>       0.50382325       0.49955140       0.00221498 </v>
   <v>       0.50561975       0.24659179       0.74288147 </v>
   <v>       0.99402322       0.50473737       0.49926000 </v>
   <v>       0.49676626       0.75890976       0.74961503 </v>
   <v>       0.99304990       0.23703649       0.25330167 </v>
   <v>       0.75371014       0.74339693       0.01183366 </v>
   <v>       0.00040321       0.24777971       0.74758940 </v>
   <v>       0.74981644       0.23952395       0.50034953 </v>
   <v>       0.99816881       0.75386520       0.74468550 </v>
   <v>       0.25106102       0.49747649       0.74800261 </v>
   <v>       0.25718678       0.24295650       0.99176389 </v>
   <v>       0.50998390       0.25736004       0.25455487 </v>
   <v>       0.73732234       0.98530813       0.26000664 </v>
   <v>       0.74836026       0.25192289       0.99877239 </v>
   <v>       0.24741743       0.74765855       0.00025804 </v>
   <v>       0.25357855       0.24635363       0.50361090 </v>
   <v>       0.25143415       0.75277291       0.49866028 </v>
   <v>       0.24936340       0.24743823       0.24704571 </v>
   <v>       0.26183156       0.00017194       0.99051291 </v>
   <v>       0.00198399       0.25245840       0.00005230 </v>
   <v>       0.74840104       0.24553010       0.24972719 </v>
   <v>       0.74196587       0.99919410       0.00502561 </v>
   <v>       0.51311630       0.00179270       0.26043217 </v>
   <v>       0.98645798       0.49110821       0.24159370 </v>
   <v>       0.50081006       0.76359823       0.00923302 </v>
   <v>       0.98864669       0.00272755       0.73763220 </v>
   <v>       0.75641180       0.24784318       0.75132666 </v>
   <v>       0.74909020       0.00348030       0.49852070 </v>
   <v>       0.50073184       0.24238864       0.49022053 </v>
   <v>       0.52251866       0.00144827       0.74398266 </v>
   <v>       0.99708428       0.99535273       0.25789232 </v>
   <v>       0.50327706       0.23914822       0.00481777 </v>
   <v>       0.25068409       0.74897624       0.24944571 </v>
   <v>       0.23978698       0.50002699       0.99408103 </v>
   <v>       0.00245699       0.73907501       0.00549189 </v>
   <v>       0.74922586       0.74430919       0.25803319 </v>
   <v>       0.76241666       0.49735181       0.00324279 </v>
   <v>       0.50609146       0.49985608       0.26038185 </v>
   <v>       0.24772783       0.24728201       0.74806150 </v>
   <v>       0.25360258       0.99973191       0.51178629 </v>
   <v>       0.00254078       0.24307675       0.49938132 </v>
   <v>       0.24143604       0.75673972       0.75039091 </v>
   <v>       0.25792532       0.50190169       0.50118352 </v>
   <v>       0.99636716       0.76291604       0.49518801 </v>
   <v>       0.99236833       0.50163112       0.75664437 </v>
   <v>       0.75099728       0.75183990       0.74914520 </v>
   <v>       0.73850135       0.50416906       0.50120091 </v>
   <v>       0.50005079       0.75998901       0.48754051 </v>
   <v>       0.50400045       0.50362896       0.73990126 </v>
   <v>       0.51765674       0.01253208       0.97148989 </v>
   <v>       0.99653909       0.51250192       0.98221504 </v>
   <v>       0.49580802       0.73105902       0.25693693 </v>
   <v>       0.22723334       0.01227112       0.74100776 </v>
   <v>       0.47978990       0.98940465       0.51652245 </v>
   <v>       0.74066205       0.97234442       0.77823930 </v>
   <v>       0.00837783       0.76894910       0.25932872 </v>
   <v>       0.74013854       0.51236832       0.26590646 </v>
   <v>       0.01921416       0.00045164       0.49940063 </v>
   <v>       0.50264647       0.52214961       0.49625265 </v>
   <v>       0.74556384       0.52114467       0.74238594 </v>
   <v>       0.74421677       0.74519438       0.48991520 </v>
  </varray>
 </structure>
 <calculation>
  <scstep>
   <time name="dav">   21.17   21.19</time>
   <time name="total">   21.20   21.23</time>
   <energy>
    <i name="alphaZ">   4742.18458219 </i>
    <i name="ewald"> -45374.77473176 </i>
    <i name="hartreedc"> -10282.47634354 </i>
    <i name="XCdc">   2224.40274671 </i>
    <i name="pawpsdc">  35136.53194129 </i>
    <i name="pawaedc"> -35193.01530987 </i>
    <i name="eentropy">     -0.09203069 </i>
    <i name="bandstr">   1575.49874506 </i>
    <i name="atom">  54197.94654788 </i>
    <i name="e_fr_energy">   7026.20614726 </i>
    <i name="e_wo_entrp">   7026.29817795 </i>
    <i name="e_0_energy">   7026.25216261 </i>
   </energy>
  </scstep>
  <scstep>
   <time name="dav">   22.39   22.52</time>
   <time name="total">   22.39   22.52</time>
   <energy>
    <i name="e_fr_energy">    381.93789685 </i>
    <i name="e_wo_entrp">    382.08847437 </i>
    <i name="e_0_energy">    382.01318561 </i>
   </energy>
  </scstep>
  <scstep>
   <time name="dav">   29.74   29.77</time>
   <time name="total">   29.74   29.78</time>
   <energy>
    <i name="e_fr_energy">   -648.90514881 </i>
    <i name="e_wo_entrp">   -648.81387895 </i>
    <i name="e_0_energy">   -648.85951388 </i>
   </energy>
  </scstep>
  <scstep>
   <time name="dav">   35.99   36.07</time>
   <time name="total">   35.99   36.07</time>
   <energy>
    <i name="e_fr_energy">   -783.19657788 </i>
    <i name="e_wo_entrp">   -783.09569860 </i>
    <i name="e_0_energy">   -783.14613824 </i>
   </energy>
  </scstep>
  <scstep>
   <time name="dav">   38.05   38.09</time>
   <time name="total">   38.34   38.38</time>
   <energy>
    <i name="e_fr_energy">   -794.65616413 </i>
    <i name="e_wo_entrp">   -794.55655457 </i>
    <i name="e_0_energy">   -794.60635935 </i>
   </energy>
  </scstep>
  <scstep>
   <time name="diag">    1.99    1.99</time>
   <time name="diis">   19.18   19.20</time>
   <time name="orth">    0.49    0.49</time>
   <time name="total">   21.94   21.97</time>
   <energy>
    <i name="e_fr_energy">   -877.98116287 </i>
    <i name="e_wo_entrp">   -877.81225307 </i>
    <i name="e_0_energy">   -877.89670797 </i>
   </energy>
  </scstep>
  <scstep>
   <time name="diag">    1.99    1.99</time>
   <time name="diis">   22.69   22.80</time>
   <time name="orth">    0.48    0.48</time>
   <time name="total">   25.47   25.58</time>
   <energy>
    <i name="e_fr_energy">   -658.29586291 </i>
    <i name="e_wo_entrp">   -658.13725895 </i>
    <i name="e_0_energy">   -658.21656093 </i>
   </energy>
  </scstep>
  <scstep>
   <time name="diag">    2.01    2.02</time>
   <time name="diis">   22.67   22.72</time>
   <time name="orth">    0.48    0.49</time>
   <time name="total">   25.46   25.52</time>
   <energy>
    <i name="e_fr_energy">   -641.70852278 </i>
    <i name="e_wo_entrp">   -641.58453606 </i>
    <i name="e_0_energy">   -641.64652942 </i>
   </energy>
  </scstep>
  <scstep>
   <time name="diag">    2.00    2.00</time>
   <time name="diis">   22.55   22.62</time>
   <time name="orth">    0.48    0.49</time>
   <time name="total">   25.34   25.40</time>
   <energy>
    <i name="e_fr_energy">   -631.65978254 </i>
    <i name="e_wo_entrp">   -631.52105749 </i>
    <i name="e_0_energy">   -631.59042001 </i>
   </energy>
  </scstep>
  <scstep>
   <time name="diag">    2.00    2.00</time>
   <time name="diis">   22.88   22.94</time>
   <time name="orth">    0.49    0.49</time>
   <time name="total">   25.68   25.75</time>
   <energy>
    <i name="e_fr_energy">   -631.46062149 </i>
    <i name="e_wo_entrp">   -631.31129847 </i>
    <i name="e_0_energy">   -631.38595998 </i>
   </energy>
  </scstep>
  <scstep>
   <time name="diag">    2.05    2.08</time>
   <time name="diis">   22.32   22.34</time>
   <time name="orth">    0.48    0.48</time>
   <time name="total">   25.16   25.21</time>
   <energy>
    <i name="e_fr_energy">   -630.32281768 </i>
    <i name="e_wo_entrp">   -630.18325041 </i>
    <i name="e_0_energy">   -630.25303404 </i>
   </energy>
  </scstep>
  <scstep>
   <time name="diag">    1.99    1.99</time>
   <time name="diis">   22.25   22.35</time>
   <time name="orth">    0.49    0.49</time>
   <time name="total">   25.04   25.14</time>
   <energy>
    <i name="e_fr_energy">   -629.84620830 </i>
    <i name="e_wo_entrp">   -629.69598086 </i>
    <i name="e_0_energy">   -629.77109458 </i>
   </energy>
  </scstep>
  <scstep>
   <time name="diag">    2.00    2.00</time>
   <time name="diis">   22.25   22.30</time>
   <time name="orth">    0.49    0.51</time>
   <time name="total">   25.05   25.13</time>
   <energy>
    <i name="e_fr_energy">   -630.36102767 </i>
    <i name="e_wo_entrp">   -630.21065670 </i>
    <i name="e_0_energy">   -630.28584218 </i>
   </energy>
  </scstep>
  <scstep>
   <time name="diag">    1.99    1.99</time>
   <time name="diis">   21.97   21.99</time>
   <time name="orth">    0.48    0.48</time>
   <time name="total">   24.75   24.77</time>
   <energy>
    <i name="e_fr_energy">   -629.66529612 </i>
    <i name="e_wo_entrp">   -629.50389011 </i>
    <i name="e_0_energy">   -629.58459311 </i>
   </energy>
  </scstep>
  <scstep>
   <time name="diag">    1.99    1.99</time>
   <time name="diis">   22.07   22.16</time>
   <time name="orth">    0.49    0.49</time>
   <time name="total">   24.86   24.98</time>
   <energy>
    <i name="e_fr_energy">   -629.76146188 </i>
    <i name="e_wo_entrp">   -629.60741438 </i>
    <i name="e_0_energy">   -629.68443813 </i>
   </energy>
  </scstep>
  <scstep>
   <time name="diag">    2.09    2.09</time>
   <time name="diis">   22.66   22.68</time>
   <time name="orth">    0.49    0.51</time>
   <time name="total">   25.54   25.59</time>
   <energy>
    <i name="e_fr_energy">   -629.57401456 </i>
    <i name="e_wo_entrp">   -629.41585290 </i>
    <i name="e_0_energy">   -629.49493373 </i>
   </energy>
  </scstep>
  <scstep>
   <time name="diag">    1.99    2.00</time>
   <time name="diis">   22.52   22.57</time>
   <time name="orth">    0.48    0.48</time>
   <time name="total">   25.31   25.37</time>
   <energy>
    <i name="e_fr_energy">   -629.52908888 </i>
    <i name="e_wo_entrp">   -629.37203122 </i>
    <i name="e_0_energy">   -629.45056005 </i>
   </energy>
  </scstep>
  <scstep>
   <time name="diag">    2.00    2.00</time>
   <time name="diis">   23.11   23.19</time>
   <time name="orth">    0.48    0.48</time>
   <time name="total">   25.90   25.98</time>
   <energy>
    <i name="e_fr_energy">   -629.48988266 </i>
    <i name="e_wo_entrp">   -629.33819993 </i>
    <i name="e_0_energy">   -629.41404129 </i>
   </energy>
  </scstep>
  <scstep>
   <time name="diag">    1.99    1.99</time>
   <time name="diis">   22.68   22.77</time>
   <time name="orth">    0.48    0.48</time>
   <time name="total">   25.45   25.55</time>
   <energy>
    <i name="e_fr_energy">   -629.47721079 </i>
    <i name="e_wo_entrp">   -629.32349951 </i>
    <i name="e_0_energy">   -629.40035515 </i>
   </energy>
  </scstep>
  <scstep>
   <time name="diag">    1.99    1.99</time>
   <time name="diis">   22.56   22.62</time>
   <time name="orth">    0.48    0.48</time>
   <time name="total">   25.33   25.40</time>
   <energy>
    <i name="e_fr_energy">   -629.47668422 </i>
    <i name="e_wo_entrp">   -629.32371688 </i>
    <i name="e_0_energy">   -629.40020055 </i>
   </energy>
  </scstep>
  <scstep>
   <time name="diag">    2.01    2.02</time>
   <time name="diis">   22.83   22.86</time>
   <time name="orth">    0.48    0.48</time>
   <time name="total">   25.63   25.67</time>
   <energy>
    <i name="e_fr_energy">   -629.47355222 </i>
    <i name="e_wo_entrp">   -629.32008833 </i>
    <i name="e_0_energy">   -629.39682027 </i>
   </energy>
  </scstep>
  <scstep>
   <time name="diag">    2.00    2.00</time>
   <time name="diis">   22.65   22.73</time>
   <time name="orth">    0.48    0.48</time>
   <time name="total">   25.44   25.53</time>
   <energy>
    <i name="e_fr_energy">   -629.46952180 </i>
    <i name="e_wo_entrp">   -629.31548174 </i>
    <i name="e_0_energy">   -629.39250177 </i>
   </energy>
  </scstep>
  <scstep>
   <time name="diag">    2.02    2.02</time>
   <time name="diis">   21.72   21.74</time>
   <time name="orth">    0.49    0.49</time>
   <time name="total">   24.54   24.56</time>
   <energy>
    <i name="e_fr_energy">   -629.47360268 </i>
    <i name="e_wo_entrp">   -629.32107751 </i>
    <i name="e_0_energy">   -629.39734010 </i>
   </energy>
  </scstep>
  <scstep>
   <time name="diag">    2.02    2.03</time>
   <time name="diis">   22.10   22.12</time>
   <time name="orth">    0.48    0.49</time>
   <time name="total">   24.94   24.99</time>
   <energy>
    <i name="e_fr_energy">   -629.46921546 </i>
    <i name="e_wo_entrp">   -629.31510827 </i>
    <i name="e_0_energy">   -629.39216187 </i>
   </energy>
  </scstep>
  <scstep>
   <time name="diag">    2.07    2.10</time>
   <time name="diis">   21.28   21.31</time>
   <time name="orth">    0.49    0.49</time>
   <time name="total">   24.14   24.20</time>
   <energy>
    <i name="e_fr_energy">   -629.46944967 </i>
    <i name="e_wo_entrp">   -629.31537556 </i>
    <i name="e_0_energy">   -629.39241261 </i>
   </energy>
  </scstep>
  <scstep>
   <time name="diag">    2.00    2.00</time>
   <time name="diis">   20.33   20.35</time>
   <time name="orth">    0.48    0.48</time>
   <time name="total">   23.11   23.14</time>
   <energy>
    <i name="e_fr_energy">   -629.46958336 </i>
    <i name="e_wo_entrp">   -629.31553931 </i>
    <i name="e_0_energy">   -629.39256133 </i>
   </energy>
  </scstep>
  <scstep>
   <time name="diag">    1.99    1.99</time>
   <time name="diis">   20.09   20.15</time>
   <time name="orth">    0.48    0.48</time>
   <time name="total">   22.87   22.94</time>
   <energy>
    <i name="e_fr_energy">   -629.46963692 </i>
    <i name="e_wo_entrp">   -629.31561302 </i>
    <i name="e_0_energy">   -629.39262497 </i>
   </energy>
  </scstep>
  <scstep>
   <time name="diag">    2.01    2.01</time>
   <time name="diis">   19.14   19.16</time>
   <time name="orth">    0.48    0.48</time>
   <time name="total">   21.93   21.97</time>
   <energy>
    <i name="e_fr_energy">   -629.46969567 </i>
    <i name="e_wo_entrp">   -629.31562785 </i>
    <i name="e_0_energy">   -629.39266176 </i>
   </energy>
  </scstep>
  <scstep>
   <time name="diag">    2.00    2.00</time>
   <time name="diis">   18.38   18.45</time>
   <time name="orth">    0.48    0.48</time>
   <time name="total">   21.16   21.23</time>
   <energy>
    <i name="e_fr_energy">   -629.46973074 </i>
    <i name="e_wo_entrp">   -629.31572570 </i>
    <i name="e_0_energy">   -629.39272822 </i>
   </energy>
  </scstep>
  <scstep>
   <time name="diag">    2.00    2.00</time>
   <time name="diis">   18.38   18.43</time>
   <time name="orth">    0.48    0.48</time>
   <time name="total">   21.16   21.21</time>
   <energy>
    <i name="e_fr_energy">   -629.46976290 </i>
    <i name="e_wo_entrp">   -629.31571772 </i>
    <i name="e_0_energy">   -629.39274031 </i>
   </energy>
  </scstep>
  <scstep>
   <time name="diag">    2.12    2.17</time>
   <time name="diis">   17.97   18.07</time>
   <time name="orth">    0.48    0.48</time>
   <time name="total">   20.87   21.02</time>
   <energy>
    <i name="e_fr_energy">   -629.46978527 </i>
    <i name="e_wo_entrp">   -629.31572642 </i>
    <i name="e_0_energy">   -629.39275585 </i>
   </energy>
  </scstep>
  <scstep>
   <time name="diag">    2.01    2.03</time>
   <time name="diis">   16.14   16.63</time>
   <time name="orth">    0.48    0.48</time>
   <time name="total">   18.93   19.45</time>
   <energy>
    <i name="e_fr_energy">   -629.46979882 </i>
    <i name="e_wo_entrp">   -629.31576100 </i>
    <i name="e_0_energy">   -629.39277991 </i>
   </energy>
  </scstep>
  <scstep>
   <time name="diag">    2.01    2.01</time>
   <time name="diis">   16.42   16.46</time>
   <time name="orth">    0.48    0.48</time>
   <time name="total">   19.21   19.25</time>
   <energy>
    <i name="e_fr_energy">   -629.46980854 </i>
    <i name="e_wo_entrp">   -629.31576770 </i>
    <i name="e_0_energy">   -629.39278812 </i>
   </energy>
  </scstep>
  <scstep>
   <time name="diag">    2.00    2.00</time>
   <time name="diis">   15.03   15.08</time>
   <time name="orth">    0.48    0.48</time>
   <time name="total">   17.55   17.60</time>
   <energy>
    <i name="alphaZ">   4742.18458219 </i>
    <i name="ewald"> -45374.77473176 </i>
    <i name="hartreedc">  -9583.04240118 </i>
    <i name="XCdc">   2204.82595455 </i>
    <i name="pawpsdc">  36587.65629375 </i>
    <i name="pawaedc"> -36677.70418564 </i>
    <i name="eentropy">     -0.15403853 </i>
    <i name="bandstr">  -6726.40783581 </i>
    <i name="atom">  54197.94654788 </i>
    <i name="e_fr_energy">   -629.46981456 </i>
    <i name="e_wo_entrp">   -629.31577603 </i>
    <i name="e_0_energy">   -629.39279530 </i>
   </energy>
  </scstep>
  <structure>
   <crystal>
    <varray name="basis" >
     <v>       8.72143137       0.02140873      -0.00842112 </v>
     <v>       0.02745175       8.77778437       0.00067533 </v>
     <v>       0.02288469      -0.01455365       8.71357280 </v>
    </varray>
    <i name="volume">    667.06286619 </i>
    <varray name="rec_basis" >
     <v>       0.11466067      -0.00035857      -0.00030174 </v>
     <v>      -0.00027947       0.11392482       0.00019101 </v>
     <v>       0.00011083      -0.00000918       0.11476318 </v>
    </varray>
   </crystal>
   <varray name="positions" >
    <v>       0.00014827       0.99404680       0.99833703 </v>
    <v>       0.26874296       0.99920382       0.24805033 </v>
    <v>       0.24366632       0.49699415       0.24753527 </v>
    <v>       0.50382325       0.49955140       0.00221498 </v>
    <v>       0.50561975       0.24659179       0.74288147 </v>
    <v>       0.99402322       0.50473737       0.49926000 </v>
    <v>       0.49676626       0.75890976       0.74961503 </v>
    <v>       0.99304990       0.23703649       0.25330167 </v>
    <v>       0.75371014       0.74339693       0.01183366 </v>
    <v>       0.00040321       0.24777971       0.74758940 </v>
    <v>       0.74981644       0.23952395       0.50034953 </v>
    <v>       0.99816881       0.75386520       0.74468550 </v>
    <v>       0.25106102       0.49747649       0.74800261 </v>
    <v>       0.25718678       0.24295650       0.99176389 </v>
    <v>       0.50998390       0.25736004       0.25455487 </v>
    <v>       0.73732234       0.98530813       0.26000664 </v>
    <v>       0.74836026       0.25192289       0.99877239 </v>
    <v>       0.24741743       0.74765855       0.00025804 </v>
    <v>       0.25357855       0.24635363       0.50361090 </v>
    <v>       0.25143415       0.75277291       0.49866028 </v>
    <v>       0.24936340       0.24743823       0.24704571 </v>
    <v>       0.26183156       0.00017194       0.99051291 </v>
    <v>       0.00198399       0.25245840       0.00005230 </v>
    <v>       0.74840104       0.24553010       0.24972719 </v>
    <v>       0.74196587       0.99919410       0.00502561 </v>
    <v>       0.51311630       0.00179270       0.26043217 </v>
    <v>       0.98645798       0.49110821       0.24159370 </v>
    <v>       0.50081006       0.76359823       0.00923302 </v>
    <v>       0.98864669       0.00272755       0.73763220 </v>
    <v>       0.75641180       0.24784318       0.75132666 </v>
    <v>       0.74909020       0.00348030       0.49852070 </v>
    <v>       0.50073184       0.24238864       0.49022053 </v>
    <v>       0.52251866       0.00144827       0.74398266 </v>
    <v>       0.99708428       0.99535273       0.25789232 </v>
    <v>       0.50327706       0.23914822       0.00481777 </v>
    <v>       0.25068409       0.74897624       0.24944571 </v>
    <v>       0.23978698       0.50002699       0.99408103 </v>
    <v>       0.00245699       0.73907501       0.00549189 </v>
    <v>       0.74922586       0.74430919       0.25803319 </v>
    <v>       0.76241666       0.49735181       0.00324279 </v>
    <v>       0.50609146       0.49985608       0.26038185 </v>
    <v>       0.24772783       0.24728201       0.74806150 </v>
    <v>       0.25360258       0.99973191       0.51178629 </v>
    <v>       0.00254078       0.24307675       0.49938132 </v>
    <v>       0.24143604       0.75673972       0.75039091 </v>
    <v>       0.25792532       0.50190169       0.50118352 </v>
    <v>       0.99636716       0.76291604       0.49518801 </v>
    <v>       0.99236833       0.50163112       0.75664437 </v>
    <v>       0.75099728       0.75183990       0.74914520 </v>
    <v>       0.73850135       0.50416906       0.50120091 </v>
    <v>       0.50005079       0.75998901       0.48754051 </v>
    <v>       0.50400045       0.50362896       0.73990126 </v>
    <v>       0.51765674       0.01253208       0.97148989 </v>
    <v>       0.99653909       0.51250192       0.98221504 </v>
    <v>       0.49580802       0.73105902       0.25693693 </v>
    <v>       0.22723334       0.01227112       0.74100776 </v>
    <v>       0.47978990       0.98940465       0.51652245 </v>
    <v>       0.74066205       0.97234442       0.77823930 </v>
    <v>       0.00837783       0.76894910       0.25932872 </v>
    <v>       0.74013854       0.51236832       0.26590646 </v>
    <v>       0.01921416       0.00045164       0.49940063 </v>
    <v>       0.50264647       0.52214961       0.49625265 </v>
    <v>       0.74556384       0.52114467       0.74238594 </v>
    <v>       0.74421677       0.74519438       0.48991520 </v>
   </varray>
  </structure>
  <varray name="forces" >
   <v>       0.00033094      -0.00202475      -0.00146777 </v>
   <v>       0.00118320      -0.00139069       0.00019015 </v>
   <v>       0.00168345       0.00235132      -0.00050637 </v>
   <v>       0.00065910      -0.00039207      -0.00129110 </v>
   <v>       0.00041974       0.00071545       0.00128564 </v>
   <v>      -0.00282937      -0.00056405      -0.00244960 </v>
   <v>      -0.00053897      -0.00988133       0.00147919 </v>
   <v>       0.00074165      -0.00038110       0.00177520 </v>
   <v>       0.00429260      -0.00416510      -0.00045201 </v>
   <v>       0.00381944       0.00434129      -0.00062611 </v>
   <v>       0.00558473      -0.00723502      -0.00152532 </v>
   <v>       0.00340060      -0.00316149       0.00363572 </v>
   <v>       0.00258500       0.00207288       0.00067618 </v>
   <v>       0.00183298       0.00527915      -0.00238364 </v>
   <v>       0.00004829       0.00264526       0.00292149 </v>
   <v>      -0.00494321      -0.00422490      -0.01174377 </v>
   <v>      -0.00235017       0.00576378       0.00253216 </v>
   <v>      -0.00387139      -0.00489426      -0.00176594 </v>
   <v>      -0.00186997      -0.00083976       0.00028110 </v>
   <v>       0.00020128      -0.00019009       0.00042130 </v>
   <v>      -0.00210054       0.00109692       0.00022978 </v>
   <v>       0.00908578      -0.00309284      -0.00708371 </v>
   <v>       0.00052172       0.00716380       0.00217737 </v>
   <v>      -0.00086400      -0.00078306       0.00266697 </v>
   <v>      -0.01484706      -0.00386962      -0.00234255 </v>
   <v>       0.01045893      -0.00695593       0.00754153 </v>
   <v>      -0.00692005       0.00018090      -0.00646815 </v>
   <v>       0.00293614       0.00819259       0.00690028 </v>
   <v>      -0.00037480       0.00116725      -0.01125216 </v>
   <v>       0.00256115      -0.00226708      -0.00294471 </v>
   <v>       0.00315459      -0.00521261       0.00797495 </v>
   <v>       0.00501480      -0.00302011      -0.00726938 </v>
   <v>       0.00668814       0.00849452      -0.00513991 </v>
   <v>      -0.00249508      -0.00362781       0.00606548 </v>
   <v>       0.00133598      -0.00667087       0.00245364 </v>
   <v>       0.00086893      -0.00195458      -0.00011391 </v>
   <v>      -0.00654349      -0.00061608       0.00031719 </v>
   <v>      -0.00188441      -0.01064089      -0.00069306 </v>
   <v>      -0.00061885      -0.00660953       0.00592999 </v>
   <v>       0.00680615       0.00143236      -0.00064872 </v>
   <v>       0.00325666       0.00543044       0.00802598 </v>
   <v>      -0.00237685      -0.00326144      -0.00008587 </v>
   <v>       0.00190151      -0.00007313       0.00874670 </v>
   <v>      -0.00174463      -0.00408134       0.00015293 </v>
   <v>      -0.00366220       0.00182189       0.00029826 </v>
   <v>       0.00364981       0.00021009       0.00017452 </v>
   <v>      -0.00227311       0.00560700      -0.00506585 </v>
   <v>      -0.00348264      -0.00049237       0.00911241 </v>
   <v>       0.00062930       0.00052500      -0.00056663 </v>
   <v>      -0.00501559       0.00020708      -0.00128418 </v>
   <v>       0.00309819       0.00589542      -0.00867654 </v>
   <v>       0.00219886       0.00332921      -0.00480375 </v>
   <v>      -0.00146690       0.00717914      -0.00696069 </v>
   <v>       0.00135327      -0.00075892      -0.00533015 </v>
   <v>      -0.00951174       0.00427888       0.00578187 </v>
   <v>      -0.00038492       0.00421582       0.00592601 </v>
   <v>      -0.01672999      -0.00047748       0.01083100 </v>
   <v>       0.00145987      -0.00338833       0.00027307 </v>
   <v>       0.00626828      -0.00009540       0.00100569 </v>
   <v>      -0.00638783       0.00532188       0.00752011 </v>
   <v>       0.00794031      -0.00319822      -0.00324501 </v>
   <v>       0.00250877       0.00437792       0.00036624 </v>
   <v>      -0.00618763       0.00555408      -0.01040400 </v>
   <v>       0.00179524       0.00564096      -0.00107949 </v>
  </varray>
  <varray name="stress" >
   <v>      -9.61807655       0.36624375      -0.14152566 </v>
   <v>       0.36624302     -10.51977848       0.02201320 </v>
   <v>      -0.14152434       0.02201398      -9.46680337 </v>
  </varray>
  <energy>
   <i name="e_fr_energy">   -629.46981456 </i>
   <i name="e_wo_entrp">   -629.39279530 </i>
   <i name="e_0_energy">     -0.15403853 </i>
  </energy>
  <time name="totalsc">  880.37  883.22</time>
 </calculation>
 <calculation>
  <scstep>
   <time name="dav">   28.88   28.92</time>
   <time name="total">   29.19   29.23</time>
   <energy>
    <i name="alphaZ">   4786.51928004 </i>
    <i name="ewald"> -45515.25000531 </i>
    <i name="hartreedc">  -9613.30168275 </i>
    <i name="XCdc">   2211.73494377 </i>
    <i name="pawpsdc">  36587.67374108 </i>
    <i name="pawaedc"> -36677.71423067 </i>
    <i name="eentropy">     -0.14892026 </i>
    <i name="bandstr">  -6607.36085114 </i>
    <i name="atom">  54197.94654788 </i>
    <i name="e_fr_energy">   -629.90117736 </i>
    <i name="e_wo_entrp">   -629.75225710 </i>
    <i name="e_0_energy">   -629.82671723 </i>
   </energy>
  </scstep>
  <scstep>
   <time name="diag">    1.99    1.99</time>
   <time name="diis">   18.05   18.12</time>
   <time name="orth">    0.51    0.51</time>
   <time name="total">   20.87   20.95</time>
   <energy>
    <i name="e_fr_energy">   -631.74487028 </i>
    <i name="e_wo_entrp">   -631.60228322 </i>
    <i name="e_0_energy">   -631.67357675 </i>
   </energy>
  </scstep>
  <scstep>
   <time name="diag">    2.00    2.01</time>
   <time name="diis">   18.66   18.69</time>
   <time name="orth">    0.48    0.48</time>
   <time name="total">   21.44   21.48</time>
   <energy>
    <i name="e_fr_energy">   -630.12567734 </i>
    <i name="e_wo_entrp">   -629.97252382 </i>
    <i name="e_0_energy">   -630.04910058 </i>
   </energy>
  </scstep>
  <scstep>
   <time name="diag">    2.00    2.00</time>
   <time name="diis">   20.26   20.29</time>
   <time name="orth">    0.49    0.51</time>
   <time name="total">   23.05   23.11</time>
   <energy>
    <i name="e_fr_energy">   -629.61748470 </i>
    <i name="e_wo_entrp">   -629.47243782 </i>
    <i name="e_0_energy">   -629.54496126 </i>
   </energy>
  </scstep>
  <scstep>
   <time name="diag">    2.00    2.00</time>
   <time name="diis">   20.02   20.15</time>
   <time name="orth">    0.51    0.51</time>
   <time name="total">   22.86   22.99</time>
   <energy>
    <i name="e_fr_energy">   -629.55248370 </i>
    <i name="e_wo_entrp">   -629.40319911 </i>
    <i name="e_0_energy">   -629.47784140 </i>
   </energy>
  </scstep>
  <scstep>
   <time name="diag">    2.01    2.02</time>
   <time name="diis">   20.92   20.94</time>
   <time name="orth">    0.48    0.48</time>
   <time name="total">   23.71   23.75</time>
   <energy>
    <i name="e_fr_energy">   -629.49047287 </i>
    <i name="e_wo_entrp">   -629.33810685 </i>
    <i name="e_0_energy">   -629.41428986 </i>
   </energy>
  </scstep>
  <scstep>
   <time name="diag">    2.00    2.00</time>
   <time name="diis">   20.27   20.30</time>
   <time name="orth">    0.51    0.51</time>
   <time name="total">   23.10   23.14</time>
   <energy>
    <i name="e_fr_energy">   -629.48288174 </i>
    <i name="e_wo_entrp">   -629.33300526 </i>
    <i name="e_0_energy">   -629.40794350 </i>
   </energy>
  </scstep>
  <scstep>
   <time name="diag">    2.02    2.03</time>
   <time name="diis">   19.89   19.99</time>
   <time name="orth">    0.48    0.48</time>
   <time name="total">   22.69   22.80</time>
   <energy>
    <i name="e_fr_energy">   -629.46805255 </i>
    <i name="e_wo_entrp">   -629.31679950 </i>
    <i name="e_0_energy">   -629.39242602 </i>
   </energy>
  </scstep>
  <scstep>
   <time name="diag">    2.01    2.01</time>
   <time name="diis">   21.05   21.08</time>
   <time name="orth">    0.48    0.48</time>
   <time name="total">   23.84   23.89</time>
   <energy>
    <i name="e_fr_energy">   -629.45716616 </i>
    <i name="e_wo_entrp">   -629.30450177 </i>
    <i name="e_0_energy">   -629.38083397 </i>
   </energy>
  </scstep>
  <scstep>
   <time name="diag">    2.00    2.00</time>
   <time name="diis">   20.71   20.80</time>
   <time name="orth">    0.51    0.51</time>
   <time name="total">   23.53   23.62</time>
   <energy>
    <i name="e_fr_energy">   -629.45621579 </i>
    <i name="e_wo_entrp">   -629.30441153 </i>
    <i name="e_0_energy">   -629.38031366 </i>
   </energy>
  </scstep>
  <scstep>
   <time name="diag">    1.99    1.99</time>
   <time name="diis">   20.29   20.32</time>
   <time name="orth">    0.48    0.48</time>
   <time name="total">   23.07   23.10</time>
   <energy>
    <i name="e_fr_energy">   -629.45409733 </i>
    <i name="e_wo_entrp">   -629.30204061 </i>
    <i name="e_0_energy">   -629.37806897 </i>
   </energy>
  </scstep>
  <scstep>
   <time name="diag">    2.02    2.03</time>
   <time name="diis">   20.57   20.59</time>
   <time name="orth">    0.48    0.48</time>
   <time name="total">   23.37   23.39</time>
   <energy>
    <i name="e_fr_energy">   -629.45390416 </i>
    <i name="e_wo_entrp">   -629.30204003 </i>
    <i name="e_0_energy">   -629.37797210 </i>
   </energy>
  </scstep>
  <scstep>
   <time name="diag">    1.99    2.00</time>
   <time name="diis">   20.29   20.34</time>
   <time name="orth">    0.49    0.51</time>
   <time name="total">   23.08   23.16</time>
   <energy>
    <i name="e_fr_energy">   -629.45389310 </i>
    <i name="e_wo_entrp">   -629.30198327 </i>
    <i name="e_0_energy">   -629.37793818 </i>
   </energy>
  </scstep>
  <scstep>
   <time name="diag">    1.99    1.99</time>
   <time name="diis">   20.02   20.04</time>
   <time name="orth">    0.48    0.48</time>
   <time name="total">   22.80   22.82</time>
   <energy>
    <i name="e_fr_energy">   -629.45396066 </i>
    <i name="e_wo_entrp">   -629.30189676 </i>
    <i name="e_0_energy">   -629.37792871 </i>
   </energy>
  </scstep>
  <scstep>
   <time name="diag">    2.00    2.00</time>
   <time name="diis">   19.58   19.69</time>
   <time name="orth">    0.48    0.49</time>
   <time name="total">   22.36   22.48</time>
   <energy>
    <i name="e_fr_energy">   -629.45417999 </i>
    <i name="e_wo_entrp">   -629.30244717 </i>
    <i name="e_0_energy">   -629.37831358 </i>
   </energy>
  </scstep>
  <scstep>
   <time name="diag">    2.00    2.00</time>
   <time name="diis">   19.06   19.10</time>
   <time name="orth">    0.48    0.48</time>
   <time name="total">   21.86   21.90</time>
   <energy>
    <i name="e_fr_energy">   -629.45416968 </i>
    <i name="e_wo_entrp">   -629.30216373 </i>
    <i name="e_0_energy">   -629.37816671 </i>
   </energy>
  </scstep>
  <scstep>
   <time name="diag">    2.00    2.01</time>
   <time name="diis">   19.27   19.29</time>
   <time name="orth">    0.48    0.48</time>
   <time name="total">   22.07   22.09</time>
   <energy>
    <i name="e_fr_energy">   -629.45428224 </i>
    <i name="e_wo_entrp">   -629.30235511 </i>
    <i name="e_0_energy">   -629.37831867 </i>
   </energy>
  </scstep>
  <scstep>
   <time name="diag">    2.01    2.03</time>
   <time name="diis">   18.87   18.92</time>
   <time name="orth">    0.48    0.48</time>
   <time name="total">   21.66   21.75</time>
   <energy>
    <i name="e_fr_energy">   -629.45429717 </i>
    <i name="e_wo_entrp">   -629.30232599 </i>
    <i name="e_0_energy">   -629.37831158 </i>
   </energy>
  </scstep>
  <scstep>
   <time name="diag">    1.99    1.99</time>
   <time name="diis">   17.20   17.21</time>
   <time name="orth">    0.48    0.48</time>
   <time name="total">   19.98   20.00</time>
   <energy>
    <i name="e_fr_energy">   -629.45431274 </i>
    <i name="e_wo_entrp">   -629.30235072 </i>
    <i name="e_0_energy">   -629.37833173 </i>
   </energy>
  </scstep>
  <scstep>
   <time name="diag">    2.00    2.00</time>
   <time name="diis">   16.88   16.91</time>
   <time name="orth">    0.48    0.48</time>
   <time name="total">   19.39   19.43</time>
   <energy>
    <i name="alphaZ">   4786.51928004 </i>
    <i name="ewald"> -45515.25000531 </i>
    <i name="hartreedc">  -9533.62063866 </i>
    <i name="XCdc">   2207.31108185 </i>
    <i name="pawpsdc">  36699.21609588 </i>
    <i name="pawaedc"> -36788.29562232 </i>
    <i name="eentropy">     -0.15195456 </i>
    <i name="bandstr">  -6683.12910577 </i>
    <i name="atom">  54197.94654788 </i>
    <i name="e_fr_energy">   -629.45432098 </i>
    <i name="e_wo_entrp">   -629.30236642 </i>
    <i name="e_0_energy">   -629.37834370 </i>
   </energy>
  </scstep>
  <structure>
   <crystal>
    <varray name="basis" >
     <v>       8.69510830       0.02234045      -0.00878332 </v>
     <v>       0.02837779       8.74880749       0.00073274 </v>
     <v>       0.02242692      -0.01444277       8.68768318 </v>
    </varray>
    <i name="volume">    660.88425729 </i>
    <varray name="rec_basis" >
     <v>       0.11500785      -0.00037302      -0.00029751 </v>
     <v>      -0.00029349       0.11430223       0.00019078 </v>
     <v>       0.00011630      -0.00001002       0.11510517 </v>
    </varray>
   </crystal>
   <varray name="positions" >
    <v>       0.00015016       0.99403565       0.99832891 </v>
    <v>       0.26874953       0.99919617       0.24805139 </v>
    <v>       0.24367560       0.49700705       0.24753247 </v>
    <v>       0.50382692       0.49954922       0.00220784 </v>
    <v>       0.50562204       0.24659573       0.74288859 </v>
    <v>       0.99400761       0.50473429       0.49924642 </v>
    <v>       0.49676343       0.75885547       0.74962322 </v>
    <v>       0.99305398       0.23703440       0.25331150 </v>
    <v>       0.75373396       0.74337397       0.01183118 </v>
    <v>       0.00042427       0.24780352       0.74758595 </v>
    <v>       0.74984748       0.23948410       0.50034112 </v>
    <v>       0.99818762       0.75384781       0.74470564 </v>
    <v>       0.25107528       0.49748786       0.74800636 </v>
    <v>       0.25719687       0.24298547       0.99175070 </v>
    <v>       0.50998407       0.25737460       0.25457104 </v>
    <v>       0.73729524       0.98528487       0.25994159 </v>
    <v>       0.74834712       0.25195462       0.99878639 </v>
    <v>       0.24739612       0.74763169       0.00024825 </v>
    <v>       0.25356822       0.24634904       0.50361245 </v>
    <v>       0.25143526       0.75277187       0.49866261 </v>
    <v>       0.24935176       0.24744428       0.24704697 </v>
    <v>       0.26188197       0.00015476       0.99047374 </v>
    <v>       0.00198672       0.25249778       0.00006435 </v>
    <v>       0.74839624       0.24552584       0.24974195 </v>
    <v>       0.74188384       0.99917301       0.00501256 </v>
    <v>       0.51317416       0.00175439       0.26047398 </v>
    <v>       0.98641979       0.49110924       0.24155785 </v>
    <v>       0.50082606       0.76364328       0.00927124 </v>
    <v>       0.98864476       0.00273386       0.73756990 </v>
    <v>       0.75642605       0.24783066       0.75131037 </v>
    <v>       0.74910762       0.00345168       0.49856488 </v>
    <v>       0.50075974       0.24237190       0.49018031 </v>
    <v>       0.52255558       0.00149482       0.74395423 </v>
    <v>       0.99707045       0.99533288       0.25792589 </v>
    <v>       0.50328453       0.23911157       0.00483137 </v>
    <v>       0.25068893       0.74896548       0.24944508 </v>
    <v>       0.23975079       0.50002370       0.99408275 </v>
    <v>       0.00244676       0.73901655       0.00548804 </v>
    <v>       0.74922246       0.74427293       0.25806602 </v>
    <v>       0.76245429       0.49735958       0.00323923 </v>
    <v>       0.50610927       0.49988595       0.26042630 </v>
    <v>       0.24771474       0.24726411       0.74806101 </v>
    <v>       0.25361297       0.99973156       0.51183472 </v>
    <v>       0.00253120       0.24305434       0.49938215 </v>
    <v>       0.24141574       0.75674979       0.75039254 </v>
    <v>       0.25794550       0.50190280       0.50118451 </v>
    <v>       0.99635456       0.76294684       0.49515995 </v>
    <v>       0.99234894       0.50162855       0.75669480 </v>
    <v>       0.75100076       0.75184278       0.74914207 </v>
    <v>       0.73847362       0.50417025       0.50119377 </v>
    <v>       0.50006796       0.76002129       0.48749249 </v>
    <v>       0.50401263       0.50364719       0.73987467 </v>
    <v>       0.51764860       0.01257149       0.97145135 </v>
    <v>       0.99654666       0.51249768       0.98218554 </v>
    <v>       0.49575524       0.73108272       0.25696889 </v>
    <v>       0.22723105       0.01229435       0.74104057 </v>
    <v>       0.47969721       0.98940235       0.51658232 </v>
    <v>       0.74067018       0.97232579       0.77824082 </v>
    <v>       0.00841249       0.76894850       0.25933432 </v>
    <v>       0.74010300       0.51239772       0.26594806 </v>
    <v>       0.01925819       0.00043392       0.49938271 </v>
    <v>       0.50266026       0.52217364       0.49625468 </v>
    <v>       0.74552967       0.52117518       0.74232830 </v>
    <v>       0.74422662       0.74522535       0.48990923 </v>
   </varray>
  </structure>
  <varray name="forces" >
   <v>       0.00495147       0.01210199      -0.00223893 </v>
   <v>      -0.01804472       0.00112437      -0.00791396 </v>
   <v>      -0.00217551      -0.00489580       0.00039101 </v>
   <v>      -0.00959473       0.00618846       0.00316221 </v>
   <v>      -0.01001491       0.02205058       0.00057867 </v>
   <v>       0.00929570      -0.00258739      -0.00764294 </v>
   <v>      -0.01623438      -0.00356342       0.00676778 </v>
   <v>       0.02322732       0.03388035      -0.03210182 </v>
   <v>      -0.01352983       0.02445040      -0.01363481 </v>
   <v>      -0.00435169       0.01234584       0.02862295 </v>
   <v>      -0.00631168       0.03895467       0.00743853 </v>
   <v>      -0.00973814       0.00598957       0.01349779 </v>
   <v>      -0.00656522       0.01030035      -0.00390012 </v>
   <v>      -0.01448751       0.01146141       0.02171644 </v>
   <v>      -0.03108667      -0.01188626      -0.01416251 </v>
   <v>       0.04667426       0.01806467      -0.03626329 </v>
   <v>       0.01943095      -0.01260395       0.00720856 </v>
   <v>       0.01650640       0.01141052      -0.00201835 </v>
   <v>       0.00529099       0.01252524      -0.02373147 </v>
   <v>      -0.00773544      -0.00725708       0.00340032 </v>
   <v>       0.02025574       0.00387555      -0.00130195 </v>
   <v>       0.03813615      -0.01590796      -0.02953837 </v>
   <v>       0.00638893       0.04517522       0.00487076 </v>
   <v>      -0.02332650       0.00963157      -0.02970823 </v>
   <v>       0.00103796       0.02189471       0.03524236 </v>
   <v>      -0.00136715      -0.01936908      -0.00234721 </v>
   <v>      -0.02591586       0.04438568      -0.04422582 </v>
   <v>      -0.02607226       0.03406304       0.02911808 </v>
   <v>      -0.02670396      -0.00505943      -0.02124572 </v>
   <v>      -0.00788240      -0.00155199       0.02469610 </v>
   <v>       0.00425220      -0.08159866       0.05152846 </v>
   <v>      -0.02670176       0.00459221      -0.01174691 </v>
   <v>      -0.03601944       0.00429649      -0.02203801 </v>
   <v>      -0.01130888      -0.02182610       0.00896872 </v>
   <v>      -0.00534623       0.00162110       0.01858088 </v>
   <v>       0.00366733      -0.00435924      -0.00056388 </v>
   <v>      -0.01530006      -0.01009248       0.01687427 </v>
   <v>       0.02722208      -0.01107871       0.02432322 </v>
   <v>       0.00690306       0.00406044       0.01254815 </v>
   <v>       0.00870527      -0.03697145       0.00474742 </v>
   <v>      -0.01005080      -0.00925839       0.00330227 </v>
   <v>       0.02137575      -0.01398937       0.00012560 </v>
   <v>      -0.00478021      -0.00330407      -0.00554053 </v>
   <v>       0.02806753      -0.00315377       0.00327903 </v>
   <v>       0.02066722       0.02601631       0.00209862 </v>
   <v>       0.01387348      -0.00311020      -0.01559697 </v>
   <v>      -0.00747017       0.00913303      -0.01763860 </v>
   <v>      -0.02003168      -0.00413382      -0.00795634 </v>
   <v>      -0.01173488      -0.01097045      -0.02351710 </v>
   <v>      -0.00604665      -0.00447701       0.01266985 </v>
   <v>       0.00090329       0.01313604       0.00044983 </v>
   <v>       0.02035831      -0.00420448      -0.01088713 </v>
   <v>      -0.05436789      -0.02794188       0.04319289 </v>
   <v>       0.01922140      -0.05594345       0.04264488 </v>
   <v>      -0.00434988       0.05167093      -0.03411639 </v>
   <v>       0.03720752      -0.02570560       0.04587069 </v>
   <v>       0.03464782       0.03665905      -0.01500988 </v>
   <v>       0.05345664       0.06305794      -0.04940851 </v>
   <v>      -0.00907482      -0.06895958      -0.02332919 </v>
   <v>       0.02286544      -0.05177101      -0.02639332 </v>
   <v>      -0.03288574       0.00589575      -0.00378272 </v>
   <v>      -0.01405708      -0.04732125       0.01225098 </v>
   <v>       0.00353569      -0.05694954       0.00922330 </v>
   <v>       0.01253885       0.04178943       0.04011037 </v>
  </varray>
  <varray name="stress" >
   <v>      17.92408343      -0.06015461       0.09636693 </v>
   <v>      -0.06015350      17.85913953       0.08563882 </v>
   <v>       0.09636831       0.08563899      17.68795763 </v>
  </varray>
  <energy>
   <i name="e_fr_energy">   -629.45432098 </i>
   <i name="e_wo_entrp">   -629.37834370 </i>
   <i name="e_0_energy">     -0.15195456 </i>
  </energy>
  <time name="totalsc">  498.75  500.09</time>
 </calculation>
 <calculation>
  <scstep>
   <time name="dav">   27.96   27.99</time>
   <time name="total">   28.28   28.31</time>
   <energy>
    <i name="alphaZ">   4757.77189059 </i>
    <i name="ewald"> -45424.26444871 </i>
    <i name="hartreedc">  -9514.24497126 </i>
    <i name="XCdc">   2202.84916760 </i>
    <i name="pawpsdc">  36699.35692655 </i>
    <i name="pawaedc"> -36788.37949396 </i>
    <i name="eentropy">     -0.15588408 </i>
    <i name="bandstr">  -6760.54769695 </i>
    <i name="atom">  54197.94654788 </i>
    <i name="e_fr_energy">   -629.66796234 </i>
    <i name="e_wo_entrp">   -629.51207826 </i>
    <i name="e_0_energy">   -629.59002030 </i>
   </energy>
  </scstep>
  <scstep>
   <time name="diag">    2.07    2.11</time>
   <time name="diis">   19.04   19.08</time>
   <time name="orth">    0.48    0.48</time>
   <time name="total">   21.89   21.98</time>
   <energy>
    <i name="e_fr_energy">   -630.55033107 </i>
    <i name="e_wo_entrp">   -630.39353529 </i>
    <i name="e_0_energy">   -630.47193318 </i>
   </energy>
  </scstep>
  <scstep>
   <time name="diag">    2.00    2.00</time>
   <time name="diis">   18.19   18.22</time>
   <time name="orth">    0.48    0.48</time>
   <time name="total">   20.98   21.01</time>
   <energy>
    <i name="e_fr_energy">   -629.77081192 </i>
    <i name="e_wo_entrp">   -629.63112456 </i>
    <i name="e_0_energy">   -629.70096824 </i>
   </energy>
  </scstep>
  <scstep>
   <time name="diag">    2.00    2.00</time>
   <time name="diis">   20.03   20.13</time>
   <time name="orth">    0.48    0.48</time>
   <time name="total">   22.81   22.92</time>
   <energy>
    <i name="e_fr_energy">   -629.57850348 </i>
    <i name="e_wo_entrp">   -629.42651147 </i>
    <i name="e_0_energy">   -629.50250748 </i>
   </energy>
  </scstep>
  <scstep>
   <time name="diag">    2.01    2.02</time>
   <time name="diis">   20.37   20.38</time>
   <time name="orth">    0.48    0.48</time>
   <time name="total">   23.16   23.18</time>
   <energy>
    <i name="e_fr_energy">   -629.51842416 </i>
    <i name="e_wo_entrp">   -629.36494099 </i>
    <i name="e_0_energy">   -629.44168258 </i>
   </energy>
  </scstep>
  <scstep>
   <time name="diag">    2.02    2.04</time>
   <time name="diis">   20.57   20.61</time>
   <time name="orth">    0.48    0.48</time>
   <time name="total">   23.37   23.43</time>
   <energy>
    <i name="e_fr_energy">   -629.49325053 </i>
    <i name="e_wo_entrp">   -629.34183918 </i>
    <i name="e_0_energy">   -629.41754485 </i>
   </energy>
  </scstep>
  <scstep>
   <time name="diag">    2.00    2.00</time>
   <time name="diis">   20.21   20.26</time>
   <time name="orth">    0.48    0.48</time>
   <time name="total">   22.99   23.04</time>
   <energy>
    <i name="e_fr_energy">   -629.49080884 </i>
    <i name="e_wo_entrp">   -629.33497948 </i>
    <i name="e_0_energy">   -629.41289416 </i>
   </energy>
  </scstep>
  <scstep>
   <time name="diag">    2.00    2.03</time>
   <time name="diis">   20.38   20.41</time>
   <time name="orth">    0.48    0.48</time>
   <time name="total">   23.16   23.22</time>
   <energy>
    <i name="e_fr_energy">   -629.48234688 </i>
    <i name="e_wo_entrp">   -629.32944043 </i>
    <i name="e_0_energy">   -629.40589366 </i>
   </energy>
  </scstep>
  <scstep>
   <time name="diag">    2.00    2.00</time>
   <time name="diis">   20.81   20.86</time>
   <time name="orth">    0.48    0.48</time>
   <time name="total">   23.58   23.64</time>
   <energy>
    <i name="e_fr_energy">   -629.47806654 </i>
    <i name="e_wo_entrp">   -629.32467674 </i>
    <i name="e_0_energy">   -629.40137164 </i>
   </energy>
  </scstep>
  <scstep>
   <time name="diag">    2.01    2.02</time>
   <time name="diis">   20.04   20.06</time>
   <time name="orth">    0.48    0.48</time>
   <time name="total">   22.84   22.86</time>
   <energy>
    <i name="e_fr_energy">   -629.47818084 </i>
    <i name="e_wo_entrp">   -629.32511359 </i>
    <i name="e_0_energy">   -629.40164721 </i>
   </energy>
  </scstep>
  <scstep>
   <time name="diag">    2.00    2.00</time>
   <time name="diis">   19.34   19.36</time>
   <time name="orth">    0.48    0.48</time>
   <time name="total">   22.13   22.15</time>
   <energy>
    <i name="e_fr_energy">   -629.47671673 </i>
    <i name="e_wo_entrp">   -629.32355588 </i>
    <i name="e_0_energy">   -629.40013631 </i>
   </energy>
  </scstep>
  <scstep>
   <time name="diag">    2.00    2.00</time>
   <time name="diis">   19.15   19.22</time>
   <time name="orth">    0.48    0.48</time>
   <time name="total">   21.93   22.00</time>
   <energy>
    <i name="e_fr_energy">   -629.47660506 </i>
    <i name="e_wo_entrp">   -629.32323092 </i>
    <i name="e_0_energy">   -629.39991799 </i>
   </energy>
  </scstep>
  <scstep>
   <time name="diag">    1.99    1.99</time>
   <time name="diis">   19.16   19.17</time>
   <time name="orth">    0.51    0.51</time>
   <time name="total">   21.97   21.98</time>
   <energy>
    <i name="e_fr_energy">   -629.47652963 </i>
    <i name="e_wo_entrp">   -629.32329929 </i>
    <i name="e_0_energy">   -629.39991446 </i>
   </energy>
  </scstep>
  <scstep>
   <time name="diag">    2.00    2.00</time>
   <time name="diis">   19.31   19.32</time>
   <time name="orth">    0.49    0.49</time>
   <time name="total">   22.10   22.11</time>
   <energy>
    <i name="e_fr_energy">   -629.47652687 </i>
    <i name="e_wo_entrp">   -629.32324994 </i>
    <i name="e_0_energy">   -629.39988841 </i>
   </energy>
  </scstep>
  <scstep>
   <time name="diag">    2.00    2.01</time>
   <time name="diis">   18.50   18.57</time>
   <time name="orth">    0.48    0.48</time>
   <time name="total">   21.28   21.36</time>
   <energy>
    <i name="e_fr_energy">   -629.47657873 </i>
    <i name="e_wo_entrp">   -629.32339539 </i>
    <i name="e_0_energy">   -629.39998706 </i>
   </energy>
  </scstep>
  <scstep>
   <time name="diag">    2.03    2.03</time>
   <time name="diis">   18.35   18.37</time>
   <time name="orth">    0.48    0.48</time>
   <time name="total">   21.16   21.18</time>
   <energy>
    <i name="e_fr_energy">   -629.47655920 </i>
    <i name="e_wo_entrp">   -629.32325370 </i>
    <i name="e_0_energy">   -629.39990645 </i>
   </energy>
  </scstep>
  <scstep>
   <time name="diag">    1.99    1.99</time>
   <time name="diis">   18.73   18.78</time>
   <time name="orth">    0.48    0.48</time>
   <time name="total">   21.51   21.57</time>
   <energy>
    <i name="e_fr_energy">   -629.47659863 </i>
    <i name="e_wo_entrp">   -629.32329093 </i>
    <i name="e_0_energy">   -629.39994478 </i>
   </energy>
  </scstep>
  <scstep>
   <time name="diag">    2.00    2.00</time>
   <time name="diis">   18.65   18.69</time>
   <time name="orth">    0.48    0.48</time>
   <time name="total">   21.43   21.48</time>
   <energy>
    <i name="e_fr_energy">   -629.47660238 </i>
    <i name="e_wo_entrp">   -629.32331458 </i>
    <i name="e_0_energy">   -629.39995848 </i>
   </energy>
  </scstep>
  <scstep>
   <time name="diag">    2.01    2.01</time>
   <time name="diis">   16.44   16.47</time>
   <time name="orth">    0.48    0.48</time>
   <time name="total">   18.97   18.99</time>
   <energy>
    <i name="alphaZ">   4757.77189059 </i>
    <i name="ewald"> -45424.26444871 </i>
    <i name="hartreedc">  -9565.97903139 </i>
    <i name="XCdc">   2205.71894659 </i>
    <i name="pawpsdc">  36627.60215035 </i>
    <i name="pawaedc"> -36716.86251689 </i>
    <i name="eentropy">     -0.15329830 </i>
    <i name="bandstr">  -6711.25684341 </i>
    <i name="atom">  54197.94654788 </i>
    <i name="e_fr_energy">   -629.47660329 </i>
    <i name="e_wo_entrp">   -629.32330499 </i>
    <i name="e_0_energy">   -629.39995414 </i>
   </energy>
  </scstep>
  <structure>
   <crystal>
    <varray name="basis" >
     <v>       8.71213934       0.02173763      -0.00854897 </v>
     <v>       0.02777864       8.76755555       0.00069559 </v>
     <v>       0.02272310      -0.01451451       8.70443377 </v>
    </varray>
    <i name="volume">    664.87744939 </i>
    <varray name="rec_basis" >
     <v>       0.11478298      -0.00036365      -0.00030025 </v>
     <v>      -0.00028440       0.11405776       0.00019093 </v>
[...]
      </set>
     </set>
    </set>
   </array>
  </eigenvalues>
  <separator name="orbital magnetization" >
   <v name="MAGDIPOLOUT">      0.00000000      0.00000000      0.00000000</v>
  </separator>
  <dos>
   <i name="efermi">      7.67034840 </i>
   <total>
    <array>
     <dimension dim="1">gridpoints</dimension>
     <dimension dim="2">spin</dimension>
     <field>energy</field>
     <field>total</field>
     <field>integrated</field>
     <set>
      <set comment="spin 1">
       <r>   -60.6207     0.0000     0.0000 </r>
       <r>   -60.3710     0.0000     0.0000 </r>
       <r>   -60.1212     0.0000     0.0000 </r>
       <r>   -59.8715     0.0000     0.0000 </r>
       <r>   -59.6218     0.0000     0.0000 </r>
       <r>   -59.3720     0.0000     0.0000 </r>
       <r>   -59.1223     0.0000     0.0000 </r>
       <r>   -58.8726     0.0000     0.0000 </r>
       <r>   -58.6228     0.0000     0.0000 </r>
       <r>   -58.3731     0.0000     0.0000 </r>
       <r>   -58.1233     0.0000     0.0000 </r>
       <r>   -57.8736     0.0000     0.0000 </r>
       <r>   -57.6239     0.0000     0.0000 </r>
       <r>   -57.3741     0.1282     0.0320 </r>
       <r>   -57.1244    26.5980     6.6746 </r>
       <r>   -56.8746    21.2542    11.9825 </r>
       <r>   -56.6249     0.0699    12.0000 </r>
       <r>   -56.3752     0.0000    12.0000 </r>
       <r>   -56.1254     0.0000    12.0000 </r>
       <r>   -55.8757     0.0000    12.0000 </r>
       <r>   -55.6260     0.0000    12.0000 </r>
       <r>   -55.3762     0.0000    12.0000 </r>
       <r>   -55.1265     0.0000    12.0000 </r>
       <r>   -54.8767     0.0000    12.0000 </r>
       <r>   -54.6270     0.0000    12.0000 </r>
       <r>   -54.3773     0.0000    12.0000 </r>
       <r>   -54.1275     0.0000    12.0000 </r>
       <r>   -53.8778     0.0000    12.0000 </r>
       <r>   -53.6281     0.0000    12.0000 </r>
       <r>   -53.3783     0.0000    12.0000 </r>
       <r>   -53.1286     0.0000    12.0000 </r>
       <r>   -52.8788     0.0000    12.0000 </r>
       <r>   -52.6291     0.0000    12.0000 </r>
       <r>   -52.3794     0.0000    12.0000 </r>
       <r>   -52.1296     0.0000    12.0000 </r>
       <r>   -51.8799     0.0000    12.0000 </r>
       <r>   -51.6301     0.0000    12.0000 </r>
       <r>   -51.3804     0.0000    12.0000 </r>
       <r>   -51.1307     0.0000    12.0000 </r>
       <r>   -50.8809     0.0000    12.0000 </r>
       <r>   -50.6312     0.0000    12.0000 </r>
       <r>   -50.3815     0.0000    12.0000 </r>
       <r>   -50.1317     0.0167    12.0042 </r>
       <r>   -49.8820    15.0299    15.7577 </r>
       <r>   -49.6322    23.7691    21.6938 </r>
       <r>   -49.3825    11.7484    24.6278 </r>
       <r>   -49.1328     5.4855    25.9977 </r>
       <r>   -48.8830     0.0091    26.0000 </r>
       <r>   -48.6333     0.0000    26.0000 </r>
       <r>   -48.3835     0.0000    26.0000 </r>
       <r>   -48.1338     0.0000    26.0000 </r>
       <r>   -47.8841     0.0000    26.0000 </r>
       <r>   -47.6343     0.0000    26.0000 </r>
       <r>   -47.3846     0.0000    26.0000 </r>
       <r>   -47.1349     0.0000    26.0000 </r>
       <r>   -46.8851     0.0000    26.0000 </r>
       <r>   -46.6354     0.0000    26.0000 </r>
       <r>   -46.3856     0.0000    26.0000 </r>
       <r>   -46.1359     0.0000    26.0000 </r>
       <r>   -45.8862     0.0000    26.0000 </r>
       <r>   -45.6364     0.0000    26.0000 </r>
       <r>   -45.3867     0.0000    26.0000 </r>
       <r>   -45.1370     0.0000    26.0000 </r>
       <r>   -44.8872     0.0000    26.0000 </r>
       <r>   -44.6375     0.0000    26.0000 </r>
       <r>   -44.3877     0.0000    26.0000 </r>
       <r>   -44.1380     0.0000    26.0000 </r>
       <r>   -43.8883     0.0000    26.0000 </r>
       <r>   -43.6385     0.0000    26.0000 </r>
       <r>   -43.3888     0.0000    26.0000 </r>
       <r>   -43.1390     0.0000    26.0000 </r>
       <r>   -42.8893     0.0000    26.0000 </r>
       <r>   -42.6396     0.0000    26.0000 </r>
       <r>   -42.3898     0.0000    26.0000 </r>
       <r>   -42.1401     0.0000    26.0000 </r>
       <r>   -41.8904     0.0000    26.0000 </r>
       <r>   -41.6406     0.0002    26.0001 </r>
       <r>   -41.3909     2.4678    26.6163 </r>
       <r>   -41.1411     5.7806    28.0600 </r>
       <r>   -40.8914    12.7762    31.2507 </r>
       <r>   -40.6417    31.8247    39.1985 </r>
       <r>   -40.3919     3.2091    40.0000 </r>
       <r>   -40.1422     0.0001    40.0000 </r>
       <r>   -39.8925     0.0000    40.0000 </r>
       <r>   -39.6427     0.0000    40.0000 </r>
       <r>   -39.3930     0.0000    40.0000 </r>
       <r>   -39.1432     0.0000    40.0000 </r>
       <r>   -38.8935     0.0000    40.0000 </r>
       <r>   -38.6438     0.0000    40.0000 </r>
       <r>   -38.3940     0.0000    40.0000 </r>
       <r>   -38.1443     0.0000    40.0000 </r>
       <r>   -37.8945     0.0000    40.0000 </r>
       <r>   -37.6448     0.0000    40.0000 </r>
       <r>   -37.3951     0.0000    40.0000 </r>
       <r>   -37.1453     0.0000    40.0000 </r>
       <r>   -36.8956     0.0000    40.0000 </r>
       <r>   -36.6459     0.0000    40.0000 </r>
       <r>   -36.3961     0.0219    40.0055 </r>
       <r>   -36.1464     6.5260    41.6353 </r>
       <r>   -35.8966    64.8111    57.8211 </r>
       <r>   -35.6469    71.6452    75.7136 </r>
       <r>   -35.3972     1.1468    76.0000 </r>
       <r>   -35.1474     0.0000    76.0000 </r>
       <r>   -34.8977     0.0000    76.0000 </r>
       <r>   -34.6479     0.0000    76.0000 </r>
       <r>   -34.3982     0.0000    76.0000 </r>
       <r>   -34.1485     0.0000    76.0000 </r>
       <r>   -33.8987     0.0000    76.0000 </r>
       <r>   -33.6490     0.0000    76.0000 </r>
       <r>   -33.3993     0.0000    76.0000 </r>
       <r>   -33.1495     0.0000    76.0000 </r>
       <r>   -32.8998     0.0000    76.0000 </r>
       <r>   -32.6500     0.0000    76.0000 </r>
       <r>   -32.4003     0.0000    76.0000 </r>
       <r>   -32.1506     0.0000    76.0000 </r>
       <r>   -31.9008     0.0000    76.0000 </r>
       <r>   -31.6511     0.0000    76.0000 </r>
       <r>   -31.4014     0.2265    76.0566 </r>
       <r>   -31.1516    43.8633    87.0109 </r>
       <r>   -30.9019    94.3874   110.5830 </r>
       <r>   -30.6521     5.6737   112.0000 </r>
       <r>   -30.4024     0.0002   112.0000 </r>
       <r>   -30.1527     0.0000   112.0000 </r>
       <r>   -29.9029     0.0000   112.0000 </r>
       <r>   -29.6532     0.0000   112.0000 </r>
       <r>   -29.4034     0.0000   112.0000 </r>
       <r>   -29.1537     0.0000   112.0000 </r>
       <r>   -28.9040     0.0000   112.0000 </r>
       <r>   -28.6542     0.0000   112.0000 </r>
       <r>   -28.4045     0.0000   112.0000 </r>
       <r>   -28.1548     0.1209   112.0302 </r>
       <r>   -27.9050    16.0127   116.0292 </r>
       <r>   -27.6553    26.6073   122.6740 </r>
       <r>   -27.4055    43.2064   133.4643 </r>
       <r>   -27.1558    34.2576   142.0198 </r>
       <r>   -26.9061    23.6870   147.9353 </r>
       <r>   -26.6563     0.2603   148.0003 </r>
       <r>   -26.4066     6.9325   149.7316 </r>
       <r>   -26.1569    66.6011   166.3645 </r>
       <r>   -25.9071    63.6451   182.2591 </r>
       <r>   -25.6574    27.4286   189.1090 </r>
       <r>   -25.4076     3.5675   190.0000 </r>
       <r>   -25.1579     0.0001   190.0000 </r>
       <r>   -24.9082     0.0000   190.0000 </r>
       <r>   -24.6584     0.0000   190.0000 </r>
       <r>   -24.4087     0.0000   190.0000 </r>
       <r>   -24.1589     0.0000   190.0000 </r>
       <r>   -23.9092     0.0000   190.0000 </r>
       <r>   -23.6595     0.0000   190.0000 </r>
       <r>   -23.4097     0.0000   190.0000 </r>
       <r>   -23.1600     0.0000   190.0000 </r>
       <r>   -22.9103     0.0000   190.0000 </r>
       <r>   -22.6605     0.0000   190.0000 </r>
       <r>   -22.4108     0.0000   190.0000 </r>
       <r>   -22.1610     0.0000   190.0000 </r>
       <r>   -21.9113     0.0000   190.0000 </r>
       <r>   -21.6616     0.0000   190.0000 </r>
       <r>   -21.4118     0.0000   190.0000 </r>
       <r>   -21.1621     0.0000   190.0000 </r>
       <r>   -20.9123     0.0000   190.0000 </r>
       <r>   -20.6626     0.0000   190.0000 </r>
       <r>   -20.4129     0.0000   190.0000 </r>
       <r>   -20.1631     0.0000   190.0000 </r>
       <r>   -19.9134     0.3193   190.0797 </r>
       <r>   -19.6637    17.8246   194.5312 </r>
       <r>   -19.4139    20.2598   199.5909 </r>
       <r>   -19.1642    69.4973   216.9470 </r>
       <r>   -18.9144    48.5535   229.0727 </r>
       <r>   -18.6647    11.3952   231.9185 </r>
       <r>   -18.4150     0.3264   232.0000 </r>
       <r>   -18.1652     0.0000   232.0000 </r>
       <r>   -17.9155     0.0000   232.0000 </r>
       <r>   -17.6658     0.0000   232.0000 </r>
       <r>   -17.4160     0.0000   232.0000 </r>
       <r>   -17.1663     0.0000   232.0000 </r>
       <r>   -16.9165     0.0000   232.0000 </r>
       <r>   -16.6668     0.0000   232.0000 </r>
       <r>   -16.4171     0.0000   232.0000 </r>
       <r>   -16.1673     0.0000   232.0000 </r>
       <r>   -15.9176     0.0000   232.0000 </r>
       <r>   -15.6678     0.0000   232.0000 </r>
       <r>   -15.4181     0.0000   232.0000 </r>
       <r>   -15.1684     0.0000   232.0000 </r>
       <r>   -14.9186     0.0000   232.0000 </r>
       <r>   -14.6689     0.0000   232.0000 </r>
       <r>   -14.4192     0.0000   232.0000 </r>
       <r>   -14.1694     0.0000   232.0000 </r>
       <r>   -13.9197     0.0000   232.0000 </r>
       <r>   -13.6699     0.0000   232.0000 </r>
       <r>   -13.4202     0.0000   232.0000 </r>
       <r>   -13.1705     0.0000   232.0000 </r>
       <r>   -12.9207     0.0000   232.0000 </r>
       <r>   -12.6710     0.0000   232.0000 </r>
       <r>   -12.4212     0.0000   232.0000 </r>
       <r>   -12.1715     0.0000   232.0000 </r>
       <r>   -11.9218     0.0000   232.0000 </r>
       <r>   -11.6720     0.0000   232.0000 </r>
       <r>   -11.4223     0.0000   232.0000 </r>
       <r>   -11.1726     0.0000   232.0000 </r>
       <r>   -10.9228     0.0000   232.0000 </r>
       <r>   -10.6731     0.0000   232.0000 </r>
       <r>   -10.4233     0.0000   232.0000 </r>
       <r>   -10.1736     0.0000   232.0000 </r>
       <r>    -9.9239     0.0000   232.0000 </r>
       <r>    -9.6741     0.0000   232.0000 </r>
       <r>    -9.4244     0.0000   232.0000 </r>
       <r>    -9.1747     0.0000   232.0000 </r>
       <r>    -8.9249     0.0000   232.0000 </r>
       <r>    -8.6752     0.0213   232.0053 </r>
       <r>    -8.4254     3.1310   232.7873 </r>
       <r>    -8.1757     5.9392   234.2705 </r>
       <r>    -7.9260    12.0468   237.2791 </r>
       <r>    -7.6762    11.6185   240.1806 </r>
       <r>    -7.4265    13.5935   243.5755 </r>
       <r>    -7.1767    19.8794   248.5401 </r>
       <r>    -6.9270    18.5109   253.1630 </r>
       <r>    -6.6773    14.8006   256.8592 </r>
       <r>    -6.4275     4.5646   257.9992 </r>
       <r>    -6.1778     0.0032   258.0000 </r>
       <r>    -5.9281     0.0000   258.0000 </r>
       <r>    -5.6783     0.0000   258.0000 </r>
       <r>    -5.4286     0.0000   258.0000 </r>
       <r>    -5.1788     0.0005   258.0001 </r>
       <r>    -4.9291     0.8800   258.2199 </r>
       <r>    -4.6794     6.1914   259.7661 </r>
       <r>    -4.4296     2.3814   260.3608 </r>
       <r>    -4.1799     8.9525   262.5966 </r>
       <r>    -3.9302    10.7234   265.2746 </r>
       <r>    -3.6804    14.8165   268.9749 </r>
       <r>    -3.4307    18.2608   273.5353 </r>
       <r>    -3.1809    25.7188   279.9583 </r>
       <r>    -2.9312    27.1973   286.7505 </r>
       <r>    -2.6815    23.3794   292.5892 </r>
       <r>    -2.4317    10.0003   295.0866 </r>
       <r>    -2.1820     3.3585   295.9254 </r>
       <r>    -1.9322     0.2987   296.0000 </r>
       <r>    -1.6825     0.0001   296.0000 </r>
       <r>    -1.4328     0.0000   296.0000 </r>
       <r>    -1.1830     0.0000   296.0000 </r>
       <r>    -0.9333     0.0000   296.0000 </r>
       <r>    -0.6836     0.0000   296.0000 </r>
       <r>    -0.4338     0.0000   296.0000 </r>
       <r>    -0.1841     0.0070   296.0018 </r>
       <r>     0.0657     0.7758   296.1955 </r>
       <r>     0.3154     4.4522   297.3074 </r>
       <r>     0.5651    11.0475   300.0664 </r>
       <r>     0.8149    11.9754   303.0571 </r>
       <r>     1.0646    15.5888   306.9502 </r>
       <r>     1.3144    24.7442   313.1298 </r>
       <r>     1.5641    29.1753   320.4159 </r>
       <r>     1.8138    25.8089   326.8614 </r>
       <r>     2.0636    34.2010   335.4027 </r>
       <r>     2.3133    37.5910   344.7906 </r>
       <r>     2.5630    37.7759   354.2247 </r>
       <r>     2.8128    43.7026   365.1389 </r>
       <r>     3.0625    47.0844   376.8977 </r>
       <r>     3.3123    54.4716   390.5013 </r>
       <r>     3.5620    61.1870   405.7821 </r>
       <r>     3.8117    61.6294   421.1733 </r>
       <r>     4.0615    59.2344   435.9664 </r>
       <r>     4.3112    51.6566   448.8670 </r>
       <r>     4.5609    40.3036   458.9323 </r>
       <r>     4.8107    34.5983   467.5728 </r>
       <r>     5.0604    30.2701   475.1324 </r>
       <r>     5.3102    20.8226   480.3327 </r>
       <r>     5.5599    16.6244   484.4844 </r>
       <r>     5.8096    11.4414   487.3418 </r>
       <r>     6.0594     6.8506   489.0526 </r>
       <r>     6.3091    15.4492   492.9109 </r>
       <r>     6.5589    18.1288   497.4383 </r>
       <r>     6.8086    21.7405   502.8678 </r>
       <r>     7.0583    23.1642   508.6528 </r>
       <r>     7.3081    21.6411   514.0574 </r>
       <r>     7.5578    29.4982   521.4242 </r>
       <r>     7.8075    30.7185   529.0958 </r>
       <r>     8.0573    34.3981   537.6863 </r>
       <r>     8.3070    43.5611   548.5652 </r>
       <r>     8.5568    51.0229   561.3075 </r>
       <r>     8.8065    52.9788   574.5384 </r>
       <r>     9.0562    54.5205   588.1542 </r>
       <r>     9.3060    55.0392   601.8996 </r>
       <r>     9.5557    51.8402   614.8461 </r>
       <r>     9.8054    49.2793   627.1530 </r>
       <r>    10.0552    50.9729   639.8829 </r>
       <r>    10.3049    43.7196   650.8013 </r>
       <r>    10.5547    42.5157   661.4191 </r>
       <r>    10.8044    35.5724   670.3029 </r>
       <r>    11.0541     6.7733   671.9945 </r>
       <r>    11.3039     0.0221   672.0000 </r>
       <r>    11.5536     0.0000   672.0000 </r>
       <r>    11.8034     0.0000   672.0000 </r>
       <r>    12.0531     0.0000   672.0000 </r>
       <r>    12.3028     0.0000   672.0000 </r>
       <r>    12.5526     0.0000   672.0000 </r>
       <r>    12.8023     0.0000   672.0000 </r>
       <r>    13.0520     0.0000   672.0000 </r>
       <r>    13.3018     0.0000   672.0000 </r>
       <r>    13.5515     0.0000   672.0000 </r>
       <r>    13.8013     0.0000   672.0000 </r>
       <r>    14.0510     0.0000   672.0000 </r>
       <r>    14.3007     0.0000   672.0000 </r>
      </set>
     </set>
    </array>
   </total>
  </dos>
 </calculation>
 <structure name="finalpos" >
  <crystal>
   <varray name="basis" >
    <v>       8.71222211       0.02227947      -0.00871120 </v>
    <v>       0.02833173       8.76472939       0.00109272 </v>
    <v>       0.02255894      -0.01411352       8.70407976 </v>
   </varray>
   <i name="volume">    664.64224052 </i>
   <varray name="rec_basis" >
    <v>       0.11478193      -0.00037099      -0.00029809 </v>
    <v>      -0.00029158       0.11409457       0.00018576 </v>
    <v>       0.00011491      -0.00001469       0.11488833 </v>
   </varray>
  </crystal>
  <varray name="positions" >
   <v>       0.00019142       0.99410549       0.99828700 </v>
   <v>       0.26866777       0.99917556       0.24798694 </v>
   <v>       0.24372295       0.49702311       0.24755543 </v>
   <v>       0.50379046       0.49961220       0.00225284 </v>
   <v>       0.50561322       0.24666717       0.74289684 </v>
   <v>       0.99402013       0.50473207       0.49918926 </v>
   <v>       0.49676596       0.75889855       0.74963409 </v>
   <v>       0.99309697       0.23713067       0.25321888 </v>
   <v>       0.75376124       0.74341366       0.01176190 </v>
   <v>       0.00042800       0.24792597       0.74767269 </v>
   <v>       0.74988343       0.23947078       0.50029517 </v>
   <v>       0.99812622       0.75381108       0.74477627 </v>
   <v>       0.25106705       0.49754980       0.74800337 </v>
   <v>       0.25717474       0.24309769       0.99182014 </v>
   <v>       0.50985959       0.25728609       0.25452917 </v>
   <v>       0.73747941       0.98533072       0.25969399 </v>
   <v>       0.74837311       0.25192932       0.99891179 </v>
   <v>       0.24743003       0.74767964       0.00021090 </v>
   <v>       0.25355800       0.24635400       0.50356308 </v>
   <v>       0.25139726       0.75278177       0.49870269 </v>
   <v>       0.24941791       0.24745723       0.24705155 </v>
   <v>       0.26212021       0.00005237       0.99034577 </v>
   <v>       0.00205293       0.25273064       0.00011531 </v>
   <v>       0.74832863       0.24557711       0.24965660 </v>
   <v>       0.74185107       0.99922058       0.00509369 </v>
   <v>       0.51319791       0.00155229       0.26061899 </v>
   <v>       0.98631289       0.49143225       0.24134226 </v>
   <v>       0.50076655       0.76386038       0.00940098 </v>
   <v>       0.98860310       0.00274215       0.73747330 </v>
   <v>       0.75643457       0.24775442       0.75140519 </v>
   <v>       0.74920958       0.00308687       0.49892501 </v>
   <v>       0.50069993       0.24236446       0.49015092 </v>
   <v>       0.52245237       0.00155839       0.74387661 </v>
   <v>       0.99704530       0.99527147       0.25790170 </v>
   <v>       0.50323521       0.23912889       0.00489401 </v>
   <v>       0.25071908       0.74895072       0.24944509 </v>
   <v>       0.23974248       0.49995069       0.99413310 </v>
   <v>       0.00251123       0.73895860       0.00554061 </v>
   <v>       0.74922591       0.74424372       0.25810353 </v>
   <v>       0.76243054       0.49724920       0.00325834 </v>
   <v>       0.50605764       0.49990922       0.26043194 </v>
   <v>       0.24776762       0.24724080       0.74807890 </v>
   <v>       0.25355906       0.99972961       0.51184495 </v>
   <v>       0.00260850       0.24304342       0.49937786 </v>
   <v>       0.24145988       0.75682967       0.75040370 </v>
   <v>       0.25797637       0.50188204       0.50116415 </v>
   <v>       0.99634361       0.76292425       0.49513516 </v>
   <v>       0.99226939       0.50161851       0.75664628 </v>
   <v>       0.75097812       0.75179099       0.74908162 </v>
   <v>       0.73846064       0.50408105       0.50121521 </v>
   <v>       0.50006040       0.76010876       0.48748282 </v>
   <v>       0.50405774       0.50365637       0.73987105 </v>
   <v>       0.51734451       0.01249371       0.97149825 </v>
   <v>       0.99666561       0.51212887       0.98233544 </v>
   <v>       0.49560081       0.73132324       0.25686600 </v>
   <v>       0.22737512       0.01214894       0.74138793 </v>
   <v>       0.47965136       0.98957030       0.51651212 </v>
   <v>       0.74084107       0.97257822       0.77801310 </v>
   <v>       0.00843016       0.76865392       0.25917885 </v>
   <v>       0.74008214       0.51220752       0.26592485 </v>
   <v>       0.01919605       0.00041346       0.49930607 </v>
   <v>       0.50264611       0.52206385       0.49623934 </v>
   <v>       0.74545507       0.52096381       0.74222353 </v>
   <v>       0.74434900       0.74552148       0.49008598 </v>
  </varray>
 </structure>
</modeling>
