HECN                                    
           1
     8.721431    0.021409   -0.008421
     0.027452    8.777784    0.000675
     0.022885   -0.014554    8.713573
   Zr   Ta   Ti   N    C    Cr   V 
   7   6   7  13  19   6   6
Direct configuration=     1
   0.00014827  0.99404680  0.99833703
   0.26874296  0.99920382  0.24805033
   0.24366632  0.49699415  0.24753527
   0.50382325  0.49955140  0.00221498
   0.50561975  0.24659179  0.74288147
   0.99402322  0.50473737  0.49926000
   0.49676626  0.75890976  0.74961503
   0.99304990  0.23703649  0.25330167
   0.75371014  0.74339693  0.01183366
   0.00040321  0.24777971  0.74758940
   0.74981644  0.23952395  0.50034953
   0.99816881  0.75386520  0.74468550
   0.25106102  0.49747649  0.74800261
   0.25718678  0.24295650  0.99176389
   0.50998390  0.25736004  0.25455487
   0.73732234  0.98530813  0.26000664
   0.74836026  0.25192289  0.99877239
   0.24741743  0.74765855  0.00025804
   0.25357855  0.24635363  0.50361090
   0.25143415  0.75277291  0.49866028
   0.24936340  0.24743823  0.24704571
   0.26183156  0.00017194  0.99051291
   0.00198399  0.25245840  0.00005230
   0.74840104  0.24553010  0.24972719
   0.74196587  0.99919410  0.00502561
   0.51311630  0.00179270  0.26043217
   0.98645798  0.49110821  0.24159370
   0.50081006  0.76359823  0.00923302
   0.98864669  0.00272755  0.73763220
   0.75641180  0.24784318  0.75132666
   0.74909020  0.00348030  0.49852070
   0.50073184  0.24238864  0.49022053
   0.52251866  0.00144827  0.74398266
   0.99708428  0.99535273  0.25789232
   0.50327706  0.23914822  0.00481777
   0.25068409  0.74897624  0.24944571
   0.23978698  0.50002699  0.99408103
   0.00245699  0.73907501  0.00549189
   0.74922586  0.74430919  0.25803319
   0.76241666  0.49735181  0.00324279
   0.50609146  0.49985608  0.26038185
   0.24772783  0.24728201  0.74806150
   0.25360258  0.99973191  0.51178629
   0.00254078  0.24307675  0.49938132
   0.24143604  0.75673972  0.75039091
   0.25792532  0.50190169  0.50118352
   0.99636716  0.76291604  0.49518801
   0.99236833  0.50163112  0.75664437
   0.75099728  0.75183990  0.74914520
   0.73850135  0.50416906  0.50120091
   0.50005079  0.75998901  0.48754051
   0.50400045  0.50362896  0.73990126
   0.51765674  0.01253208  0.97148989
   0.99653909  0.51250192  0.98221504
   0.49580802  0.73105902  0.25693693
   0.22723334  0.01227112  0.74100776
   0.47978990  0.98940465  0.51652245
   0.74066205  0.97234442  0.77823930
   0.00837783  0.76894910  0.25932872
   0.74013854  0.51236832  0.26590646
   0.01921416  0.00045164  0.49940063
   0.50264647  0.52214961  0.49625265
   0.74556384  0.52114467  0.74238594
   0.74421677  0.74519438  0.48991520
HECN                                    
           1
     8.695108    0.022340   -0.008783
     0.028378    8.748807    0.000733
     0.022427   -0.014443    8.687683
   Zr   Ta   Ti   N    C    Cr   V 
   7   6   7  13  19   6   6
Direct configuration=     2
   0.00015016  0.99403565  0.99832891
   0.26874953  0.99919617  0.24805139
   0.24367560  0.49700705  0.24753247
   0.50382692  0.49954922  0.00220784
   0.50562204  0.24659573  0.74288859
   0.99400761  0.50473429  0.49924642
   0.49676343  0.75885547  0.74962322
   0.99305398  0.23703440  0.25331150
   0.75373396  0.74337397  0.01183118
   0.00042427  0.24780352  0.74758595
   0.74984748  0.23948410  0.50034112
   0.99818762  0.75384781  0.74470564
   0.25107528  0.49748786  0.74800636
   0.25719687  0.24298547  0.99175070
   0.50998407  0.25737460  0.25457104
   0.73729524  0.98528487  0.25994159
   0.74834712  0.25195462  0.99878639
   0.24739612  0.74763169  0.00024825
   0.25356822  0.24634904  0.50361245
   0.25143526  0.75277187  0.49866261
   0.24935176  0.24744428  0.24704697
   0.26188197  0.00015476  0.99047374
   0.00198672  0.25249778  0.00006435
   0.74839624  0.24552584  0.24974195
   0.74188384  0.99917301  0.00501256
   0.51317416  0.00175439  0.26047398
   0.98641979  0.49110924  0.24155785
   0.50082606  0.76364328  0.00927124
   0.98864476  0.00273386  0.73756990
   0.75642605  0.24783066  0.75131037
   0.74910762  0.00345168  0.49856488
   0.50075974  0.24237190  0.49018031
   0.52255558  0.00149482  0.74395423
   0.99707045  0.99533288  0.25792589
   0.50328453  0.23911157  0.00483137
   0.25068893  0.74896548  0.24944508
   0.23975079  0.50002370  0.99408275
   0.00244676  0.73901655  0.00548804
   0.74922246  0.74427293  0.25806602
   0.76245429  0.49735958  0.00323923
   0.50610927  0.49988595  0.26042630
   0.24771474  0.24726411  0.74806101
   0.25361297  0.99973156  0.51183472
   0.00253120  0.24305434  0.49938215
   0.24141574  0.75674979  0.75039254
   0.25794550  0.50190280  0.50118451
   0.99635456  0.76294684  0.49515995
   0.99234894  0.50162855  0.75669480
   0.75100076  0.75184278  0.74914207
   0.73847362  0.50417025  0.50119377
   0.50006796  0.76002129  0.48749249
   0.50401263  0.50364719  0.73987467
   0.51764860  0.01257149  0.97145135
   0.99654666  0.51249768  0.98218554
   0.49575524  0.73108272  0.25696889
   0.22723105  0.01229435  0.74104057
   0.47969721  0.98940235  0.51658232
   0.74067018  0.97232579  0.77824082
   0.00841249  0.76894850  0.25933432
   0.74010300  0.51239772  0.26594806
   0.01925819  0.00043392  0.49938271
   0.50266026  0.52217364  0.49625468
   0.74552967  0.52117518  0.74232830
   0.74422662  0.74522535  0.48990923
HECN                                    
           1
     8.712139    0.021738   -0.008549
     0.027779    8.767556    0.000696
     0.022723   -0.014515    8.704434
   Zr   Ta   Ti   N    C    Cr   V 
   7   6   7  13  19   6   6
Direct configuration=     3
   0.00014893  0.99404289  0.99833418
   0.26874527  0.99920114  0.24805070
   0.24366958  0.49699868  0.24753429
   0.50382453  0.49955063  0.00221248
   0.50562056  0.24659318  0.74288397
   0.99401774  0.50473629  0.49925523
   0.49676526  0.75889071  0.74961790
   0.99305133  0.23703576  0.25330512
   0.75371850  0.74338888  0.01183279
   0.00041061  0.24778807  0.74758819
   0.74982733  0.23950997  0.50034658
   0.99817541  0.75385910  0.74469257
   0.25106603  0.49748048  0.74800393
   0.25719033  0.24296667  0.99175926
   0.50998396  0.25736515  0.25456055
   0.73731283  0.98529997  0.25998380
   0.74835565  0.25193402  0.99877730
   0.24740995  0.74764912  0.00025460
   0.25357492  0.24635202  0.50361145
   0.25143454  0.75277255  0.49866110
   0.24935932  0.24744035  0.24704615
   0.26184925  0.00016592  0.99049915
   0.00198496  0.25247222  0.00005653
   0.74839936  0.24552861  0.24973237
   0.74193707  0.99918669  0.00502103
   0.51313661  0.00177926  0.26044685
   0.98644458  0.49110857  0.24158112
   0.50081568  0.76361404  0.00924644
   0.98864601  0.00272976  0.73761033
   0.75641680  0.24783879  0.75132094
   0.74909631  0.00347026  0.49853621
   0.50074163  0.24238277  0.49020641
   0.52253163  0.00146460  0.74397268
   0.99707942  0.99534576  0.25790410
   0.50327968  0.23913536  0.00482255
   0.25068579  0.74897247  0.24944549
   0.23977427  0.50002583  0.99408163
   0.00245339  0.73905450  0.00549054
   0.74922466  0.74429647  0.25804471
   0.76242987  0.49735454  0.00324154
   0.50609771  0.49986656  0.26039745
   0.24772323  0.24727573  0.74806133
   0.25360623  0.99973179  0.51180329
   0.00253742  0.24306889  0.49938161
   0.24142891  0.75674325  0.75039148
   0.25793240  0.50190208  0.50118387
   0.99636274  0.76292684  0.49517816
   0.99236152  0.50163022  0.75666207
   0.75099850  0.75184091  0.74914410
   0.73849162  0.50416947  0.50119841
   0.50005682  0.76000034  0.48752365
   0.50400473  0.50363536  0.73989192
   0.51765388  0.01254590  0.97147636
   0.99654175  0.51250044  0.98220468
   0.49578949  0.73106733  0.25694816
   0.22723254  0.01227927  0.74101928
   0.47975736  0.98940384  0.51654347
   0.74066491  0.97233789  0.77823983
   0.00838999  0.76894889  0.25933068
   0.74012607  0.51237863  0.26592107
   0.01922962  0.00044543  0.49939434
   0.50265131  0.52215804  0.49625336
   0.74555185  0.52115537  0.74236571
   0.74422023  0.74520525  0.48991310
HECN                                    
           1
     8.712187    0.021736   -0.008548
     0.027777    8.767608    0.000695
     0.022724   -0.014515    8.704481
   Zr   Ta   Ti   N    C    Cr   V 
   7   6   7  13  19   6   6
Direct configuration=     4
   0.00014893  0.99404291  0.99833419
   0.26874526  0.99920115  0.24805070
   0.24366956  0.49699866  0.24753429
   0.50382453  0.49955064  0.00221249
   0.50562055  0.24659317  0.74288396
   0.99401777  0.50473630  0.49925526
   0.49676527  0.75889081  0.74961789
   0.99305132  0.23703576  0.25330511
   0.75371846  0.74338892  0.01183279
   0.00041057  0.24778802  0.74758820
   0.74982727  0.23951004  0.50034660
   0.99817537  0.75385913  0.74469253
   0.25106600  0.49748046  0.74800392
   0.25719031  0.24296661  0.99175928
   0.50998396  0.25736512  0.25456052
   0.73731288  0.98530001  0.25998392
   0.74835567  0.25193396  0.99877728
   0.24740999  0.74764917  0.00025462
   0.25357494  0.24635203  0.50361144
   0.25143454  0.75277255  0.49866109
   0.24935934  0.24744034  0.24704615
   0.26184916  0.00016595  0.99049923
   0.00198495  0.25247215  0.00005651
   0.74839936  0.24552861  0.24973235
   0.74193722  0.99918673  0.00502105
   0.51313650  0.00177933  0.26044677
   0.98644465  0.49110856  0.24158118
   0.50081565  0.76361396  0.00924637
   0.98864601  0.00272975  0.73761045
   0.75641678  0.24783881  0.75132097
   0.74909628  0.00347032  0.49853613
   0.50074158  0.24238280  0.49020648
   0.52253156  0.00146452  0.74397273
   0.99707944  0.99534580  0.25790404
   0.50327967  0.23913543  0.00482252
   0.25068578  0.74897249  0.24944549
   0.23977434  0.50002584  0.99408163
   0.00245341  0.73905460  0.00549055
   0.74922467  0.74429653  0.25804465
   0.76242980  0.49735452  0.00324155
   0.50609768  0.49986651  0.26039737
   0.24772326  0.24727576  0.74806133
   0.25360621  0.99973179  0.51180320
   0.00253743  0.24306893  0.49938161
   0.24142895  0.75674324  0.75039148
   0.25793237  0.50190208  0.50118387
   0.99636276  0.76292679  0.49517821
   0.99236155  0.50163022  0.75666198
   0.75099850  0.75184091  0.74914411
   0.73849167  0.50416947  0.50119842
   0.50005679  0.76000028  0.48752374
   0.50400471  0.50363532  0.73989197
   0.51765390  0.01254583  0.97147643
   0.99654173  0.51250044  0.98220474
   0.49578959  0.73106729  0.25694810
   0.22723254  0.01227923  0.74101922
   0.47975753  0.98940384  0.51654336
   0.74066489  0.97233792  0.77823983
   0.00838993  0.76894889  0.25933067
   0.74012613  0.51237858  0.26592099
   0.01922954  0.00044546  0.49939437
   0.50265129  0.52215800  0.49625336
   0.74555191  0.52115532  0.74236581
   0.74422021  0.74520519  0.48991311
HECN                                    
           1
     8.712149    0.021737   -0.008549
     0.027778    8.767566    0.000696
     0.022723   -0.014515    8.704443
   Zr   Ta   Ti   N    C    Cr   V 
   7   6   7  13  19   6   6
Direct configuration=     5
   0.00014893  0.99404289  0.99833418
   0.26874526  0.99920114  0.24805070
   0.24366957  0.49699867  0.24753429
   0.50382453  0.49955063  0.00221248
   0.50562055  0.24659317  0.74288397
   0.99401774  0.50473629  0.49925524
   0.49676526  0.75889073  0.74961790
   0.99305133  0.23703576  0.25330512
   0.75371849  0.74338888  0.01183279
   0.00041060  0.24778806  0.74758819
   0.74982732  0.23950999  0.50034658
   0.99817540  0.75385911  0.74469256
   0.25106602  0.49748048  0.74800392
   0.25719032  0.24296666  0.99175926
   0.50998396  0.25736514  0.25456054
   0.73731284  0.98529997  0.25998382
   0.74835566  0.25193401  0.99877730
   0.24740995  0.74764913  0.00025461
   0.25357493  0.24635202  0.50361144
   0.25143454  0.75277255  0.49866110
   0.24935932  0.24744035  0.24704615
   0.26184924  0.00016592  0.99049917
   0.00198495  0.25247220  0.00005653
   0.74839936  0.24552861  0.24973237
   0.74193710  0.99918670  0.00502103
   0.51313659  0.00177928  0.26044683
   0.98644459  0.49110857  0.24158113
   0.50081567  0.76361403  0.00924642
   0.98864601  0.00272976  0.73761035
   0.75641680  0.24783879  0.75132094
   0.74909631  0.00347027  0.49853620
   0.50074163  0.24238277  0.49020642
   0.52253161  0.00146459  0.74397269
   0.99707942  0.99534577  0.25790409
   0.50327968  0.23913538  0.00482254
   0.25068579  0.74897247  0.24944549
   0.23977429  0.50002584  0.99408163
   0.00245340  0.73905452  0.00549054
   0.74922467  0.74429648  0.25804470
   0.76242986  0.49735453  0.00324154
   0.50609771  0.49986655  0.26039744
   0.24772324  0.24727573  0.74806133
   0.25360622  0.99973179  0.51180328
   0.00253742  0.24306890  0.49938161
   0.24142892  0.75674325  0.75039148
   0.25793240  0.50190208  0.50118387
   0.99636275  0.76292683  0.49517817
   0.99236153  0.50163022  0.75666205
   0.75099850  0.75184091  0.74914410
   0.73849163  0.50416947  0.50119841
   0.50005682  0.76000033  0.48752367
   0.50400472  0.50363535  0.73989193
   0.51765389  0.01254589  0.97147638
   0.99654174  0.51250044  0.98220469
   0.49578951  0.73106732  0.25694814
   0.22723254  0.01227926  0.74101927
   0.47975739  0.98940384  0.51654345
   0.74066490  0.97233789  0.77823983
   0.00838998  0.76894889  0.25933068
   0.74012608  0.51237862  0.26592105
   0.01922960  0.00044543  0.49939434
   0.50265131  0.52215803  0.49625336
   0.74555186  0.52115536  0.74236573
   0.74422023  0.74520524  0.48991310
HECN                                    
           1
     8.712140    0.021738   -0.008549
     0.027779    8.767557    0.000696
     0.022723   -0.014515    8.704435
   Zr   Ta   Ti   N    C    Cr   V 
   7   6   7  13  19   6   6
Direct configuration=     6
   0.00014893  0.99404289  0.99833418
   0.26874527  0.99920114  0.24805070
   0.24366958  0.49699868  0.24753429
   0.50382453  0.49955063  0.00221248
   0.50562056  0.24659318  0.74288397
   0.99401774  0.50473629  0.49925523
   0.49676526  0.75889072  0.74961790
   0.99305133  0.23703576  0.25330512
   0.75371850  0.74338888  0.01183279
   0.00041060  0.24778807  0.74758819
   0.74982733  0.23950997  0.50034658
   0.99817541  0.75385910  0.74469257
   0.25106603  0.49748048  0.74800393
   0.25719033  0.24296666  0.99175926
   0.50998396  0.25736515  0.25456055
   0.73731283  0.98529997  0.25998380
   0.74835565  0.25193402  0.99877730
   0.24740995  0.74764912  0.00025460
   0.25357492  0.24635202  0.50361145
   0.25143454  0.75277255  0.49866110
   0.24935932  0.24744035  0.24704615
   0.26184925  0.00016592  0.99049916
   0.00198495  0.25247222  0.00005653
   0.74839936  0.24552861  0.24973237
   0.74193708  0.99918669  0.00502103
   0.51313660  0.00177926  0.26044684
   0.98644458  0.49110857  0.24158112
   0.50081568  0.76361404  0.00924643
   0.98864601  0.00272976  0.73761034
   0.75641680  0.24783879  0.75132094
   0.74909631  0.00347026  0.49853621
   0.50074163  0.24238277  0.49020641
   0.52253163  0.00146460  0.74397268
   0.99707942  0.99534576  0.25790410
   0.50327968  0.23913536  0.00482255
   0.25068579  0.74897247  0.24944549
   0.23977427  0.50002583  0.99408163
   0.00245339  0.73905450  0.00549054
   0.74922466  0.74429647  0.25804471
   0.76242987  0.49735454  0.00324154
   0.50609771  0.49986656  0.26039745
   0.24772323  0.24727573  0.74806133
   0.25360623  0.99973179  0.51180329
   0.00253742  0.24306889  0.49938161
   0.24142891  0.75674325  0.75039148
   0.25793240  0.50190208  0.50118387
   0.99636274  0.76292684  0.49517816
   0.99236152  0.50163022  0.75666207
   0.75099850  0.75184091  0.74914410
   0.73849162  0.50416947  0.50119841
   0.50005682  0.76000034  0.48752366
   0.50400473  0.50363536  0.73989192
   0.51765388  0.01254590  0.97147636
   0.99654175  0.51250044  0.98220469
   0.49578949  0.73106733  0.25694815
   0.22723254  0.01227927  0.74101928
   0.47975736  0.98940384  0.51654347
   0.74066491  0.97233789  0.77823983
   0.00838999  0.76894889  0.25933068
   0.74012607  0.51237863  0.26592107
   0.01922962  0.00044543  0.49939434
   0.50265131  0.52215804  0.49625336
   0.74555185  0.52115537  0.74236571
   0.74422023  0.74520525  0.48991310
HECN                                    
           1
     8.712140    0.021738   -0.008549
     0.027779    8.767556    0.000696
     0.022723   -0.014515    8.704434
   Zr   Ta   Ti   N    C    Cr   V 
   7   6   7  13  19   6   6
Direct configuration=     7
   0.00014893  0.99404289  0.99833418
   0.26874527  0.99920114  0.24805070
   0.24366958  0.49699868  0.24753429
   0.50382453  0.49955063  0.00221248
   0.50562056  0.24659318  0.74288397
   0.99401774  0.50473629  0.49925523
   0.49676526  0.75889071  0.74961790
   0.99305133  0.23703576  0.25330512
   0.75371850  0.74338888  0.01183279
   0.00041061  0.24778807  0.74758819
   0.74982733  0.23950997  0.50034658
   0.99817541  0.75385910  0.74469257
   0.25106603  0.49748048  0.74800393
   0.25719033  0.24296667  0.99175926
   0.50998396  0.25736515  0.25456055
   0.73731283  0.98529997  0.25998380
   0.74835565  0.25193402  0.99877730
   0.24740995  0.74764912  0.00025460
   0.25357492  0.24635202  0.50361145
   0.25143454  0.75277255  0.49866110
   0.24935932  0.24744035  0.24704615
   0.26184925  0.00016592  0.99049915
   0.00198495  0.25247222  0.00005653
   0.74839936  0.24552861  0.24973237
   0.74193707  0.99918669  0.00502103
   0.51313661  0.00177926  0.26044685
   0.98644458  0.49110857  0.24158112
   0.50081568  0.76361404  0.00924644
   0.98864601  0.00272976  0.73761033
   0.75641680  0.24783879  0.75132094
   0.74909631  0.00347026  0.49853621
   0.50074163  0.24238277  0.49020641
   0.52253163  0.00146460  0.74397268
   0.99707942  0.99534576  0.25790410
   0.50327968  0.23913536  0.00482255
   0.25068579  0.74897247  0.24944549
   0.23977427  0.50002583  0.99408163
   0.00245339  0.73905450  0.00549054
   0.74922466  0.74429647  0.25804471
   0.76242987  0.49735454  0.00324154
   0.50609771  0.49986656  0.26039745
   0.24772323  0.24727573  0.74806133
   0.25360623  0.99973179  0.51180329
   0.00253742  0.24306889  0.49938161
   0.24142891  0.75674325  0.75039148
   0.25793240  0.50190208  0.50118387
   0.99636274  0.76292684  0.49517816
   0.99236152  0.50163022  0.75666207
   0.75099850  0.75184091  0.74914410
   0.73849162  0.50416947  0.50119841
   0.50005682  0.76000034  0.48752365
   0.50400473  0.50363536  0.73989192
   0.51765388  0.01254590  0.97147636
   0.99654175  0.51250044  0.98220468
   0.49578949  0.73106733  0.25694816
   0.22723254  0.01227927  0.74101928
   0.47975736  0.98940384  0.51654347
   0.74066491  0.97233789  0.77823983
   0.00838999  0.76894889  0.25933068
   0.74012607  0.51237863  0.26592107
   0.01922962  0.00044543  0.49939434
   0.50265131  0.52215804  0.49625336
   0.74555185  0.52115537  0.74236571
   0.74422023  0.74520525  0.48991310
HECN                                    
           1
     8.712139    0.021738   -0.008549
     0.027779    8.767556    0.000696
     0.022723   -0.014515    8.704434
   Zr   Ta   Ti   N    C    Cr   V 
   7   6   7  13  19   6   6
Direct configuration=     8
   0.00014893  0.99404289  0.99833418
   0.26874527  0.99920114  0.24805070
   0.24366958  0.49699868  0.24753429
   0.50382453  0.49955063  0.00221248
   0.50562056  0.24659318  0.74288397
   0.99401774  0.50473629  0.49925523
   0.49676526  0.75889071  0.74961790
   0.99305133  0.23703576  0.25330512
   0.75371850  0.74338888  0.01183279
   0.00041061  0.24778807  0.74758819
   0.74982733  0.23950997  0.50034658
   0.99817541  0.75385910  0.74469257
   0.25106603  0.49748048  0.74800393
   0.25719033  0.24296667  0.99175926
   0.50998396  0.25736515  0.25456055
   0.73731283  0.98529997  0.25998380
   0.74835565  0.25193402  0.99877730
   0.24740995  0.74764912  0.00025460
   0.25357492  0.24635202  0.50361145
   0.25143454  0.75277255  0.49866110
   0.24935932  0.24744035  0.24704615
   0.26184925  0.00016592  0.99049915
   0.00198496  0.25247222  0.00005653
   0.74839936  0.24552861  0.24973237
   0.74193707  0.99918669  0.00502103
   0.51313661  0.00177926  0.26044685
   0.98644458  0.49110857  0.24158112
   0.50081568  0.76361404  0.00924644
   0.98864601  0.00272976  0.73761033
   0.75641680  0.24783879  0.75132094
   0.74909631  0.00347026  0.49853621
   0.50074163  0.24238277  0.49020641
   0.52253163  0.00146460  0.74397268
   0.99707942  0.99534576  0.25790410
   0.50327968  0.23913536  0.00482255
   0.25068579  0.74897247  0.24944549
   0.23977427  0.50002583  0.99408163
   0.00245339  0.73905450  0.00549054
   0.74922466  0.74429647  0.25804471
   0.76242987  0.49735454  0.00324154
   0.50609771  0.49986656  0.26039745
   0.24772323  0.24727573  0.74806133
   0.25360623  0.99973179  0.51180329
   0.00253742  0.24306889  0.49938161
   0.24142891  0.75674325  0.75039148
   0.25793240  0.50190208  0.50118387
   0.99636274  0.76292684  0.49517816
   0.99236152  0.50163022  0.75666207
   0.75099850  0.75184091  0.74914410
   0.73849162  0.50416947  0.50119841
   0.50005682  0.76000034  0.48752365
   0.50400473  0.50363536  0.73989192
   0.51765388  0.01254590  0.97147636
   0.99654175  0.51250044  0.98220468
   0.49578949  0.73106733  0.25694816
   0.22723254  0.01227927  0.74101928
   0.47975736  0.98940384  0.51654347
   0.74066491  0.97233789  0.77823983
   0.00838999  0.76894889  0.25933068
   0.74012607  0.51237863  0.26592107
   0.01922962  0.00044543  0.49939434
   0.50265131  0.52215804  0.49625336
   0.74555185  0.52115537  0.74236571
   0.74422023  0.74520525  0.48991310
HECN                                    
           1
     8.712139    0.021738   -0.008549
     0.027779    8.767556    0.000696
     0.022723   -0.014515    8.704434
   Zr   Ta   Ti   N    C    Cr   V 
   7   6   7  13  19   6   6
Direct configuration=     9
   0.00014893  0.99404289  0.99833418
   0.26874527  0.99920114  0.24805070
   0.24366958  0.49699868  0.24753429
   0.50382453  0.49955063  0.00221248
   0.50562056  0.24659318  0.74288397
   0.99401774  0.50473629  0.49925523
   0.49676526  0.75889071  0.74961790
   0.99305133  0.23703576  0.25330512
   0.75371850  0.74338888  0.01183279
   0.00041061  0.24778807  0.74758819
   0.74982733  0.23950997  0.50034658
   0.99817541  0.75385910  0.74469257
   0.25106603  0.49748048  0.74800393
   0.25719033  0.24296667  0.99175926
   0.50998396  0.25736515  0.25456055
   0.73731283  0.98529997  0.25998380
   0.74835565  0.25193402  0.99877730
   0.24740995  0.74764912  0.00025460
   0.25357492  0.24635202  0.50361145
   0.25143454  0.75277255  0.49866110
   0.24935932  0.24744035  0.24704615
   0.26184925  0.00016592  0.99049915
   0.00198496  0.25247222  0.00005653
   0.74839936  0.24552861  0.24973237
   0.74193707  0.99918669  0.00502103
   0.51313661  0.00177926  0.26044685
   0.98644458  0.49110857  0.24158112
   0.50081568  0.76361404  0.00924644
   0.98864601  0.00272976  0.73761033
   0.75641680  0.24783879  0.75132094
   0.74909631  0.00347026  0.49853621
   0.50074163  0.24238277  0.49020641
   0.52253163  0.00146460  0.74397268
   0.99707942  0.99534576  0.25790410
   0.50327968  0.23913536  0.00482255
   0.25068579  0.74897247  0.24944549
   0.23977427  0.50002583  0.99408163
   0.00245339  0.73905450  0.00549054
   0.74922466  0.74429647  0.25804471
   0.76242987  0.49735454  0.00324154
   0.50609771  0.49986656  0.26039745
   0.24772323  0.24727573  0.74806133
   0.25360623  0.99973179  0.51180329
   0.00253742  0.24306889  0.49938161
   0.24142891  0.75674325  0.75039148
   0.25793240  0.50190208  0.50118387
   0.99636274  0.76292684  0.49517816
   0.99236152  0.50163022  0.75666207
   0.75099850  0.75184091  0.74914410
   0.73849162  0.50416947  0.50119841
   0.50005682  0.76000034  0.48752365
   0.50400473  0.50363536  0.73989192
   0.51765388  0.01254590  0.97147636
   0.99654175  0.51250044  0.98220468
   0.49578949  0.73106733  0.25694816
   0.22723254  0.01227927  0.74101928
   0.47975736  0.98940384  0.51654347
   0.74066491  0.97233789  0.77823983
   0.00838999  0.76894889  0.25933068
   0.74012607  0.51237863  0.26592107
   0.01922962  0.00044543  0.49939434
   0.50265131  0.52215804  0.49625336
   0.74555185  0.52115537  0.74236571
   0.74422023  0.74520525  0.48991310
HECN                                    
           1
     8.712139    0.021738   -0.008549
     0.027779    8.767556    0.000696
     0.022723   -0.014515    8.704434
   Zr   Ta   Ti   N    C    Cr   V 
   7   6   7  13  19   6   6
Direct configuration=    10
   0.00014893  0.99404289  0.99833418
   0.26874527  0.99920114  0.24805070
   0.24366958  0.49699868  0.24753429
   0.50382453  0.49955063  0.00221248
   0.50562056  0.24659318  0.74288397
   0.99401774  0.50473629  0.49925523
   0.49676526  0.75889071  0.74961790
   0.99305133  0.23703576  0.25330512
   0.75371850  0.74338888  0.01183279
   0.00041061  0.24778807  0.74758819
   0.74982733  0.23950997  0.50034658
   0.99817541  0.75385910  0.74469257
   0.25106603  0.49748048  0.74800393
   0.25719033  0.24296667  0.99175926
   0.50998396  0.25736515  0.25456055
   0.73731283  0.98529997  0.25998380
   0.74835565  0.25193402  0.99877730
   0.24740995  0.74764912  0.00025460
   0.25357492  0.24635202  0.50361145
   0.25143454  0.75277255  0.49866110
   0.24935932  0.24744035  0.24704615
   0.26184925  0.00016592  0.99049915
   0.00198496  0.25247222  0.00005653
   0.74839936  0.24552861  0.24973237
   0.74193707  0.99918669  0.00502103
   0.51313661  0.00177926  0.26044685
   0.98644458  0.49110857  0.24158112
   0.50081568  0.76361404  0.00924644
   0.98864601  0.00272976  0.73761033
   0.75641680  0.24783879  0.75132094
   0.74909631  0.00347026  0.49853621
   0.50074163  0.24238277  0.49020641
   0.52253163  0.00146460  0.74397268
   0.99707942  0.99534576  0.25790410
   0.50327968  0.23913536  0.00482255
   0.25068579  0.74897247  0.24944549
   0.23977427  0.50002583  0.99408163
   0.00245339  0.73905450  0.00549054
   0.74922466  0.74429647  0.25804471
   0.76242987  0.49735454  0.00324154
   0.50609771  0.49986656  0.26039745
   0.24772323  0.24727573  0.74806133
   0.25360623  0.99973179  0.51180329
   0.00253742  0.24306889  0.49938161
   0.24142891  0.75674325  0.75039148
   0.25793240  0.50190208  0.50118387
   0.99636274  0.76292684  0.49517816
   0.99236152  0.50163022  0.75666207
   0.75099850  0.75184091  0.74914410
   0.73849162  0.50416947  0.50119841
   0.50005682  0.76000034  0.48752365
   0.50400473  0.50363536  0.73989192
   0.51765388  0.01254590  0.97147636
   0.99654175  0.51250044  0.98220468
   0.49578949  0.73106733  0.25694816
   0.22723254  0.01227927  0.74101928
   0.47975736  0.98940384  0.51654347
   0.74066491  0.97233789  0.77823983
   0.00838999  0.76894889  0.25933068
   0.74012607  0.51237863  0.26592107
   0.01922962  0.00044543  0.49939434
   0.50265131  0.52215804  0.49625336
   0.74555185  0.52115537  0.74236571
   0.74422023  0.74520525  0.48991310
HECN                                    
           1
     8.712139    0.021738   -0.008549
     0.027779    8.767556    0.000696
     0.022723   -0.014515    8.704434
   Zr   Ta   Ti   N    C    Cr   V 
   7   6   7  13  19   6   6
Direct configuration=    11
   0.00014893  0.99404289  0.99833418
   0.26874527  0.99920114  0.24805070
   0.24366958  0.49699868  0.24753429
   0.50382453  0.49955063  0.00221248
   0.50562056  0.24659318  0.74288397
   0.99401774  0.50473629  0.49925523
   0.49676526  0.75889071  0.74961790
   0.99305133  0.23703576  0.25330512
   0.75371850  0.74338888  0.01183279
   0.00041061  0.24778807  0.74758819
   0.74982733  0.23950997  0.50034658
   0.99817541  0.75385910  0.74469257
   0.25106603  0.49748048  0.74800393
   0.25719033  0.24296667  0.99175926
   0.50998396  0.25736515  0.25456055
   0.73731283  0.98529997  0.25998380
   0.74835565  0.25193402  0.99877730
   0.24740995  0.74764912  0.00025460
   0.25357492  0.24635202  0.50361145
   0.25143454  0.75277255  0.49866110
   0.24935932  0.24744035  0.24704615
   0.26184925  0.00016592  0.99049915
   0.00198496  0.25247222  0.00005653
   0.74839936  0.24552861  0.24973237
   0.74193707  0.99918669  0.00502103
   0.51313661  0.00177926  0.26044685
   0.98644458  0.49110857  0.24158112
   0.50081568  0.76361404  0.00924644
   0.98864601  0.00272976  0.73761033
   0.75641680  0.24783879  0.75132094
   0.74909631  0.00347026  0.49853621
   0.50074163  0.24238277  0.49020641
   0.52253163  0.00146460  0.74397268
   0.99707942  0.99534576  0.25790410
   0.50327968  0.23913536  0.00482255
   0.25068579  0.74897247  0.24944549
   0.23977427  0.50002583  0.99408163
   0.00245339  0.73905450  0.00549054
   0.74922466  0.74429647  0.25804471
   0.76242987  0.49735454  0.00324154
   0.50609771  0.49986656  0.26039745
   0.24772323  0.24727573  0.74806133
   0.25360623  0.99973179  0.51180329
   0.00253742  0.24306889  0.49938161
   0.24142891  0.75674325  0.75039148
   0.25793240  0.50190208  0.50118387
   0.99636274  0.76292684  0.49517816
   0.99236152  0.50163022  0.75666207
   0.75099850  0.75184091  0.74914410
   0.73849162  0.50416947  0.50119841
   0.50005682  0.76000034  0.48752365
   0.50400473  0.50363536  0.73989192
   0.51765388  0.01254590  0.97147636
   0.99654175  0.51250044  0.98220468
   0.49578949  0.73106733  0.25694816
   0.22723254  0.01227927  0.74101928
   0.47975736  0.98940384  0.51654347
   0.74066491  0.97233789  0.77823983
   0.00838999  0.76894889  0.25933068
   0.74012607  0.51237863  0.26592107
   0.01922962  0.00044543  0.49939434
   0.50265131  0.52215804  0.49625336
   0.74555185  0.52115537  0.74236571
   0.74422023  0.74520525  0.48991310
HECN                                    
           1
     8.712276    0.022261   -0.008692
     0.028309    8.766198    0.000798
     0.022580   -0.014409    8.704630
   Zr   Ta   Ti   N    C    Cr   V 
   7   6   7  13  19   6   6
Direct configuration=    12
   0.00016333  0.99405973  0.99831587
   0.26872661  0.99920067  0.24804002
   0.24367175  0.49699594  0.24753425