       N       E                     dE             d eps       ncg     rms          rms(c)
DAV:   1     0.607605474276E+04    0.60761E+04   -0.21391E+05  8832   0.151E+03
DAV:   2     0.278447860630E+03   -0.57976E+04   -0.55651E+04  9096   0.620E+02
DAV:   3    -0.681888800241E+03   -0.96034E+03   -0.90583E+03 14040   0.212E+02
DAV:   4    -0.780092758861E+03   -0.98204E+02   -0.95773E+02 15432   0.831E+01
DAV:   5    -0.792751885506E+03   -0.12659E+02   -0.12510E+02 17256   0.253E+01    0.760E+01
RMM:   6    -0.101069221224E+04   -0.21794E+03   -0.27118E+03 11622   0.144E+02    0.132E+02
RMM:   7    -0.647644573326E+03    0.36305E+03   -0.26023E+02 13314   0.393E+01    0.303E+01
RMM:   8    -0.657296367314E+03   -0.96518E+01   -0.56286E+01 14218   0.178E+01    0.342E+01
RMM:   9    -0.653814449149E+03    0.34819E+01   -0.20286E+01 14588   0.958E+00    0.232E+01
RMM:  10    -0.650023103568E+03    0.37913E+01   -0.97988E+00 13730   0.731E+00    0.105E+01
RMM:  11    -0.652741029327E+03   -0.27179E+01   -0.56205E+00 12358   0.640E+00    0.274E+01
RMM:  12    -0.649397158055E+03    0.33439E+01   -0.35339E+00 13540   0.532E+00    0.637E+00
RMM:  13    -0.651040931448E+03   -0.16438E+01   -0.22115E+00 13706   0.366E+00    0.201E+01
RMM:  14    -0.649463142416E+03    0.15778E+01   -0.10965E+00 13104   0.321E+00    0.471E+00
RMM:  15    -0.649733543870E+03   -0.27040E+00   -0.82545E-01 14147   0.179E+00    0.924E+00
RMM:  16    -0.649374582618E+03    0.35896E+00   -0.88050E-01 13949   0.184E+00    0.232E+00
RMM:  17    -0.649455973472E+03   -0.81391E-01   -0.42776E-01 13363   0.168E+00    0.433E+00
RMM:  18    -0.649429088731E+03    0.26885E-01   -0.41062E-01 14334   0.106E+00    0.140E+00
RMM:  19    -0.649403557840E+03    0.25531E-01   -0.13203E-01 13036   0.787E-01    0.932E-01
RMM:  20    -0.649392799951E+03    0.10758E-01   -0.12728E-01 14345   0.635E-01    0.330E-01
RMM:  21    -0.649395729840E+03   -0.29299E-02   -0.50487E-02 13120   0.539E-01    0.129E-01
RMM:  22    -0.649397108484E+03   -0.13786E-02   -0.21291E-02 12886   0.301E-01    0.159E-01
RMM:  23    -0.649398007181E+03   -0.89870E-03   -0.13665E-02 12510   0.215E-01    0.443E-02
RMM:  24    -0.649398635727E+03   -0.62855E-03   -0.79779E-03 12443   0.128E-01    0.396E-02
RMM:  25    -0.649398976066E+03   -0.34034E-03   -0.46327E-03 12375   0.975E-02    0.202E-02
RMM:  26    -0.649399201295E+03   -0.22523E-03   -0.27316E-03 11534   0.796E-02    0.117E-02
RMM:  27    -0.649399367424E+03   -0.16613E-03   -0.19595E-03 11322   0.572E-02    0.206E-02
RMM:  28    -0.649399443628E+03   -0.76203E-04   -0.98595E-04 11268   0.481E-02    0.747E-03
RMM:  29    -0.649399499471E+03   -0.55843E-04   -0.65027E-04 10967   0.379E-02    0.109E-02
RMM:  30    -0.649399534917E+03   -0.35446E-04   -0.40127E-04 10695   0.311E-02    0.393E-03
RMM:  31    -0.649399557324E+03   -0.22408E-04   -0.27381E-04 10402   0.257E-02    0.115E-02
RMM:  32    -0.649399571843E+03   -0.14518E-04   -0.17008E-04  9979   0.209E-02    0.810E-03
RMM:  33    -0.649399581209E+03   -0.93665E-05   -0.11205E-04  9109   0.181E-02    0.110E-02
RMM:  34    -0.649399587022E+03   -0.58124E-05   -0.75444E-05  8214   0.157E-02
   1 F= -.64939959E+03 E0= -.64932638E+03  d E =-.649400E+03
       N       E                     dE             d eps       ncg     rms          rms(c)
DAV:   1    -0.642320853867E+03    0.70787E+01   -0.17659E+03 10392   0.123E+02    0.277E+01
RMM:   2    -0.746381906682E+03   -0.10406E+03   -0.22293E+02 13237   0.399E+01    0.626E+01
RMM:   3    -0.661240070514E+03    0.85142E+02   -0.40147E+01 10969   0.250E+01    0.328E+01
RMM:   4    -0.655898766714E+03    0.53413E+01   -0.11649E+01 14275   0.775E+00    0.195E+01
RMM:   5    -0.654596668507E+03    0.13021E+01   -0.37869E+00 12812   0.524E+00    0.193E+01
RMM:   6    -0.652992176654E+03    0.16045E+01   -0.31353E+00 11792   0.494E+00    0.108E+01
RMM:   7    -0.652993955880E+03   -0.17792E-02   -0.13338E+00 13168   0.254E+00    0.127E+01
RMM:   8    -0.652644355022E+03    0.34960E+00   -0.74752E-01 12498   0.228E+00    0.880E+00
RMM:   9    -0.652683027428E+03   -0.38672E-01   -0.51453E-01 13414   0.171E+00    0.959E+00
RMM:  10    -0.652342051927E+03    0.34098E+00   -0.39179E-01 12548   0.184E+00    0.497E+00
RMM:  11    -0.652340482228E+03    0.15697E-02   -0.25420E-01 14136   0.102E+00    0.436E+00
RMM:  12    -0.652286131771E+03    0.54350E-01   -0.12674E-01 14577   0.688E-01    0.191E+00
RMM:  13    -0.652274903676E+03    0.11228E-01   -0.67055E-02 14379   0.468E-01    0.456E-01
RMM:  14    -0.652278835576E+03   -0.39319E-02   -0.36889E-02 14522   0.255E-01    0.371E-01
RMM:  15    -0.652280205841E+03   -0.13703E-02   -0.13652E-02 13736   0.293E-01    0.152E-01
RMM:  16    -0.652282016493E+03   -0.18107E-02   -0.18773E-02 14173   0.155E-01    0.751E-02
RMM:  17    -0.652282251788E+03   -0.23529E-03   -0.49646E-03 12927   0.157E-01    0.728E-02
RMM:  18    -0.652282712940E+03   -0.46115E-03   -0.53300E-03 12505   0.873E-02    0.464E-02
RMM:  19    -0.652282802467E+03   -0.89527E-04   -0.16910E-03 11955   0.835E-02    0.360E-02
RMM:  20    -0.652282916040E+03   -0.11357E-03   -0.13706E-03 11609   0.518E-02    0.339E-02
RMM:  21    -0.652282961074E+03   -0.45034E-04   -0.66003E-04 11483   0.485E-02    0.125E-02
RMM:  22    -0.652282997763E+03   -0.36689E-04   -0.45851E-04 10984   0.324E-02    0.492E-03
RMM:  23    -0.652283018534E+03   -0.20771E-04   -0.25845E-04 10909   0.300E-02    0.105E-02
RMM:  24    -0.652283028273E+03   -0.97383E-05   -0.15984E-04 10091   0.225E-02    0.624E-03
RMM:  25    -0.652283038990E+03   -0.10718E-04   -0.10718E-04  9622   0.201E-02    0.909E-03
RMM:  26    -0.652283043037E+03   -0.40467E-05   -0.63805E-05  8642   0.164E-02
   2 F= -.65228304E+03 E0= -.65220261E+03  d E =-.288346E+01
       N       E                     dE             d eps       ncg     rms          rms(c)
DAV:   1    -0.651832400865E+03    0.45064E+00   -0.11558E+02  9936   0.314E+01    0.649E+00
RMM:   2    -0.661799712665E+03   -0.99673E+01   -0.19786E+01 11637   0.142E+01    0.344E+01
RMM:   3    -0.653116888211E+03    0.86828E+01   -0.36640E+00 11294   0.670E+00    0.115E+01
RMM:   4    -0.652623701992E+03    0.49319E+00   -0.88297E-01 12534   0.279E+00    0.296E+00
RMM:   5    -0.652648194139E+03   -0.24492E-01   -0.26755E-01 13432   0.118E+00    0.443E+00
RMM:   6    -0.652571018774E+03    0.77175E-01   -0.69006E-02 12354   0.814E-01    0.132E+00
RMM:   7    -0.652612277875E+03   -0.41259E-01   -0.90934E-02 13452   0.640E-01    0.389E+00
RMM:   8    -0.652561172804E+03    0.51105E-01   -0.34504E-02 12660   0.602E-01    0.889E-01
RMM:   9    -0.652573278768E+03   -0.12106E-01   -0.26596E-02 13995   0.348E-01    0.196E+00
RMM:  10    -0.652558900279E+03    0.14378E-01   -0.10656E-02 13061   0.297E-01    0.286E-01
RMM:  11    -0.652561657686E+03   -0.27574E-02   -0.10239E-02 14145   0.150E-01    0.823E-01
RMM:  12    -0.652559527939E+03    0.21297E-02   -0.33265E-03 13207   0.142E-01    0.162E-01
RMM:  13    -0.652559879726E+03   -0.35179E-03   -0.29478E-03 13384   0.677E-02    0.875E-02
RMM:  14    -0.652560043257E+03   -0.16353E-03   -0.88603E-04 11889   0.840E-02    0.499E-02
RMM:  15    -0.652560171956E+03   -0.12870E-03   -0.10745E-03 12294   0.467E-02    0.183E-02
RMM:  16    -0.652560196605E+03   -0.24649E-04   -0.36912E-04 11460   0.469E-02    0.122E-02
RMM:  17    -0.652560225535E+03   -0.28930E-04   -0.32588E-04 10476   0.271E-02    0.797E-03
RMM:  18    -0.652560234864E+03   -0.93292E-05   -0.14039E-04 10150   0.268E-02    0.565E-03
RMM:  19    -0.652560243300E+03   -0.84365E-05   -0.96073E-05  8994   0.185E-02
   3 F= -.65256024E+03 E0= -.65247934E+03  d E =-.316066E+01
       N       E                     dE             d eps       ncg     rms          rms(c)
DAV:   1    -0.658699979932E+03   -0.61397E+01   -0.56212E+02 11760   0.106E+02    0.290E+01
RMM:   2    -0.742362451329E+03   -0.83662E+02   -0.27132E+02 10728   0.664E+01    0.800E+01
RMM:   3    -0.654244123843E+03    0.88118E+02   -0.40743E+01 11575   0.233E+01    0.119E+01
RMM:   4    -0.656878485101E+03   -0.26344E+01   -0.66708E+00 12610   0.864E+00    0.260E+01
RMM:   5    -0.653029404413E+03    0.38491E+01   -0.41853E+00 11598   0.682E+00    0.860E+00
RMM:   6    -0.653870370847E+03   -0.84097E+00   -0.21695E+00 12181   0.436E+00    0.156E+01
RMM:   7    -0.652721848690E+03    0.11485E+01   -0.10116E+00 12748   0.292E+00    0.320E+00
RMM:   8    -0.652826323300E+03   -0.10447E+00   -0.45553E-01 13929   0.144E+00    0.565E+00
RMM:   9    -0.652693399901E+03    0.13292E+00   -0.15200E-01 12923   0.119E+00    0.122E+00
RMM:  10    -0.652712813981E+03   -0.19414E-01   -0.12082E-01 15107   0.619E-01    0.208E+00
RMM:  11    -0.652701180570E+03    0.11633E-01   -0.47305E-02 14556   0.543E-01    0.766E-01
RMM:  12    -0.652707990400E+03   -0.68098E-02   -0.34252E-02 14735   0.333E-01    0.796E-01
RMM:  13    -0.652708446704E+03   -0.45630E-03   -0.14514E-02 14582   0.328E-01    0.619E-01
RMM:  14    -0.652710942050E+03   -0.24953E-02   -0.17955E-02 14742   0.240E-01    0.177E-01
RMM:  15    -0.652712042129E+03   -0.11001E-02   -0.95626E-03 14621   0.212E-01    0.826E-02
RMM:  16    -0.652712616960E+03   -0.57483E-03   -0.65816E-03 14081   0.157E-01    0.674E-02
RMM:  17    -0.652712947230E+03   -0.33027E-03   -0.39638E-03 13282   0.128E-01    0.383E-02
RMM:  18    -0.652713176856E+03   -0.22963E-03   -0.26754E-03 12345   0.901E-02    0.256E-02
RMM:  19    -0.652713280900E+03   -0.10404E-03   -0.13568E-03 12297   0.654E-02    0.137E-02
RMM:  20    -0.652713341981E+03   -0.61081E-04   -0.77749E-04 11812   0.516E-02    0.162E-02
RMM:  21    -0.652713379266E+03   -0.37285E-04   -0.43569E-04 11448   0.425E-02    0.364E-03
RMM:  22    -0.652713407376E+03   -0.28110E-04   -0.31368E-04 11006   0.322E-02    0.784E-03
RMM:  23    -0.652713422233E+03   -0.14857E-04   -0.16777E-04 10510   0.264E-02    0.250E-03
RMM:  24    -0.652713430789E+03   -0.85556E-05   -0.10770E-04  9779   0.218E-02    0.654E-03
RMM:  25    -0.652713438331E+03   -0.75419E-05   -0.67711E-05  8948   0.181E-02
   4 F= -.65271344E+03 E0= -.65264361E+03  d E =-.153195E+00
       N       E                     dE             d eps       ncg     rms          rms(c)
DAV:   1    -0.654766313276E+03   -0.20529E+01   -0.12311E+02 12096   0.482E+01    0.159E+01
RMM:   2    -0.686681197395E+03   -0.31915E+02   -0.26846E+01 12283   0.166E+01    0.495E+01
RMM:   3    -0.654308641499E+03    0.32373E+02   -0.11377E+01 11068   0.141E+01    0.135E+01
RMM:   4    -0.653799286153E+03    0.50936E+00   -0.24219E+00 13361   0.459E+00    0.832E+00
RMM:   5    -0.653685904959E+03    0.11338E+00   -0.91386E-01 12227   0.286E+00    0.935E+00
RMM:   6    -0.653400801047E+03    0.28510E+00   -0.33499E-01 11358   0.199E+00    0.541E+00
RMM:   7    -0.653345366970E+03    0.55434E-01   -0.33042E-01 12643   0.155E+00    0.515E+00
RMM:   8    -0.653255321046E+03    0.90046E-01   -0.10428E-01 12020   0.114E+00    0.209E+00
RMM:   9    -0.653247459805E+03    0.78612E-02   -0.74194E-02 14415   0.566E-01    0.155E+00
RMM:  10    -0.653243164411E+03    0.42954E-02   -0.21210E-02 13406   0.484E-01    0.111E+00
RMM:  11    -0.653240142079E+03    0.30223E-02   -0.20000E-02 14244   0.293E-01    0.359E-01
RMM:  12    -0.653241984944E+03   -0.18429E-02   -0.94341E-03 14547   0.217E-01    0.581E-01
RMM:  13    -0.653242023824E+03   -0.38880E-04   -0.73481E-03 14699   0.161E-01    0.221E-01
RMM:  14    -0.653242939027E+03   -0.91520E-03   -0.56715E-03 14429   0.137E-01    0.959E-02
RMM:  15    -0.653243245723E+03   -0.30670E-03   -0.33455E-03 13937   0.116E-01    0.324E-02
RMM:  16    -0.653243474284E+03   -0.22856E-03   -0.25954E-03 12548   0.879E-02    0.358E-02
RMM:  17    -0.653243566950E+03   -0.92666E-04   -0.13413E-03 12241   0.699E-02    0.239E-02
RMM:  18    -0.653243636301E+03   -0.69351E-04   -0.90853E-04 11597   0.506E-02    0.105E-02
RMM:  19    -0.653243667983E+03   -0.31682E-04   -0.46012E-04 11352   0.411E-02    0.893E-03
RMM:  20    -0.653243692441E+03   -0.24458E-04   -0.30439E-04 10844   0.306E-02    0.580E-03
RMM:  21    -0.653243703665E+03   -0.11223E-04   -0.15792E-04 10201   0.259E-02    0.325E-03
RMM:  22    -0.653243712601E+03   -0.89366E-05   -0.11524E-04  9367   0.209E-02    0.255E-03
RMM:  23    -0.653243716258E+03   -0.36570E-05   -0.63694E-05  8684   0.183E-02
   5 F= -.65324372E+03 E0= -.65316822E+03  d E =-.683473E+00
       N       E                     dE             d eps       ncg     rms          rms(c)
DAV:   1    -0.652073471860E+03    0.11702E+01   -0.11824E+02  9912   0.485E+01    0.419E+00
RMM:   2    -0.656024494060E+03   -0.39510E+01   -0.18576E+01 13743   0.107E+01    0.182E+01
RMM:   3    -0.653742934812E+03    0.22816E+01   -0.17174E+00 10307   0.562E+00    0.493E+00
RMM:   4    -0.653762966244E+03   -0.20031E-01   -0.70686E-01 13412   0.197E+00    0.471E+00
RMM:   5    -0.653660780247E+03    0.10219E+00   -0.15624E-01 13386   0.990E-01    0.258E+00
RMM:   6    -0.653644525965E+03    0.16254E-01   -0.64692E-02 13867   0.617E-01    0.180E+00
RMM:   7    -0.653654181993E+03   -0.96560E-02   -0.83675E-02 13698   0.631E-01    0.295E+00
RMM:   8    -0.653621644485E+03    0.32538E-01   -0.25285E-02 10956   0.610E-01    0.835E-01
RMM:   9    -0.653633922674E+03   -0.12278E-01   -0.25200E-02 14140   0.343E-01    0.181E+00
RMM:  10    -0.653620029701E+03    0.13893E-01   -0.85791E-03 13503   0.285E-01    0.280E-01
RMM:  11    -0.653621894658E+03   -0.18650E-02   -0.90744E-03 13796   0.145E-01    0.647E-01
RMM:  12    -0.653620347442E+03    0.15472E-02   -0.31437E-03 13815   0.126E-01    0.117E-01
RMM:  13    -0.653620545608E+03   -0.19817E-03   -0.24360E-03 13411   0.730E-02    0.783E-02
RMM:  14    -0.653620580496E+03   -0.34888E-04   -0.63483E-04 11417   0.876E-02    0.376E-02
RMM:  15    -0.653620675487E+03   -0.94991E-04   -0.10809E-03 11808   0.413E-02    0.168E-02
RMM:  16    -0.653620684959E+03   -0.94718E-05   -0.29752E-04 11338   0.407E-02    0.109E-02
RMM:  17    -0.653620705622E+03   -0.20663E-04   -0.25849E-04 10397   0.259E-02    0.529E-03
RMM:  18    -0.653620716653E+03   -0.11031E-04   -0.13723E-04 10262   0.241E-02    0.438E-03
RMM:  19    -0.653620722641E+03   -0.59885E-05   -0.84252E-05  9147   0.193E-02
   6 F= -.65362072E+03 E0= -.65354777E+03  d E =-.377006E+00
       N       E                     dE             d eps       ncg     rms          rms(c)
DAV:   1    -0.653395465856E+03    0.22525E+00   -0.19467E+01  9720   0.198E+01    0.171E+00
RMM:   2    -0.654065163210E+03   -0.66970E+00   -0.31794E+00 13715   0.448E+00    0.805E+00
RMM:   3    -0.653692726687E+03    0.37244E+00   -0.31097E-01 10437   0.228E+00    0.276E+00
RMM:   4    -0.653673240017E+03    0.19487E-01   -0.12016E-01 13242   0.830E-01    0.151E+00
RMM:   5    -0.653666994077E+03    0.62459E-02   -0.30374E-02 13489   0.409E-01    0.144E+00
RMM:   6    -0.653659074581E+03    0.79195E-02   -0.93855E-03 13165   0.272E-01    0.612E-01
RMM:   7    -0.653669182948E+03   -0.10108E-01   -0.12858E-02 13273   0.281E-01    0.180E+00
RMM:   8    -0.653656006091E+03    0.13177E-01   -0.71976E-03 12524   0.288E-01    0.310E-01
RMM:   9    -0.653658089234E+03   -0.20831E-02   -0.54291E-03 13681   0.158E-01    0.711E-01
RMM:  10    -0.653655791897E+03    0.22973E-02   -0.18627E-03 12565   0.126E-01    0.876E-02
RMM:  11    -0.653655968875E+03   -0.17698E-03   -0.19148E-03 12316   0.580E-02    0.161E-01
RMM:  12    -0.653655896771E+03    0.72105E-04   -0.34297E-04 10922   0.598E-02    0.703E-02
RMM:  13    -0.653655925234E+03   -0.28464E-04   -0.50154E-04 11254   0.290E-02    0.300E-02
RMM:  14    -0.653655928800E+03   -0.35658E-05   -0.13586E-04 10748   0.335E-02    0.159E-02
RMM:  15    -0.653655938662E+03   -0.98625E-05   -0.14799E-04  9637   0.197E-02    0.577E-03
RMM:  16    -0.653655942852E+03   -0.41891E-05   -0.68124E-05  8898   0.205E-02
   7 F= -.65365594E+03 E0= -.65358400E+03  d E =-.412227E+00
       N       E                     dE             d eps       ncg     rms          rms(c)
DAV:   1    -0.652709003832E+03    0.94693E+00   -0.60103E+01  9408   0.402E+01    0.234E+00
RMM:   2    -0.654040697313E+03   -0.13317E+01   -0.12144E+01 13693   0.826E+00    0.675E+00
RMM:   3    -0.653882176689E+03    0.15852E+00   -0.65861E-01 10272   0.359E+00    0.376E+00
RMM:   4    -0.653935229859E+03   -0.53053E-01   -0.28050E-01 12491   0.146E+00    0.453E+00
RMM:   5    -0.653846583801E+03    0.88646E-01   -0.80270E-02 12372   0.849E-01    0.229E+00
RMM:   6    -0.653826084954E+03    0.20499E-01   -0.47248E-02 13793   0.495E-01    0.101E+00
RMM:   7    -0.653856384867E+03   -0.30300E-01   -0.43999E-02 12729   0.510E-01    0.300E+00
RMM:   8    -0.653815644231E+03    0.40741E-01   -0.23176E-02 11769   0.469E-01    0.427E-01
RMM:   9    -0.653821064856E+03   -0.54206E-02   -0.16042E-02 13750   0.244E-01    0.111E+00
RMM:  10    -0.653815752448E+03    0.53124E-02   -0.54381E-03 13349   0.170E-01    0.137E-01
RMM:  11    -0.653816419781E+03   -0.66733E-03   -0.38699E-03 13522   0.842E-02    0.363E-01
RMM:  12    -0.653815941997E+03    0.47778E-03   -0.10724E-03 11808   0.822E-02    0.688E-02
RMM:  13    -0.653816015646E+03   -0.73649E-04   -0.10291E-03 12002   0.391E-02    0.307E-02
RMM:  14    -0.653816020919E+03   -0.52725E-05   -0.22063E-04 10399   0.460E-02    0.158E-02
RMM:  15    -0.653816050275E+03   -0.29356E-04   -0.33346E-04  9213   0.228E-02    0.628E-03
RMM:  16    -0.653816057677E+03   -0.74021E-05   -0.12668E-04  8953   0.226E-02    0.380E-03
RMM:  17    -0.653816063563E+03   -0.58858E-05   -0.75932E-05  8058   0.180E-02
   8 F= -.65381606E+03 E0= -.65374514E+03  d E =-.160121E+00
       N       E                     dE             d eps       ncg     rms          rms(c)
DAV:   1    -0.653548492750E+03    0.26756E+00   -0.15570E+01  9408   0.207E+01    0.119E+00
RMM:   2    -0.653890536871E+03   -0.34204E+00   -0.31567E+00 13670   0.421E+00    0.327E+00
RMM:   3    -0.653857616547E+03    0.32920E-01   -0.17870E-01 10297   0.186E+00    0.206E+00
RMM:   4    -0.653867273880E+03   -0.96573E-02   -0.74911E-02 12546   0.747E-01    0.218E+00
RMM:   5    -0.653847632546E+03    0.19641E-01   -0.21931E-02 12350   0.440E-01    0.134E+00
RMM:   6    -0.653840666028E+03    0.69665E-02   -0.11864E-02 13277   0.258E-01    0.516E-01
RMM:   7    -0.653849321600E+03   -0.86556E-02   -0.11821E-02 12823   0.266E-01    0.158E+00
RMM:   8    -0.653837979801E+03    0.11342E-01   -0.65469E-03 11708   0.247E-01    0.209E-01
RMM:   9    -0.653839252256E+03   -0.12725E-02   -0.43447E-03 13049   0.125E-01    0.526E-01
RMM:  10    -0.653838072211E+03    0.11800E-02   -0.15230E-03 11926   0.878E-02    0.830E-02
RMM:  11    -0.653838271496E+03   -0.19929E-03   -0.91833E-04 11475   0.475E-02    0.206E-01
RMM:  12    -0.653838106731E+03    0.16477E-03   -0.35137E-04 10790   0.428E-02    0.292E-02
RMM:  13    -0.653838125403E+03   -0.18672E-04   -0.28562E-04 10230   0.254E-02    0.165E-02
RMM:  14    -0.653838126111E+03   -0.70831E-06   -0.66251E-05  7734   0.282E-02
   9 F= -.65383813E+03 E0= -.65376769E+03  d E =-.182183E+00
       N       E                     dE             d eps       ncg     rms          rms(c)
DAV:   1    -0.652737669793E+03    0.11005E+01   -0.54608E+01 10872   0.442E+01    0.333E+00
RMM:   2    -0.655312212873E+03   -0.25745E+01   -0.14603E+01 13688   0.919E+00    0.138E+01
RMM:   3    -0.654057225581E+03    0.12550E+01   -0.12997E+00 10560   0.443E+00    0.576E+00
RMM:   4    -0.653981257301E+03    0.75968E-01   -0.53587E-01 13271   0.160E+00    0.287E+00
RMM:   5    -0.653977342674E+03    0.39146E-02   -0.10138E-01 13211   0.847E-01    0.347E+00
RMM:   6    -0.653926409821E+03    0.50933E-01   -0.38220E-02 12927   0.576E-01    0.109E+00
RMM:   7    -0.653961885649E+03   -0.35476E-01   -0.56024E-02 12625   0.608E-01    0.322E+00
RMM:   8    -0.653914378820E+03    0.47507E-01   -0.25896E-02 12463   0.520E-01    0.368E-01
RMM:   9    -0.653919232237E+03   -0.48534E-02   -0.15711E-02 14325   0.256E-01    0.992E-01
RMM:  10    -0.653914737206E+03    0.44950E-02   -0.50094E-03 13256   0.184E-01    0.164E-01
RMM:  11    -0.653915457091E+03   -0.71988E-03   -0.34245E-03 13338   0.967E-02    0.381E-01
RMM:  12    -0.653914954731E+03    0.50236E-03   -0.12343E-03 13514   0.858E-02    0.856E-02
RMM:  13    -0.653915082747E+03   -0.12802E-03   -0.10669E-03 13101   0.508E-02    0.474E-02
RMM:  14    -0.653915118252E+03   -0.35506E-04   -0.30509E-04 11599   0.581E-02    0.214E-02
RMM:  15    -0.653915164163E+03   -0.45910E-04   -0.39844E-04 10860   0.288E-02    0.108E-02
RMM:  16    -0.653915174211E+03   -0.10048E-04   -0.14629E-04 10704   0.304E-02    0.724E-03
RMM:  17    -0.653915183315E+03   -0.91040E-05   -0.10092E-04  9444   0.197E-02    0.343E-03
RMM:  18    -0.653915189714E+03   -0.63989E-05   -0.72322E-05  8958   0.184E-02
  10 F= -.65391519E+03 E0= -.65384603E+03  d E =-.770636E-01
       N       E                     dE             d eps       ncg     rms          rms(c)
DAV:   1    -0.653915024705E+03    0.15861E-03   -0.79915E-03 11424   0.536E-01    0.401E-02
RMM:   2    -0.653915400623E+03   -0.37592E-03   -0.21134E-03 12873   0.107E-01    0.173E-01
RMM:   3    -0.653915220706E+03    0.17992E-03   -0.18830E-04  7791   0.607E-02    0.711E-02
RMM:   4    -0.653915210272E+03    0.10435E-04   -0.75795E-05  7657   0.242E-02    0.386E-02
RMM:   5    -0.653915213489E+03   -0.32172E-05   -0.25598E-05  5911   0.192E-02
  11 F= -.65391521E+03 E0= -.65384607E+03  d E =-.770874E-01
       N       E                     dE             d eps       ncg     rms          rms(c)
DAV:   1    -0.653319387883E+03    0.59582E+00   -0.44048E+01 12360   0.389E+01    0.537E+00
RMM:   2    -0.658312507486E+03   -0.49931E+01   -0.10938E+01 11931   0.934E+00    0.232E+01
RMM:   3    -0.654086554580E+03    0.42260E+01   -0.22327E+00 11361   0.527E+00    0.513E+00
RMM:   4    -0.654089082341E+03   -0.25278E-02   -0.59268E-01 13472   0.182E+00    0.492E+00
RMM:   5    -0.653986460736E+03    0.10262E+00   -0.14058E-01 12502   0.109E+00    0.242E+00
RMM:   6    -0.653974824350E+03    0.11636E-01   -0.59525E-02 12807   0.639E-01    0.197E+00
RMM:   7    -0.653956414890E+03    0.18409E-01   -0.47371E-02 13639   0.527E-01    0.101E+00
RMM:   8    -0.653964280262E+03   -0.78654E-02   -0.18433E-02 12039   0.447E-01    0.171E+00
RMM:   9    -0.653951916897E+03    0.12363E-01   -0.12181E-02 13745   0.291E-01    0.390E-01
RMM:  10    -0.653952591949E+03   -0.67505E-03   -0.65548E-03 13647   0.180E-01    0.463E-01
RMM:  11    -0.653951932261E+03    0.65969E-03   -0.32657E-03 13814   0.114E-01    0.179E-01
RMM:  12    -0.653952086661E+03   -0.15440E-03   -0.15253E-03 12961   0.811E-02    0.198E-01
RMM:  13    -0.653952075532E+03    0.11129E-04   -0.91769E-04 13116   0.677E-02    0.800E-02
RMM:  14    -0.653952183016E+03   -0.10748E-03   -0.83105E-04 12670   0.530E-02    0.374E-02
RMM:  15    -0.653952200765E+03   -0.17750E-04   -0.43464E-04 12332   0.513E-02    0.126E-02
RMM:  16    -0.653952230626E+03   -0.29861E-04   -0.33435E-04 10948   0.339E-02    0.122E-02
RMM:  17    -0.653952244383E+03   -0.13757E-04   -0.18190E-04 11037   0.288E-02    0.101E-02
RMM:  18    -0.653952252906E+03   -0.85232E-05   -0.12081E-04  9936   0.221E-02    0.567E-03
RMM:  19    -0.653952256884E+03   -0.39785E-05   -0.80531E-05  9406   0.189E-02
  12 F= -.65395226E+03 E0= -.65388281E+03  d E =-.370434E-01
       N       E                     dE             d eps       ncg     rms          rms(c)
DAV:   1    -0.653929196739E+03    0.23056E-01   -0.17035E+00 12576   0.782E+00    0.107E+00
RMM:   2    -0.654150461238E+03   -0.22126E+00   -0.50299E-01 11489   0.211E+00    0.556E+00
RMM:   3    -0.653983598484E+03    0.16686E+00   -0.98027E-02 11598   0.110E+00    0.250E+00
RMM:   4    -0.653957844382E+03    0.25754E-01   -0.24732E-02 12564   0.462E-01    0.553E-01
RMM:   5    -0.653959830295E+03   -0.19859E-02   -0.94264E-03 12788   0.230E-01    0.974E-01
RMM:   6    -0.653955255953E+03    0.45743E-02   -0.27524E-03 11074   0.175E-01    0.234E-01
RMM:   7    -0.653956193192E+03   -0.93724E-03   -0.31109E-03 12720   0.134E-01    0.534E-01
RMM:   8    -0.653954895843E+03    0.12973E-02   -0.95168E-04 10933   0.111E-01    0.134E-01
RMM:   9    -0.653955173155E+03   -0.27731E-03   -0.66604E-04 11848   0.617E-02    0.272E-01
RMM:  10    -0.653954844711E+03    0.32844E-03   -0.21190E-04  9629   0.498E-02    0.387E-02
RMM:  11    -0.653954881601E+03   -0.36890E-04   -0.20176E-04 10205   0.247E-02    0.719E-02
RMM:  12    -0.653954866906E+03    0.14695E-04   -0.49947E-05  6784   0.225E-02    0.227E-02
RMM:  13    -0.653954879899E+03   -0.12993E-04   -0.45605E-05  6815   0.173E-02    0.120E-02
RMM:  14    -0.653954890890E+03   -0.10990E-04   -0.31617E-05  6654   0.173E-02    0.575E-03
RMM:  15    -0.653954893390E+03   -0.24999E-05   -0.20826E-05  5936   0.151E-02
  13 F= -.65395489E+03 E0= -.65388549E+03  d E =-.396799E-01
       N       E                     dE             d eps       ncg     rms          rms(c)
DAV:   1    -0.653169875651E+03    0.78502E+00   -0.32709E+01  9624   0.339E+01    0.167E+00
RMM:   2    -0.654192974136E+03   -0.10231E+01   -0.86538E+00 13654   0.662E+00    0.621E+00
RMM:   3    -0.654019114114E+03    0.17386E+00   -0.56105E-01 10342   0.288E+00    0.268E+00
RMM:   4    -0.654030630369E+03   -0.11516E-01   -0.23063E-01 13029   0.104E+00    0.228E+00
RMM:   5    -0.654000326913E+03    0.30303E-01   -0.36875E-02 12180   0.576E-01    0.831E-01
RMM:   6    -0.654001507457E+03   -0.11805E-02   -0.23051E-02 13426   0.259E-01    0.901E-01
RMM:   7    -0.654004189517E+03   -0.26821E-02   -0.20806E-02 13111   0.313E-01    0.145E+00
RMM:   8    -0.653995485019E+03    0.87045E-02   -0.56737E-03 12147   0.239E-01    0.253E-01
RMM:   9    -0.653996074621E+03   -0.58960E-03   -0.37849E-03 13393   0.124E-01    0.410E-01
RMM:  10    -0.653995372403E+03    0.70222E-03   -0.12404E-03 11505   0.955E-02    0.134E-01
RMM:  11    -0.653995474641E+03   -0.10224E-03   -0.10206E-03 12153   0.571E-02    0.185E-01
RMM:  12    -0.653995380798E+03    0.93843E-04   -0.40183E-04 10820   0.509E-02    0.835E-02
RMM:  13    -0.653995388466E+03   -0.76680E-05   -0.30805E-04 10779   0.281E-02    0.212E-02
RMM:  14    -0.653995401256E+03   -0.12790E-04   -0.10749E-04  9414   0.279E-02    0.120E-02
RMM:  15    -0.653995409592E+03   -0.83362E-05   -0.72593E-05  8081   0.188E-02
  14 F= -.65399541E+03 E0= -.65392696E+03  d E =-.405162E-01
       N       E                     dE             d eps       ncg     rms          rms(c)
DAV:   1    -0.653901273159E+03    0.94128E-01   -0.37582E+00  9768   0.116E+01    0.553E-01
RMM:   2    -0.654010980790E+03   -0.10971E+00   -0.99530E-01 13598   0.218E+00    0.170E+00
RMM:   3    -0.654002302391E+03    0.86784E-02   -0.60313E-02 10229   0.960E-01    0.990E-01
RMM:   4    -0.654003563702E+03   -0.12613E-02   -0.24563E-02 13059   0.346E-01    0.868E-01
RMM:   5    -0.654000355573E+03    0.32081E-02   -0.44163E-03 11159   0.206E-01    0.560E-01
RMM:   6    -0.653999242869E+03    0.11127E-02   -0.25636E-03 11166   0.100E-01    0.207E-01
RMM:   7    -0.653999238860E+03    0.40092E-05   -0.24509E-03 13125   0.110E-01    0.329E-01
RMM:   8    -0.653998735431E+03    0.50343E-03   -0.66314E-04 11119   0.764E-02    0.998E-02
RMM:   9    -0.653998751682E+03   -0.16252E-04   -0.45810E-04 11173   0.404E-02    0.883E-02
RMM:  10    -0.653998739109E+03    0.12573E-04   -0.14047E-04  8595   0.365E-02    0.637E-02
RMM:  11    -0.653998729621E+03    0.94883E-05   -0.12373E-04  8785   0.219E-02    0.126E-02
RMM:  12    -0.653998738241E+03   -0.86204E-05   -0.44997E-05  6646   0.198E-02
  15 F= -.65399874E+03 E0= -.65393072E+03  d E =-.438449E-01
       N       E                     dE             d eps       ncg     rms          rms(c)
DAV:   1    -0.653316348309E+03    0.68238E+00   -0.23915E+01  8904   0.293E+01    0.143E+00
RMM:   2    -0.654351879288E+03   -0.10355E+01   -0.78238E+00 13178   0.627E+00    0.837E+00
RMM:   3    -0.654030193715E+03    0.32169E+00   -0.54605E-01 11109   0.202E+00    0.848E-01
RMM:   4    -0.654048109868E+03   -0.17916E-01   -0.12941E-01 12811   0.627E-01    0.176E+00
RMM:   5    -0.654035257085E+03    0.12853E-01   -0.17857E-02 12746   0.339E-01    0.496E-01
RMM:   6    -0.654036982675E+03   -0.17256E-02   -0.99405E-03 12550   0.212E-01    0.762E-01
RMM:   7    -0.654034628171E+03    0.23545E-02   -0.61096E-03 12599   0.176E-01    0.583E-01
RMM:   8    -0.654033352590E+03    0.12756E-02   -0.27395E-03 11567   0.129E-01    0.279E-01
RMM:   9    -0.654034105535E+03   -0.75294E-03   -0.23904E-03 11860   0.105E-01    0.449E-01
RMM:  10    -0.654033136093E+03    0.96944E-03   -0.76128E-04  9667   0.744E-02    0.700E-02
RMM:  11    -0.654033175986E+03   -0.39893E-04   -0.62092E-04  9896   0.372E-02    0.750E-02
RMM:  12    -0.654033175859E+03    0.12761E-06   -0.13255E-04  7932   0.327E-02    0.677E-02
RMM:  13    -0.654033165816E+03    0.10042E-04   -0.15103E-04  8039   0.224E-02    0.135E-02
RMM:  14    -0.654033169373E+03   -0.35571E-05   -0.52645E-05  6932   0.176E-02
  16 F= -.65403317E+03 E0= -.65396554E+03  d E =-.344311E-01
       N       E                     dE             d eps       ncg     rms          rms(c)
DAV:   1    -0.653835392503E+03    0.19777E+00   -0.77341E+00  9552   0.164E+01    0.694E-01
RMM:   2    -0.654079374401E+03   -0.24398E+00   -0.21342E+00 13128   0.319E+00    0.304E+00
RMM:   3    -0.654040615245E+03    0.38759E-01   -0.13119E-01 11133   0.104E+00    0.624E-01
RMM:   4    -0.654045184657E+03   -0.45694E-02   -0.35073E-02 12587   0.352E-01    0.979E-01
RMM:   5    -0.654041199343E+03    0.39853E-02   -0.46074E-03 11866   0.192E-01    0.276E-01
RMM:   6    -0.654041552280E+03   -0.35294E-03   -0.31779E-03 11705   0.105E-01    0.349E-01
RMM:   7    -0.654041029518E+03    0.52276E-03   -0.20826E-03 12069   0.109E-01    0.310E-01
RMM:   8    -0.654040650317E+03    0.37920E-03   -0.84795E-04 10075   0.756E-02    0.147E-01
RMM:   9    -0.654040763721E+03   -0.11340E-03   -0.59090E-04 10525   0.535E-02    0.193E-01
RMM:  10    -0.654040597638E+03    0.16608E-03   -0.21786E-04  8148   0.371E-02    0.370E-02
RMM:  11    -0.654040611065E+03   -0.13428E-04   -0.13242E-04  7828   0.231E-02    0.533E-02
RMM:  12    -0.654040603447E+03    0.76183E-05   -0.44705E-05  6381   0.190E-02
  17 F= -.65404060E+03 E0= -.65397323E+03  d E =-.418652E-01
       N       E                     dE             d eps       ncg     rms          rms(c)
DAV:   1    -0.653719063250E+03    0.32155E+00   -0.12793E+01  9432   0.211E+01    0.149E+00
RMM:   2    -0.654282696214E+03   -0.56363E+00   -0.37987E+00 14052   0.433E+00    0.596E+00
RMM:   3    -0.654079304353E+03    0.20339E+00   -0.26842E-01 10783   0.192E+00    0.202E+00
RMM:   4    -0.654080809054E+03   -0.15047E-02   -0.88178E-02 12702   0.720E-01    0.177E+00
RMM:   5    -0.654064645915E+03    0.16163E-01   -0.19103E-02 12527   0.384E-01    0.583E-01
RMM:   6    -0.654065208242E+03   -0.56233E-03   -0.10550E-02 13654   0.181E-01    0.660E-01
RMM:   7    -0.654065347680E+03   -0.13944E-03   -0.62256E-03 12858   0.205E-01    0.811E-01
RMM:   8    -0.654062646272E+03    0.27014E-02   -0.25450E-03 11972   0.164E-01    0.246E-01
RMM:   9    -0.654062838321E+03   -0.19205E-03   -0.23517E-03 13988   0.890E-02    0.283E-01
RMM:  10    -0.654062547367E+03    0.29095E-03   -0.73552E-04 10643   0.813E-02    0.930E-02
RMM:  11    -0.654062551817E+03   -0.44502E-05   -0.57044E-04 12278   0.341E-02    0.514E-02
RMM:  12    -0.654062576645E+03   -0.24828E-04   -0.13835E-04  9590   0.406E-02    0.796E-02
RMM:  13    -0.654062561871E+03    0.14774E-04   -0.16010E-04 10290   0.227E-02    0.230E-02
RMM:  14    -0.654062562447E+03   -0.57620E-06   -0.69581E-05  8528   0.217E-02
  18 F= -.65406256E+03 E0= -.65399556E+03  d E =-.219590E-01
       N       E                     dE             d eps       ncg     rms          rms(c)
DAV:   1    -0.653996556213E+03    0.66006E-01   -0.26806E+00 10056   0.958E+00    0.673E-01
RMM:   2    -0.654110257079E+03   -0.11370E+00   -0.76623E-01 13946   0.191E+00    0.264E+00
RMM:   3    -0.654068631206E+03    0.41626E-01   -0.52402E-02 10666   0.904E-01    0.932E-01
RMM:   4    -0.654068772140E+03   -0.14093E-03   -0.19369E-02 12832   0.325E-01    0.775E-01
RMM:   5    -0.654065548483E+03    0.32237E-02   -0.38120E-03 12322   0.169E-01    0.215E-01
RMM:   6    -0.654065926919E+03   -0.37844E-03   -0.21538E-03 12154   0.893E-02    0.346E-01
RMM:   7    -0.654065452019E+03    0.47490E-03   -0.14247E-03 13019   0.984E-02    0.236E-01
RMM:   8    -0.654065309935E+03    0.14208E-03   -0.56071E-04 11623   0.699E-02    0.145E-01
RMM:   9    -0.654065284422E+03    0.25513E-04   -0.38655E-04 11743   0.406E-02    0.108E-01
RMM:  10    -0.654065247138E+03    0.37284E-04   -0.14279E-04  9357   0.342E-02    0.433E-02
RMM:  11    -0.654065243111E+03    0.40275E-05   -0.10040E-04  8537   0.193E-02    0.183E-02
RMM:  12    -0.654065252476E+03   -0.93656E-05   -0.31323E-05  5950   0.216E-02
  19 F= -.65406525E+03 E0= -.65399848E+03  d E =-.246490E-01
       N       E                     dE             d eps       ncg     rms          rms(c)
DAV:   1    -0.653925708835E+03    0.13953E+00   -0.69758E+00 11856   0.156E+01    0.165E+00
RMM:   2    -0.654452574373E+03   -0.52687E+00   -0.20920E+00 12488   0.373E+00    0.729E+00
RMM:   3    -0.654108452316E+03    0.34412E+00   -0.27269E-01 11054   0.179E+00    0.263E+00
RMM:   4    -0.654084773567E+03    0.23679E-01   -0.84433E-02 13117   0.671E-01    0.104E+00
RMM:   5    -0.654083579036E+03    0.11945E-02   -0.19554E-02 12727   0.346E-01    0.119E+00
RMM:   6    -0.654077642539E+03    0.59365E-02   -0.55300E-03 12131   0.233E-01    0.429E-01
RMM:   7    -0.654080845896E+03   -0.32034E-02   -0.66648E-03 12273   0.219E-01    0.964E-01
RMM:   8    -0.654076433376E+03    0.44125E-02   -0.29304E-03 11817   0.179E-01    0.182E-01
RMM:   9    -0.654077004079E+03   -0.57070E-03   -0.20821E-03 13341   0.959E-02    0.361E-01
RMM:  10    -0.654076410964E+03    0.59312E-03   -0.57321E-04 10642   0.777E-02    0.602E-02
RMM:  11    -0.654076480842E+03   -0.69878E-04   -0.48568E-04 11978   0.356E-02    0.844E-02
RMM:  12    -0.654076469144E+03    0.11698E-04   -0.13234E-04  9576   0.326E-02    0.414E-02
RMM:  13    -0.654076502146E+03   -0.33002E-04   -0.13797E-04  9860   0.211E-02    0.219E-02
RMM:  14    -0.654076526091E+03   -0.23945E-04   -0.73365E-05  8850   0.231E-02    0.634E-03
RMM:  15    -0.654076531577E+03   -0.54861E-05   -0.49473E-05  7678   0.181E-02
  20 F= -.65407653E+03 E0= -.65401049E+03  d E =-.112791E-01
       N       E                     dE             d eps       ncg     rms          rms(c)
DAV:   1    -0.654067138560E+03    0.93875E-02   -0.45627E-01 11880   0.402E+00    0.420E-01
RMM:   2    -0.654100842895E+03   -0.33704E-01   -0.13415E-01 12425   0.937E-01    0.183E+00
RMM:   3    -0.654078640730E+03    0.22202E-01   -0.17432E-02 10714   0.460E-01    0.604E-01
RMM:   4    -0.654077587419E+03    0.10533E-02   -0.55720E-03 12138   0.169E-01    0.290E-01
RMM:   5    -0.654077516395E+03    0.71024E-04   -0.11884E-03 11658   0.909E-02    0.323E-01
RMM:   6    -0.654077060816E+03    0.45558E-03   -0.37248E-04  9029   0.647E-02    0.101E-01
RMM:   7    -0.654077295908E+03   -0.23509E-03   -0.43398E-04 11724   0.563E-02    0.247E-01
RMM:   8    -0.654077004738E+03    0.29117E-03   -0.19625E-04  9419   0.518E-02    0.408E-02
RMM:   9    -0.654077043026E+03   -0.38288E-04   -0.14310E-04  9133   0.280E-02    0.855E-02
RMM:  10    -0.654077012529E+03    0.30497E-04   -0.41247E-05  6120   0.247E-02    0.161E-02
RMM:  11    -0.654077019074E+03   -0.65459E-05   -0.30467E-05  5948   0.162E-02
  21 F= -.65407702E+03 E0= -.65401117E+03  d E =-.117666E-01
       N       E                     dE             d eps       ncg     rms          rms(c)
DAV:   1    -0.654001782739E+03    0.75230E-01   -0.29477E+00  9408   0.101E+01    0.537E-01
RMM:   2    -0.654105723631E+03   -0.10394E+00   -0.84821E-01 13777   0.201E+00    0.204E+00
RMM:   3    -0.654086962543E+03    0.18761E-01   -0.58063E-02 10551   0.850E-01    0.809E-01
RMM:   4    -0.654087606918E+03   -0.64437E-03   -0.16373E-02 12820   0.298E-01    0.710E-01
RMM:   5    -0.654085478441E+03    0.21285E-02   -0.34048E-03 11534   0.172E-01    0.422E-01
RMM:   6    -0.654084802519E+03    0.67592E-03   -0.20337E-03 11039   0.866E-02    0.172E-01
RMM:   7    -0.654085527373E+03   -0.72485E-03   -0.10930E-03 11770   0.851E-02    0.451E-01
RMM:   8    -0.654084552481E+03    0.97489E-03   -0.84215E-04 11567   0.866E-02    0.618E-02
RMM:   9    -0.654084670098E+03   -0.11762E-03   -0.47819E-04 11384   0.432E-02    0.154E-01
RMM:  10    -0.654084566066E+03    0.10403E-03   -0.15519E-04  8132   0.351E-02    0.311E-02
RMM:  11    -0.654084566326E+03   -0.25962E-06   -0.11574E-04  7827   0.182E-02    0.189E-02
RMM:  12    -0.654084575086E+03   -0.87607E-05   -0.29951E-05  5683   0.203E-02
  22 F= -.65408458E+03 E0= -.65401887E+03  d E =-.755601E-02
       N       E                     dE             d eps       ncg     rms          rms(c)
DAV:   1    -0.654048557562E+03    0.36009E-01   -0.14112E+00  9408   0.698E+00    0.369E-01
RMM:   2    -0.654097596150E+03   -0.49039E-01   -0.39666E-01 13682   0.137E+00    0.142E+00
RMM:   3    -0.654088144068E+03    0.94521E-02   -0.25518E-02 10514   0.582E-01    0.576E-01
RMM:   4    -0.654088338656E+03   -0.19459E-03   -0.83407E-03 12437   0.209E-01    0.474E-01
RMM:   5    -0.654087389737E+03    0.94892E-03   -0.16454E-03 10590   0.118E-01    0.288E-01
RMM:   6    -0.654087085304E+03    0.30443E-03   -0.10041E-03 10227   0.625E-02    0.117E-01
RMM:   7    -0.654087421248E+03   -0.33594E-03   -0.54607E-04 11426   0.599E-02    0.305E-01
RMM:   8    -0.654086977082E+03    0.44417E-03   -0.37988E-04 10880   0.610E-02    0.419E-02
RMM:   9    -0.654087024832E+03   -0.47750E-04   -0.22682E-04  9678   0.300E-02    0.967E-02
RMM:  10    -0.654086984921E+03    0.39911E-04   -0.70929E-05  6678   0.253E-02    0.225E-02
RMM:  11    -0.654086984966E+03   -0.45409E-07   -0.58384E-05  6270   0.180E-02
  23 F= -.65408698E+03 E0= -.65402135E+03  d E =-.996589E-02
       N       E                     dE             d eps       ncg     rms          rms(c)
DAV:   1    -0.653934929227E+03    0.15206E+00   -0.56894E+00  9408   0.139E+01    0.733E-01
RMM:   2    -0.654127294556E+03   -0.19237E+00   -0.15577E+00 13710   0.269E+00    0.282E+00
RMM:   3    -0.654088834082E+03    0.38460E-01   -0.92794E-02 10532   0.116E+00    0.107E+00
RMM:   4    -0.654090790018E+03   -0.19559E-02   -0.33605E-02 12702   0.418E-01    0.985E-01
RMM:   5    -0.654086646809E+03    0.41432E-02   -0.64073E-03 11829   0.233E-01    0.577E-01
RMM:   6    -0.654085354222E+03    0.12926E-02   -0.39491E-03 11616   0.116E-01    0.224E-01
RMM:   7    -0.654086722071E+03   -0.13678E-02   -0.20108E-03 12232   0.115E-01    0.611E-01
RMM:   8    -0.654084935830E+03    0.17862E-02   -0.15030E-03 12192   0.112E-01    0.828E-02
RMM:   9    -0.654085169325E+03   -0.23350E-03   -0.88978E-04 12144   0.608E-02    0.214E-01
RMM:  10    -0.654084973245E+03    0.19608E-03   -0.32590E-04 10197   0.463E-02    0.404E-02
RMM:  11    -0.654084979101E+03   -0.58559E-05   -0.22829E-04 10413   0.241E-02    0.251E-02
RMM:  12    -0.654084997026E+03   -0.17926E-04   -0.56170E-05  6694   0.258E-02    0.637E-02
RMM:  13    -0.654084981298E+03    0.15728E-04   -0.50443E-05  6293   0.186E-02    0.104E-02
RMM:  14    -0.654084981834E+03   -0.53579E-06   -0.33140E-05  6082   0.155E-02
  24 F= -.65408498E+03 E0= -.65401953E+03  d E =-.796276E-02
       N       E                     dE             d eps       ncg     rms          rms(c)
DAV:   1    -0.654005433569E+03    0.79548E-01   -0.31529E+00  9408   0.103E+01    0.557E-01
RMM:   2    -0.654117300284E+03   -0.11187E+00   -0.86665E-01 13721   0.204E+00    0.231E+00
RMM:   3    -0.654090711645E+03    0.26589E-01   -0.53930E-02 10612   0.877E-01    0.946E-01
RMM:   4    -0.654089825388E+03    0.88626E-03   -0.19192E-02 12645   0.311E-01    0.624E-01
RMM:   5    -0.654088053669E+03    0.17717E-02   -0.34552E-03 11592   0.168E-01    0.385E-01
RMM:   6    -0.654087585345E+03    0.46832E-03   -0.19028E-03 11053   0.835E-02    0.191E-01
RMM:   7    -0.654088055073E+03   -0.46973E-03   -0.13691E-03 11990   0.897E-02    0.392E-01
RMM:   8    -0.654087301217E+03    0.75386E-03   -0.63354E-04 10611   0.777E-02    0.644E-02
RMM:   9    -0.654087360948E+03   -0.59731E-04   -0.40710E-04 11273   0.380E-02    0.103E-01
RMM:  10    -0.654087322692E+03    0.38257E-04   -0.11348E-04  7583   0.312E-02    0.392E-02
RMM:  11    -0.654087324504E+03   -0.18125E-05   -0.84011E-05  7022   0.184E-02
  25 F= -.65408732E+03 E0= -.65402174E+03  d E =-.103054E-01
       N       E                     dE             d eps       ncg     rms          rms(c)
DAV:   1    -0.654052798351E+03    0.34524E-01   -0.15127E+00  9168   0.691E+00    0.301E-01
RMM:   2    -0.654092934785E+03   -0.40136E-01   -0.39409E-01 13102   0.147E+00    0.704E-01
RMM:   3    -0.654092543528E+03    0.39126E-03   -0.29312E-02 11006   0.445E-01    0.483E-01
RMM:   4    -0.654092336304E+03    0.20722E-03   -0.58033E-03 12535   0.157E-01    0.328E-01
RMM:   5    -0.654091844537E+03    0.49177E-03   -0.84718E-04  9822   0.906E-02    0.137E-01
RMM:   6    -0.654091855672E+03   -0.11135E-04   -0.51524E-04 10092   0.491E-02    0.138E-01
RMM:   7    -0.654091820151E+03    0.35521E-04   -0.51813E-04 11425   0.522E-02    0.155E-01
RMM:   8    -0.654091724198E+03    0.95953E-04   -0.14726E-04  8182   0.432E-02    0.682E-02
RMM:   9    -0.654091731187E+03   -0.69887E-05   -0.89411E-05  7347   0.255E-02
  26 F= -.65409173E+03 E0= -.65402610E+03  d E =-.440668E-02
       N       E                     dE             d eps       ncg     rms          rms(c)
DAV:   1    -0.653988502421E+03    0.10322E+00   -0.41225E+00  9096   0.114E+01    0.489E-01
RMM:   2    -0.654095102753E+03   -0.10660E+00   -0.10723E+00 13084   0.243E+00    0.855E-01
RMM:   3    -0.654098206486E+03   -0.31037E-02   -0.80420E-02 11220   0.721E-01    0.967E-01
RMM:   4    -0.654096315402E+03    0.18911E-02   -0.15705E-02 12500   0.279E-01    0.540E-01
RMM:   5    -0.654094868093E+03    0.14473E-02   -0.29149E-03 11599   0.148E-01    0.231E-01
RMM:   6    -0.654094911099E+03   -0.43006E-04   -0.15993E-03 11141   0.738E-02    0.233E-01
RMM:   7    -0.654094943371E+03   -0.32271E-04   -0.12856E-03 12217   0.843E-02    0.298E-01
RMM:   8    -0.654094567097E+03    0.37627E-03   -0.57601E-04 10205   0.724E-02    0.110E-01
RMM:   9    -0.654094545840E+03    0.21257E-04   -0.31868E-04 10543   0.396E-02    0.800E-02
RMM:  10    -0.654094539474E+03    0.63663E-05   -0.11774E-04  7509   0.303E-02    0.642E-02
RMM:  11    -0.654094521363E+03    0.18111E-04   -0.89138E-05  7519   0.212E-02    0.137E-02
RMM:  12    -0.654094535830E+03   -0.14467E-04   -0.38208E-05  6185   0.191E-02    0.500E-02
RMM:  13    -0.654094526340E+03    0.94899E-05   -0.23481E-05  5941   0.170E-02
  27 F= -.65409453E+03 E0= -.65402899E+03  d E =-.720184E-02
       N       E                     dE             d eps       ncg     rms          rms(c)
DAV:   1    -0.654045953783E+03    0.48582E-01   -0.24660E+00  9168   0.836E+00    0.375E-01
RMM:   2    -0.654100546768E+03   -0.54593E-01   -0.54778E-01 13040   0.171E+00    0.767E-01
RMM:   3    -0.654100149607E+03    0.39716E-03   -0.32416E-02 11285   0.536E-01    0.700E-01
RMM:   4    -0.654099416267E+03    0.73334E-03   -0.93708E-03 12075   0.216E-01    0.435E-01
RMM:   5    -0.654098414390E+03    0.10019E-02   -0.16849E-03 10602   0.121E-01    0.213E-01
RMM:   6    -0.654098432372E+03   -0.17982E-04   -0.11712E-03 10667   0.661E-02    0.202E-01
RMM:   7    -0.654098305850E+03    0.12652E-03   -0.11681E-03 12037   0.736E-02    0.209E-01
RMM:   8    -0.654098121270E+03    0.18458E-03   -0.29065E-04  9441   0.554E-02    0.863E-02
RMM:   9    -0.654098119716E+03    0.15538E-05   -0.17327E-04  8269   0.314E-02    0.871E-02
RMM:  10    -0.654098091007E+03    0.28710E-04   -0.71042E-05  6579   0.247E-02    0.335E-02
RMM:  11    -0.654098086870E+03    0.41363E-05   -0.57300E-05  6677   0.166E-02
  28 F= -.65409809E+03 E0= -.65403270E+03  d E =-.356053E-02
       N       E                     dE             d eps       ncg     rms          rms(c)
DAV:   1    -0.654087536874E+03    0.10554E-01   -0.53246E-01  9288   0.388E+00    0.173E-01
RMM:   2    -0.654099284702E+03   -0.11748E-01   -0.11742E-01 13035   0.791E-01    0.363E-01
RMM:   3    -0.654099191202E+03    0.93499E-04   -0.70801E-03 11014   0.249E-01    0.322E-01
RMM:   4    -0.654099075207E+03    0.11600E-03   -0.20911E-03 11082   0.103E-01    0.203E-01
RMM:   5    -0.654098833723E+03    0.24148E-03   -0.37632E-04  8901   0.609E-02    0.939E-02
RMM:   6    -0.654098850897E+03   -0.17174E-04   -0.26417E-04  8473   0.337E-02    0.103E-01
RMM:   7    -0.654098801848E+03    0.49049E-04   -0.29026E-04 10580   0.363E-02    0.735E-02
RMM:   8    -0.654098786089E+03    0.15760E-04   -0.54134E-05  6301   0.294E-02    0.490E-02
RMM:   9    -0.654098777279E+03    0.88095E-05   -0.31229E-05  5870   0.192E-02
  29 F= -.65409878E+03 E0= -.65403345E+03  d E =-.425094E-02
       N       E                     dE             d eps       ncg     rms          rms(c)
DAV:   1    -0.654052836481E+03    0.45950E-01   -0.21203E+00  9144   0.775E+00    0.348E-01
RMM:   2    -0.654100132285E+03   -0.47296E-01   -0.47548E-01 13054   0.159E+00    0.684E-01
RMM:   3    -0.654100178515E+03   -0.46230E-04   -0.28512E-02 11333   0.495E-01    0.670E-01
RMM:   4    -0.654099463934E+03    0.71458E-03   -0.82160E-03 11960   0.202E-01    0.408E-01
RMM:   5    -0.654098579086E+03    0.88485E-03   -0.15013E-03 10569   0.113E-01    0.193E-01
RMM:   6    -0.654098611247E+03   -0.32161E-04   -0.10346E-03 10647   0.624E-02    0.194E-01
RMM:   7    -0.654098557247E+03    0.54000E-04   -0.92872E-04 11874   0.686E-02    0.222E-01
RMM:   8    -0.654098339323E+03    0.21792E-03   -0.30299E-04  9526   0.571E-02    0.776E-02
RMM:   9    -0.654098320332E+03    0.18991E-04   -0.16615E-04  8552   0.291E-02    0.504E-02
RMM:  10    -0.654098323402E+03   -0.30703E-05   -0.66767E-05  6524   0.243E-02
  30 F= -.65409832E+03 E0= -.65403317E+03  d E =-.379706E-02
       N       E                     dE             d eps       ncg     rms          rms(c)
DAV:   1    -0.654078376221E+03    0.19944E-01   -0.10338E+00  9408   0.538E+00    0.240E-01
RMM:   2    -0.654100748289E+03   -0.22372E-01   -0.21867E-01 12914   0.107E+00    0.607E-01
RMM:   3    -0.654099573749E+03    0.11745E-02   -0.12110E-02 11075   0.360E-01    0.403E-01
RMM:   4    -0.654099647103E+03   -0.73355E-04   -0.41352E-03 11326   0.150E-01    0.307E-01
RMM:   5    -0.654099000298E+03    0.64681E-03   -0.69752E-04  8785   0.846E-02    0.111E-01
RMM:   6    -0.654099084146E+03   -0.83848E-04   -0.51119E-04  9580   0.444E-02    0.168E-01
RMM:   7    -0.654098902700E+03    0.18145E-03   -0.53031E-04 11050   0.486E-02    0.340E-02
RMM:   8    -0.654098939100E+03   -0.36400E-04   -0.82466E-05  6642   0.325E-02    0.997E-02
RMM:   9    -0.654098892500E+03    0.46600E-04   -0.34093E-05  5578   0.247E-02    0.153E-02
RMM:  10    -0.654098898621E+03   -0.61206E-05   -0.28992E-05  5778   0.143E-02
  31 F= -.65409890E+03 E0= -.65403363E+03  d E =-.437228E-02
       N       E                     dE             d eps       ncg     rms          rms(c)
DAV:   1    -0.654067646299E+03    0.31246E-01   -0.18175E+00  9408   0.690E+00    0.363E-01
RMM:   2    -0.654103507017E+03   -0.35861E-01   -0.36729E-01 12878   0.141E+00    0.699E-01
RMM:   3    -0.654102886042E+03    0.62098E-03   -0.21851E-02 11223   0.520E-01    0.595E-01
RMM:   4    -0.654102257620E+03    0.62842E-03   -0.72785E-03 12227   0.210E-01    0.450E-01
RMM:   5    -0.654101331747E+03    0.92587E-03   -0.14141E-03 11144   0.105E-01    0.160E-01
RMM:   6    -0.654101791355E+03   -0.45961E-03   -0.12770E-03 11416   0.865E-02    0.353E-01
RMM:   7    -0.654101294962E+03    0.49639E-03   -0.78667E-04 11011   0.824E-02    0.235E-01
RMM:   8    -0.654101044045E+03    0.25092E-03   -0.32362E-04  9474   0.546E-02    0.551E-02
RMM:   9    -0.654101049658E+03   -0.56131E-05   -0.22326E-04  8268   0.267E-02    0.496E-02
RMM:  10    -0.654101045728E+03    0.39304E-05   -0.48034E-05  6075   0.242E-02
  32 F= -.65410105E+03 E0= -.65403576E+03  d E =-.214711E-02
       N       E                     dE             d eps       ncg     rms          rms(c)
DAV:   1    -0.654097551495E+03    0.34982E-02   -0.19744E-01  9840   0.227E+00    0.119E-01
RMM:   2    -0.654101409138E+03   -0.38576E-02   -0.39999E-02 12956   0.467E-01    0.208E-01
RMM:   3    -0.654101440391E+03   -0.31253E-04   -0.24790E-03 10924   0.172E-01    0.211E-01
RMM:   4    -0.654101353817E+03    0.86574E-04   -0.83888E-04 10447   0.728E-02    0.147E-01
RMM:   5    -0.654101255950E+03    0.97867E-04   -0.18383E-04  8100   0.393E-02    0.583E-02
RMM:   6    -0.654101293024E+03   -0.37074E-04   -0.13450E-04  8034   0.318E-02    0.103E-01
RMM:   7    -0.654101267613E+03    0.25411E-04   -0.12809E-04  8710   0.318E-02    0.951E-02
RMM:   8    -0.654101226169E+03    0.41444E-04   -0.41483E-05  6010   0.239E-02    0.154E-02
RMM:   9    -0.654101227698E+03   -0.15289E-05   -0.34678E-05  6016   0.153E-02
  33 F= -.65410123E+03 E0= -.65403592E+03  d E =-.232908E-02
       N       E                     dE             d eps       ncg     rms          rms(c)
DAV:   1    -0.654070689396E+03    0.30537E-01   -0.14620E+00  8736   0.630E+00    0.264E-01
RMM:   2    -0.654103784038E+03   -0.33095E-01   -0.32955E-01 12893   0.139E+00    0.546E-01
RMM:   3    -0.654103956603E+03   -0.17256E-03   -0.24849E-02 11799   0.386E-01    0.457E-01
RMM:   4    -0.654103719785E+03    0.23682E-03   -0.44684E-03 11853   0.157E-01    0.340E-01
RMM:   5    -0.654103180354E+03    0.53943E-03   -0.89839E-04 10612   0.842E-02    0.113E-01
RMM:   6    -0.654103227134E+03   -0.46780E-04   -0.53363E-04 10335   0.478E-02    0.155E-01
RMM:   7    -0.654103209149E+03    0.17985E-04   -0.55983E-04 11096   0.575E-02    0.189E-01
RMM:   8    -0.654103043685E+03    0.16546E-03   -0.21643E-04  9139   0.453E-02    0.389E-02
RMM:   9    -0.654103050355E+03   -0.66692E-05   -0.87248E-05  6788   0.209E-02
  34 F= -.65410305E+03 E0= -.65403792E+03  d E =-.182266E-02
       N       E                     dE             d eps       ncg     rms          rms(c)
DAV:   1    -0.654091177469E+03    0.11866E-01   -0.55175E-01  8784   0.387E+00    0.164E-01
RMM:   2    -0.654103631889E+03   -0.12454E-01   -0.12364E-01 12940   0.851E-01    0.348E-01
RMM:   3    -0.654103659768E+03   -0.27879E-04   -0.91383E-03 11638   0.241E-01    0.282E-01
RMM:   4    -0.654103643250E+03    0.16517E-04   -0.18492E-03 11401   0.988E-02    0.234E-01
RMM:   5    -0.654103393756E+03    0.24949E-03   -0.36633E-04  9096   0.570E-02    0.719E-02
RMM:   6    -0.654103410474E+03   -0.16718E-04   -0.22361E-04  8505   0.321E-02    0.930E-02
RMM:   7    -0.654103409628E+03    0.84609E-06   -0.22045E-04  9908   0.357E-02    0.115E-01
RMM:   8    -0.654103349553E+03    0.60075E-04   -0.79880E-05  7144   0.302E-02    0.330E-02
RMM:   9    -0.654103356669E+03   -0.71159E-05   -0.42591E-05  6211   0.188E-02
  35 F= -.65410336E+03 E0= -.65403830E+03  d E =-.212897E-02
       N       E                     dE             d eps       ncg     rms          rms(c)
DAV:   1    -0.654076169366E+03    0.27180E-01   -0.14607E+00  9408   0.610E+00    0.260E-01
RMM:   2    -0.654106218498E+03   -0.30049E-01   -0.29234E-01 13328   0.122E+00    0.583E-01
RMM:   3    -0.654105704806E+03    0.51369E-03   -0.17352E-02 11040   0.415E-01    0.465E-01
RMM:   4    -0.654106039067E+03   -0.33426E-03   -0.53838E-03 11932   0.158E-01    0.433E-01
RMM:   5    -0.654105082384E+03    0.95668E-03   -0.96218E-04  9280   0.974E-02    0.162E-01
RMM:   6    -0.654105019895E+03    0.62489E-04   -0.67756E-04  9891   0.458E-02    0.100E-01
RMM:   7    -0.654105017473E+03    0.24220E-05   -0.62961E-04 11397   0.535E-02    0.158E-01
RMM:   8    -0.654104915065E+03    0.10241E-03   -0.14389E-04  8365   0.417E-02    0.522E-02
RMM:   9    -0.654104913585E+03    0.14798E-05   -0.87447E-05  7117   0.200E-02
  36 F= -.65410491E+03 E0= -.65403987E+03  d E =-.155692E-02
       N       E                     dE             d eps       ncg     rms          rms(c)
DAV:   1    -0.654062056413E+03    0.42859E-01   -0.23409E+00  9720   0.768E+00    0.324E-01
RMM:   2    -0.654107949752E+03   -0.45893E-01   -0.44725E-01 13262   0.146E+00    0.739E-01
RMM:   3    -0.654106871862E+03    0.10779E-02   -0.23333E-02 10778   0.555E-01    0.598E-01
RMM:   4    -0.654107366152E+03   -0.49429E-03   -0.90269E-03 12344   0.210E-01    0.532E-01
RMM:   5    -0.654105867156E+03    0.14990E-02   -0.16158E-03 10002   0.117E-01    0.195E-01
RMM:   6    -0.654105802382E+03    0.64774E-04   -0.11230E-03 10403   0.547E-02    0.132E-01
RMM:   7    -0.654105915446E+03   -0.11306E-03   -0.85865E-04 11562   0.670E-02    0.257E-01
RMM:   8    -0.654105619862E+03    0.29558E-03   -0.31893E-04  9755   0.545E-02    0.510E-02
RMM:   9    -0.654105637939E+03   -0.18077E-04   -0.16957E-04  7777   0.279E-02    0.703E-02
RMM:  10    -0.654105620738E+03    0.17201E-04   -0.62548E-05  6598   0.234E-02    0.266E-02
RMM:  11    -0.654105619694E+03    0.10444E-05   -0.46981E-05  6354   0.156E-02
  37 F= -.65410562E+03 E0= -.65404062E+03  d E =-.226302E-02
       N       E                     dE             d eps       ncg     rms          rms(c)
DAV:   1    -0.654081466183E+03    0.24155E-01   -0.12237E+00  9648   0.596E+00    0.482E-01
RMM:   2    -0.654132924463E+03   -0.51458E-01   -0.30109E-01 13873   0.126E+00    0.187E+00
RMM:   3    -0.654107849535E+03    0.25075E-01   -0.26215E-02 10689   0.594E-01    0.505E-01
RMM:   4    -0.654108127260E+03   -0.27773E-03   -0.87855E-03 12931   0.202E-01    0.450E-01
RMM:   5    -0.654106852538E+03    0.12747E-02   -0.14301E-03 12182   0.115E-01    0.160E-01
RMM:   6    -0.654107075447E+03   -0.22291E-03   -0.80263E-04 10807   0.690E-02    0.272E-01
RMM:   7    -0.654106755279E+03    0.32017E-03   -0.91324E-04 12366   0.774E-02    0.161E-01
RMM:   8    -0.654106684767E+03    0.70512E-04   -0.27426E-04 10499   0.516E-02    0.920E-02
RMM:   9    -0.654106666541E+03    0.18226E-04   -0.15164E-04  8659   0.263E-02    0.475E-02
RMM:  10    -0.654106665274E+03    0.12669E-05   -0.45318E-05  6402   0.227E-02
  38 F= -.65410667E+03 E0= -.65404178E+03  d E =-.104558E-02
       N       E                     dE             d eps       ncg     rms          rms(c)
DAV:   1    -0.654103160469E+03    0.35061E-02   -0.17370E-01 10176   0.223E+00    0.183E-01
RMM:   2    -0.654110566328E+03   -0.74059E-02   -0.42452E-02 13638   0.468E-01    0.716E-01
RMM:   3    -0.654106885978E+03    0.36804E-02   -0.37813E-03 10022   0.229E-01    0.191E-01
RMM:   4    -0.654106936772E+03   -0.50794E-04   -0.13260E-03 10863   0.818E-02    0.169E-01
RMM:   5    -0.654106777347E+03    0.15942E-03   -0.20387E-04  9413   0.440E-02    0.836E-02
RMM:   6    -0.654106773882E+03    0.34648E-05   -0.10914E-04  7030   0.288E-02    0.743E-02
RMM:   7    -0.654106770288E+03    0.35939E-05   -0.15962E-04 10948   0.331E-02    0.768E-02
RMM:   8    -0.654106747260E+03    0.23029E-04   -0.37156E-05  5923   0.262E-02    0.257E-02
RMM:   9    -0.654106749780E+03   -0.25207E-05   -0.27217E-05  5875   0.170E-02
  39 F= -.65410675E+03 E0= -.65404196E+03  d E =-.113009E-02
       N       E                     dE             d eps       ncg     rms          rms(c)
DAV:   1    -0.654080257326E+03    0.26490E-01   -0.13337E+00  9768   0.636E+00    0.362E-01
RMM:   2    -0.654118414858E+03   -0.38158E-01   -0.29558E-01 13930   0.116E+00    0.126E+00
RMM:   3    -0.654109116746E+03    0.92981E-02   -0.18530E-02 10364   0.554E-01    0.533E-01
RMM:   4    -0.654109438198E+03   -0.32145E-03   -0.74029E-03 12809   0.191E-01    0.484E-01
RMM:   5    -0.654108236452E+03    0.12017E-02   -0.12592E-03 11534   0.105E-01    0.160E-01
RMM:   6    -0.654108243873E+03   -0.74214E-05   -0.70814E-04 10630   0.562E-02    0.161E-01
RMM:   7    -0.654108082460E+03    0.16141E-03   -0.72158E-04 12574   0.608E-02    0.886E-02
RMM:   8    -0.654108120702E+03   -0.38243E-04   -0.19819E-04  9275   0.469E-02    0.122E-01
RMM:   9    -0.654108049026E+03    0.71676E-04   -0.11371E-04  8569   0.294E-02    0.283E-02
RMM:  10    -0.654108062256E+03   -0.13230E-04   -0.58949E-05  6492   0.214E-02    0.591E-02
RMM:  11    -0.654108046166E+03    0.16090E-04   -0.25901E-05  5756   0.190E-02    0.948E-03
RMM:  12    -0.654108046085E+03    0.80894E-07   -0.25182E-05  5724   0.132E-02
  40 F= -.65410805E+03 E0= -.65404335E+03  d E =-.129631E-02
       N       E                     dE             d eps       ncg     rms          rms(c)
DAV:   1    -0.654104734778E+03    0.33114E-02   -0.16447E-01  9888   0.225E+00    0.129E-01
RMM:   2    -0.654109633633E+03   -0.48989E-02   -0.37447E-02 13667   0.411E-01    0.456E-01
RMM:   3    -0.654108378246E+03    0.12554E-02   -0.24158E-03  9490   0.202E-01    0.186E-01
RMM:   4    -0.654108421244E+03   -0.42998E-04   -0.95326E-04 10565   0.713E-02    0.169E-01
RMM:   5    -0.654108277432E+03    0.14381E-03   -0.15744E-04  7960   0.397E-02    0.561E-02
RMM:   6    -0.654108277520E+03   -0.88039E-07   -0.88468E-05  6875   0.226E-02
  41 F= -.65410828E+03 E0= -.65404364E+03  d E =-.152774E-02
       N       E                     dE             d eps       ncg     rms          rms(c)
DAV:   1    -0.654093466670E+03    0.14811E-01   -0.64572E-01  9240   0.449E+00    0.262E-01
RMM:   2    -0.654113760031E+03   -0.20293E-01   -0.15554E-01 13866   0.863E-01    0.918E-01
RMM:   3    -0.654108739349E+03    0.50207E-02   -0.11249E-02 10445   0.380E-01    0.358E-01
RMM:   4    -0.654108968856E+03   -0.22951E-03   -0.36692E-03 12066   0.133E-01    0.346E-01
RMM:   5    -0.654108386931E+03    0.58193E-03   -0.62088E-04 10348   0.755E-02    0.123E-01
RMM:   6    -0.654108365821E+03    0.21110E-04   -0.35411E-04  9427   0.397E-02    0.101E-01
RMM:   7    -0.654108330197E+03    0.35623E-04   -0.39933E-04 12549   0.460E-02    0.103E-01
RMM:   8    -0.654108297245E+03    0.32952E-04   -0.85629E-05  7487   0.385E-02    0.566E-02
RMM:   9    -0.654108288034E+03    0.92119E-05   -0.70325E-05  8229   0.194E-02
  42 F= -.65410829E+03 E0= -.65404371E+03  d E =-.153825E-02
       N       E                     dE             d eps       ncg     rms          rms(c)
DAV:   1    -0.654105553484E+03    0.27438E-02   -0.12250E-01  9792   0.195E+00    0.118E-01
RMM:   2    -0.654109850778E+03   -0.42973E-02   -0.29701E-02 13990   0.378E-01    0.505E-01
RMM:   3    -0.654108502430E+03    0.13483E-02   -0.22131E-03  9549   0.176E-01    0.188E-01
RMM:   4    -0.654108442952E+03    0.59478E-04   -0.68768E-04 10593   0.672E-02    0.123E-01
RMM:   5    -0.654108396458E+03    0.46494E-04   -0.13574E-04  7493   0.366E-02    0.105E-01
RMM:   6    -0.654108347298E+03    0.49160E-04   -0.49214E-05  5856   0.238E-02    0.319E-02
RMM:   7    -0.654108347920E+03   -0.62216E-06   -0.79207E-05  7550   0.243E-02
  43 F= -.65410835E+03 E0= -.65404376E+03  d E =-.159814E-02
       N       E                     dE             d eps       ncg     rms          rms(c)
DAV:   1    -0.654089293277E+03    0.19054E-01   -0.87921E-01  9744   0.535E+00    0.225E-01
RMM:   2    -0.654109955967E+03   -0.20663E-01   -0.20278E-01 13419   0.960E-01    0.419E-01
RMM:   3    -0.654109582356E+03    0.37361E-03   -0.10205E-02 10139   0.399E-01    0.341E-01
RMM:   4    -0.654109958722E+03   -0.37637E-03   -0.38352E-03 11857   0.141E-01    0.368E-01
RMM:   5    -0.654109232982E+03    0.72574E-03   -0.67186E-04  9439   0.789E-02    0.101E-01
RMM:   6    -0.654109262545E+03   -0.29563E-04   -0.40406E-04  9388   0.375E-02    0.116E-01
RMM:   7    -0.654109198887E+03    0.63658E-04   -0.38678E-04 11186   0.416E-02    0.103E-01
RMM:   8    -0.654109164251E+03    0.34636E-04   -0.65758E-05  6695   0.328E-02    0.568E-02
RMM:   9    -0.654109160567E+03    0.36839E-05   -0.41166E-05  6175   0.202E-02
  44 F= -.65410916E+03 E0= -.65404468E+03  d E =-.812647E-03
       N       E                     dE             d eps       ncg     rms          rms(c)
DAV:   1    -0.654071810406E+03    0.37354E-01   -0.16487E+00  9744   0.730E+00    0.308E-01
RMM:   2    -0.654110745277E+03   -0.38935E-01   -0.38263E-01 13419   0.132E+00    0.566E-01
RMM:   3    -0.654110077583E+03    0.66769E-03   -0.19149E-02 10267   0.544E-01    0.469E-01
RMM:   4    -0.654110810226E+03   -0.73264E-03   -0.73488E-03 12396   0.193E-01    0.506E-01
RMM:   5    -0.654109473841E+03    0.13364E-02   -0.13781E-03 10332   0.106E-01    0.152E-01
RMM:   6    -0.654109508083E+03   -0.34242E-04   -0.82728E-04 10075   0.498E-02    0.152E-01
RMM:   7    -0.654109384737E+03    0.12335E-03   -0.72328E-04 12120   0.582E-02    0.123E-01
RMM:   8    -0.654109357379E+03    0.27358E-04   -0.17017E-04  8943   0.446E-02    0.922E-02
RMM:   9    -0.654109333054E+03    0.24325E-04   -0.99046E-05  7758   0.249E-02    0.453E-02
RMM:  10    -0.654109330262E+03    0.27914E-05   -0.37349E-05  6104   0.200E-02
  45 F= -.65410933E+03 E0= -.65404501E+03  d E =-.982343E-03
       N       E                     dE             d eps       ncg     rms          rms(c)
DAV:   1    -0.654105400536E+03    0.39325E-02   -0.17667E-01  9936   0.239E+00    0.996E-02
RMM:   2    -0.654109516450E+03   -0.41159E-02   -0.40914E-02 13523   0.429E-01    0.171E-01
RMM:   3    -0.654109516476E+03   -0.25640E-07   -0.19180E-03  9322   0.178E-01    0.160E-01
RMM:   4    -0.654109555520E+03   -0.39045E-04   -0.71087E-04  9819   0.638E-02    0.154E-01
RMM:   5    -0.654109425647E+03    0.12987E-03   -0.11165E-04  6848   0.375E-02    0.490E-02
RMM:   6    -0.654109426904E+03   -0.12571E-05   -0.61011E-05  6155   0.203E-02
  46 F= -.65410943E+03 E0= -.65404507E+03  d E =-.107898E-02
       N       E                     dE             d eps       ncg     rms          rms(c)
DAV:   1    -0.654085396512E+03    0.24029E-01   -0.10656E+00 10872   0.623E+00    0.461E-01
RMM:   2    -0.654131830364E+03   -0.46434E-01   -0.28555E-01 13758   0.117E+00    0.170E+00
RMM:   3    -0.654110124978E+03    0.21705E-01   -0.23216E-02 10488   0.633E-01    0.343E-01
RMM:   4    -0.654111817418E+03   -0.16924E-02   -0.83834E-03 13033   0.203E-01    0.598E-01
RMM:   5    -0.654109942849E+03    0.18746E-02   -0.15725E-03 11486   0.120E-01    0.174E-01
RMM:   6    -0.654110033039E+03   -0.90190E-04   -0.82942E-04 10596   0.657E-02    0.224E-01
RMM:   7    -0.654109791783E+03    0.24126E-03   -0.64398E-04 12199   0.680E-02    0.134E-01
RMM:   8    -0.654109788442E+03    0.33409E-05   -0.25015E-04 10170   0.524E-02    0.130E-01
RMM:   9    -0.654109722276E+03    0.66166E-04   -0.15610E-04  9594   0.302E-02    0.467E-02
RMM:  10    -0.654109718928E+03    0.33482E-05   -0.58272E-05  6613   0.220E-02
  47 F= -.65410972E+03 E0= -.65404535E+03  d E =-.292024E-03
       N       E                     dE             d eps       ncg     rms          rms(c)
DAV:   1    -0.654106643746E+03    0.30785E-02   -0.14253E-01 11472   0.228E+00    0.165E-01
RMM:   2    -0.654112659153E+03   -0.60154E-02   -0.37351E-02 13713   0.428E-01    0.608E-01
RMM:   3    -0.654109822763E+03    0.28364E-02   -0.29795E-03  9934   0.230E-01    0.130E-01
RMM:   4    -0.654110018523E+03   -0.19576E-03   -0.11358E-03 11458   0.775E-02    0.206E-01
RMM:   5    -0.654109789666E+03    0.22886E-03   -0.20237E-04  9110   0.474E-02    0.631E-02
RMM:   6    -0.654109797640E+03   -0.79737E-05   -0.96118E-05  7288   0.283E-02
  48 F= -.65410980E+03 E0= -.65404544E+03  d E =-.370736E-03
       N       E                     dE             d eps       ncg     rms          rms(c)
DAV:   1    -0.654099867176E+03    0.99225E-02   -0.36991E-01  9456   0.375E+00    0.179E-01
RMM:   2    -0.654112011838E+03   -0.12145E-01   -0.10324E-01 13645   0.686E-01    0.639E-01
RMM:   3    -0.654110334611E+03    0.16772E-02   -0.58854E-03  9956   0.325E-01    0.327E-01
RMM:   4    -0.654110325528E+03    0.90832E-05   -0.21673E-03 11034   0.118E-01    0.237E-01
RMM:   5    -0.654110023952E+03    0.30158E-03   -0.38096E-04  9056   0.621E-02    0.117E-01
RMM:   6    -0.654109979796E+03    0.44156E-04   -0.19807E-04  7939   0.311E-02    0.562E-02
RMM:   7    -0.654109979224E+03    0.57214E-06   -0.19408E-04 10014   0.323E-02    0.859E-02
RMM:   8    -0.654109946479E+03    0.32745E-04   -0.40245E-05  5793   0.261E-02    0.321E-02
RMM:   9    -0.654109955571E+03   -0.90918E-05   -0.33191E-05  5796   0.201E-02
  49 F= -.65410996E+03 E0= -.65404563E+03  d E =-.157931E-03
       N       E                     dE             d eps       ncg     rms          rms(c)
DAV:   1    -0.654109454077E+03    0.49240E-03   -0.18137E-02 10128   0.832E-01    0.409E-02
RMM:   2    -0.654110064727E+03   -0.61065E-03   -0.50192E-03 12899   0.154E-01    0.154E-01
RMM:   3    -0.654109961198E+03    0.10353E-03   -0.32081E-04  7767   0.822E-02    0.697E-02
RMM:   4    -0.654109965985E+03   -0.47873E-05   -0.12779E-04  7350   0.309E-02    0.561E-02
RMM:   5    -0.654109954842E+03    0.11143E-04   -0.27895E-05  5716   0.201E-02    0.341E-02
RMM:   6    -0.654109950844E+03    0.39978E-05   -0.12270E-05  5361   0.147E-02
  50 F= -.65410995E+03 E0= -.65404562E+03  d E =-.153204E-03
       N       E                     dE             d eps       ncg     rms          rms(c)
DAV:   1    -0.654109767118E+03    0.18772E-03   -0.70763E-03 10080   0.521E-01    0.337E-02
RMM:   2    -0.654110182278E+03   -0.41516E-03   -0.20342E-03 12357   0.997E-02    0.218E-01
RMM:   3    -0.654109958719E+03    0.22356E-03   -0.16592E-04  7153   0.601E-02    0.342E-02
RMM:   4    -0.654109964136E+03   -0.54170E-05   -0.42923E-05  5809   0.219E-02
  51 F= -.65410996E+03 E0= -.65404565E+03  d E =-.166496E-03
       N       E                     dE             d eps       ncg     rms          rms(c)
DAV:   1    -0.654109918088E+03    0.40631E-04   -0.18510E-03 11640   0.268E-01    0.278E-02
RMM:   2    -0.654110209297E+03   -0.29121E-03   -0.56584E-04  9244   0.575E-02    0.229E-01
RMM:   3    -0.654109958775E+03    0.25052E-03   -0.85826E-05  6302   0.409E-02    0.242E-02
RMM:   4    -0.654109958770E+03    0.51368E-08   -0.18585E-05  5530   0.146E-02
  52 F= -.65410996E+03 E0= -.65404563E+03  d E =-.161129E-03
       N       E                     dE             d eps       ncg     rms          rms(c)
DAV:   1    -0.654109939370E+03    0.19405E-04   -0.88919E-04 11136   0.186E-01    0.197E-02
RMM:   2    -0.654110044388E+03   -0.10502E-03   -0.27566E-04  8510   0.404E-02    0.118E-01
RMM:   3    -0.654109963026E+03    0.81362E-04   -0.40029E-05  5753   0.286E-02    0.353E-02
RMM:   4    -0.654109957562E+03    0.54641E-05   -0.92998E-06  5021   0.124E-02
  53 F= -.65410996E+03 E0= -.65404563E+03  d E =-.159922E-03
       N       E                     dE             d eps       ncg     rms          rms(c)
DAV:   1    -0.654109954503E+03    0.85233E-05   -0.22426E-04 11568   0.935E-02    0.185E-02
RMM:   2    -0.654110097956E+03   -0.14345E-03   -0.94363E-05  6649   0.287E-02    0.174E-01
RMM:   3    -0.654109958964E+03    0.13899E-03   -0.31581E-05  5645   0.264E-02    0.133E-02
RMM:   4    -0.654109957863E+03    0.11011E-05   -0.44729E-06  4373   0.800E-03
  54 F= -.65410996E+03 E0= -.65404563E+03  d E =-.160223E-03
       N       E                     dE             d eps       ncg     rms          rms(c)
DAV:   1    -0.654109957131E+03    0.18336E-05   -0.34841E-05  7512   0.396E-02    0.578E-03
RMM:   2    -0.654109967402E+03   -0.10271E-04   -0.11143E-05  5153   0.123E-02    0.440E-02
RMM:   3    -0.654109958111E+03    0.92911E-05   -0.46419E-06  4351   0.109E-02
  55 F= -.65410996E+03 E0= -.65404563E+03  d E =-.160471E-03
       N       E                     dE             d eps       ncg     rms          rms(c)
DAV:   1    -0.654109957590E+03    0.98116E-05   -0.90917E-06  6072   0.223E-02    0.213E-03
RMM:   2    -0.654109959094E+03   -0.15040E-05   -0.24935E-06  4297   0.711E-03
  56 F= -.65410996E+03 E0= -.65404564E+03  d E =-.161454E-03
       N       E                     dE             d eps       ncg     rms          rms(c)
DAV:   1    -0.654109957940E+03   -0.34991E-06   -0.78361E-06  5352   0.157E-02    0.110E-03
RMM:   2    -0.654109958279E+03   -0.33867E-06   -0.42748E-07  3310   0.263E-03
  57 F= -.65410996E+03 E0= -.65404563E+03  d E =-.160639E-03
       N       E                     dE             d eps       ncg     rms          rms(c)
DAV:   1    -0.654109957994E+03   -0.53660E-07   -0.16867E-06  5280   0.603E-03    0.113E-03
RMM:   2    -0.654109958468E+03   -0.47418E-06   -0.17446E-07  2625   0.187E-03
  58 F= -.65410996E+03 E0= -.65404563E+03  d E =-.160828E-03
       N       E                     dE             d eps       ncg     rms          rms(c)
DAV:   1    -0.654110040270E+03   -0.82276E-04   -0.77466E-03 10128   0.310E-01    0.384E-02
RMM:   2    -0.654110161851E+03   -0.12158E-03   -0.85576E-04 12599   0.823E-02    0.107E-01
RMM:   3    -0.654110088890E+03    0.72961E-04   -0.80088E-05  6900   0.453E-02    0.468E-02
RMM:   4    -0.654110097116E+03   -0.82269E-05   -0.32578E-05  5697   0.247E-02
  59 F= -.65411010E+03 E0= -.65404576E+03  d E =-.138649E-03
       N       E                     dE             d eps       ncg     rms          rms(c)
DAV:   1    -0.654109889700E+03    0.19919E-03   -0.69674E-02  9792   0.927E-01    0.123E-01
RMM:   2    -0.654111317188E+03   -0.14275E-02   -0.81536E-03 12830   0.251E-01    0.425E-01
RMM:   3    -0.654110365743E+03    0.95144E-03   -0.96613E-04 10703   0.128E-01    0.172E-01
RMM:   4    -0.654110358999E+03    0.67446E-05   -0.42716E-04 10160   0.633E-02    0.153E-01
RMM:   5    -0.654110199912E+03    0.15909E-03   -0.20205E-04 10271   0.445E-02    0.795E-02
RMM:   6    -0.654110208325E+03   -0.84131E-05   -0.86351E-05  6721   0.329E-02
  60 F= -.65411021E+03 E0= -.65404591E+03  d E =-.249857E-03
       N       E                     dE             d eps       ncg     rms          rms(c)
DAV:   1    -0.654109923598E+03    0.27631E-03   -0.18209E-02 11184   0.722E-01    0.622E-02
RMM:   2    -0.654111178336E+03   -0.12547E-02   -0.40868E-03 13141   0.164E-01    0.441E-01
RMM:   3    -0.654110253575E+03    0.92476E-03   -0.49242E-04  8284   0.904E-02    0.503E-02
RMM:   4    -0.654110287593E+03   -0.34018E-04   -0.16941E-04  9141   0.323E-02    0.911E-02
RMM:   5    -0.654110247236E+03    0.40357E-04   -0.32919E-05  6010   0.215E-02    0.230E-02
RMM:   6    -0.654110250886E+03   -0.36504E-05   -0.16792E-05  5516   0.163E-02
  61 F= -.65411025E+03 E0= -.65404595E+03  d E =-.425616E-04
       N       E                     dE             d eps       ncg     rms          rms(c)
DAV:   1    -0.654110104499E+03    0.14274E-03   -0.83168E-03  9960   0.492E-01    0.327E-02
RMM:   2    -0.654110418052E+03   -0.31355E-03   -0.18439E-03 13166   0.109E-01    0.184E-01
RMM:   3    -0.654110270951E+03    0.14710E-03   -0.16511E-04  7309   0.561E-02    0.234E-02
RMM:   4    -0.654110279611E+03   -0.86597E-05   -0.53679E-05  6958   0.205E-02
  62 F= -.65411028E+03 E0= -.65404595E+03  d E =-.712862E-04
       N       E                     dE             d eps       ncg     rms          rms(c)
DAV:   1    -0.654110021939E+03    0.24901E-03   -0.18897E-02  9720   0.753E-01    0.603E-02
RMM:   2    -0.654110786652E+03   -0.76471E-03   -0.45206E-03 13791   0.168E-01    0.262E-01
RMM:   3    -0.654110442703E+03    0.34395E-03   -0.38831E-04  8353   0.800E-02    0.103E-01
RMM:   4    -0.654110413423E+03    0.29281E-04   -0.14471E-04  8783   0.360E-02    0.548E-02
RMM:   5    -0.654110398801E+03    0.14621E-04   -0.36566E-05  5822   0.217E-02    0.478E-02
RMM:   6    -0.654110390730E+03    0.80717E-05   -0.19388E-05  5520   0.194E-02
  63 F= -.65411039E+03 E0= -.65404605E+03  d E =-.111119E-03
       N       E                     dE             d eps       ncg     rms          rms(c)
DAV:   1    -0.654107047661E+03    0.33511E-02   -0.16591E-01  9072   0.226E+00    0.179E-01
RMM:   2    -0.654112484297E+03   -0.54366E-02   -0.39872E-02 13925   0.486E-01    0.589E-01
RMM:   3    -0.654110611469E+03    0.18728E-02   -0.30240E-03 10081   0.221E-01    0.259E-01
RMM:   4    -0.654110622885E+03   -0.11416E-04   -0.12010E-03 11437   0.935E-02    0.234E-01
RMM:   5    -0.654110404207E+03    0.21868E-03   -0.36906E-04 10248   0.614E-02    0.181E-01
RMM:   6    -0.654110255053E+03    0.14915E-03   -0.16162E-04  8066   0.448E-02    0.713E-02
RMM:   7    -0.654110284797E+03   -0.29744E-04   -0.23642E-04 11820   0.365E-02    0.117E-01
RMM:   8    -0.654110217975E+03    0.66822E-04   -0.53673E-05  6203   0.321E-02    0.137E-02
RMM:   9    -0.654110221596E+03   -0.36209E-05   -0.45257E-05  6293   0.145E-02
  64 F= -.65411022E+03 E0= -.65404576E+03  d E =0.580149E-04
       N       E                     dE             d eps       ncg     rms          rms(c)
DAV:   1    -0.654109139269E+03    0.10787E-02   -0.68830E-02  9168   0.145E+00    0.116E-01
RMM:   2    -0.654111434513E+03   -0.22952E-02   -0.16294E-02 13976   0.313E-01    0.406E-01
RMM:   3    -0.654110613287E+03    0.82123E-03   -0.12239E-03  9480   0.143E-01    0.179E-01
RMM:   4    -0.654110580992E+03    0.32295E-04   -0.47535E-04 10037   0.641E-02    0.136E-01
RMM:   5    -0.654110470694E+03    0.11030E-03   -0.12193E-04  7808   0.388E-02    0.914E-02
RMM:   6    -0.654110444646E+03    0.26048E-04   -0.50469E-05  6074   0.280E-02    0.620E-02
RMM:   7    -0.654110457435E+03   -0.12789E-04   -0.78268E-05  7540   0.271E-02    0.887E-02
RMM:   8    -0.654110419265E+03    0.38170E-04   -0.24655E-05  5452   0.214E-02    0.127E-02
RMM:   9    -0.654110422618E+03   -0.33527E-05   -0.13516E-05  5374   0.147E-02
  65 F= -.65411042E+03 E0= -.65404604E+03  d E =-.143007E-03
