HECN                                    
           1
     8.932500    0.000000    0.000000
     0.005753    9.055598    0.000000
     0.032102   -0.015743    8.937128
   Hf   Nb   Zr   N    C    Cr   Ta
   7   6   7  13  19   6   6
Direct configuration=     1
   0.99688001  0.99204997  0.99924002
   0.25398003  0.99714995  0.24912000
   0.24803003  0.50165000  0.24955001
   0.50501006  0.49745998  0.99834003
   0.50479003  0.24631001  0.74710002
   0.99427992  0.50449999  0.49779000
   0.49950005  0.75481999  0.74817004
   0.99437004  0.23617001  0.26379999
   0.75718000  0.74102998  0.01100000
   0.00201000  0.25541000  0.73894001
   0.75307001  0.26163001  0.50533002
   0.99514004  0.74492004  0.74511997
   0.25679999  0.49462002  0.74545002
   0.24788999  0.24839000  0.99657997
   0.50833000  0.25676999  0.25376001
   0.74879004  0.98787999  0.26967001
   0.75719000  0.25603001  0.99591997
   0.24762001  0.74973999  0.99974006
   0.25272001  0.24823001  0.50015003
   0.24457999  0.75048999  0.49983999
   0.24982001  0.24942998  0.24825000
   0.26146999  0.99984002  0.99295996
   0.00281000  0.25024000  0.00130000
   0.75313998  0.24617000  0.25492002
   0.74767001  0.99748000  0.01202000
   0.50714994  0.99977000  0.24673000
   0.99051999  0.48088002  0.24100998
   0.50519005  0.76130999  0.00855000
   0.98896989  0.00202000  0.73708999
   0.75744996  0.24437997  0.74896999
   0.73632001  0.00417000  0.51063000
   0.50563996  0.23264999  0.49544997
   0.50008998  0.00061000  0.73471998
   0.99720000  0.99771992  0.25899999
   0.50427997  0.24673000  0.00262000
   0.25133999  0.74958002  0.24910999
   0.24328000  0.50072997  0.99510994
   0.99837005  0.74313996  0.00460000
   0.75633000  0.73891003  0.25767000
   0.75839004  0.50315998  0.00288000
   0.50700002  0.50333002  0.25878999
   0.24900999  0.25315000  0.74854000
   0.24446000  0.99823996  0.50287998
   0.99804009  0.24229999  0.50128003
   0.24177002  0.75340997  0.75018002
   0.25841001  0.50062002  0.50129001
   0.99000004  0.76215003  0.49746000
   0.99203996  0.50055999  0.75138002
   0.75036005  0.74888000  0.74756004
   0.74036002  0.50197000  0.50067003
   0.50575006  0.74958002  0.49720000
   0.50501003  0.50217998  0.73912003
   0.51588997  0.01358000  0.98075008
   0.99841994  0.50976998  0.98613004
   0.50379003  0.73926997  0.25905001
   0.23780002  0.01082000  0.74607998
   0.47957999  0.98308000  0.49717999
   0.74279003  0.97869994  0.76450995
   0.99864998  0.77573999  0.26102000
   0.73551001  0.51468004  0.26666001
   0.02362000  0.99783001  0.49557002
   0.50539000  0.52833005  0.49917999
   0.73876003  0.52828003  0.73814999
   0.75400003  0.72937999  0.49116997
HECN                                    
           1
     9.025216    0.009079   -0.009755
     0.015017    9.110898   -0.005100
     0.022659   -0.020834    9.022472
   Hf   Nb   Zr   N    C    Cr   Ta
   7   6   7  13  19   6   6
Direct configuration=     2
   0.99524444  0.99537203  0.99354087
   0.26478522  0.99863991  0.24609764
   0.24581211  0.50113958  0.24708588
   0.50172106  0.50056155  0.99964289
   0.50568493  0.23769188  0.74516142
   0.99836127  0.49892070  0.49880504
   0.49728971  0.76712263  0.75235391
   0.99456914  0.23718564  0.26113689
   0.75433969  0.74433214  0.00945600
   0.00244430  0.25342151  0.73987318
   0.75275814  0.25732294  0.50512255
   0.99764109  0.74714669  0.75001439
   0.25216493  0.49564287  0.74906428
   0.24758869  0.24695046  0.99566284
   0.50630799  0.24907618  0.25300508
   0.73763271  0.99347724  0.26702900
   0.75774497  0.25263385  0.99554909
   0.25176599  0.75096052  0.99832552
   0.25558097  0.24783063  0.50085203
   0.25151346  0.75193757  0.50128386
   0.24922507  0.24972500  0.24824125
   0.25835035  0.00027857  0.99439481
   0.00241890  0.24815823  0.00061026
   0.75412937  0.24855208  0.25555224
   0.74706292  0.99671737  0.00457473
   0.50094934  0.99721096  0.24849845
   0.99270235  0.48488345  0.24408206
   0.50685191  0.75926009  0.00529927
   0.98938580  0.00204078  0.74288264
   0.75303394  0.24523249  0.74796422
   0.73794967  0.00237915  0.51265771
   0.50612053  0.23405082  0.50175669
   0.50293187  0.00059695  0.73773896
   0.00147194  0.00372453  0.25105113
   0.50477473  0.24607923 -0.00267370
   0.25176918  0.74904191  0.24926882
   0.24398001  0.50063404  0.99731149
   0.99626771  0.74288287  0.00285094
   0.75174939  0.74500426  0.25099739
   0.75853430  0.50556804  0.00224621
   0.49849288  0.50632744  0.25229143
   0.25045367  0.25021871  0.74854570
   0.25861174  0.99860191  0.50440344
   0.99782425  0.24694673  0.50217068
   0.24300161  0.75375431  0.75016481
   0.25404513  0.50039763  0.49814353
   0.99415647  0.75533630  0.50191406
   0.99424233  0.50070342  0.75333978
   0.74806937  0.76084355  0.75111805
   0.74870487  0.49570053  0.50228372
   0.50293330  0.76142497  0.49505944
   0.50043672  0.50179779  0.74565554
   0.51804792  0.01449499  0.98027827
   0.99940398  0.51217767  0.98213026
   0.50281561  0.74235002  0.25753689
   0.23908956  0.01272725  0.74621657
   0.47823419  0.98168860  0.49909922
   0.73996833  0.97521495  0.76604301
   0.00462177  0.75891388  0.25088088
   0.74879062  0.50147568  0.25219066
   0.00701881  0.00372892  0.50845363
   0.49244826  0.51406415  0.49937234
   0.74847905  0.51044704  0.74864551
   0.74949986  0.75127596  0.49969480
HECN                                    
           1
     9.000802    0.006688   -0.007186
     0.012578    9.096337   -0.003757
     0.025145   -0.019494    8.999999
   Hf   Nb   Zr   N    C    Cr   Ta
   7   6   7  13  19   6   6
Direct configuration=     3
   0.99567319  0.99450295  0.99502736
   0.26197046  0.99825318  0.24688270
   0.24639069  0.50127294  0.24772930
   0.50257869  0.49974876  0.99930353
   0.50544994  0.23994795  0.74566809
   0.99729582  0.50038184  0.49853996
   0.49786788  0.76390158  0.75126143
   0.99451827  0.23692026  0.26183130
   0.75508124  0.74346737  0.00985903
   0.00233032  0.25394192  0.73962995
   0.75283832  0.25845015  0.50517739
   0.99698850  0.74656388  0.74873674
   0.25337216  0.49537346  0.74812273
   0.24766709  0.24732727  0.99590235
   0.50683311  0.25108941  0.25320369
   0.74054273  0.99200979  0.26772017
   0.75759953  0.25352290  0.99564617
   0.25068620  0.75064236  0.99869312
   0.25483505  0.24793580  0.50066818
   0.24970647  0.75156030  0.50090509
   0.24938020  0.24964763  0.24824365
   0.25916309  0.00016278  0.99402137
   0.00252046  0.24870308  0.00079058
   0.75387198  0.24792880  0.25538671
   0.74722303  0.99691786  0.00651697
   0.50256413  0.99787886  0.24803931
   0.99213380  0.48383579  0.24327956
   0.50641917  0.75979748  0.00614700
   0.98927578  0.00203464  0.74137162
   0.75418534  0.24500836  0.74822767
   0.73752391  0.00284799  0.51212863
   0.50599389  0.23368342  0.50011136
   0.50219037  0.00060068  0.73695072
   0.00036245  0.00215521  0.25312235
   0.50464710  0.24625042 -0.00129298
   0.25165714  0.74918283  0.24922735
   0.24379694  0.50065902  0.99673708
   0.99681603  0.74294986  0.00330778
   0.75294668  0.74340901  0.25273820
   0.75849753  0.50493792  0.00241113
   0.50071261  0.50554166  0.25398841
   0.25007664  0.25098627  0.74854424
   0.25492324  0.99851063  0.50400203
   0.99788150  0.24573039  0.50193774
   0.24268073  0.75366451  0.75016838
   0.25518351  0.50045515  0.49896549
   0.99307015  0.75712006  0.50075214
   0.99366785  0.50066617  0.75282797
   0.74866856  0.75771131  0.75018889
   0.74652794  0.49734333  0.50186139
   0.50367117  0.75832444  0.49561681
   0.50162665  0.50189571  0.74395222
   0.51748590  0.01425614  0.98040059
   0.99914930  0.51154834  0.98317289
   0.50307081  0.74154386  0.25793138
   0.23875396  0.01222840  0.74618030
   0.47858402  0.98205215  0.49859921
   0.74070234  0.97612611  0.76564445
   0.00306377  0.76332065  0.25352628
   0.74533002  0.50493706  0.25596292
   0.01134330  0.00217892  0.50509699
   0.49581720  0.51779449  0.49932792
   0.74593839  0.51511539  0.74590785
   0.75067614  0.74554289  0.49746930
HECN                                    
           1
     8.858122    0.016506   -0.007382
     0.022446    8.885673   -0.017607
     0.024447   -0.032765    8.883716
   Hf   Nb   Zr   N    C    Cr   Ta
   7   6   7  13  19   6   6
Direct configuration=     4
   0.99515924  0.99560239  0.99095605
   0.26581710  0.99778624  0.24615534
   0.24527566  0.50040890  0.24510620
   0.50017097  0.50033816  0.99964726
   0.50509520  0.23468426  0.74613613
   0.00018130  0.49806791  0.50179343
   0.49775785  0.76828785  0.75306495
   0.99442558  0.23651815  0.26176485
   0.75261746  0.74548229  0.00714249
   0.00337989  0.25206608  0.73972107
   0.75397288  0.25554962  0.50460412
   0.99798509  0.74693095  0.75268741
   0.24946376  0.49530085  0.75203619
   0.24828175  0.24628137  0.99466986
   0.50531776  0.24910904  0.25105371
   0.73719757  0.99371897  0.26293950
   0.75560169  0.25143537  0.99537259
   0.25297185  0.75220122  0.99759537
   0.25447249  0.24663635  0.50167542
   0.25157296  0.75368288  0.50150713
   0.24902199  0.24893007  0.24806943
   0.25586369  0.00067615  0.99593531
   0.00232261  0.24651609  0.00029001
   0.75412639  0.24996356  0.25490256
   0.74670155  0.99689658  0.00009659
   0.49831322  0.99625322  0.24905493
   0.99389027  0.48884447  0.24632753
   0.50713279  0.75813483  0.00283522
   0.98974285  0.00255722  0.74680272
   0.75183728  0.24756883  0.74739168
   0.74164276  0.00044342  0.51342506
   0.50654211  0.23721671  0.50343139
   0.50549435  0.00124642  0.74093758
   0.00228506 -0.00059520  0.24996380
   0.50473732  0.24563840 -0.00401849
   0.25145146  0.74928010  0.24882248
   0.24434254  0.50065882  0.99764695
   0.99650198  0.74368309  0.00172544
   0.74963511  0.74468741  0.25210775
   0.75840126  0.50514305  0.00166405
   0.49990686  0.50657598  0.25134634
   0.25071297  0.24842572  0.74840734
   0.25771755  0.99964759  0.50603199
   0.99857389  0.24877909  0.50215958
   0.24376078  0.75444562  0.75068337
   0.25213472  0.50017689  0.49726617
   0.99490261  0.75316901  0.50202226
   0.99622449  0.50044074  0.75451827
   0.74787617  0.75914232  0.75271409
   0.74823018  0.49938587  0.50083090
   0.50248190  0.76070998  0.49471716
   0.50059965  0.50195087  0.74663560
   0.52019840  0.01478019  0.97849793
   0.00002688  0.51549946  0.97966037
   0.50245674  0.74188274  0.25782238
   0.23825896  0.01365222  0.74482484
   0.47763631  0.98027043  0.50040355
   0.73699473  0.97409766  0.76809833
   0.00443047  0.76059461  0.24941788
   0.74938544  0.50222108  0.25043417
   0.00820732  0.00352294  0.50914801
   0.49541228  0.51469658  0.49936498
   0.74947911  0.51145642  0.75181321
   0.74768732  0.75064367  0.50014036
HECN                                    
           1
     8.923626    0.011999   -0.007292
     0.017915    8.982389   -0.011249
     0.024767   -0.026672    8.937102
   Hf   Nb   Zr   N    C    Cr   Ta
   7   6   7  13  19   6   6
Direct configuration=     5
   0.99539966  0.99508828  0.99284885
   0.26402242  0.99800822  0.24649393
   0.24579540  0.50081627  0.24632688
   0.50129447  0.50005965  0.99948699
   0.50525783  0.23715761  0.74592232
  -0.00116607  0.49915463  0.50028187
   0.49781152  0.76622502  0.75222288
   0.99446860  0.23670713  0.26179605
   0.75376794  0.74453594  0.00840454
   0.00288925  0.25294819  0.73968005
   0.75344206  0.25691383  0.50487288
   0.99752031  0.74675616  0.75084963
   0.25128690  0.49533017  0.75021611
   0.24799447  0.24677412  0.99524387
   0.50602363  0.25004052  0.25205517
   0.73875908  0.99291732  0.26516183
   0.75653255  0.25241564  0.99550140
   0.25190647  0.75147054  0.99810477
   0.25464090  0.24724617  0.50120790
   0.25070339  0.75268584  0.50122552
   0.24918871  0.24926726  0.24815100
   0.25740309  0.00043180  0.99504479
   0.00241373  0.24754420  0.00052445
   0.75400882  0.24900772  0.25512624
   0.74694492  0.99691086  0.00308280
   0.50029535  0.99701432  0.24858382
   0.99307354  0.48648921  0.24490617
   0.50679905  0.75891897  0.00437677
   0.98952515  0.00230801  0.74427627
   0.75293404  0.24636481  0.74777866
   0.73972001  0.00157477  0.51282379
   0.50628822  0.23555405  0.50188459
   0.50395334  0.00094183  0.73908272
   0.00138674  0.00070070  0.25143487
   0.50469495  0.24592802 -0.00275038
   0.25154747  0.74923456  0.24901072
   0.24408800  0.50065855  0.99722375
   0.99664891  0.74333943  0.00246087
   0.75118065  0.74408530  0.25240009
   0.75844629  0.50504712  0.00201137
   0.50028334  0.50609131  0.25257444
   0.25041474  0.24962958  0.74847289
   0.25641460  0.99911325  0.50508696
   0.99825254  0.24734644  0.50205415
   0.24325735  0.75407870  0.75044325
   0.25355685  0.50030728  0.49805679
   0.99404562  0.75502601  0.50143440
   0.99503168  0.50054682  0.75373222
   0.74824655  0.75846756  0.75153855
   0.74743722  0.49842752  0.50130866
   0.50303799  0.75958882  0.49513386
   0.50107872  0.50192251  0.74538751
   0.51893335  0.01453666  0.97938245
  -0.00038031  0.51364543  0.98129115
   0.50274339  0.74172323  0.25787284
   0.23849067  0.01298374  0.74545424
   0.47807742  0.98110605  0.49956566
   0.73872317  0.97504733  0.76695856
   0.00379151  0.76187944  0.25133073
   0.74749223  0.50350358  0.25300759
   0.00967089  0.00288677  0.50726290
   0.49559950  0.51615232  0.49935003
   0.74782529  0.51317376  0.74906921
   0.74908430  0.74824292  0.49889431
HECN                                    
           1
     8.945021    0.019705   -0.004482
     0.025714    8.973988   -0.021404
     0.027657   -0.036696    8.968864
   Hf   Nb   Zr   N    C    Cr   Ta
   7   6   7  13  19   6   6
Direct configuration=     6
   0.99609633  0.99534552  0.99073814
   0.26331844  0.99736794  0.24680241
   0.24487814  0.49979386  0.24501609
   0.49999648  0.49982916  0.99898300
   0.50455417  0.23610854  0.74673372
   0.00018833  0.49921439  0.50302818
   0.49789043  0.76524258  0.75271802
   0.99471512  0.23631671  0.26192315
   0.75173139  0.74610950  0.00578040
   0.00354715  0.25093738  0.74041784
   0.75432191  0.25503644  0.50397131
   0.99803425  0.74698079  0.75330848
   0.24894610  0.49519450  0.75250497
   0.24853190  0.24575290  0.99479230
   0.50492754  0.25075801  0.25048773
   0.73909565  0.99332772  0.26090111
   0.75458467  0.25123272  0.99557501
   0.25311802  0.75309877  0.99762921
   0.25374315  0.24700109  0.50151104
   0.25011242  0.75326209  0.50145200
   0.24882864  0.24827410  0.24784970
   0.25509895  0.00076599  0.99632732
   0.00222149  0.24640477  0.00027681
   0.75391388  0.25030273  0.25412428
   0.74626684  0.99705389 -0.00130341
   0.49870397  0.99536193  0.24896832
   0.99443783  0.49094922  0.24673366
   0.50687266  0.75838863  0.00235722
   0.98991401  0.00278838  0.74771742
   0.75230320  0.24868952  0.74716766
   0.74374200 -0.00000978  0.51388556
   0.50683968  0.23917502  0.50272462
   0.50664949  0.00146551  0.74249058
   0.00178430 -0.00301592  0.25063866
   0.50423581  0.24525162 -0.00353518
   0.25156648  0.74937339  0.24853850
   0.24399270  0.50074009  0.99722554
   0.99727088  0.74406075  0.00140315
   0.74892260  0.74391819  0.25352200
   0.75859243  0.50421989  0.00133973
   0.50181521  0.50631574  0.25205783
   0.25069455  0.24751155  0.74840790
   0.25559049  0.00008084  0.50700719
   0.99924860  0.24862654  0.50190748
   0.24392933  0.75537910  0.75089076
   0.25239959  0.50009683  0.49756389
   0.99429709  0.75334928  0.50134853
   0.99713977  0.50012099  0.75498121
   0.74836978  0.75636739  0.75308784
   0.74686216  0.50150027  0.50027117
   0.50263124  0.75872427  0.49505672
   0.50139240  0.50208018  0.74583250
   0.52102242  0.01411376  0.97735202
   0.00050073  0.51686844  0.97977965
   0.50209374  0.74163526  0.25796458
   0.23720803  0.01329615  0.74398066
   0.47864921  0.98061788  0.50067186
   0.73560683  0.97515177  0.76916025
   0.00321319  0.76206627  0.25033576
   0.74826472  0.50401766  0.25128096
   0.00970142  0.00226376  0.50750310
   0.49834670  0.51562711  0.49975513
   0.74824300  0.51349071  0.75186139
   0.74829072  0.74862950  0.49921552
HECN                                    
           1
     8.953725    0.022840   -0.003339
     0.028887    8.970570   -0.025536
     0.028833   -0.040774    8.981786
   Hf   Nb   Zr   N    C    Cr   Ta
   7   6   7  13  19   6   6
Direct configuration=     7
   0.99637924  0.99544908  0.98988256
   0.26303293  0.99710761  0.24692725
   0.24450642  0.49937728  0.24448439
   0.49946986  0.49973553  0.99877876
   0.50426887  0.23568198  0.74706224
   0.00073762  0.49923948  0.50414130
   0.49792274  0.76484273  0.75291827
   0.99481529  0.23615770  0.26197446
   0.75090467  0.74674976  0.00471765
   0.00381477  0.25011870  0.74071590
   0.75467978  0.25427128  0.50360486
   0.99824243  0.74707319  0.75430525
   0.24799588  0.49514110  0.75343303
   0.24875044  0.24533668  0.99460871
   0.50448265  0.25104984  0.24985281
   0.73923264  0.99349280  0.25917410
   0.75379457  0.25075175  0.99560455
   0.25360919  0.75376113  0.99743703
   0.25337886  0.24690174  0.50163393
   0.24987234  0.75349704  0.50154415
   0.24868290  0.24786969  0.24772715
   0.25416356  0.00090345  0.99684767
   0.00214391  0.24594076  0.00017593
   0.75387501  0.25082963  0.25371872
   0.74599216  0.99711040 -0.00308127
   0.49805868  0.99468981  0.24912363
   0.99498969  0.49276563  0.24747635
   0.50690298  0.75817175  0.00153831
   0.99007122  0.00298538  0.74911252
   0.75204643  0.24963607  0.74692113
   0.74537469 -0.00065592  0.51431472
   0.50706209  0.24064963  0.50306673
   0.50774306  0.00167934  0.74387191
   0.00194708 -0.00452978  0.25031413
   0.50404982  0.24497601 -0.00385357
   0.25157421  0.74942969  0.24834713
   0.24395400  0.50077333  0.99722632
   0.99752318  0.74435377  0.00097463
   0.74800612  0.74385144  0.25397700
   0.75865212  0.50388270  0.00106706
   0.50243688  0.50640637  0.25184832
   0.25080888  0.24664899  0.74838054
   0.25525545  0.00047598  0.50778614
   0.99965240  0.24914737  0.50184849
   0.24420152  0.75590858  0.75107268
   0.25193007  0.50001132  0.49736413
   0.99439976  0.75266640  0.50131291
   0.99799530  0.49994742  0.75548704
   0.74842034  0.75551288  0.75371488
   0.74662782  0.50275119  0.49985210
   0.50246649  0.75837235  0.49502510
   0.50151959  0.50214447  0.74601292
   0.52187064  0.01393993  0.97652848
   0.00085732  0.51817984  0.97916831
   0.50183011  0.74159971  0.25800181
   0.23668757  0.01342314  0.74338363
   0.47888130  0.98041940  0.50111998
   0.73434180  0.97519637  0.77005319
   0.00297855  0.76214210  0.24993260
   0.74857826  0.50422594  0.25058119
   0.00971400  0.00201017  0.50760017
   0.49946175  0.51541247  0.49991874
   0.74841205  0.51362087  0.75299334
   0.74796848  0.74878733  0.49934601
HECN                                    
           1
     8.953417    0.021627   -0.005042
     0.027593    9.003456   -0.021822
     0.027115   -0.037246    8.966974
   Hf   Nb   Zr   N    C    Cr   Ta
   7   6   7  13  19   6   6
Direct configuration=     8
   0.99751964  0.99532720  0.99041270
   0.26148675  0.99691154  0.24859280
   0.24386401  0.49955300  0.24506573
   0.49925158  0.49950133  0.99822243
   0.50412058  0.23801687  0.74618068
  -0.00030486  0.50040499  0.50516678
   0.49794554  0.76270039  0.75184690
   0.99477807  0.23551381  0.26194749
   0.75023643  0.74720779  0.00363573
   0.00402664  0.24842594  0.74076413
   0.75528222  0.25386526  0.50257974
   0.99888244  0.74740203  0.75479634
   0.24790344  0.49469811  0.75330470
   0.24812498  0.24430480  0.99478989
   0.50444151  0.25150177  0.25023391
   0.73945458  0.99371270  0.25739403
   0.75379425  0.25062414  0.99554331
   0.25409343  0.75460177  0.99789363
   0.25380122  0.24843744  0.50162857
   0.24979445  0.75207628  0.50174713
   0.24837829  0.24715600  0.24756687
   0.25207467  0.00099206  0.99810715
   0.00157686  0.24515184  0.00002844
   0.75356122  0.25130423  0.25271903
   0.74601598  0.99701799 -0.00490557
   0.49849443  0.99367435  0.24972327
   0.99556667  0.49544674  0.24880081
   0.50656889  0.75814703  0.00035804
   0.99080872  0.00296817  0.74857487
   0.75209154  0.25112329  0.74645809
   0.74871058 -0.00070971  0.51369446
   0.50759082  0.24384910  0.50253589
   0.51005378  0.00056441  0.74604516
   0.00124815 -0.00420557  0.25065827
   0.50319651  0.24442428 -0.00368751
   0.25119578  0.74891913  0.24828413
   0.24337894  0.50108849  0.99690999
   0.99773663  0.74507113  0.00115601
   0.74693674  0.74411650  0.25400287
   0.75880825  0.50381790  0.00081274
   0.50344397  0.50643219  0.25197800
   0.25076335  0.24560849  0.74847734
   0.25498069 -0.00001219  0.50864598
   0.99988396  0.24838170  0.50205498
   0.24434060  0.75715573  0.75110673
   0.25312876  0.50007002  0.49770982
   0.99367115  0.75293410  0.50098549
   0.99807336  0.49962278  0.75644338
   0.74870692  0.75485742  0.75386183
   0.74722053  0.50293152  0.49998239
   0.50217854  0.75743373  0.49555991
   0.50216003  0.50224558  0.74561355
   0.52361904  0.01331790  0.97428054
   0.00188315  0.52072507  0.97888625
   0.50140259  0.74134795  0.25877020
   0.23443807  0.01294937  0.74164971
   0.47934869  0.98016997  0.50210022
   0.73168317  0.97401641  0.77175735
   0.00223213  0.76039366  0.24980205
   0.74913764  0.50501675  0.24998900
   0.00852150  0.00161556  0.50788123
   0.49915977  0.51455867  0.50023228
   0.74871032  0.51319957  0.75340004
   0.74882210  0.75032326  0.49924221
HECN                                    
           1
     8.953261    0.021008   -0.005910
     0.026933    9.020226   -0.019928
     0.026239   -0.035447    8.959420
   Hf   Nb   Zr   N    C    Cr   Ta
   7   6   7  13  19   6   6
Direct configuration=     9
   0.99810126  0.99526525  0.99068364
   0.26069838  0.99681148  0.24944346
   0.24353647  0.49964213  0.24536258
   0.49914019  0.49938242  0.99793829
   0.50404506  0.23920339  0.74572986
  -0.00083631  0.50099690  0.50569025
   0.49795689  0.76161209  0.75130011
   0.99475904  0.23518665  0.26193385
   0.74989557  0.74744068  0.00308293
   0.00413455  0.24756585  0.74078915
   0.75558933  0.25365921  0.50205625
   0.99920890  0.74756905  0.75504718
   0.24785625  0.49447305  0.75323923
   0.24780594  0.24378043  0.99488261
   0.50442060  0.25173132  0.25042848
   0.73956761  0.99382480  0.25648474
   0.75379407  0.25055931  0.99551206
   0.25434049  0.75502884  0.99812672
   0.25401674  0.24921775  0.50162554
   0.24975463  0.75135435  0.50185111
   0.24822287  0.24679339  0.24748512
   0.25100951  0.00103669  0.99875027
   0.00128760  0.24475098 -0.00004678
   0.75340114  0.25154555  0.25220826
   0.74602795  0.99697141 -0.00583740
   0.49871662  0.99315831  0.25002983
   0.99586126  0.49680878  0.24947682
   0.50639839  0.75813468 -0.00024487
   0.99118477  0.00295959  0.74830032
   0.75211462  0.25187903  0.74622125
   0.75041174 -0.00073669  0.51337797
   0.50786067  0.24547488  0.50226410
   0.51123232 -0.00000234  0.74715573
   0.00089177 -0.00404096  0.25083392
   0.50276131  0.24414385 -0.00360265
   0.25100274  0.74865970  0.24825202
   0.24308567  0.50124864  0.99674829
   0.99784556  0.74543560  0.00124852
   0.74639141  0.74425110  0.25401593
   0.75888784  0.50378504  0.00068287
   0.50395757  0.50644535  0.25204433
   0.25074005  0.24507980  0.74852701
   0.25484062 -0.00026042  0.50908526
   0.00000200  0.24799264  0.50216064
   0.24441163  0.75778941  0.75112386
   0.25374010  0.50009986  0.49788650
   0.99329956  0.75307013  0.50081811
   0.99811323  0.49945764  0.75693196
   0.74885303  0.75452438  0.75393706
   0.74752282  0.50302316  0.50004895
   0.50203167  0.75695670  0.49583327
   0.50248661  0.50229708  0.74540959
   0.52451041  0.01300242  0.97313259
   0.00240648  0.52201841  0.97874172
   0.50118462  0.74121984  0.25916271
   0.23329067  0.01270883  0.74076391
   0.47958713  0.98004308  0.50260102
   0.73032740  0.97341637  0.77262784
   0.00185132  0.75950525  0.24973567
   0.74942292  0.50541871  0.24968640
   0.00791335  0.00141493  0.50802476
   0.49900573  0.51412477  0.50039259
   0.74886244  0.51298546  0.75360790
   0.74925755  0.75110374  0.49918895
HECN                                    
           1
     8.948190    0.016186   -0.006084
     0.022153    8.981849   -0.016167
     0.026062   -0.031568    8.961959
   Hf   Nb   Zr   N    C    Cr   Ta
   7   6   7  13  19   6   6
Direct configuration=    10
   0.99893199  0.99452653  0.99196999
   0.26034382  0.99645512  0.25227062
   0.24366945  0.50011970  0.24574522
   0.49880326  0.49921841  0.99822345
   0.50447659  0.24043335  0.74502441
  -0.00148752  0.50087440  0.50598808
   0.49794820  0.76007121  0.74983916
   0.99449909  0.23489226  0.26181818
   0.74970934  0.74703505  0.00291673
   0.00392488  0.24660919  0.74033003
   0.75649049  0.25404155  0.50100880
   0.99979137  0.74802210  0.75469436
   0.24790652  0.49390500  0.75285668
   0.24709185  0.24347860  0.99563193
   0.50464116  0.25165564  0.25103718
   0.73960974  0.99356555  0.25582527
   0.75401953  0.25117903  0.99528757
   0.25495047  0.75510665  0.99875817
   0.25384921  0.24915477  0.50120712
   0.24963562  0.75090580  0.50165785
   0.24799633  0.24657793  0.24776587
   0.24891028  0.00087837  0.00007489
   0.00082606  0.24358979  0.00004323
   0.75334550  0.25168795  0.25157786
   0.74684998  0.99675581 -0.00594159
   0.49835986  0.99309930  0.25120371
   0.99578817  0.49853172  0.25023492
   0.50612549  0.75794399 -0.00070021
   0.99194157  0.00231697  0.74704890
   0.75231936  0.25317588  0.74560625
   0.75282908  0.00000538  0.51208858
   0.50800026  0.24860158  0.50153172
   0.51328421 -0.00002461  0.74748949
  -0.00006827 -0.00344303  0.25126905
   0.50249604  0.24351291 -0.00379610
   0.25049281  0.74820713  0.24896133
   0.24236949  0.50143660  0.99661779
   0.99775053  0.74631077  0.00178556
   0.74589967  0.74484231  0.25318937
   0.75917691  0.50432908  0.00073928
   0.50402948  0.50620965  0.25193966
   0.25071704  0.24480723  0.74850137
   0.25549078 -0.00068612  0.50970902
   0.00009536  0.24750810  0.50211710
   0.24426397  0.75860050  0.75111053
   0.25432531  0.50014692  0.49849601
   0.99302633  0.75365408  0.50085118
   0.99756151  0.49937365  0.75779545
   0.74931083  0.75492092  0.75310160
   0.74793059  0.50244799  0.50025511
   0.50228807  0.75674153  0.49558798
   0.50278177  0.50173185  0.74532702
   0.52543877  0.01337002  0.97094299
   0.00355170  0.52452121  0.97944539
   0.50097500  0.74027017  0.26045248
   0.23053229  0.01211828  0.73825457
   0.47962892  0.97876021  0.50456742
   0.72844298  0.97063389  0.77360567
   0.00112911  0.75902060  0.24958587
   0.74963209  0.50632239  0.24968229
   0.00683669  0.00165951  0.50773921
   0.49926688  0.51368478  0.49966895
   0.74989518  0.51244492  0.75299605
   0.74935131  0.75215176  0.49938653
HECN                                    
           1
     8.948129    0.016128   -0.006086
     0.022095    8.981386   -0.016122
     0.026060   -0.031521    8.961989
   Hf   Nb   Zr   N    C    Cr   Ta
   7   6   7  13  19   6   6
Direct configuration=    11
   0.99894200  0.99451759  0.99198548
   0.26033955  0.99645079  0.25230467
   0.24367106  0.50012547  0.24574983
   0.49879920  0.49921642  0.99822688
   0.50448180  0.24044824  0.74501591
  -0.00149537  0.50087291  0.50599167
   0.49794809  0.76005258  0.74982157
   0.99449596  0.23488870  0.26181679
   0.74970710  0.74703014  0.00291473
   0.00392235  0.24659762  0.74032451
   0.75650135  0.25404619  0.50099618
   0.99979839  0.74802758  0.75469011
   0.24790712  0.49389813  0.75285208
   0.24708324  0.24347494  0.99564095
   0.50464382  0.25165472  0.25104451
   0.73961025  0.99356242  0.25581733
   0.75402225  0.25118653  0.99528487
   0.25495783  0.75510759  0.99876578
   0.25384719  0.24915401  0.50120208
   0.24963418  0.75090037  0.50165552
   0.24799359  0.24657532  0.24776925
   0.24888497  0.00087644  0.00009084
   0.00082049  0.24357573  0.00004432
   0.75334483  0.25168967  0.25157027
   0.74685989  0.99675321 -0.00594284
   0.49835556  0.99309857  0.25121785
   0.99578730  0.49855256  0.25024404
   0.50612219  0.75794168 -0.00070569
   0.99195069  0.00230921  0.74703383
   0.75232183  0.25319158  0.74559883
   0.75285823  0.00001438  0.51207305
   0.50800197  0.24863941  0.50152289
   0.51330894 -0.00002487  0.74749351
  -0.00007984 -0.00343580  0.25127429
   0.50249283  0.24350527 -0.00379843
   0.25048666  0.74820165  0.24896988
   0.24236086  0.50143887  0.99661622
   0.99774939  0.74632136  0.00179202
   0.74589375  0.74484947  0.25317941
   0.75918040  0.50433566  0.00073995
   0.50403035  0.50620680  0.25193840
   0.25071676  0.24480393  0.74850107
   0.25549862 -0.00069127  0.50971653
   0.00009648  0.24750224  0.50211658
   0.24426220  0.75861031  0.75111037
   0.25433237  0.50014749  0.49850335
   0.99302304  0.75366115  0.50085157
   0.99755486  0.49937262  0.75780585
   0.74931635  0.75492573  0.75309154
   0.74793551  0.50244103  0.50025760
   0.50229116  0.75673893  0.49558503
   0.50278533  0.50172501  0.74532603
   0.52544996  0.01337448  0.97091662
   0.00356552  0.52455150  0.97945385
   0.50097247  0.74025867  0.26046802
   0.23049903  0.01211113  0.73822434
   0.47962942  0.97874468  0.50459111
   0.72842025  0.97060020  0.77361746
   0.00112040  0.75901474  0.24958407
   0.74963462  0.50633333  0.24968224
   0.00682371  0.00166246  0.50773577
   0.49927002  0.51367946  0.49966023
   0.74990762  0.51243839  0.75298868
   0.74935245  0.75216444  0.49938890
HECN                                    
           1
     8.976786    0.015156   -0.007088
     0.021168    8.993753   -0.018591
     0.025169   -0.033975    8.992474
   Hf   Nb   Zr   N    C    Cr   Ta
   7   6   7  13  19   6   6
Direct configuration=    12
   0.99925847  0.99386145  0.99274065
   0.26088590  0.99622092  0.25473520
   0.24408453  0.50018787  0.24601122