HECN                                    
           1
     8.932500    0.000000    0.000000
     0.005753    9.055598    0.000000
     0.032102   -0.015743    8.937128
   Hf   V    Zr   N    C    Cr   Mo
   7   6   7  13  19   6   6
Direct configuration=     1
   0.99688001  0.99204997  0.99924002
   0.25398003  0.99714995  0.24912000
   0.24803003  0.50165000  0.24955001
   0.50501006  0.49745998  0.99834003
   0.50479003  0.24631001  0.74710002
   0.99427992  0.50449999  0.49779000
   0.49950005  0.75481999  0.74817004
   0.99437004  0.23617001  0.26379999
   0.75718000  0.74102998  0.01100000
   0.00201000  0.25541000  0.73894001
   0.75307001  0.26163001  0.50533002
   0.99514004  0.74492004  0.74511997
   0.25679999  0.49462002  0.74545002
   0.24788999  0.24839000  0.99657997
   0.50833000  0.25676999  0.25376001
   0.74879004  0.98787999  0.26967001
   0.75719000  0.25603001  0.99591997
   0.24762001  0.74973999  0.99974006
   0.25272001  0.24823001  0.50015003
   0.24457999  0.75048999  0.49983999
   0.24982001  0.24942998  0.24825000
   0.26146999  0.99984002  0.99295996
   0.00281000  0.25024000  0.00130000
   0.75313998  0.24617000  0.25492002
   0.74767001  0.99748000  0.01202000
   0.50714994  0.99977000  0.24673000
   0.99051999  0.48088002  0.24100998
   0.50519005  0.76130999  0.00855000
   0.98896989  0.00202000  0.73708999
   0.75744996  0.24437997  0.74896999
   0.73632001  0.00417000  0.51063000
   0.50563996  0.23264999  0.49544997
   0.50008998  0.00061000  0.73471998
   0.99720000  0.99771992  0.25899999
   0.50427997  0.24673000  0.00262000
   0.25133999  0.74958002  0.24910999
   0.24328000  0.50072997  0.99510994
   0.99837005  0.74313996  0.00460000
   0.75633000  0.73891003  0.25767000
   0.75839004  0.50315998  0.00288000
   0.50700002  0.50333002  0.25878999
   0.24900999  0.25315000  0.74854000
   0.24446000  0.99823996  0.50287998
   0.99804009  0.24229999  0.50128003
   0.24177002  0.75340997  0.75018002
   0.25841001  0.50062002  0.50129001
   0.99000004  0.76215003  0.49746000
   0.99203996  0.50055999  0.75138002
   0.75036005  0.74888000  0.74756004
   0.74036002  0.50197000  0.50067003
   0.50575006  0.74958002  0.49720000
   0.50501003  0.50217998  0.73912003
   0.51588997  0.01358000  0.98075008
   0.99841994  0.50976998  0.98613004
   0.50379003  0.73926997  0.25905001
   0.23780002  0.01082000  0.74607998
   0.47957999  0.98308000  0.49717999
   0.74279003  0.97869994  0.76450995
   0.99864998  0.77573999  0.26102000
   0.73551001  0.51468004  0.26666001
   0.02362000  0.99783001  0.49557002
   0.50539000  0.52833005  0.49917999
   0.73876003  0.52828003  0.73814999
   0.75400003  0.72937999  0.49116997
HECN                                    
           1
     8.605356   -0.009383   -0.017056
    -0.003970    8.733301   -0.014449
     0.013878   -0.029466    8.616417
   Hf   V    Zr   N    C    Cr   Mo
   7   6   7  13  19   6   6
Direct configuration=     2
   0.99344139  0.99472259  0.99199553
   0.26089364  0.99854784  0.24582000
   0.24479962  0.50017904  0.24643156
   0.50288315  0.50246234  0.99806488
   0.50776243  0.23963480  0.74237881
   0.99539292  0.49894208  0.49928137
   0.49752844  0.76375529  0.75339590
   0.99142189  0.23133622  0.26759894
   0.75982440  0.73889452  0.01162097
   0.00353191  0.25628182  0.73484284
   0.75602010  0.26038625  0.50587577
   0.99586459  0.74277344  0.74752770
   0.25512682  0.49309758  0.74808113
   0.24437899  0.24825435  0.99466367
   0.50999962  0.24961442  0.25578064
   0.74077702  0.99385061  0.26966428
   0.76151883  0.25380406  0.99498317
   0.24997626  0.75002605  0.99677522
   0.25356869  0.24885360  0.50223192
   0.24702643  0.75068346  0.50346786
   0.24886468  0.24941964  0.24914151
   0.25782460  0.00034544  0.99484680
   0.00211496  0.24800878  0.00041181
   0.75777864  0.24742537  0.25805583
   0.74720166  0.99446065  0.00422358
   0.50084993  0.99740682  0.24831170
   0.99324046  0.48062633  0.24447630
   0.50892366  0.75919392  0.00534386
   0.98949237  0.00206620  0.74245885
   0.75680589  0.24406115  0.74421637
   0.73704117  0.00396166  0.51267348
   0.50814439  0.23301834  0.50175019
   0.50287203  0.00019077  0.73847028
   0.00151300  0.00611549  0.25349157
   0.50463432  0.24647102 -0.00287184
   0.25292263  0.74909621  0.24968931
   0.24373830  0.50059419  0.99373263
   0.99103511  0.74093415  0.00148350
   0.75179696  0.73937910  0.24920270
   0.76029540  0.51029792  0.00233265
   0.50018777  0.50851345  0.25331273
   0.24640127  0.25339043  0.74777376
   0.25422305  0.99818971  0.50577356
   0.99252445  0.24612427  0.50231648
   0.23995574  0.75261325  0.74964842
   0.25403197  0.50062697  0.50316417
   0.99112146  0.75733977  0.50448928
   0.99457495  0.50071243  0.75535512
   0.75282511  0.75701053  0.75147285
   0.74607508  0.49345239  0.50272217
   0.50428628  0.75767228  0.49400699
   0.49850519  0.50132191  0.74460740
   0.51899362  0.01350305  0.98010793
   0.99737768  0.51343404  0.98088968
   0.50536224  0.73699787  0.25839051
   0.23538377  0.01186349  0.74578851
   0.47692704  0.98393838  0.49910866
   0.74158477  0.97390181  0.76511610
   0.00090097  0.77168575  0.25695839
   0.73886199  0.51234500  0.26181791
   0.01701101  0.00192374  0.50129434
   0.50472855  0.52350979  0.49792680
   0.74443804  0.52364792  0.74195828
   0.75489109  0.73710806  0.49407684
HECN                                    
           1
     8.742747   -0.005442   -0.009893
     0.000114    8.868657   -0.008381
     0.021532   -0.023703    8.751107
   Hf   V    Zr   N    C    Cr   Mo
   7   6   7  13  19   6   6
Direct configuration=     3
   0.99494539  0.99356552  0.99515230
   0.25788192  0.99793819  0.24725051
   0.24621128  0.50082335  0.24779385
   0.50380819  0.50028514  0.99818292
   0.50647394  0.24254365  0.74443772
   0.99490911  0.50136082  0.49863482
   0.49837913  0.75986140  0.75111465
   0.99270613  0.23343989  0.26595017
   0.75867210  0.73982277  0.01134975
   0.00287158  0.25590437  0.73662565
   0.75473417  0.26092610  0.50563640
   0.99554769  0.74370617  0.74647982
   0.25585467  0.49375947  0.74693756
   0.24591129  0.24831644  0.99550156
   0.50927346  0.25272826  0.25490423
   0.74426733  0.99125434  0.26966933
   0.75963361  0.25477203  0.99538914
   0.24895151  0.74990249  0.99806448
   0.25319662  0.24858015  0.50132384
   0.24595671  0.75059547  0.50188528
   0.24928038  0.24942396  0.24875399
   0.25941189  0.00012571  0.99402766
   0.00241979  0.24898138  0.00080094
   0.75575316  0.24687426  0.25668492
   0.74741402  0.99578128  0.00762237
   0.50359611  0.99843776  0.24762987
   0.99205163  0.48073305  0.24296419
   0.50729983  0.76011595  0.00673880
   0.98925993  0.00204200  0.74011965
   0.75709092  0.24420368  0.74628787
   0.73672512  0.00405059  0.51178286
   0.50704699  0.23285225  0.49900334
   0.50165619  0.00036935  0.73683453
  -0.00036647  0.00246133  0.25588121
   0.50448472  0.24658755 -0.00047967
   0.25223243  0.74930574  0.24943594
   0.24353977  0.50065409  0.99433230
   0.99423644  0.74190040  0.00284902
   0.75378018  0.73918301  0.25289469
   0.75946183  0.50718902  0.00256421
   0.50315973  0.50626331  0.25570076
   0.24753906  0.25328750  0.74810962
   0.24996450  0.99820492  0.50450470
   0.99492619  0.24446076  0.50186696
   0.24074749  0.75296144  0.74988214
   0.25593890  0.50062467  0.50235155
   0.99062882  0.75942897  0.50142982
   0.99346634  0.50064202  0.75362124
   0.75174321  0.75346594  0.74976033
   0.74358599  0.49715743  0.50182954
   0.50492326  0.75415128  0.49539324
   0.50133656  0.50169473  0.74222331
   0.51764121  0.01353555  0.98038503
   0.99783481  0.51184267  0.98317064
   0.50467852  0.73798704  0.25867810
   0.23643685  0.01141042  0.74591680
   0.47808148  0.98356445  0.49827018
   0.74211197  0.97599141  0.76485660
  -0.00007486  0.77345311  0.25872868
   0.73740604  0.51336373  0.26392597
   0.01988520  0.00014005  0.49880350
   0.50502030  0.52561009  0.49847680
   0.74196172  0.52565969  0.74029784
   0.75449642  0.73374019  0.49280416
HECN                                    
           1
     8.803564   -0.007715   -0.020670
    -0.002177    8.898837   -0.021389
     0.010961   -0.036567    8.811864
   Hf   V    Zr   N    C    Cr   Mo
   7   6   7  13  19   6   6
Direct configuration=     4
   0.99272122  0.99546711  0.98773428
   0.26213203  0.99915131  0.24473097
   0.24169170  0.49881467  0.24543888
   0.50205211  0.50371228  0.99789406
   0.50916849  0.23773085  0.74172750
   0.99723379  0.49697819  0.50010212
   0.49764269  0.76546173  0.75509924
   0.99036032  0.22919286  0.26903426
   0.76086611  0.73828954  0.01157640
   0.00380618  0.25584598  0.73346812
   0.75749877  0.25918596  0.50638623
   0.99644864  0.74145437  0.75014434
   0.25345793  0.49227357  0.74987463
   0.24382358  0.24798596  0.99419209
   0.50961250  0.24931640  0.25506261
   0.74064563  0.99521455  0.26797247
   0.76145289  0.25423439  0.99434541
   0.24951524  0.75124520  0.99616419
   0.25325335  0.24909135  0.50192002
   0.24722055  0.75090634  0.50417413
   0.24779628  0.24922487  0.24942079
   0.25649817  0.00037926  0.99484694
   0.00194687  0.24758963 -0.00016933
   0.76124399  0.24813691  0.25983187
   0.74580820  0.99261397 -0.00050561
   0.49795419  0.99553656  0.24816581
   0.99429080  0.48137685  0.24542256
   0.51114625  0.75903798  0.00413158
   0.98995105  0.00246317  0.74534520
   0.75799423  0.24434602  0.74080198
   0.73890176  0.00331819  0.51567404
   0.51048715  0.23421211  0.50389060
   0.50469941  0.00023934  0.74162048
   0.00219475  0.00848091  0.25131212
   0.50486523  0.24564556 -0.00454474
   0.25453569  0.74882659  0.24958061
   0.24314148  0.50064637  0.99176619
   0.98871046  0.73965718 -0.00083123
   0.74865285  0.74136534  0.24494881
   0.76203845  0.51296602  0.00205110
   0.49731982  0.51001523  0.25065469
   0.24453641  0.25341373  0.74757215
   0.25789750  0.99868290  0.50826173
   0.99041224  0.24775979  0.50313675
   0.23839994  0.75252819  0.75009207
   0.25233075  0.50036412  0.50452377
   0.99253335  0.75526370  0.50823075
   0.99731388  0.50032734  0.75783956
   0.75435527  0.76066708  0.75379218
   0.74778702  0.48968446  0.50318293
   0.50406962  0.76194363  0.49265654
   0.49508034  0.50147085  0.74651839
   0.52049502  0.01275572  0.97934189
   0.99675717  0.51533078  0.97835709
   0.50492522  0.73568824  0.25767830
   0.23238107  0.01229929  0.74540506
   0.47694604  0.98518713  0.50026651
   0.74066033  0.97264065  0.76563691
   0.00176137  0.77102986  0.25391897
   0.74078892  0.50941186  0.25786620
   0.01463991  0.00408500  0.50502531
   0.50439482  0.52063453  0.49761737
   0.74718737  0.52122614  0.74652932
   0.75356606  0.73997408  0.49609397
HECN                                    
           1
     8.793865   -0.007353   -0.018951
    -0.001812    8.894024   -0.019314
     0.012647   -0.034515    8.802174
   Hf   V    Zr   N    C    Cr   Mo
   7   6   7  13  19   6   6
Direct configuration=     5
   0.99307485  0.99516663  0.98890919
   0.26145932  0.99895889  0.24512893
   0.24240806  0.49913466  0.24581322
   0.50233016  0.50316768  0.99793934
   0.50874243  0.23849633  0.74215738
   0.99686549  0.49767437  0.49987030
   0.49775833  0.76457071  0.75446696
   0.99073144  0.22986730  0.26854723
   0.76051863  0.73853310  0.01154044
   0.00365876  0.25585594  0.73396807
   0.75706083  0.25946227  0.50626734
   0.99630533  0.74181142  0.74956428
   0.25383703  0.49250918  0.74941024
   0.24415451  0.24803887  0.99439997
   0.50955891  0.24985865  0.25503826
   0.74121942  0.99458562  0.26824100
   0.76116497  0.25432001  0.99451050
   0.24942626  0.75103218  0.99646475
   0.25324423  0.24900996  0.50182546
   0.24701992  0.75085636  0.50381129
   0.24803122  0.24925643  0.24931551
   0.25695949  0.00033889  0.99471767
   0.00202201  0.24781109 -0.00001523
   0.76037367  0.24793528  0.25933208
   0.74606423  0.99311931  0.00078282
   0.49884780  0.99599781  0.24808269
   0.99393565  0.48127387  0.24503260
   0.51053759  0.75920975  0.00454404
   0.98984057  0.00239502  0.74451731
   0.75785222  0.24432460  0.74167068
   0.73855630  0.00343364  0.51505748
   0.50994128  0.23399472  0.50311554
   0.50421649  0.00025880  0.74086189
   0.00178973  0.00752505  0.25203391
   0.50480578  0.24579619 -0.00390073
   0.25417088  0.74890263  0.24955736
   0.24320506  0.50064819  0.99217271
   0.98958649  0.74001479 -0.00024673
   0.74946638  0.74102047  0.24620782
   0.76163021  0.51204780  0.00213052
   0.49824559  0.50942026  0.25145418
   0.24501208  0.25339391  0.74765783
   0.25664029  0.99860575  0.50766502
   0.99112680  0.24723531  0.50293572
   0.23877173  0.75259710  0.75005937
   0.25290182  0.50040518  0.50418047
   0.99223057  0.75592414  0.50715417
   0.99670369  0.50037625  0.75717077
   0.75394049  0.75952147  0.75315140
   0.74712169  0.49087179  0.50296951
   0.50420503  0.76070572  0.49308834
   0.49607041  0.50150571  0.74583936
   0.52004325  0.01287979  0.97950675
   0.99692864  0.51477749  0.97911888
   0.50488643  0.73605384  0.25783714
   0.23302351  0.01215829  0.74548668
   0.47712542  0.98492880  0.49995016
   0.74089023  0.97317312  0.76551438
   0.00147157  0.77141604  0.25468098
   0.74025446  0.51004123  0.25882627
   0.01546932  0.00345677  0.50403994
   0.50449426  0.52142560  0.49775478
   0.74635868  0.52192922  0.74554236
   0.75371252  0.73898252  0.49557163
HECN                                    
           1
     8.806128   -0.001926   -0.019003
     0.003673    8.896709   -0.021034
     0.012608   -0.036202    8.810597
   Hf   V    Zr   N    C    Cr   Mo
   7   6   7  13  19   6   6
Direct configuration=     6
   0.99268134  0.99469547  0.98693087
   0.25926447  0.99835126  0.24578599
   0.23941071  0.49876373  0.24552454
   0.50257910  0.50249672  0.99755669
   0.50948673  0.23887020  0.74327949
   0.99738551  0.49872410  0.50098874
   0.49878495  0.76247986  0.75361080
   0.98968777  0.22872514  0.27054173
   0.76151903  0.73757441  0.01189049
   0.00331828  0.25467401  0.73262038
   0.75832060  0.25862396  0.50693151
   0.99704188  0.73962462  0.75193959
   0.25269243  0.49143873  0.75064152
   0.24411774  0.24751257  0.99389627
   0.50994588  0.25282577  0.25428276
   0.74299300  0.99356316  0.26734707
   0.76000339  0.25625209  0.99344164
   0.24742672  0.75219447  0.99701192
   0.25237334  0.24884463  0.50153180
   0.24626015  0.75100777  0.50325625
   0.24783766  0.24873153  0.24925511
   0.25503339  0.00048328  0.99474671
   0.00159400  0.24697600 -0.00074495
   0.76178913  0.24807791  0.25983006
   0.74537656  0.99285922 -0.00262767
   0.49937022  0.99516214  0.24798528
   0.99467875  0.48247772  0.24679009
   0.51111794  0.75914145  0.00322733
   0.99108406  0.00325099  0.74509851
   0.75898138  0.24564894  0.74010675
   0.74181281  0.00206489  0.51602924
   0.51118169  0.23650370  0.50193403
   0.50675910  0.00048560  0.74446773
   0.00117188  0.00564226  0.25197617
   0.50521229  0.24490806 -0.00392045
   0.25484818  0.74892841  0.24918439
   0.24254912  0.50101004  0.99078046
   0.99037648  0.74037314 -0.00175975
   0.74754604  0.74182363  0.24578824
   0.76251242  0.51209680  0.00186919
   0.49836966  0.50953201  0.25105680
   0.24399296  0.25293996  0.74743605
   0.25659749  0.99965953  0.51012984
   0.99191068  0.24719940  0.50339354
   0.23799617  0.75303418  0.75085570
   0.25272480  0.50021789  0.50456124
   0.99238438  0.75519592  0.50826051
   0.99917355  0.49974781  0.75809172
   0.75437872  0.75895315  0.75399062
   0.74662023  0.49039650  0.50277582
   0.50494344  0.76178046  0.49248288
   0.49512529  0.50244360  0.74530068
   0.52236937  0.01221596  0.97781661
   0.99575353  0.51694809  0.97678633
   0.50381591  0.73337712  0.25857744
   0.22828542  0.01281409  0.74383036
   0.47825222  0.98609270  0.50143923
   0.73905392  0.97271925  0.76570687
   0.00075591  0.77420625  0.25347110
   0.73937760  0.51030078  0.25669281
   0.01590391  0.00391583  0.50686000
   0.50583962  0.52174894  0.49701357
   0.74781413  0.52294087  0.74893477
   0.75243533  0.73773109  0.49550912
HECN                                    
           1
     8.814505    0.001782   -0.019039
     0.007420    8.898543   -0.022209
     0.012581   -0.037354    8.816351
   Hf   V    Zr   N    C    Cr   Mo
   7   6   7  13  19   6   6
Direct configuration=     7
   0.99241308  0.99437361  0.98558061
   0.25776741  0.99793729  0.24623435
   0.23736608  0.49851162  0.24532746
   0.50274921  0.50203834  0.99729545
   0.50999434  0.23912536  0.74404538
   0.99773982  0.49944094  0.50175221
   0.49948619  0.76105138  0.75302620
   0.98897628  0.22794579  0.27190282
   0.76220191  0.73691930  0.01212927
   0.00308651  0.25386679  0.73170043
   0.75918037  0.25805101  0.50738470
   0.99754530  0.73813114  0.75356044
   0.25191205  0.49070830  0.75148172
   0.24409288  0.24715309  0.99355243
   0.51020861  0.25485188  0.25376752
   0.74420337  0.99286403  0.26673683
   0.75921014  0.25757194  0.99271240
   0.24606215  0.75298915  0.99738551
   0.25177929  0.24873204  0.50133136
   0.24574177  0.75111142  0.50287745
   0.24770583  0.24837313  0.24921381
   0.25371935  0.00058270  0.99476654
   0.00130237  0.24640576 -0.00124309
   0.76275470  0.24817480  0.26016996
   0.74490753  0.99268145 -0.00495536
   0.49972697  0.99459120  0.24791868
   0.99518519  0.48329979  0.24798974
   0.51151387  0.75909439  0.00232868
   0.99193201  0.00383512  0.74549529
   0.75975112  0.24655272  0.73903956
   0.74403499  0.00112887  0.51669229
   0.51202682  0.23821653  0.50112798
   0.50849358  0.00063988  0.74692874
   0.00075118  0.00435667  0.25193651
   0.50548998  0.24430135 -0.00393402
   0.25531022  0.74894569  0.24892985
   0.24210148  0.50125727  0.98983029
   0.99091524  0.74061735 -0.00279233
   0.74623565  0.74237290  0.24550199
   0.76311423  0.51212987  0.00169083
   0.49845426  0.50960823  0.25078561
   0.24329790  0.25263033  0.74728463
   0.25656785  0.00037953  0.51181221
   0.99244546  0.24717460  0.50370600
   0.23746689  0.75333310  0.75139925
   0.25260411  0.50009011  0.50482110
   0.99248963  0.75469866  0.50901548
   0.00085876  0.49931771  0.75872019
   0.75467793  0.75856495  0.75456331
   0.74627834  0.49007209  0.50264357
   0.50544673  0.76251407  0.49206980
   0.49448012  0.50308445  0.74493316
   0.52395652  0.01176141  0.97666302
   0.99495094  0.51843068  0.97519466
   0.50308675  0.73154961  0.25908233
   0.22505282  0.01326373  0.74270000
   0.47902043  0.98688729  0.50245567
   0.73780139  0.97241007  0.76583819
   0.00026649  0.77611195  0.25264573
   0.73877929  0.51047813  0.25523677
   0.01620021  0.00422952  0.50878474
   0.50675729  0.52196910  0.49650774
   0.74880662  0.52363160  0.75125022
   0.75156457  0.73687696  0.49546630
HECN                                    
           1
     8.792260    0.003867   -0.018884
     0.009513    8.903192   -0.018461
     0.012641   -0.033719    8.791723
   Hf   V    Zr   N    C    Cr   Mo
   7   6   7  13  19   6   6
Direct configuration=     8
   0.99138909  0.99546985  0.98511118
   0.25912067  0.99902721  0.24817176
   0.23554353  0.49821710  0.24465960
   0.50196963  0.50280278  0.99646706
   0.51001848  0.24127047  0.74206838
   0.99627533  0.50083336  0.50253187
   0.49918746  0.75906145  0.75194330
   0.98878426  0.22655329  0.27326453
   0.76305074  0.73693971  0.01254834
   0.00242048  0.25154371  0.73099478
   0.75991536  0.25819563  0.50803594
   0.99887885  0.73587794  0.75532579
   0.25093411  0.48969491  0.75180027
   0.24297435  0.24604952  0.99395806
   0.51097713  0.25594818  0.25430060
   0.74297413  0.99302996  0.26716078
   0.76114597  0.25825252  0.99186691
   0.24690860  0.75317741  0.99716106
   0.25308377  0.24943672  0.50090064
   0.24650100  0.75136951  0.50333276
   0.24759231  0.24807313  0.24884152
   0.25104558  0.00084463  0.99510392
   0.00028924  0.24533115 -0.00200340
   0.76273392  0.24821054  0.25967164
   0.74545372  0.99320916 -0.00652617
   0.49997234  0.99502510  0.24825634
   0.99477746  0.48429787  0.25036126
   0.51122968  0.75879178  0.00116154
   0.99322451  0.00507753  0.74471841
   0.76008292  0.24833055  0.73901208
   0.74810502 -0.00031538  0.51669655
   0.51274010  0.24143457  0.50068794
   0.51211329 -0.00017370  0.74931229
  -0.00026809  0.00458718  0.25287036
   0.50537266  0.24349334 -0.00351299
   0.25512395  0.74868383  0.24917140
   0.24127148  0.50138459  0.98923706
   0.99169095  0.74194346 -0.00291614
   0.74527740  0.74205735  0.24621214
   0.76348608  0.51127310  0.00212637
   0.49702653  0.50885929  0.25037451
   0.24352037  0.25176117  0.74713168
   0.25735588  0.00031622  0.51405303
   0.99402811  0.24738843  0.50362266
   0.23704596  0.75420250  0.75109343
   0.25295343  0.50038389  0.50446932
   0.99140161  0.75560649  0.50861332
   0.00245805  0.49859224  0.75789574
   0.75497359  0.75758988  0.75488372
   0.74658627  0.49014520  0.50265509
   0.50534758  0.76325296  0.49143642
   0.49517928  0.50356311  0.74383687
   0.52651657  0.01063636  0.97449474
   0.99406742  0.51993068  0.97427941
   0.50273437  0.73035370  0.26050520
   0.21914557  0.01475927  0.74056114
   0.47983360  0.98831380  0.50465577
   0.73516174  0.97130229  0.76508730
  -0.00103251  0.77471098  0.25282233
   0.73865112  0.51143787  0.25414591
   0.01466216  0.00313339  0.51044183
   0.50769692  0.52100751  0.49539073
   0.75060061  0.52349452  0.75365698
   0.75071866  0.73494700  0.49380731
HECN                                    
           1
     8.789662    0.004110   -0.018866
     0.009758    8.903735   -0.018023
     0.012648   -0.033294    8.788847
   Hf   V    Zr   N    C    Cr   Mo
   7   6   7  13  19   6   6
Direct configuration=     9
   0.99126918  0.99559785  0.98505615
   0.25927907  0.99915429  0.24839858
   0.23533017  0.49818280  0.24458141
   0.50187834  0.50289207  0.99637001
   0.51002125  0.24152093  0.74183676
   0.99610384  0.50099588  0.50262310
   0.49915254  0.75882925  0.75181659
   0.98876182  0.22639071  0.27342406
   0.76315011  0.73694204  0.01259741
   0.00234257  0.25127262  0.73091226
   0.76000140  0.25821245  0.50811219
   0.99903504  0.73561484  0.75553263
   0.25081964  0.48957664  0.75183763
   0.24284343  0.24592073  0.99400561
   0.51106707  0.25607608  0.25436297
   0.74283022  0.99304934  0.26721042
   0.76137259  0.25833194  0.99176787
   0.24700769  0.75319937  0.99713476
   0.25323646  0.24951895  0.50085016
   0.24658988  0.75139959  0.50338606
   0.24757903  0.24803814  0.24879794
   0.25073255  0.00087526  0.99514342
   0.00017066  0.24520579 -0.00209238
   0.76273149  0.24821473  0.25961328
   0.74551765  0.99327081 -0.00671015
   0.50000105  0.99507572  0.24829586
   0.99472970  0.48441426  0.25063892
   0.51119642  0.75875652  0.00102488
   0.99337579  0.00522254  0.74462737
   0.76012172  0.24853804  0.73900878
   0.74858155 -0.00048406  0.51669711
   0.51282352  0.24181017  0.50063625
   0.51253707 -0.00026887  0.74959145
  -0.00038743  0.00461407  0.25297971
   0.50535895  0.24339901 -0.00346364
   0.25510215  0.74865327  0.24919970
   0.24117431  0.50139950  0.98916759
   0.99178173  0.74209823 -0.00293070
   0.74516522  0.74202051  0.24629531
   0.76352964  0.51117307  0.00217741
   0.49685940  0.50877194  0.25032641
   0.24354644  0.25165973  0.74711381
   0.25744814  0.00030871  0.51431545
   0.99421339  0.24741334  0.50361288
   0.23699665  0.75430399  0.75105758
   0.25299432  0.50041819  0.50442811
   0.99127421  0.75571249  0.50856618
   0.00264530  0.49850756  0.75779923
   0.75500823  0.75747605  0.75492129
   0.74662232  0.49015372  0.50265643
   0.50533595  0.76333923  0.49136221
   0.49526112  0.50361901  0.74370846
   0.52681632  0.01050508  0.97424088
   0.99396394  0.52010582  0.97417215
   0.50269315  0.73021406  0.26067188
   0.21845396  0.01493409  0.74031060
   0.47992875  0.98848017  0.50491334
   0.73485274  0.97117310  0.76499943
  -0.00118455  0.77454750  0.25284308
   0.73863609  0.51154994  0.25401812
   0.01448213  0.00300542  0.51063594
   0.50780695  0.52089531  0.49525997
   0.75081063  0.52347836  0.75393883
   0.75061968  0.73472184  0.49361313
HECN                                    
           1
     8.829273    0.001327   -0.018119
     0.006973    8.929079   -0.016391
     0.013539   -0.031710    8.824717
   Hf   V    Zr   N    C    Cr   Mo
   7   6   7  13  19   6   6
Direct configuration=    10
   0.99093776  0.99597291  0.98636261
   0.26107362  0.99940955  0.25051212
   0.23480610  0.49836007  0.24422166
   0.50098119  0.50358472  0.99598990
   0.51004690  0.24385790  0.74092955
   0.99557190  0.50174083  0.50271360
   0.49861312  0.75762251  0.75037827
   0.98884841  0.22541964  0.27420162
   0.76336462  0.73757876  0.01267462
   0.00203022  0.24882912  0.73025718
   0.76047333  0.25945544  0.50845214
   0.00029261  0.73391473  0.75621202
   0.24941387  0.48858882  0.75113017
   0.24226877  0.24502016  0.99449890
   0.51190745  0.25592143  0.25418766
   0.74090518  0.99332730  0.26864403
   0.76180630  0.25841304  0.99133441
   0.24917352  0.75404253  0.99738709
   0.25470172  0.25038737  0.50056217
   0.24713692  0.75123334  0.50348445
   0.24707414  0.24808665  0.24853433
   0.24808397  0.00097145  0.99565924
   0.00018250  0.24429931 -0.00259303
   0.76247748  0.24811658  0.25895177
   0.74657994  0.99391554 -0.00656461
   0.49968851  0.99647425  0.24897063
   0.99308556  0.48542363  0.25203751
   0.51057255  0.75845535  0.00036112
   0.99251209  0.00648068  0.74482544
   0.75995837  0.25028509  0.73952045
   0.75214634 -0.00144629  0.51684738
   0.51344674  0.24508695  0.50082771
   0.51605922 -0.00072907  0.74901229
  -0.00082049  0.00451589  0.25387265
   0.50531633  0.24238293 -0.00382453
   0.25457251  0.74868640  0.24979007
   0.24025756  0.50095031  0.98904164
   0.99218524  0.74348762 -0.00191710
   0.74476229  0.74221263  0.24654438
   0.76355438  0.51074338  0.00328949
   0.49501255  0.50803999  0.24947344
   0.24431194  0.25060926  0.74698865
   0.25865201  0.00036246  0.51596206
   0.99527557  0.24780242  0.50312236
   0.23668131  0.75522966  0.75054499
   0.25307448  0.50087767  0.50393793
   0.99042338  0.75684233  0.50805597
   0.00327292  0.49794010  0.75683267
   0.75540890  0.75702764  0.75495166
   0.74716101  0.48999571  0.50286145
   0.50517213  0.76406659  0.49043481
   0.49670188  0.50310292  0.74294411
   0.52807467  0.00995122  0.97232895
   0.99413654  0.52092625  0.97478815
   0.50262324  0.72950987  0.26222299
   0.21463578  0.01711515  0.73854048
   0.48080017  0.98965507  0.50856545
   0.73364493  0.96914448  0.76340866
  -0.00212592  0.77296834  0.25361113
   0.73876161  0.51149744  0.25360608
   0.01226026  0.00202113  0.50886951
   0.50784788  0.51882458  0.49368705
   0.75290647  0.52205094  0.75518482
   0.74923795  0.73335910  0.49175580
HECN                                    
           1
     8.823860    0.001708   -0.018221
     0.007353    8.925615   -0.016614
     0.013417   -0.031927    8.819815
   Hf   V    Zr   N    C    Cr   Mo
   7   6   7  13  19   6   6
Direct configuration=    11
   0.99098285  0.99592185  0.98618480
   0.26082949  0.99937474  0.25022448
   0.23487739  0.49833593  0.24427063
   0.50110322  0.50349036  0.99604164
   0.51004329  0.24353941  0.74105309
   0.99564424  0.50163934  0.50270130
   0.49868654  0.75778694  0.75057400
   0.98883668  0.22555199  0.27409577
   0.76333541  0.73749198  0.01266413
   0.00207281  0.24916210  0.73034627
   0.76040907  0.25928604  0.50840591
   0.00012160  0.73414638  0.75611952
   0.24960516  0.48872348  0.75122641
   0.24234700  0.24514292  0.99443173
   0.51179312  0.25594246  0.25421152
   0.74116709  0.99328954  0.26844889
   0.76174729  0.25840196  0.99139341
   0.24887882  0.75392754  0.99735280
   0.25450233  0.25026896  0.50060141
   0.24706250  0.75125598  0.50347106
   0.24714283  0.24808006  0.24857020
   0.24844431  0.00095846  0.99558901
   0.00018092  0.24442283 -0.00252491
   0.76251203  0.24812995  0.25904180
   0.74643539  0.99382764 -0.00658439
   0.49973098  0.99628370  0.24887882
   0.99330922  0.48528618  0.25184716
   0.51065743  0.75849640  0.00045145
   0.99262954  0.00630926  0.74479850
   0.75998052  0.25004703  0.73945085
   0.75166140 -0.00131531  0.51682695
   0.51336181  0.24464039  0.50080174
   0.51558004 -0.00066652  0.74909115
  -0.00076156  0.00452931  0.25375110
   0.50532217  0.24252139 -0.00377544
   0.25464457  0.74868192  0.24970971
   0.24038230  0.50101156  0.98905876
   0.99213029  0.74329829 -0.00205502
   0.74481710  0.74218647  0.24651048
   0.76355105  0.51080196  0.00313811
   0.49526384  0.50813979  0.24958949
   0.24420784  0.25075238  0.74700567
   0.25848824  0.00035513  0.51573796
   0.99513104  0.24774934  0.50318915
   0.23672417  0.75510352  0.75061477
   0.25306355  0.50081504  0.50400466
   0.99053908  0.75668838  0.50812543
   0.00318754  0.49801738  0.75696422
   0.75535441  0.75708873  0.75494752
   0.74708773  0.49001722  0.50283355
   0.50519437  0.76396745  0.49056105
   0.49650587  0.50317317  0.74304815
   0.52790347  0.01002660  0.97258918
   0.99411303  0.52081445  0.97470433
   0.50263281  0.72960588  0.26201185
   0.21515513  0.01681804  0.73878141
   0.48068161  0.98949502  0.50806841
   0.73380932  0.96942094  0.76362510
  -0.00199777  0.77318360  0.25350654
   0.73874453  0.51150458  0.25366216
   0.01256257  0.00215531  0.50910988
   0.50784238  0.51910673  0.49390108
   0.75262141  0.52224540  0.75501522
   0.74942597  0.73354481  0.49200854
HECN                                    
           1
     8.823149   -0.002188   -0.018031
     0.003414    8.896256   -0.018714
     0.013614   -0.033909    8.816368
   Hf   V    Zr   N    C    Cr   Mo
   7   6   7  13  19   6   6
Direct configuration=    12
   0.99114225  0.99529896  0.98801965
   0.26147314  0.99870837  0.25210834
   0.23469359  0.49870060  0.24416721