  64  64   0   0
  0.9975136E+01  0.8583740E-09  0.8601735E-09  0.8646543E-09  0.5000000E-15
  1.000000000000000E-004
  CAR 
 HEBCN                                   
     15.79683767    -58.80761573  301      9.61677956      1.00000000
    -58.808  0.0000E+00  0.0000E+00
    -58.559  0.0000E+00  0.0000E+00
    -58.310  0.0000E+00  0.0000E+00
    -58.062  0.0000E+00  0.0000E+00
    -57.813  0.0000E+00  0.0000E+00
    -57.564  0.0000E+00  0.0000E+00
    -57.316  0.0000E+00  0.0000E+00
    -57.067  0.0000E+00  0.0000E+00
    -56.818  0.0000E+00  0.0000E+00
    -56.569  0.0000E+00  0.0000E+00
    -56.321  0.0000E+00  0.0000E+00
    -56.072  0.0000E+00  0.0000E+00
    -55.823  0.3634E-07  0.9036E-08
    -55.575  0.1400E+00  0.3481E-01
    -55.326  0.2857E+02  0.7139E+01
    -55.077  0.2697E+02  0.1385E+02
    -54.829  0.6165E+00  0.1400E+02
    -54.580  0.1254E-05  0.1400E+02
    -54.331  0.0000E+00  0.1400E+02
    -54.083  0.0000E+00  0.1400E+02
    -53.834  0.0000E+00  0.1400E+02
    -53.585  0.0000E+00  0.1400E+02
    -53.337  0.0000E+00  0.1400E+02
    -53.088  0.0000E+00  0.1400E+02
    -52.839  0.0000E+00  0.1400E+02
    -52.591  0.0000E+00  0.1400E+02
    -52.342  0.0000E+00  0.1400E+02
    -52.093  0.0000E+00  0.1400E+02
    -51.845  0.0000E+00  0.1400E+02
    -51.596  0.0000E+00  0.1400E+02
    -51.347  0.0000E+00  0.1400E+02
    -51.098  0.0000E+00  0.1400E+02
    -50.850  0.0000E+00  0.1400E+02
    -50.601  0.0000E+00  0.1400E+02
    -50.352  0.0000E+00  0.1400E+02
    -50.104  0.0000E+00  0.1400E+02
    -49.855  0.0000E+00  0.1400E+02
    -49.606  0.0000E+00  0.1400E+02
    -49.358  0.0000E+00  0.1400E+02
    -49.109  0.0000E+00  0.1400E+02
    -48.860  0.0000E+00  0.1400E+02
    -48.612  0.0000E+00  0.1400E+02
    -48.363  0.0000E+00  0.1400E+02
    -48.114  0.0000E+00  0.1400E+02
    -47.866  0.0000E+00  0.1400E+02
    -47.617  0.0000E+00  0.1400E+02
    -47.368  0.0000E+00  0.1400E+02
    -47.120  0.0000E+00  0.1400E+02
    -46.871  0.2063E-12  0.1400E+02
    -46.622  0.2579E-03  0.1400E+02
    -46.374  0.4212E+01  0.1505E+02
    -46.125  0.4476E+02  0.2618E+02
    -45.876  0.7320E+01  0.2800E+02
    -45.627  0.6090E-03  0.2800E+02
    -45.379  0.7181E-12  0.2800E+02
    -45.130  0.0000E+00  0.2800E+02
    -44.881  0.0000E+00  0.2800E+02
    -44.633  0.0000E+00  0.2800E+02
    -44.384  0.0000E+00  0.2800E+02
    -44.135  0.0000E+00  0.2800E+02
    -43.887  0.0000E+00  0.2800E+02
    -43.638  0.0000E+00  0.2800E+02
    -43.389  0.0000E+00  0.2800E+02
    -43.141  0.0000E+00  0.2800E+02
    -42.892  0.0000E+00  0.2800E+02
    -42.643  0.0000E+00  0.2800E+02
    -42.395  0.0000E+00  0.2800E+02
    -42.146  0.0000E+00  0.2800E+02
    -41.897  0.0000E+00  0.2800E+02
    -41.649  0.0000E+00  0.2800E+02
    -41.400  0.0000E+00  0.2800E+02
    -41.151  0.0000E+00  0.2800E+02
    -40.903  0.0000E+00  0.2800E+02
    -40.654  0.0000E+00  0.2800E+02
    -40.405  0.0000E+00  0.2800E+02
    -40.157  0.0000E+00  0.2800E+02
    -39.908  0.0000E+00  0.2800E+02
    -39.659  0.0000E+00  0.2800E+02
    -39.410  0.0000E+00  0.2800E+02
    -39.162  0.0000E+00  0.2800E+02
    -38.913  0.0000E+00  0.2800E+02
    -38.664  0.0000E+00  0.2800E+02
    -38.416  0.0000E+00  0.2800E+02
    -38.167  0.0000E+00  0.2800E+02
    -37.918  0.0000E+00  0.2800E+02
    -37.670  0.0000E+00  0.2800E+02
    -37.421  0.0000E+00  0.2800E+02
    -37.172  0.0000E+00  0.2800E+02
    -36.924  0.0000E+00  0.2800E+02
    -36.675  0.0000E+00  0.2800E+02
    -36.426  0.0000E+00  0.2800E+02
    -36.178  0.0000E+00  0.2800E+02
    -35.929  0.0000E+00  0.2800E+02
    -35.680  0.0000E+00  0.2800E+02
    -35.432  0.0000E+00  0.2800E+02
    -35.183  0.0000E+00  0.2800E+02
    -34.934  0.0000E+00  0.2800E+02
    -34.686  0.3636E-05  0.2800E+02
    -34.437  0.6561E+00  0.2816E+02
    -34.188  0.1009E+02  0.3067E+02
    -33.939  0.8544E+02  0.5192E+02
    -33.691  0.4830E+02  0.6393E+02
    -33.442  0.2831E+00  0.6400E+02
    -33.193  0.1162E-06  0.6400E+02
    -32.945  0.0000E+00  0.6400E+02
    -32.696  0.0000E+00  0.6400E+02
    -32.447  0.0000E+00  0.6400E+02
    -32.199  0.0000E+00  0.6400E+02
    -31.950  0.0000E+00  0.6400E+02
    -31.701  0.0000E+00  0.6400E+02
    -31.453  0.0000E+00  0.6400E+02
    -31.204  0.0000E+00  0.6400E+02
    -30.955  0.0000E+00  0.6400E+02
    -30.707  0.8036E-13  0.6400E+02
    -30.458  0.1434E-03  0.6400E+02
    -30.209  0.2223E+01  0.6455E+02
    -29.961  0.1989E+02  0.6950E+02
    -29.712  0.6966E+02  0.8682E+02
    -29.463  0.6263E+02  0.1024E+03
    -29.215  0.1130E+03  0.1305E+03
    -28.966  0.4307E+02  0.1412E+03
    -28.717  0.3203E+01  0.1420E+03
    -28.468  0.5463E-03  0.1420E+03
    -28.220  0.9085E-12  0.1420E+03
    -27.971  0.0000E+00  0.1420E+03
    -27.722  0.0000E+00  0.1420E+03
    -27.474  0.0000E+00  0.1420E+03
    -27.225  0.0000E+00  0.1420E+03
    -26.976  0.0000E+00  0.1420E+03
    -26.728  0.0000E+00  0.1420E+03
    -26.479  0.0000E+00  0.1420E+03
    -26.230  0.0000E+00  0.1420E+03
    -25.982  0.0000E+00  0.1420E+03
    -25.733  0.0000E+00  0.1420E+03
    -25.484  0.0000E+00  0.1420E+03
    -25.236  0.0000E+00  0.1420E+03
    -24.987  0.0000E+00  0.1420E+03
    -24.738  0.0000E+00  0.1420E+03
    -24.490  0.0000E+00  0.1420E+03
    -24.241  0.0000E+00  0.1420E+03
    -23.992  0.0000E+00  0.1420E+03
    -23.744  0.0000E+00  0.1420E+03
    -23.495  0.0000E+00  0.1420E+03
    -23.246  0.0000E+00  0.1420E+03
    -22.997  0.1405E-05  0.1420E+03
    -22.749  0.7228E+00  0.1422E+03
    -22.500  0.5183E+02  0.1551E+03
    -22.251  0.9859E+02  0.1796E+03
    -22.003  0.1753E+02  0.1839E+03
    -21.754  0.2134E+00  0.1840E+03
    -21.505  0.1908E-06  0.1840E+03
    -21.257  0.0000E+00  0.1840E+03
    -21.008  0.0000E+00  0.1840E+03
    -20.759  0.0000E+00  0.1840E+03
    -20.511  0.0000E+00  0.1840E+03
    -20.262  0.0000E+00  0.1840E+03
    -20.013  0.0000E+00  0.1840E+03
    -19.765  0.0000E+00  0.1840E+03
    -19.516  0.0000E+00  0.1840E+03
    -19.267  0.0000E+00  0.1840E+03
    -19.019  0.0000E+00  0.1840E+03
    -18.770  0.0000E+00  0.1840E+03
    -18.521  0.0000E+00  0.1840E+03
    -18.273  0.0000E+00  0.1840E+03
    -18.024  0.0000E+00  0.1840E+03
    -17.775  0.0000E+00  0.1840E+03
    -17.526  0.0000E+00  0.1840E+03
    -17.278  0.0000E+00  0.1840E+03
    -17.029  0.0000E+00  0.1840E+03
    -16.780  0.0000E+00  0.1840E+03
    -16.532  0.0000E+00  0.1840E+03
    -16.283  0.0000E+00  0.1840E+03
    -16.034  0.0000E+00  0.1840E+03
    -15.786  0.0000E+00  0.1840E+03
    -15.537  0.0000E+00  0.1840E+03
    -15.288  0.0000E+00  0.1840E+03
    -15.040  0.0000E+00  0.1840E+03
    -14.791  0.0000E+00  0.1840E+03
    -14.542  0.0000E+00  0.1840E+03
    -14.294  0.0000E+00  0.1840E+03
    -14.045  0.0000E+00  0.1840E+03
    -13.796  0.0000E+00  0.1840E+03
    -13.548  0.0000E+00  0.1840E+03
    -13.299  0.0000E+00  0.1840E+03
    -13.050  0.0000E+00  0.1840E+03
    -12.802  0.0000E+00  0.1840E+03
    -12.553  0.0000E+00  0.1840E+03
    -12.304  0.0000E+00  0.1840E+03
    -12.055  0.0000E+00  0.1840E+03
    -11.807  0.0000E+00  0.1840E+03
    -11.558  0.0000E+00  0.1840E+03
    -11.309  0.0000E+00  0.1840E+03
    -11.061  0.0000E+00  0.1840E+03
    -10.812  0.0000E+00  0.1840E+03
    -10.563  0.0000E+00  0.1840E+03
    -10.315  0.0000E+00  0.1840E+03
    -10.066  0.0000E+00  0.1840E+03
     -9.817  0.0000E+00  0.1840E+03
     -9.569  0.0000E+00  0.1840E+03
     -9.320  0.0000E+00  0.1840E+03
     -9.071  0.0000E+00  0.1840E+03
     -8.823  0.0000E+00  0.1840E+03
     -8.574  0.0000E+00  0.1840E+03
     -8.325  0.0000E+00  0.1840E+03
     -8.077  0.0000E+00  0.1840E+03
     -7.828  0.0000E+00  0.1840E+03
     -7.579  0.1333E-08  0.1840E+03
     -7.331  0.5199E-02  0.1840E+03
     -7.082  0.1858E+01  0.1845E+03
     -6.833  0.6115E+01  0.1860E+03
     -6.584  0.6452E+01  0.1876E+03
     -6.336  0.9710E+01  0.1900E+03
     -6.087  0.1420E+02  0.1935E+03
     -5.838  0.2180E+02  0.1990E+03
     -5.590  0.1959E+02  0.2038E+03
     -5.341  0.1741E+02  0.2082E+03
     -5.092  0.7368E+01  0.2100E+03
     -4.844  0.3158E-01  0.2100E+03
     -4.595  0.3396E-08  0.2100E+03
     -4.346  0.9446E-13  0.2100E+03
     -4.098  0.5241E-04  0.2100E+03
     -3.849  0.5688E+00  0.2101E+03
     -3.600  0.6704E+01  0.2118E+03
     -3.352  0.9940E+00  0.2121E+03
     -3.103  0.8128E+01  0.2141E+03
     -2.854  0.1179E+02  0.2170E+03
     -2.606  0.1650E+02  0.2211E+03
     -2.357  0.2429E+02  0.2272E+03
     -2.108  0.2107E+02  0.2324E+03
     -1.860  0.2166E+02  0.2378E+03
     -1.611  0.2372E+02  0.2437E+03
     -1.362  0.1370E+02  0.2471E+03
     -1.114  0.3561E+01  0.2480E+03
     -0.865  0.1227E+00  0.2480E+03
     -0.616  0.8771E-05  0.2480E+03
     -0.367  0.7275E-14  0.2480E+03
     -0.119  0.0000E+00  0.2480E+03
      0.130  0.0000E+00  0.2480E+03
      0.379  0.0000E+00  0.2480E+03
      0.627  0.1586E-06  0.2480E+03
      0.876  0.2759E-01  0.2480E+03
      1.125  0.6672E+00  0.2482E+03
      1.373  0.3332E+01  0.2490E+03
      1.622  0.9214E+01  0.2513E+03
      1.871  0.1012E+02  0.2538E+03
      2.119  0.1609E+02  0.2578E+03
      2.368  0.2411E+02  0.2638E+03
      2.617  0.2769E+02  0.2707E+03
      2.865  0.2609E+02  0.2772E+03
      3.114  0.3222E+02  0.2852E+03
      3.363  0.3264E+02  0.2933E+03
      3.611  0.3738E+02  0.3026E+03
      3.860  0.4326E+02  0.3134E+03
      4.109  0.5384E+02  0.3268E+03
      4.357  0.6097E+02  0.3419E+03
      4.606  0.5991E+02  0.3568E+03
      4.855  0.6167E+02  0.3721E+03
      5.104  0.5930E+02  0.3869E+03
      5.352  0.5258E+02  0.4000E+03
      5.601  0.3787E+02  0.4094E+03
      5.850  0.3296E+02  0.4176E+03
      6.098  0.2942E+02  0.4249E+03
      6.347  0.2328E+02  0.4307E+03
      6.596  0.1891E+02  0.4354E+03
      6.844  0.1341E+02  0.4387E+03
      7.093  0.6339E+01  0.4403E+03
      7.342  0.1307E+02  0.4436E+03
      7.590  0.1849E+02  0.4482E+03
      7.839  0.2039E+02  0.4532E+03
      8.088  0.2051E+02  0.4583E+03
      8.336  0.1967E+02  0.4632E+03
      8.585  0.2862E+02  0.4703E+03
      8.834  0.3324E+02  0.4786E+03
      9.082  0.2935E+02  0.4859E+03
      9.331  0.3033E+02  0.4934E+03
      9.580  0.3348E+02  0.5018E+03
      9.828  0.3601E+02  0.5107E+03
     10.077  0.4593E+02  0.5221E+03
     10.326  0.5136E+02  0.5349E+03
     10.575  0.5878E+02  0.5495E+03
     10.823  0.5959E+02  0.5644E+03
     11.072  0.5390E+02  0.5778E+03
     11.321  0.5313E+02  0.5910E+03
     11.569  0.4889E+02  0.6031E+03
     11.818  0.4204E+02  0.6136E+03
     12.067  0.2648E+02  0.6202E+03
     12.315  0.1351E+02  0.6235E+03
     12.564  0.1895E+01  0.6240E+03
     12.813  0.1083E-01  0.6240E+03
     13.061  0.2901E-08  0.6240E+03
     13.310  0.0000E+00  0.6240E+03
     13.559  0.0000E+00  0.6240E+03
     13.807  0.0000E+00  0.6240E+03
     14.056  0.0000E+00  0.6240E+03
     14.305  0.0000E+00  0.6240E+03
     14.553  0.0000E+00  0.6240E+03
     14.802  0.0000E+00  0.6240E+03
     15.051  0.0000E+00  0.6240E+03
     15.299  0.0000E+00  0.6240E+03
     15.548  0.0000E+00  0.6240E+03
     15.797  0.0000E+00  0.6240E+03
