       N       E                     dE             d eps       ncg     rms          rms(c)
DAV:   1     0.710378421877E+04    0.71038E+04   -0.21141E+05  8880   0.155E+03
DAV:   2     0.407432153631E+03   -0.66964E+04   -0.64811E+04  8808   0.656E+02
DAV:   3    -0.639721783943E+03   -0.10472E+04   -0.97313E+03 13680   0.230E+02
DAV:   4    -0.760953782907E+03   -0.12123E+03   -0.11729E+03 14688   0.976E+01
DAV:   5    -0.777905512013E+03   -0.16952E+02   -0.16566E+02 17328   0.313E+01    0.736E+01
RMM:   6    -0.785930896778E+03   -0.80254E+01   -0.16763E+03 11972   0.116E+02    0.976E+01
RMM:   7    -0.668228625152E+03    0.11770E+03   -0.28760E+02 12458   0.486E+01    0.541E+01
RMM:   8    -0.651506888478E+03    0.16722E+02   -0.87883E+01 13595   0.245E+01    0.315E+01
RMM:   9    -0.640508607209E+03    0.10998E+02   -0.27206E+01 15164   0.123E+01    0.204E+01
RMM:  10    -0.638362157895E+03    0.21464E+01   -0.93976E+00 15114   0.867E+00    0.122E+01
RMM:  11    -0.637821364806E+03    0.54079E+00   -0.51113E+00 15569   0.479E+00    0.104E+01
RMM:  12    -0.637318389605E+03    0.50298E+00   -0.25977E+00 15377   0.411E+00    0.814E+00
RMM:  13    -0.637581401107E+03   -0.26301E+00   -0.35187E+00 14331   0.462E+00    0.109E+01
RMM:  14    -0.637276965371E+03    0.30444E+00   -0.31703E+00 14070   0.435E+00    0.558E+00
RMM:  15    -0.637314206717E+03   -0.37241E-01   -0.13804E+00 14977   0.275E+00    0.611E+00
RMM:  16    -0.637055160177E+03    0.25905E+00   -0.53175E-01 13889   0.211E+00    0.392E+00
RMM:  17    -0.636977716702E+03    0.77443E-01   -0.43879E-01 15201   0.141E+00    0.208E+00
RMM:  18    -0.636980399397E+03   -0.26827E-02   -0.51108E-01 15893   0.124E+00    0.199E+00
RMM:  19    -0.636978302314E+03    0.20971E-02   -0.19542E-01 15356   0.110E+00    0.111E+00
RMM:  20    -0.636993814731E+03   -0.15512E-01   -0.16890E-01 15726   0.598E-01    0.116E+00
RMM:  21    -0.636988381400E+03    0.54333E-02   -0.65121E-02 14522   0.526E-01    0.687E-01
RMM:  22    -0.636987358378E+03    0.10230E-02   -0.56670E-02 15231   0.421E-01    0.667E-01
RMM:  23    -0.636986162346E+03    0.11960E-02   -0.34158E-02 15379   0.352E-01    0.276E-01
RMM:  24    -0.636987700095E+03   -0.15377E-02   -0.17043E-02 15086   0.244E-01    0.393E-01
RMM:  25    -0.636987946404E+03   -0.24631E-03   -0.13471E-02 14970   0.173E-01    0.765E-02
RMM:  26    -0.636988444542E+03   -0.49814E-03   -0.68124E-03 14720   0.119E-01    0.679E-02
RMM:  27    -0.636988978052E+03   -0.53351E-03   -0.55778E-03 14063   0.100E-01    0.734E-02
RMM:  28    -0.636989232908E+03   -0.25486E-03   -0.33241E-03 12631   0.633E-02    0.344E-02
RMM:  29    -0.636989440955E+03   -0.20805E-03   -0.24943E-03 12965   0.575E-02    0.173E-02
RMM:  30    -0.636989540956E+03   -0.10000E-03   -0.11064E-03 11453   0.433E-02    0.166E-02
RMM:  31    -0.636989593266E+03   -0.52309E-04   -0.56675E-04 10828   0.393E-02    0.874E-03
RMM:  32    -0.636989634646E+03   -0.41380E-04   -0.41898E-04  9838   0.283E-02    0.704E-03
RMM:  33    -0.636989652436E+03   -0.17791E-04   -0.21040E-04  9455   0.271E-02    0.301E-03
RMM:  34    -0.636989663334E+03   -0.10898E-04   -0.11568E-04  9102   0.199E-02    0.249E-03
RMM:  35    -0.636989672539E+03   -0.92053E-05   -0.87931E-05  8920   0.186E-02
   1 F= -.63698967E+03 E0= -.63690605E+03  d E =-.167239E+00
