 vasp.5.4.4.18Apr17-6-g9f103f2a35 (build Oct 18 2021 20:38:43) complex          
  
 executed on             LinuxIFC date 2025.11.12  16:18:34
 running on   24 total cores
 distrk:  each k-point on   24 cores,    1 groups
 distr:  one band on NCORES_PER_BAND=   1 cores,   24 groups


--------------------------------------------------------------------------------------------------------


 INCAR:
 POTCAR:   PAW_PBE Nb_sv 17Jan2003                
 POTCAR:   PAW_PBE W_pv 06Sep2000                 
 POTCAR:   PAW_PBE V_sv 07Sep2000                 
 POTCAR:   PAW_PBE N 08Apr2002                    
 POTCAR:   PAW_PBE C 08Apr2002                    
 POTCAR:   PAW_PBE Cr_pv 07Sep2000                
 POTCAR:   PAW_PBE Mo 08Apr2002                   

 ----------------------------------------------------------------------------- 
|                                                                             |
|           W    W    AA    RRRRR   N    N  II  N    N   GGGG   !!!           |
|           W    W   A  A   R    R  NN   N  II  NN   N  G    G  !!!           |
|           W    W  A    A  R    R  N N  N  II  N N  N  G       !!!           |
|           W WW W  AAAAAA  RRRRR   N  N N  II  N  N N  G  GGG   !            |
|           WW  WW  A    A  R   R   N   NN  II  N   NN  G    G                |
|           W    W  A    A  R    R  N    N  II  N    N   GGGG   !!!           |
|                                                                             |
|      For optimal performance we recommend to set                            |
|        NCORE= 4 - approx SQRT( number of cores)                             |
|      NCORE specifies how many cores store one orbital (NPAR=cpu/NCORE).     |
|      This setting can  greatly improve the performance of VASP for DFT.     |
|      The default,   NCORE=1            might be grossly inefficient         |
|      on modern multi-core architectures or massively parallel machines.     |
|      Do your own testing !!!!                                               |
|      Unfortunately you need to use the default for GW and RPA calculations. |
|      (for HF NCORE is supported but not extensively tested yet)             |
|                                                                             |
 ----------------------------------------------------------------------------- 

 POTCAR:   PAW_PBE Nb_sv 17Jan2003                
   VRHFIN =Nb: 4p5s4d                                                           
   LEXCH  = PE                                                                  
   EATOM  =  1555.1913 eV,  114.3033 Ry                                         
                                                                                
   TITEL  = PAW_PBE Nb_sv 17Jan2003                                             
   LULTRA =        F    use ultrasoft PP ?                                      
   IUNSCR =        1    unscreen: 0-lin 1-nonlin 2-no                           
   RPACOR =    1.800    partial core radius                                     
   POMASS =   92.910; ZVAL   =   13.000    mass and valenz                      
   RCORE  =    2.200    outmost cutoff radius                                   
   RWIGS  =    2.400; RWIGS  =    1.270    wigner-seitz radius (au A)           
   ENMAX  =  293.235; ENMIN  =  219.927 eV                                      
   RCLOC  =    1.411    cutoff for local pot                                    
   LCOR   =        T    correct aug charges                                     
   LPAW   =        T    paw PP                                                  
   EAUG   =  455.659                                                            
   DEXC   =     .000                                                            
   RMAX   =    2.693    core radius for proj-oper                               
   RAUG   =    1.300    factor for augmentation sphere                          
   RDEP   =    2.299    radius for radial grids                                 
   QCUT   =   -4.642; QGAM   =    9.285    optimization parameters              
                                                                                
   Description                                                                  
     l     E      TYP  RCUT    TYP  RCUT                                        
     0   .000     23  2.200                                                     
     0   .000     23  2.200                                                     
     0   .000     23  2.200                                                     
     0   .000     23  2.200                                                     
     1   .000     23  2.200                                                     
     1  1.000     23  2.200                                                     
     2   .000     23  2.200                                                     
     2   .000     23  2.200                                                     
     3   .000      7   .000                                                     
  local pseudopotential read in
  partial core-charges read in
  atomic valenz-charges read in
  non local Contribution for L=           0  read in
    real space projection operators read in
  non local Contribution for L=           0  read in
    real space projection operators read in
  non local Contribution for L=           1  read in
    real space projection operators read in
  non local Contribution for L=           1  read in
    real space projection operators read in
  non local Contribution for L=           2  read in
    real space projection operators read in
  non local Contribution for L=           2  read in
    real space projection operators read in
    PAW grid and wavefunctions read in
 
   number of l-projection  operators is LMAX  =           6
   number of lm-projection operators is LMMAX =          18
 
 POTCAR:   PAW_PBE W_pv 06Sep2000                 
   VRHFIN =W : 5p6s5d                                                           
   LEXCH  = PE                                                                  
   EATOM  =  1260.0376 eV,   92.6101 Ry                                         
                                                                                
   TITEL  = PAW_PBE W_pv 06Sep2000                                              
   LULTRA =        F    use ultrasoft PP ?                                      
   IUNSCR =        1    unscreen: 0-lin 1-nonlin 2-no                           
   RPACOR =    2.330    partial core radius                                     
   POMASS =  183.850; ZVAL   =   12.000    mass and valenz                      
   RCORE  =    2.500    outmost cutoff radius                                   
   RWIGS  =    2.750; RWIGS  =    1.455    wigner-seitz radius (au A)           
   ENMAX  =  223.065; ENMIN  =  167.299 eV                                      
   RCLOC  =    2.147    cutoff for local pot                                    
   LCOR   =        T    correct aug charges                                     
   LPAW   =        T    paw PP                                                  
   EAUG   =  373.438                                                            
   DEXC   =    -.018                                                            
   RMAX   =    3.087    core radius for proj-oper                               
   RAUG   =    1.300    factor for augmentation sphere                          
   RDEP   =    2.539    radius for radial grids                                 
   QCUT   =   -4.049; QGAM   =    8.098    optimization parameters              
                                                                                
   Description                                                                  
     l     E      TYP  RCUT    TYP  RCUT                                        
     1   .000     23  2.500                                                     
     1  -.200     23  2.500                                                     
     2   .000     23  2.500                                                     
     2   .000     23  2.500                                                     
     0   .000     23  2.500                                                     
     0   .000     23  2.500                                                     
     3   .000      7   .000                                                     
  local pseudopotential read in
  partial core-charges read in
  atomic valenz-charges read in
  non local Contribution for L=           1  read in
    real space projection operators read in
  non local Contribution for L=           1  read in
    real space projection operators read in
  non local Contribution for L=           2  read in
    real space projection operators read in
  non local Contribution for L=           2  read in
    real space projection operators read in
  non local Contribution for L=           0  read in
    real space projection operators read in
  non local Contribution for L=           0  read in
    real space projection operators read in
    PAW grid and wavefunctions read in
 
   number of l-projection  operators is LMAX  =           6
   number of lm-projection operators is LMMAX =          18
 
 POTCAR:   PAW_PBE V_sv 07Sep2000                 
   VRHFIN =V: p6 d4 s1                                                          
   LEXCH  = PE                                                                  
   EATOM  =  1951.3925 eV,  143.4233 Ry                                         
                                                                                
   TITEL  = PAW_PBE V_sv 07Sep2000                                              
   LULTRA =        F    use ultrasoft PP ?                                      
   IUNSCR =        1    unscreen: 0-lin 1-nonlin 2-no                           
   RPACOR =    2.000    partial core radius                                     
   POMASS =   50.941; ZVAL   =   13.000    mass and valenz                      
   RCORE  =    2.300    outmost cutoff radius                                   
   RWIGS  =    2.300; RWIGS  =    1.217    wigner-seitz radius (au A)           
   ENMAX  =  263.675; ENMIN  =  197.756 eV                                      
   RCLOC  =    1.779    cutoff for local pot                                    
   LCOR   =        T    correct aug charges                                     
   LPAW   =        T    paw PP                                                  
   EAUG   =  526.568                                                            
   DEXC   =     .000                                                            
   RMAX   =    2.839    core radius for proj-oper                               
   RAUG   =    1.300    factor for augmentation sphere                          
   RDEP   =    2.430    radius for radial grids                                 
   QCUT   =   -4.402; QGAM   =    8.804    optimization parameters              
                                                                                
   Description                                                                  
     l     E      TYP  RCUT    TYP  RCUT                                        
     0   .000     23  1.800                                                     
     0   .000     23  2.300                                                     
     0   .000     23  1.800                                                     
     0   .000     23  2.300                                                     
     1   .000     23  2.000                                                     
     1   .400     23  2.000                                                     
     2   .000     23  2.300                                                     
     2   .000     23  2.300                                                     
     3   .000      7   .000                                                     
  local pseudopotential read in
  partial core-charges read in
  atomic valenz-charges read in
  non local Contribution for L=           0  read in
    real space projection operators read in
  non local Contribution for L=           0  read in
    real space projection operators read in
  non local Contribution for L=           1  read in
    real space projection operators read in
  non local Contribution for L=           1  read in
    real space projection operators read in
  non local Contribution for L=           2  read in
    real space projection operators read in
  non local Contribution for L=           2  read in
    real space projection operators read in
    PAW grid and wavefunctions read in
 
   number of l-projection  operators is LMAX  =           6
   number of lm-projection operators is LMMAX =          18
 
 POTCAR:   PAW_PBE N 08Apr2002                    
   VRHFIN =N: s2p3                                                              
   LEXCH  = PE                                                                  
   EATOM  =   264.5486 eV,   19.4438 Ry                                         
                                                                                
   TITEL  = PAW_PBE N 08Apr2002                                                 
   LULTRA =        F    use ultrasoft PP ?                                      
   IUNSCR =        0    unscreen: 0-lin 1-nonlin 2-no                           
   RPACOR =     .000    partial core radius                                     
   POMASS =   14.001; ZVAL   =    5.000    mass and valenz                      
   RCORE  =    1.500    outmost cutoff radius                                   
   RWIGS  =    1.400; RWIGS  =     .741    wigner-seitz radius (au A)           
   ENMAX  =  400.000; ENMIN  =  300.000 eV                                      
   ICORE  =        2    local potential                                         
   LCOR   =        T    correct aug charges                                     
   LPAW   =        T    paw PP                                                  
   EAUG   =  627.112                                                            
   DEXC   =     .000                                                            
   RMAX   =    2.247    core radius for proj-oper                               
   RAUG   =    1.300    factor for augmentation sphere                          
   RDEP   =    1.514    radius for radial grids                                 
   QCUT   =   -5.562; QGAM   =   11.124    optimization parameters              
                                                                                
   Description                                                                  
     l     E      TYP  RCUT    TYP  RCUT                                        
     0   .000     23  1.200                                                     
     0   .000     23  1.200                                                     
     1   .000     23  1.500                                                     
     1   .700     23  1.500                                                     
     2   .000      7  1.500                                                     
  local pseudopotential read in
  atomic valenz-charges read in
  non local Contribution for L=           0  read in
    real space projection operators read in
  non local Contribution for L=           0  read in
    real space projection operators read in
  non local Contribution for L=           1  read in
    real space projection operators read in
  non local Contribution for L=           1  read in
    real space projection operators read in
    PAW grid and wavefunctions read in
 
   number of l-projection  operators is LMAX  =           4
   number of lm-projection operators is LMMAX =           8
 
 POTCAR:   PAW_PBE C 08Apr2002                    
   VRHFIN =C: s2p2                                                              
   LEXCH  = PE                                                                  
   EATOM  =   147.1560 eV,   10.8157 Ry                                         
                                                                                
   TITEL  = PAW_PBE C 08Apr2002                                                 
   LULTRA =        F    use ultrasoft PP ?                                      
   IUNSCR =        0    unscreen: 0-lin 1-nonlin 2-no                           
   RPACOR =     .000    partial core radius                                     
   POMASS =   12.011; ZVAL   =    4.000    mass and valenz                      
   RCORE  =    1.500    outmost cutoff radius                                   
   RWIGS  =    1.630; RWIGS  =     .863    wigner-seitz radius (au A)           
   ENMAX  =  400.000; ENMIN  =  300.000 eV                                      
   ICORE  =        2    local potential                                         
   LCOR   =        T    correct aug charges                                     
   LPAW   =        T    paw PP                                                  
   EAUG   =  644.873                                                            
   DEXC   =     .000                                                            
   RMAX   =    2.266    core radius for proj-oper                               
   RAUG   =    1.300    factor for augmentation sphere                          
   RDEP   =    1.501    radius for radial grids                                 
   RDEPT  =    1.300    core radius for aug-charge                              
   QCUT   =   -5.516; QGAM   =   11.032    optimization parameters              
                                                                                
   Description                                                                  
     l     E      TYP  RCUT    TYP  RCUT                                        
     0   .000     23  1.200                                                     
     0   .000     23  1.200                                                     
     1   .000     23  1.500                                                     
     1  2.500     23  1.500                                                     
     2   .000      7  1.500                                                     
  local pseudopotential read in
  atomic valenz-charges read in
  non local Contribution for L=           0  read in
    real space projection operators read in
  non local Contribution for L=           0  read in
    real space projection operators read in
  non local Contribution for L=           1  read in
    real space projection operators read in
  non local Contribution for L=           1  read in
    real space projection operators read in
    PAW grid and wavefunctions read in
 
   number of l-projection  operators is LMAX  =           4
   number of lm-projection operators is LMMAX =           8
 
 POTCAR:   PAW_PBE Cr_pv 07Sep2000                
   VRHFIN =Cr : p6d5s1                                                          
   LEXCH  = PE                                                                  
   EATOM  =  1647.5667 eV,  121.0927 Ry                                         
                                                                                
   TITEL  = PAW_PBE Cr_pv 07Sep2000                                             
   LULTRA =        F    use ultrasoft PP ?                                      
   IUNSCR =        1    unscreen: 0-lin 1-nonlin 2-no                           
   RPACOR =    2.080    partial core radius                                     
   POMASS =   51.996; ZVAL   =   12.000    mass and valenz                      
   RCORE  =    2.300    outmost cutoff radius                                   
   RWIGS  =    2.500; RWIGS  =    1.323    wigner-seitz radius (au A)           
   ENMAX  =  265.683; ENMIN  =  199.262 eV                                      
   RCLOC  =    1.721    cutoff for local pot                                    
   LCOR   =        T    correct aug charges                                     
   LPAW   =        T    paw PP                                                  
   EAUG   =  519.424                                                            
   DEXC   =    -.003                                                            
   RMAX   =    2.829    core radius for proj-oper                               
   RAUG   =    1.300    factor for augmentation sphere                          
   RDEP   =    2.447    radius for radial grids                                 
   QCUT   =   -4.419; QGAM   =    8.838    optimization parameters              
                                                                                
   Description                                                                  
     l     E      TYP  RCUT    TYP  RCUT                                        
     1   .000     23  2.000                                                     
     1   .100     23  2.000                                                     
     2   .000     23  2.300                                                     
     2   .000     23  2.300                                                     
     0   .000     23  2.300                                                     
     0   .000     23  2.300                                                     
     3   .000      7   .000                                                     
  local pseudopotential read in
  partial core-charges read in
  atomic valenz-charges read in
  non local Contribution for L=           1  read in
    real space projection operators read in
  non local Contribution for L=           1  read in
    real space projection operators read in
  non local Contribution for L=           2  read in
    real space projection operators read in
  non local Contribution for L=           2  read in
    real space projection operators read in
  non local Contribution for L=           0  read in
    real space projection operators read in
  non local Contribution for L=           0  read in
    real space projection operators read in
    PAW grid and wavefunctions read in
 
   number of l-projection  operators is LMAX  =           6
   number of lm-projection operators is LMMAX =          18
 
 POTCAR:   PAW_PBE Mo 08Apr2002                   
   VRHFIN =Mo: 4p5s4d                                                           
   LEXCH  = PE                                                                  
   EATOM  =   217.5180 eV,   15.9871 Ry                                         
                                                                                
   TITEL  = PAW_PBE Mo 08Apr2002                                                
   LULTRA =        F    use ultrasoft PP ?                                      
   IUNSCR =        1    unscreen: 0-lin 1-nonlin 2-no                           
   RPACOR =    2.200    partial core radius                                     
   POMASS =   95.940; ZVAL   =    6.000    mass and valenz                      
   RCORE  =    2.750    outmost cutoff radius                                   
   RWIGS  =    2.750; RWIGS  =    1.455    wigner-seitz radius (au A)           
   ENMAX  =  224.584; ENMIN  =  168.438 eV                                      
   RCLOC  =    2.111    cutoff for local pot                                    
   LCOR   =        T    correct aug charges                                     
   LPAW   =        T    paw PP                                                  
   EAUG   =  345.278                                                            
   DEXC   =    -.088                                                            
   RMAX   =    3.077    core radius for proj-oper                               
   RAUG   =    1.300    factor for augmentation sphere                          
   RDEP   =    2.815    radius for radial grids                                 
   QCUT   =   -4.063; QGAM   =    8.126    optimization parameters              
                                                                                
   Description                                                                  
     l     E      TYP  RCUT    TYP  RCUT                                        
     2   .000     23  2.500                                                     
     2   .000     23  2.500                                                     
     0   .000     23  2.600                                                     
     0  1.000     23  2.600                                                     
     1   .400     23  2.750                                                     
     1  2.000     23  2.750                                                     
     3   .000      7   .000                                                     
  local pseudopotential read in
  partial core-charges read in
  atomic valenz-charges read in
  non local Contribution for L=           2  read in
    real space projection operators read in
  non local Contribution for L=           2  read in
    real space projection operators read in
  non local Contribution for L=           0  read in
    real space projection operators read in
  non local Contribution for L=           0  read in
    real space projection operators read in
  non local Contribution for L=           1  read in
    real space projection operators read in
  non local Contribution for L=           1  read in
    real space projection operators read in
    PAW grid and wavefunctions read in
 
   number of l-projection  operators is LMAX  =           6
   number of lm-projection operators is LMMAX =          18
 

 ----------------------------------------------------------------------------- 
|                                                                             |
|  ADVICE TO THIS USER RUNNING 'VASP/VAMP'   (HEAR YOUR MASTER'S VOICE ...):  |
|                                                                             |
|      You have a (more or less) 'large supercell' and for larger cells       |
|      it might be more efficient to use real space projection operators      |
|      So try LREAL= Auto  in the INCAR   file.                               |
|      Mind: If you want to do a very accurate calculations keep the          |
|      reciprocal projection scheme          (i.e. LREAL=.FALSE.)             |
|                                                                             |
 ----------------------------------------------------------------------------- 

 PAW_PBE Nb_sv 17Jan2003                :
 energy of atom  1       EATOM=-1555.1913
 kinetic energy error for atom=    0.0212 (will be added to EATOM!!)
 PAW_PBE W_pv 06Sep2000                 :
 energy of atom  2       EATOM=-1260.0376
 kinetic energy error for atom=    0.0051 (will be added to EATOM!!)
 PAW_PBE V_sv 07Sep2000                 :
 energy of atom  3       EATOM=-1951.3925
 kinetic energy error for atom=    0.0321 (will be added to EATOM!!)
 PAW_PBE N 08Apr2002                    :
 energy of atom  4       EATOM= -264.5486
 kinetic energy error for atom=    0.0736 (will be added to EATOM!!)
 PAW_PBE C 08Apr2002                    :
 energy of atom  5       EATOM= -147.1560
 kinetic energy error for atom=    0.0288 (will be added to EATOM!!)
 PAW_PBE Cr_pv 07Sep2000                :
 energy of atom  6       EATOM=-1647.5667
 kinetic energy error for atom=    0.0284 (will be added to EATOM!!)
 PAW_PBE Mo 08Apr2002                   :
 energy of atom  7       EATOM= -217.5180
 kinetic energy error for atom=    0.0025 (will be added to EATOM!!)
 
 
 POSCAR: 124-VNbCrMoW                            
  positions in direct lattice
  velocities in cartesian coordinates
 exchange correlation table for  LEXCH =        8
   RHO(1)=    0.500       N(1)  =     2000
   RHO(2)=  100.500       N(2)  =     4000
 


--------------------------------------------------------------------------------------------------------


 ion  position               nearest neighbor table
   1  0.008  0.009  0.988-  23 2.15  29 2.16  22 2.21  34 2.22  25 2.23  38 2.25  56 2.59  10 2.82
                             8 3.02   9 3.08  12 3.08  58 3.09  59 3.15
   2  0.260  0.997  0.245-  26 2.12  36 2.14  21 2.15  22 2.15  43 2.29  34 2.31  57 2.77  61 2.95
                            59 2.99  55 3.06   8 3.11
   3  0.252  0.499  0.249-  41 2.11  36 2.14  21 2.18  37 2.18  27 2.19  46 2.19  55 2.96  18 2.98
                            62 3.01   4 3.03  59 3.11   8 3.25
   4  0.503  0.499  0.001-  41 2.14  35 2.18  52 2.20  28 2.22  40 2.23  37 2.25  63 2.94  17 2.96
                            60 2.96  14 2.98   3 3.03  13 3.05   9 3.09
   5  0.507  0.243  0.751-  33 2.07  42 2.15  30 2.18  35 2.22  32 2.23  52 2.24  58 2.77  53 2.78
                            17 2.80  14 2.89  57 3.05  13 3.11  63 3.13  11 3.17  62 3.25
   6  0.997  0.500  0.507-  50 2.15  48 2.15  47 2.16  44 2.18  46 2.19  27 2.21  12 2.96  64 2.98
                            11 3.04  13 3.06  63 3.07  10 3.11  59 3.11  60 3.15   8 3.18
   7  0.497  0.761  0.745-  33 2.08  45 2.14  51 2.18  28 2.19  49 2.20  52 2.22  58 2.81  63 3.00
                            53 3.01  62 3.03  64 3.04  13 3.05   9 3.20
   8  0.985  0.232  0.255-  34 2.02  24 2.06  44 2.14  23 2.15  27 2.23  21 2.25  11 2.75  16 2.87
                            61 2.89   1 3.02   2 3.11   6 3.18  19 3.20  17 3.20   3 3.25  60 3.27
   9  0.765  0.747  0.001-  38 2.08  39 2.13  25 2.19  49 2.19  40 2.20  28 2.27  54 2.77  63 2.87
                            58 2.93  60 2.94  12 2.95  59 3.04   1 3.08   4 3.09  53 3.16   7 3.20
  10  0.013  0.236  0.752-  42 2.09  29 2.14  48 2.17  44 2.17  30 2.17  23 2.22  56 2.64   1 2.82
                            19 2.89  14 2.95  61 3.05  13 3.09  17 3.10  54 3.11   6 3.11  11 3.19
  11  0.760  0.240  0.484-  31 2.09  44 2.14  50 2.16  24 2.18  32 2.22  30 2.23  16 2.64   8 2.75
                            15 2.83   6 3.04  61 3.06  60 3.13  57 3.14   5 3.17  10 3.19  62 3.27
  12  0.004  0.738  0.754-  45 2.10  48 2.16  29 2.16  47 2.16  49 2.17  38 2.18  54 2.67  63 2.93
                            13 2.95   9 2.95  18 2.96   6 2.96  56 3.00   1 3.08  20 3.09  64 3.15
  13  0.254  0.503  0.751-  52 2.10  37 2.13  46 2.16  48 2.19  45 2.22  42 2.22  12 2.95  54 2.96
                            19 2.97  14 2.97  18 3.01  20 3.03   7 3.05   4 3.05   6 3.06  62 3.06
  14  0.264  0.250  0.984-  35 2.04  42 2.04  37 2.14  22 2.15  23 2.23  21 2.29  56 2.78   5 2.89
                            53 2.94  10 2.95  13 2.97   4 2.98
  15  0.519  0.230  0.262-  24 1.98  32 2.01  26 2.04  35 2.21  41 2.29  21 2.35  16 2.64  57 2.70
                            11 2.83  60 3.11  62 3.18
  16  0.736  0.012  0.281-  31 1.95  26 1.99  24 2.08  39 2.15  34 2.22  11 2.64  15 2.64  57 2.85
                             8 2.87  64 2.97  61 3.06  59 3.15
  17  0.735  0.244  0.982-  35 2.02  30 2.09  25 2.11  40 2.15  24 2.17  23 2.34  53 2.72  58 2.75
                             5 2.80   4 2.96  63 3.02  10 3.10   8 3.20
  18  0.239  0.743  0.003-  38 1.99  37 2.11  36 2.12  45 2.19  22 2.23  28 2.25  54 2.87  12 2.96
                             3 2.98  59 2.99  13 3.01  56 3.04
  19  0.250  0.254  0.514-  42 2.03  44 2.07  46 2.10  32 2.17  43 2.18  21 2.29  57 2.82  10 2.89
                            61 2.96  13 2.97  62 3.13   8 3.20
  20  0.253  0.743  0.495-  51 2.09  46 2.11  47 2.12  36 2.14  45 2.22  43 2.22  55 2.85  62 2.87
                            61 2.95  59 2.97  57 3.00  13 3.03  12 3.09
  21  0.247  0.246  0.249-   2 2.15   3 2.18   8 2.25  14 2.29  19 2.29  15 2.35
  22  0.265  1.000  0.996-  56 1.96   2 2.15  14 2.15  53 2.15   1 2.21  18 2.23
  23  0.006  0.258  0.008-   1 2.15   8 2.15  10 2.22  14 2.23  54 2.28  17 2.34
  24  0.747  0.248  0.232-  15 1.98   8 2.06  16 2.08  17 2.17  11 2.18  60 2.34
  25  0.748  0.000  1.000-  58 1.93  53 2.01  17 2.11   9 2.19   1 2.23
  26  0.507  0.994  0.245-  16 1.99  15 2.04  57 2.10   2 2.12  55 2.23  53 2.29
  27  0.998  0.490  0.252-   3 2.19   6 2.21   8 2.23  60 2.27  59 2.34  54 2.41
  28  0.501  0.757  0.998-   7 2.19   4 2.22  53 2.24  18 2.25   9 2.27  55 2.40
  29  0.990  0.989  0.739-  56 2.01  10 2.14   1 2.16  61 2.16  12 2.16  58 2.37
  30  0.761  0.232  0.742-  58 2.06  17 2.09  10 2.17   5 2.18  11 2.23  63 2.46
  31  0.740  0.999  0.507-  16 1.95  11 2.09  64 2.21  57 2.31  58 2.36  61 2.42
  32  0.502  0.248  0.493-  15 2.01  57 2.03  19 2.17  11 2.22   5 2.23  62 2.31
  33  0.490  0.003  0.744-  58 1.98  53 2.07   5 2.07   7 2.08  57 2.25  56 2.32
  34  0.992  0.998  0.244-   8 2.02  59 2.03  61 2.15   1 2.22  16 2.22   2 2.31
  35  0.501  0.246  0.008-  53 1.99  17 2.02  14 2.04   4 2.18  15 2.21   5 2.22
  36  0.260  0.748  0.247-  55 2.09  18 2.12  20 2.14   3 2.14   2 2.14  59 2.20
  37  0.241  0.498  0.997-  18 2.11  13 2.13  14 2.14  54 2.15   3 2.18   4 2.25
  38  0.007  0.747  0.006-  54 1.98  18 1.99   9 2.08  12 2.18  59 2.18   1 2.25
  39  0.740  0.764  0.245-  55 2.08  60 2.10   9 2.13  16 2.15  64 2.18  59 2.27
  40  0.763  0.491  0.008-  54 2.01  60 2.14  17 2.15  63 2.16   9 2.20   4 2.23
  41  0.498  0.495  0.249-  60 2.05  55 2.09   3 2.11  62 2.12   4 2.14  15 2.29
  42  0.257  0.244  0.748-  19 2.03  14 2.04  56 2.05  10 2.09   5 2.15  13 2.22
  43  0.256  0.001  0.510-  57 1.87  61 2.02  19 2.18  20 2.22   2 2.29  56 2.30
  44  0.009  0.247  0.502-  19 2.07  11 2.14   8 2.14  61 2.15  10 2.17   6 2.18
  45  0.247  0.760  0.750-  12 2.10   7 2.14  56 2.17  18 2.19  20 2.22  13 2.22
  46  0.251  0.498  0.502-  19 2.10  20 2.11  62 2.14  13 2.16   3 2.19   6 2.19
  47  0.006  0.751  0.504-  20 2.12  61 2.13  59 2.13   6 2.16  12 2.16  64 2.22
  48  0.999  0.488  0.756-  54 1.91   6 2.15  12 2.16  10 2.17  63 2.19  13 2.19
  49  0.753  0.767  0.748-  58 2.04  63 2.16  12 2.17   9 2.19  64 2.20   7 2.20
  50  0.747  0.489  0.505-  62 2.13   6 2.15  11 2.16  64 2.18  60 2.20  63 2.22
  51  0.495  0.769  0.493-  55 1.91  20 2.09  57 2.12  62 2.16  64 2.18   7 2.18
  52  0.500  0.503  0.748-  13 2.10  63 2.12   4 2.20  62 2.20   7 2.22   5 2.24
  53  0.515  0.017  0.981-  35 1.99  25 2.01  33 2.07  22 2.15  28 2.24  26 2.29  58 2.46  17 2.72
                             5 2.78  14 2.94   7 3.01  56 3.10   9 3.16
  54  0.993  0.520  0.974-  48 1.91  38 1.98  40 2.01  37 2.15  23 2.28  27 2.41  12 2.67   9 2.77
                            63 2.82  18 2.87  13 2.96  10 3.11  59 3.23  60 3.27
  55  0.501  0.736  0.275-  51 1.91  39 2.08  36 2.09  41 2.09  26 2.23  28 2.40  62 2.66  60 2.75
                            20 2.85  64 2.86   3 2.96  57 3.01   2 3.06   9 3.27
  56  0.221  0.010  0.774-  22 1.96  29 2.01  42 2.05  45 2.17  43 2.30  33 2.32   1 2.59  10 2.64
                            14 2.78  61 2.99  12 3.00  18 3.04  53 3.10
  57  0.473  0.014  0.484-  43 1.87  32 2.03  26 2.10  51 2.12  33 2.25  31 2.31  15 2.70   2 2.77
                            19 2.82  16 2.85  20 3.00  55 3.01   5 3.05  11 3.14  64 3.32
  58  0.717  0.999  0.778-  25 1.93  33 1.98  49 2.04  30 2.06  31 2.36  29 2.37  53 2.46  17 2.75
                             5 2.77   7 2.81   9 2.93   1 3.09  10 3.26  11 3.30  64 3.31
  59  0.004  0.762  0.258-  34 2.03  47 2.13  38 2.18  36 2.20  39 2.27  27 2.34  61 2.87  20 2.97
                            18 2.99   2 2.99  64 3.01   9 3.04   3 3.11  60 3.11   6 3.11  16 3.15
  60  0.735  0.520  0.253-  41 2.05  39 2.10  40 2.14  50 2.20  27 2.27  24 2.34  55 2.75  64 2.84
                            62 2.89   9 2.94   4 2.96  15 3.11  59 3.11  11 3.13   6 3.15  54 3.27
  61  0.022  0.997  0.491-  43 2.02  47 2.13  34 2.15  44 2.15  29 2.16  31 2.42  59 2.87   8 2.89
                             2 2.95  20 2.95  19 2.96  56 2.99  10 3.05  11 3.06  16 3.06  12 3.18
  62  0.500  0.517  0.493-  41 2.12  50 2.13  46 2.14  51 2.16  52 2.20  32 2.31  55 2.66  20 2.87
                            64 2.88  60 2.89   3 3.01   7 3.03  13 3.06  19 3.13  63 3.14  15 3.18
  63  0.746  0.516  0.761-  52 2.12  49 2.16  40 2.16  48 2.19  50 2.22  30 2.46  54 2.82   9 2.87
                            12 2.93   4 2.94   7 3.00  64 3.00  17 3.02   6 3.07   5 3.13  62 3.14
  64  0.747  0.742  0.496-  51 2.18  39 2.18  50 2.18  49 2.20  31 2.21  47 2.22  60 2.84  55 2.86
                            62 2.88  16 2.97   6 2.98  63 3.00  59 3.01   7 3.04  12 3.15  61 3.22
 
  LATTYP: Found a triclinic cell.
 ALAT       =    12.1871156490
 B/A-ratio  =     0.7058056618
 C/A-ratio  =     0.9973161620
 COS(alpha) =     0.0002223483
 COS(beta)  =     0.5024676548
 COS(gamma) =     0.7047241191
  
  Lattice vectors:
  
 A1 = (  -0.0253110740,   8.6026675567,  -8.6324537705)
 A2 = (   0.0108252812,   8.6017169996,   0.0140130913)
 A3 = (   8.5476000641,   0.0060225464,  -8.6410714746)


Analysis of symmetry for initial positions (statically):
=====================================================================
 Subroutine PRICEL returns:
 Original cell was already a primitive cell.
 

 Routine SETGRP: Setting up the symmetry group for a 
 triclinic supercell.


 Subroutine GETGRP returns: Found  1 space group operations
 (whereof  1 operations were pure point group operations)
 out of a pool of  2 trial point group operations.


The static configuration has the point symmetry C_1 .


Analysis of symmetry for dynamics (positions and initial velocities):
=====================================================================
 Subroutine PRICEL returns:
 Original cell was already a primitive cell.
 

 Routine SETGRP: Setting up the symmetry group for a 
 triclinic supercell.


 Subroutine GETGRP returns: Found  1 space group operations
 (whereof  1 operations were pure point group operations)
 out of a pool of  2 trial point group operations.


The dynamic configuration has the point symmetry C_1 .


 Subroutine INISYM returns: Found  1 space group operations
 (whereof  1 operations are pure point group operations),
 and found     1 'primitive' translations

 
 
 KPOINTS: HECN                                    

Automatic generation of k-mesh.
Space group operators:
 irot       det(A)        alpha          n_x          n_y          n_z        tau_x        tau_y        tau_z
    1     1.000000     0.000000     1.000000     0.000000     0.000000     0.000000     0.000000     0.000000
 
 Subroutine IBZKPT returns following result:
 ===========================================
 
 Found     14 irreducible k-points:
 
 Following reciprocal coordinates:
            Coordinates               Weight
  0.000000  0.000000  0.000000      1.000000
  0.333333  0.000000  0.000000      2.000000
 -0.000000  0.333333  0.000000      2.000000
  0.333333  0.333333  0.000000      2.000000
 -0.333333  0.333333 -0.000000      2.000000
  0.000000  0.000000  0.333333      2.000000
  0.333333 -0.000000  0.333333      2.000000
 -0.333333  0.000000  0.333333      2.000000
  0.000000  0.333333  0.333333      2.000000
  0.333333  0.333333  0.333333      2.000000
 -0.333333  0.333333  0.333333      2.000000
  0.000000 -0.333333  0.333333      2.000000
  0.333333 -0.333333  0.333333      2.000000
 -0.333333 -0.333333  0.333333      2.000000
 
 Following cartesian coordinates:
            Coordinates               Weight
  0.000000  0.000000  0.000000      1.000000
  0.038833 -0.000049 -0.000162      2.000000
 -0.000023  0.038752  0.000004      2.000000
  0.038810  0.038703 -0.000158      2.000000
 -0.038856  0.038801  0.000167      2.000000
 -0.000024 -0.000063  0.038551      2.000000
  0.038809 -0.000111  0.038389      2.000000
 -0.038857 -0.000014  0.038714      2.000000
 -0.000047  0.038689  0.038556      2.000000
  0.038786  0.038641  0.038394      2.000000
 -0.038880  0.038738  0.038718      2.000000
 -0.000001 -0.038815  0.038547      2.000000
  0.038832 -0.038863  0.038385      2.000000
 -0.038835 -0.038766  0.038709      2.000000
 


--------------------------------------------------------------------------------------------------------




 Dimension of arrays:
   k-points           NKPTS =     14   k-points in BZ     NKDIM =     14   number of bands    NBANDS=    312
   number of dos      NEDOS =    301   number of ions     NIONS =     64
   non local maximal  LDIM  =      6   non local SUM 2l+1 LMDIM =     18
   total plane-waves  NPLWV =  74088
   max r-space proj   IRMAX =      1   max aug-charges    IRDMAX=   7650
   dimension x,y,z NGX =    42 NGY =   42 NGZ =   42
   dimension x,y,z NGXF=    84 NGYF=   84 NGZF=   84
   support grid    NGXF=    84 NGYF=   84 NGZF=   84
   ions per type =               7   6   7  13  19   6   6
   NGX,Y,Z   is equivalent  to a cutoff of   8.13,  8.12,  8.08 a.u.
   NGXF,Y,Z  is equivalent  to a cutoff of  16.27, 16.23, 16.15 a.u.

 SYSTEM =  HEBCN                                   
 POSCAR =  124-VNbCrMoW                            

 Startparameter for this run:
   NWRITE =      2    write-flag & timer
   PREC   = normal    normal or accurate (medium, high low for compatibility)
   ISTART =      0    job   : 0-new  1-cont  2-samecut
   ICHARG =      2    charge: 1-file 2-atom 10-const
   ISPIN  =      1    spin polarized calculation?
   LNONCOLLINEAR =      F non collinear calculations
   LSORBIT =      F    spin-orbit coupling
   INIWAV =      1    electr: 0-lowe 1-rand  2-diag
   LASPH  =      F    aspherical Exc in radial PAW
   METAGGA=      F    non-selfconsistent MetaGGA calc.

 Electronic Relaxation 1
   ENCUT  =  400.0 eV  29.40 Ry    5.42 a.u.  14.00 14.03 14.10*2*pi/ulx,y,z
   ENINI  =  400.0     initial cutoff
   ENAUG  =  644.9 eV  augmentation charge cutoff
   NELM   =     60;   NELMIN=  2; NELMDL= -5     # of ELM steps 
   EDIFF  = 0.1E-04   stopping-criterion for ELM
   LREAL  =      F    real-space projection
   NLSPLINE    = F    spline interpolate recip. space projectors
   LCOMPAT=      F    compatible to vasp.4.4
   GGA_COMPAT  = T    GGA compatible to vasp.4.4-vasp.4.6
   LMAXPAW     = -100 max onsite density
   LMAXMIX     =    2 max onsite mixed and CHGCAR
   VOSKOWN=      0    Vosko Wilk Nusair interpolation
   ROPT   =    0.00000   0.00000   0.00000   0.00000
   ROPT   =    0.00000   0.00000   0.00000
 Ionic relaxation
   EDIFFG = -.1E-01   stopping-criterion for IOM
   NSW    =      0    number of steps for IOM
   NBLOCK =      1;   KBLOCK =      1    inner block; outer block 
   IBRION =     -1    ionic relax: 0-MD 1-quasi-New 2-CG
   NFREE  =      0    steps in history (QN), initial steepest desc. (CG)
   ISIF   =      2    stress and relaxation
   IWAVPR =     10    prediction:  0-non 1-charg 2-wave 3-comb
   ISYM   =      2    0-nonsym 1-usesym 2-fastsym
   LCORR  =      T    Harris-Foulkes like correction to forces

   POTIM  = 0.5000    time-step for ionic-motion
   TEIN   =    0.0    initial temperature
   TEBEG  =    0.0;   TEEND  =   0.0 temperature during run
   SMASS  =  -3.00    Nose mass-parameter (am)
   estimated Nose-frequenzy (Omega)   =  0.10E-29 period in steps =****** mass=  -0.168E-26a.u.
   SCALEE = 1.0000    scale energy and forces
   NPACO  =    256;   APACO  = 16.0  distance and # of slots for P.C.
   PSTRESS=    0.0 pullay stress

  Mass of Ions in am
   POMASS =  92.91183.85 50.94 14.00 12.01 52.00 95.94
  Ionic Valenz
   ZVAL   =  13.00 12.00 13.00  5.00  4.00 12.00  6.00
  Atomic Wigner-Seitz radii
   RWIGS  =  -1.00 -1.00 -1.00 -1.00 -1.00 -1.00 -1.00
  virtual crystal weights 
   VCA    =   1.00  1.00  1.00  1.00  1.00  1.00  1.00
   NELECT =     503.0000    total number of electrons
   NUPDOWN=      -1.0000    fix difference up-down

 DOS related values:
   EMIN   =  10.00;   EMAX   =-10.00  energy-range for DOS
   EFERMI =   0.00
   ISMEAR =     0;   SIGMA  =   0.10  broadening in eV -4-tet -1-fermi 0-gaus

 Electronic relaxation 2 (details)
   IALGO  =     68    algorithm
   LDIAG  =      T    sub-space diagonalisation (order eigenvalues)
   LSUBROT=      F    optimize rotation matrix (better conditioning)
   TURBO    =      0    0=normal 1=particle mesh
   IRESTART =      0    0=no restart 2=restart with 2 vectors
   NREBOOT  =      0    no. of reboots
   NMIN     =      0    reboot dimension
   EREF     =   0.00    reference energy to select bands
   IMIX   =      4    mixing-type and parameters
     AMIX     =   0.40;   BMIX     =  1.00
     AMIX_MAG =   1.60;   BMIX_MAG =  1.00
     AMIN     =   0.10
     WC   =   100.;   INIMIX=   1;  MIXPRE=   1;  MAXMIX= -45

 Intra band minimization:
   WEIMIN = 0.0000     energy-eigenvalue tresh-hold
   EBREAK =  0.80E-08  absolut break condition
   DEPER  =   0.30     relativ break condition  

   TIME   =   0.40     timestep for ELM

  volume/ion in A,a.u.               =       9.98        67.32
  Fermi-wavevector in a.u.,A,eV,Ry     =   1.512044  2.857350 31.106706  2.286278
  Thomas-Fermi vector in A             =   2.622021
 
 Write flags
   LWAVE        =      T    write WAVECAR
   LDOWNSAMPLE  =      F    k-point downsampling of WAVECAR
   LCHARG       =      T    write CHGCAR
   LVTOT        =      F    write LOCPOT, total local potential
   LVHAR        =      F    write LOCPOT, Hartree potential only
   LELF         =      F    write electronic localiz. function (ELF)
   LORBIT       =      0    0 simple, 1 ext, 2 COOP (PROOUT), +10 PAW based schemes


 Dipole corrections
   LMONO  =      F    monopole corrections only (constant potential shift)
   LDIPOL =      F    correct potential (dipole corrections)
   IDIPOL =      0    1-x, 2-y, 3-z, 4-all directions 
   EPSILON=  1.0000000 bulk dielectric constant

 Exchange correlation treatment:
   GGA     =    --    GGA type
   LEXCH   =     8    internal setting for exchange type
   VOSKOWN=      0    Vosko Wilk Nusair interpolation
   LHFCALC =     F    Hartree Fock is set to
   LHFONE  =     F    Hartree Fock one center treatment
   AEXX    =    0.0000 exact exchange contribution

 Linear response parameters
   LEPSILON=     F    determine dielectric tensor
   LRPA    =     F    only Hartree local field effects (RPA)
   LNABLA  =     F    use nabla operator in PAW spheres
   LVEL    =     F    velocity operator in full k-point grid
   LINTERFAST=   F  fast interpolation
   KINTER  =     0    interpolate to denser k-point grid
   CSHIFT  =0.1000    complex shift for real part using Kramers Kronig
   OMEGAMAX=  -1.0    maximum frequency
   DEG_THRESHOLD= 0.2000000E-02 threshold for treating states as degnerate
   RTIME   =   -0.100 relaxation time in fs
  (WPLASMAI=    0.000 imaginary part of plasma frequency in eV, 0.658/RTIME)
   DFIELD  = 0.0000000 0.0000000 0.0000000 field for delta impulse in time
 
 Orbital magnetization related:
   ORBITALMAG=     F  switch on orbital magnetization
   LCHIMAG   =     F  perturbation theory with respect to B field
   DQ        =  0.001000  dq finite difference perturbation B field
   LLRAUG    =     F  two centre corrections for induced B field



--------------------------------------------------------------------------------------------------------


 Static calculation
 charge density and potential will be updated during run
 non-spin polarized calculation
 RMM-DIIS sequential band-by-band and
  variant of blocked Davidson during initial phase
 perform sub-space diagonalisation
    before iterative eigenvector-optimisation
 modified Broyden-mixing scheme, WC =      100.0
 initial mixing is a Kerker type mixing with AMIX =  0.4000 and BMIX =      1.0000
 Hartree-type preconditioning will be used
 using additional bands           60
 reciprocal scheme for non local part
 use partial core corrections
 calculate Harris-corrections to forces 
   (improved forces if not selfconsistent)
 use gradient corrections 
 use of overlap-Matrix (Vanderbilt PP)
 Gauss-broadening in eV      SIGMA  =   0.10


--------------------------------------------------------------------------------------------------------


  energy-cutoff  :      400.00
  volume of cell :      638.41
      direct lattice vectors                 reciprocal lattice vectors
     8.583736419  0.005071989  0.005395387     0.116499776 -0.000145822 -0.000486906
     0.010825281  8.601717000  0.014013091    -0.000068702  0.116255924  0.000013068
     0.036136355 -0.000950557  8.646466862    -0.000072584 -0.000188322  0.115654459

  length of vectors
     8.583739613  8.601735226  8.646542426     0.116500884  0.116255945  0.115654635


 
 k-points in units of 2pi/SCALE and weight: HECN                                    
   0.00000000  0.00000000  0.00000000       0.037
   0.03883326 -0.00004861 -0.00016230       0.074
  -0.00002290  0.03875197  0.00000436       0.074
   0.03881036  0.03870337 -0.00015795       0.074
  -0.03885616  0.03880058  0.00016666       0.074
  -0.00002419 -0.00006277  0.03855149       0.074
   0.03880906 -0.00011138  0.03838918       0.074
  -0.03885745 -0.00001417  0.03871379       0.074
  -0.00004710  0.03868920  0.03855584       0.074
   0.03878616  0.03864059  0.03839354       0.074
  -0.03888035  0.03873781  0.03871814       0.074
  -0.00000129 -0.03881475  0.03854713       0.074
   0.03883196 -0.03886336  0.03838483       0.074
  -0.03883455 -0.03876614  0.03870943       0.074
 
 k-points in reciprocal lattice and weights: HECN                                    
   0.00000000  0.00000000  0.00000000       0.037
   0.33333333  0.00000000  0.00000000       0.074
  -0.00000000  0.33333333  0.00000000       0.074
   0.33333333  0.33333333  0.00000000       0.074
  -0.33333333  0.33333333 -0.00000000       0.074
   0.00000000  0.00000000  0.33333333       0.074
   0.33333333 -0.00000000  0.33333333       0.074
  -0.33333333  0.00000000  0.33333333       0.074
   0.00000000  0.33333333  0.33333333       0.074
   0.33333333  0.33333333  0.33333333       0.074
  -0.33333333  0.33333333  0.33333333       0.074
   0.00000000 -0.33333333  0.33333333       0.074
   0.33333333 -0.33333333  0.33333333       0.074
  -0.33333333 -0.33333333  0.33333333       0.074
 
 position of ions in fractional coordinates (direct lattice) 
   0.00831991  0.00864620  0.98783184
   0.26047687  0.99713207  0.24512501
   0.25240122  0.49927178  0.24864728
   0.50340679  0.49949316  0.00146452
   0.50690342  0.24257322  0.75133746
   0.99659473  0.50044815  0.50733207
   0.49665146  0.76111560  0.74486279
   0.98485663  0.23211516  0.25547889
   0.76452642  0.74651352  0.00054544
   0.01333618  0.23583216  0.75236263
   0.76016942  0.23962593  0.48372596
   0.00403380  0.73839387  0.75431033
   0.25439193  0.50265990  0.75066822
   0.26426943  0.24977399  0.98440844
   0.51924092  0.23002546  0.26234607
   0.73553742  0.01194202  0.28117832
   0.73461219  0.24426346  0.98208379
   0.23879865  0.74255303  0.00313628
   0.25006734  0.25375046  0.51366339
   0.25293715  0.74316480  0.49470399
   0.24689224  0.24616982  0.24871568
   0.26548765  0.99975608  0.99624943
   0.00566063  0.25759608  0.00840262
   0.74692099  0.24833034  0.23213011
   0.74837677  0.00046389  0.99972548
   0.50715288  0.99395197  0.24451645
   0.99787323  0.49049611  0.25162832
   0.50050726  0.75740778  0.99821364
   0.99045131  0.98903082  0.73947897
   0.76051350  0.23157037  0.74179561
   0.74026811  0.99906976  0.50651449
   0.50210528  0.24829095  0.49347779
   0.48998810  0.00284865  0.74401616
   0.99187327  0.99769359  0.24432629
   0.50090287  0.24578159  0.00771405
   0.25984136  0.74805972  0.24742531
   0.24120602  0.49759951  0.99705272
   0.00701495  0.74748144  0.00586999
   0.73959829  0.76421841  0.24460107
   0.76286169  0.49058569  0.00848519
   0.49829108  0.49535846  0.24943049
   0.25683972  0.24437379  0.74822198
   0.25642282  0.00066017  0.51001073
   0.00889759  0.24733066  0.50175211
   0.24716581  0.76021044  0.75033143
   0.25128109  0.49816993  0.50150860
   0.00596596  0.75083950  0.50446926
   0.99934563  0.48761662  0.75573082
   0.75269354  0.76666988  0.74847074
   0.74687542  0.48928674  0.50532469
   0.49520443  0.76867596  0.49300186
   0.49959491  0.50269884  0.74752010
   0.51549608  0.01674083  0.98095319
   0.99280099  0.51959554  0.97395086
   0.50078836  0.73646867  0.27492970
   0.22112160  0.01034318  0.77392263
   0.47254266  0.01430237  0.48441276
   0.71734801  0.99940744  0.77839049
   0.00385411  0.76214206  0.25808554
   0.73525563  0.51972095  0.25338014
   0.02160614  0.99747282  0.49144741
   0.50007650  0.51733517  0.49301759
   0.74605735  0.51641333  0.76065431
   0.74744667  0.74246990  0.49553064
 
 position of ions in cartesian coordinates  (Angst):
   0.10720618  0.07347537  8.54142128
   2.25551693  8.57813603  2.13484359
   2.18093554  4.29563834  2.15827858
   4.32657128  4.29905068  0.02237845
   4.38090191  2.08840299  6.50254859
   8.57825708  4.30928585  4.39901980
   4.29828113  6.54871198  6.45377664
   8.46549451  2.00134127  2.21755608
   6.57059419  6.42517518  0.01930202
   0.14421481  2.02791399  6.50865524
   6.54516803  2.06459017  4.18997982
   0.06987639  6.35075851  6.53248821
   2.21620111  4.32431492  6.49904425
   2.30669591  2.14888981  8.51658087
   4.46899756  1.98099815  2.27439150
   6.32394938  0.10618524  2.43533490
   6.34385055  2.10387754  8.49894135
   2.05793634  6.38843925  0.03881164
   2.16782096  2.18346972  4.44627850
   2.19706760  6.39330597  4.28922037
   2.13091042  2.11849892  2.15529359
   2.32569945  8.60001841  8.62947977
   0.05168151  2.21578929  0.07629328
   6.42244945  2.13963500  2.01461510
   6.46000041  0.00683572  8.64813748
   4.37286241  8.55203339  2.13086799
   8.57988350  4.22393073  2.18795321
   4.34049334  6.51659711  8.64433522
   8.53920161  8.51168386  6.41308362
   6.55736000  1.99505500  6.42125940
   6.38338510  8.59698850  4.39755480
   4.33045969  2.13780609  4.27302772
   4.23284557  0.02628127  6.43579470
   8.53360805  8.58667644  2.13189144
   4.30255762  2.11667695  0.07284602
   2.24744875  6.43568072  2.15123934
   2.11186542  4.28048581  8.62925761
   0.06851830  6.42965385  0.06126702
   6.36562861  6.57710919  2.12963456
   6.55382102  4.22374043  0.08435747
   4.29157524  4.26322355  2.16632241
   2.23432791  2.10262561  6.47428672
   2.21950300  0.00649435  4.41118360
   0.09718349  2.12703657  4.34189685
   2.15694991  6.53965544  6.49970230
   2.18044620  4.28591450  4.34461419
   0.07756795  6.45805966  4.37243052
   8.61070741  4.19869049  6.54662635
   6.49626938  6.59778352  6.48643191
   6.43453902  4.21201391  4.38015925
   4.27684070  6.61397616  4.27616761
   4.32084557  4.32589657  6.47314768
   4.46051177  0.14568203  8.48479514
   8.56276180  4.47352343  8.43387154
   4.31654273  6.33717371  2.39019267
   1.92612825  0.08935496  6.69303433
   4.07384141  0.12496117  4.19120888
   6.19647333  8.59951843  6.74820274
   0.05065933  6.55550452  2.24222883
   6.32602289  4.47398084  2.20209285
   0.21401849  8.57962138  4.26337802
   4.31594103  4.45203846  4.27280780
   6.43703728  4.44510226  6.58823406
   6.44182930  6.38983594  4.29902629
 


--------------------------------------------------------------------------------------------------------


 k-point  1 :   0.0000 0.0000 0.0000  plane waves:   11597
 k-point  2 :   0.3333 0.0000 0.0000  plane waves:   11569
 k-point  3 :  -0.0000 0.3333 0.0000  plane waves:   11576
 k-point  4 :   0.3333 0.3333 0.0000  plane waves:   11609
 k-point  5 :  -0.3333 0.3333-0.0000  plane waves:   11601
 k-point  6 :   0.0000 0.0000 0.3333  plane waves:   11580
 k-point  7 :   0.3333-0.0000 0.3333  plane waves:   11594
 k-point  8 :  -0.3333 0.0000 0.3333  plane waves:   11588
 k-point  9 :   0.0000 0.3333 0.3333  plane waves:   11596
 k-point 10 :   0.3333 0.3333 0.3333  plane waves:   11612
 k-point 11 :  -0.3333 0.3333 0.3333  plane waves:   11609
 k-point 12 :   0.0000-0.3333 0.3333  plane waves:   11589
 k-point 13 :   0.3333-0.3333 0.3333  plane waves:   11615
 k-point 14 :  -0.3333-0.3333 0.3333  plane waves:   11610

 maximum and minimum number of plane-waves per node :     11615    11569

 maximum number of plane-waves:     11615
 maximum index in each direction: 
   IXMAX=   14   IYMAX=   14   IZMAX=   14
   IXMIN=  -14   IYMIN=  -14   IZMIN=  -14


 serial   3D FFT for wavefunctions
 parallel 3D FFT for charge:
    minimum data exchange during FFTs selected (reduces bandwidth)


 total amount of memory used by VASP MPI-rank0   250092. kBytes
=======================================================================

   base      :      30000. kBytes
   nonl-proj :     175819. kBytes
   fftplans  :       1252. kBytes
   grid      :       5755. kBytes
   one-center:        995. kBytes
   wavefun   :      36271. kBytes
 
     INWAV:  cpu time    0.0000: real time    0.0000
 Broyden mixing: mesh for mixing (old mesh)
   NGX = 27   NGY = 29   NGZ = 29
  (NGX  = 84   NGY  = 84   NGZ  = 84)
  gives a total of  22707 points

 initial charge density was supplied:
 charge density of overlapping atoms calculated
 number of electron     503.0000000 magnetization 
 keeping initial charge density in first step


--------------------------------------------------------------------------------------------------------


 Maximum index for augmentation-charges          464 (set IRDMAX)


--------------------------------------------------------------------------------------------------------


 First call to EWALD:  gamma=   0.206
 Maximum number of real-space cells 3x 3x 3
 Maximum number of reciprocal cells 3x 3x 3

    FEWALD:  cpu time    0.0034: real time    0.0034


--------------------------------------- Iteration      1(   1)  ---------------------------------------


    POTLOK:  cpu time    0.0654: real time    0.0718
    SETDIJ:  cpu time    0.0074: real time    0.0074
     EDDAV:  cpu time   31.5351: real time   32.0510
       DOS:  cpu time    0.0015: real time    0.0015
    --------------------------------------------
      LOOP:  cpu time   31.6094: real time   32.1318

 eigenvalue-minimisations  :  8880
 total energy-change (2. order) : 0.7103784E+04  (-0.2114123E+05)
 number of electron     503.0000000 magnetization 
 augmentation part      503.0000000 magnetization 

 Free energy of the ion-electron system (eV)
  ---------------------------------------------------
  alpha Z        PSCENC =      4120.39198108
  Ewald energy   TEWEN  =    -41684.57660330
  -Hartree energ DENC   =    -10149.03358167
  -exchange      EXHF   =         0.00000000
  -V(xc)+E(xc)   XCENC  =      1616.72556801
  PAW double counting   =     32005.41651284   -31805.94553564
  entropy T*S    EENTRO =        -0.06616361
  eigenvalues    EBANDS =      3471.04847076
  atomic energy  EATOM  =     49529.82357030
  Solvation  Ediel_sol  =         0.00000000
  ---------------------------------------------------
  free energy    TOTEN  =      7103.78421877 eV

  energy without entropy =     7103.85038238  energy(sigma->0) =     7103.81730058


--------------------------------------------------------------------------------------------------------




--------------------------------------- Iteration      1(   2)  ---------------------------------------


     EDDAV:  cpu time   31.1613: real time   31.5989
       DOS:  cpu time    0.0013: real time    0.0013
    --------------------------------------------
      LOOP:  cpu time   31.1625: real time   31.6002

 eigenvalue-minimisations  :  8808
 total energy-change (2. order) :-0.6696352E+04  (-0.6481087E+04)
 number of electron     503.0000000 magnetization 
 augmentation part      503.0000000 magnetization 

 Free energy of the ion-electron system (eV)
  ---------------------------------------------------
  alpha Z        PSCENC =      4120.39198108
  Ewald energy   TEWEN  =    -41684.57660330
  -Hartree energ DENC   =    -10149.03358167
  -exchange      EXHF   =         0.00000000
  -V(xc)+E(xc)   XCENC  =      1616.72556801
  PAW double counting   =     32005.41651284   -31805.94553564
  entropy T*S    EENTRO =        -0.12243577
  eigenvalues    EBANDS =     -3225.24732222
  atomic energy  EATOM  =     49529.82357030
  Solvation  Ediel_sol  =         0.00000000
  ---------------------------------------------------
  free energy    TOTEN  =       407.43215363 eV

  energy without entropy =      407.55458940  energy(sigma->0) =      407.49337152


--------------------------------------------------------------------------------------------------------




--------------------------------------- Iteration      1(   3)  ---------------------------------------


     EDDAV:  cpu time   44.8967: real time   45.5669
       DOS:  cpu time    0.0014: real time    0.0014
    --------------------------------------------
      LOOP:  cpu time   44.8980: real time   45.5683

 eigenvalue-minimisations  : 13680
 total energy-change (2. order) :-0.1047154E+04  (-0.9731269E+03)
 number of electron     503.0000000 magnetization 
 augmentation part      503.0000000 magnetization 

 Free energy of the ion-electron system (eV)
  ---------------------------------------------------
  alpha Z        PSCENC =      4120.39198108
  Ewald energy   TEWEN  =    -41684.57660330
  -Hartree energ DENC   =    -10149.03358167
  -exchange      EXHF   =         0.00000000
  -V(xc)+E(xc)   XCENC  =      1616.72556801
  PAW double counting   =     32005.41651284   -31805.94553564
  entropy T*S    EENTRO =        -0.11979808
  eigenvalues    EBANDS =     -4272.40389749
  atomic energy  EATOM  =     49529.82357030
  Solvation  Ediel_sol  =         0.00000000
  ---------------------------------------------------
  free energy    TOTEN  =      -639.72178394 eV

  energy without entropy =     -639.60198587  energy(sigma->0) =     -639.66188490


--------------------------------------------------------------------------------------------------------




--------------------------------------- Iteration      1(   4)  ---------------------------------------


     EDDAV:  cpu time   47.7763: real time   48.0983
       DOS:  cpu time    0.0014: real time    0.0014
    --------------------------------------------
      LOOP:  cpu time   47.7777: real time   48.0997

 eigenvalue-minimisations  : 14688
 total energy-change (2. order) :-0.1212320E+03  (-0.1172853E+03)
 number of electron     503.0000000 magnetization 
 augmentation part      503.0000000 magnetization 

 Free energy of the ion-electron system (eV)
  ---------------------------------------------------
  alpha Z        PSCENC =      4120.39198108
  Ewald energy   TEWEN  =    -41684.57660330
  -Hartree energ DENC   =    -10149.03358167
  -exchange      EXHF   =         0.00000000
  -V(xc)+E(xc)   XCENC  =      1616.72556801
  PAW double counting   =     32005.41651284   -31805.94553564
  entropy T*S    EENTRO =        -0.11947139
  eigenvalues    EBANDS =     -4393.63622313
  atomic energy  EATOM  =     49529.82357030
  Solvation  Ediel_sol  =         0.00000000
  ---------------------------------------------------
  free energy    TOTEN  =      -760.95378291 eV

  energy without entropy =     -760.83431151  energy(sigma->0) =     -760.89404721


--------------------------------------------------------------------------------------------------------




--------------------------------------- Iteration      1(   5)  ---------------------------------------


     EDDAV:  cpu time   54.2510: real time   54.7453
       DOS:  cpu time    0.0014: real time    0.0014
    CHARGE:  cpu time    0.1921: real time    0.1938
    MIXING:  cpu time    0.0013: real time    0.0013
    --------------------------------------------
      LOOP:  cpu time   54.4457: real time   54.9419

 eigenvalue-minimisations  : 17328
 total energy-change (2. order) :-0.1695173E+02  (-0.1656603E+02)
 number of electron     503.0000014 magnetization 
 augmentation part      100.5359933 magnetization 

 Broyden mixing:
  rms(total) = 0.73612E+01    rms(broyden)= 0.73593E+01
  rms(prec ) = 0.11460E+02
  weight for this iteration     100.00

 Free energy of the ion-electron system (eV)
  ---------------------------------------------------
  alpha Z        PSCENC =      4120.39198108
  Ewald energy   TEWEN  =    -41684.57660330
  -Hartree energ DENC   =    -10149.03358167
  -exchange      EXHF   =         0.00000000
  -V(xc)+E(xc)   XCENC  =      1616.72556801
  PAW double counting   =     32005.41651284   -31805.94553564
  entropy T*S    EENTRO =        -0.12012797
  eigenvalues    EBANDS =     -4410.58729566
  atomic energy  EATOM  =     49529.82357030
  Solvation  Ediel_sol  =         0.00000000
  ---------------------------------------------------
  free energy    TOTEN  =      -777.90551201 eV

  energy without entropy =     -777.78538404  energy(sigma->0) =     -777.84544803


--------------------------------------------------------------------------------------------------------




--------------------------------------- Iteration      1(   6)  ---------------------------------------


    POTLOK:  cpu time    0.0197: real time    0.0238
    SETDIJ:  cpu time    0.0070: real time    0.0070
    EDDIAG:  cpu time    1.8189: real time    1.8330
  RMM-DIIS:  cpu time   25.8592: real time   26.1151
    ORTHCH:  cpu time    0.5409: real time    0.5459
       DOS:  cpu time    0.0012: real time    0.0012
    CHARGE:  cpu time    0.1895: real time    0.1911
    MIXING:  cpu time    0.0013: real time    0.0013
    --------------------------------------------
      LOOP:  cpu time   28.4377: real time   28.7184

 eigenvalue-minimisations  : 11972
 total energy-change (2. order) :-0.8025385E+01  (-0.1676255E+03)
 number of electron     503.0000064 magnetization 
 augmentation part      137.0678161 magnetization 

 Broyden mixing:
  rms(total) = 0.97614E+01    rms(broyden)= 0.97597E+01
  rms(prec ) = 0.16404E+02
  weight for this iteration     100.00

 eigenvalues of (default mixing * dielectric matrix)
  average eigenvalue GAMMA=   0.4154
  0.4154

 Free energy of the ion-electron system (eV)
  ---------------------------------------------------
  alpha Z        PSCENC =      4120.39198108
  Ewald energy   TEWEN  =    -41684.57660330
  -Hartree energ DENC   =     -9286.12852125
  -exchange      EXHF   =         0.00000000
  -V(xc)+E(xc)   XCENC  =      1599.58901938
  PAW double counting   =     30776.06784323   -30599.17203382
  entropy T*S    EENTRO =        -0.16064604
  eigenvalues    EBANDS =     -5241.76550636
  atomic energy  EATOM  =     49529.82357030
  Solvation  Ediel_sol  =         0.00000000
  ---------------------------------------------------
  free energy    TOTEN  =      -785.93089678 eV

  energy without entropy =     -785.77025074  energy(sigma->0) =     -785.85057376


--------------------------------------------------------------------------------------------------------




--------------------------------------- Iteration      1(   7)  ---------------------------------------


    POTLOK:  cpu time    0.0195: real time    0.0232
    SETDIJ:  cpu time    0.0069: real time    0.0070
    EDDIAG:  cpu time    1.8141: real time    1.8333
  RMM-DIIS:  cpu time   25.5021: real time   25.8784
    ORTHCH:  cpu time    0.6013: real time    0.6107
       DOS:  cpu time    0.0012: real time    0.0012
    CHARGE:  cpu time    0.2050: real time    0.2065
    MIXING:  cpu time    0.0010: real time    0.0013
    --------------------------------------------
      LOOP:  cpu time   28.1511: real time   28.5615

 eigenvalue-minimisations  : 12458
 total energy-change (2. order) : 0.1177023E+03  (-0.2876029E+02)
 number of electron     503.0000052 magnetization 
 augmentation part      110.8178264 magnetization 

 Broyden mixing:
  rms(total) = 0.54088E+01    rms(broyden)= 0.54064E+01
  rms(prec ) = 0.97147E+01
  weight for this iteration     100.00

 eigenvalues of (default mixing * dielectric matrix)
  average eigenvalue GAMMA=   0.4619
  0.6721  0.2518

 Free energy of the ion-electron system (eV)
  ---------------------------------------------------
  alpha Z        PSCENC =      4120.39198108
  Ewald energy   TEWEN  =    -41684.57660330
  -Hartree energ DENC   =     -9753.66303591
  -exchange      EXHF   =         0.00000000
  -V(xc)+E(xc)   XCENC  =      1615.67383521
  PAW double counting   =     31931.14973451   -31806.36530337
  entropy T*S    EENTRO =        -0.18661312
  eigenvalues    EBANDS =     -4620.47619055
  atomic energy  EATOM  =     49529.82357030
  Solvation  Ediel_sol  =         0.00000000
  ---------------------------------------------------
  free energy    TOTEN  =      -668.22862515 eV

  energy without entropy =     -668.04201203  energy(sigma->0) =     -668.13531859


--------------------------------------------------------------------------------------------------------




--------------------------------------- Iteration      1(   8)  ---------------------------------------


    POTLOK:  cpu time    0.0219: real time    0.0223
    SETDIJ:  cpu time    0.0069: real time    0.0070
    EDDIAG:  cpu time    1.8349: real time    1.8576
  RMM-DIIS:  cpu time   29.5704: real time   29.9921
    ORTHCH:  cpu time    0.4279: real time    0.4321
       DOS:  cpu time    0.0012: real time    0.0012
    CHARGE:  cpu time    0.1900: real time    0.1914
    MIXING:  cpu time    0.0010: real time    0.0010
    --------------------------------------------
      LOOP:  cpu time   32.0542: real time   32.5046

 eigenvalue-minimisations  : 13595
 total energy-change (2. order) : 0.1672174E+02  (-0.8788336E+01)
 number of electron     503.0000044 magnetization 
 augmentation part      113.6555342 magnetization 

 Broyden mixing:
  rms(total) = 0.31498E+01    rms(broyden)= 0.31454E+01
  rms(prec ) = 0.55328E+01
  weight for this iteration     100.00

 eigenvalues of (default mixing * dielectric matrix)
  average eigenvalue GAMMA=   0.4671
  0.8129  0.3808  0.2076

 Free energy of the ion-electron system (eV)
  ---------------------------------------------------
  alpha Z        PSCENC =      4120.39198108
  Ewald energy   TEWEN  =    -41684.57660330
  -Hartree energ DENC   =     -9704.00892892
  -exchange      EXHF   =         0.00000000
  -V(xc)+E(xc)   XCENC  =      1613.38760181
  PAW double counting   =     32257.70960503   -32134.81277312
  entropy T*S    EENTRO =        -0.14569944
  eigenvalues    EBANDS =     -4649.27564193
  atomic energy  EATOM  =     49529.82357030
  Solvation  Ediel_sol  =         0.00000000
  ---------------------------------------------------
  free energy    TOTEN  =      -651.50688848 eV

  energy without entropy =     -651.36118904  energy(sigma->0) =     -651.43403876


--------------------------------------------------------------------------------------------------------




--------------------------------------- Iteration      1(   9)  ---------------------------------------


    POTLOK:  cpu time    0.0201: real time    0.0232
    SETDIJ:  cpu time    0.0069: real time    0.0069
    EDDIAG:  cpu time    1.8128: real time    1.8307
  RMM-DIIS:  cpu time   33.3050: real time   33.8361
    ORTHCH:  cpu time    0.4306: real time    0.4350
       DOS:  cpu time    0.0011: real time    0.0011
    CHARGE:  cpu time    0.1914: real time    0.1934
    MIXING:  cpu time    0.0011: real time    0.0011
    --------------------------------------------
      LOOP:  cpu time   35.7690: real time   36.3275

 eigenvalue-minimisations  : 15164
 total energy-change (2. order) : 0.1099828E+02  (-0.2720617E+01)
 number of electron     503.0000013 magnetization 
 augmentation part      113.1720571 magnetization 

 Broyden mixing:
  rms(total) = 0.20450E+01    rms(broyden)= 0.20432E+01
  rms(prec ) = 0.34007E+01
  weight for this iteration     100.00

 eigenvalues of (default mixing * dielectric matrix)
  average eigenvalue GAMMA=   0.3943
  0.7935  0.3788  0.2082  0.1966

 Free energy of the ion-electron system (eV)
  ---------------------------------------------------
  alpha Z        PSCENC =      4120.39198108
  Ewald energy   TEWEN  =    -41684.57660330
  -Hartree energ DENC   =     -9615.72209399
  -exchange      EXHF   =         0.00000000
  -V(xc)+E(xc)   XCENC  =      1609.40766781
  PAW double counting   =     32413.59755742   -32294.69408093
  entropy T*S    EENTRO =        -0.18056432
  eigenvalues    EBANDS =     -4718.55604128
  atomic energy  EATOM  =     49529.82357030
  Solvation  Ediel_sol  =         0.00000000
  ---------------------------------------------------
  free energy    TOTEN  =      -640.50860721 eV

  energy without entropy =     -640.32804289  energy(sigma->0) =     -640.41832505


--------------------------------------------------------------------------------------------------------




--------------------------------------- Iteration      1(  10)  ---------------------------------------


    POTLOK:  cpu time    0.0198: real time    0.0235
    SETDIJ:  cpu time    0.0069: real time    0.0070
    EDDIAG:  cpu time    1.8115: real time    1.8304
  RMM-DIIS:  cpu time   32.1466: real time   32.6437
    ORTHCH:  cpu time    0.4290: real time    0.4337
       DOS:  cpu time    0.0012: real time    0.0012
    CHARGE:  cpu time    0.1900: real time    0.1914
    MIXING:  cpu time    0.0011: real time    0.0011
    --------------------------------------------
      LOOP:  cpu time   34.6062: real time   35.1320

 eigenvalue-minimisations  : 15114
 total energy-change (2. order) : 0.2146449E+01  (-0.9397613E+00)
 number of electron     503.0000042 magnetization 
 augmentation part      113.2734893 magnetization 

 Broyden mixing:
  rms(total) = 0.12168E+01    rms(broyden)= 0.12151E+01
  rms(prec ) = 0.18772E+01
  weight for this iteration     100.00

 eigenvalues of (default mixing * dielectric matrix)
  average eigenvalue GAMMA=   0.4318
  0.6806  0.6806  0.4476  0.2114  0.1387

 Free energy of the ion-electron system (eV)
  ---------------------------------------------------
  alpha Z        PSCENC =      4120.39198108
  Ewald energy   TEWEN  =    -41684.57660330
  -Hartree energ DENC   =     -9606.78783363
  -exchange      EXHF   =         0.00000000
  -V(xc)+E(xc)   XCENC  =      1608.74321233
  PAW double counting   =     32494.51056386   -32374.09997751
  entropy T*S    EENTRO =        -0.15968601
  eigenvalues    EBANDS =     -4726.20738502
  atomic energy  EATOM  =     49529.82357030
  Solvation  Ediel_sol  =         0.00000000
  ---------------------------------------------------
  free energy    TOTEN  =      -638.36215789 eV

  energy without entropy =     -638.20247189  energy(sigma->0) =     -638.28231489


--------------------------------------------------------------------------------------------------------




--------------------------------------- Iteration      1(  11)  ---------------------------------------


    POTLOK:  cpu time    0.0199: real time    0.0234
    SETDIJ:  cpu time    0.0068: real time    0.0069
    EDDIAG:  cpu time    1.8203: real time    1.8375
  RMM-DIIS:  cpu time   33.6899: real time   34.0713
    ORTHCH:  cpu time    0.4387: real time    0.4479
       DOS:  cpu time    0.0012: real time    0.0012
    CHARGE:  cpu time    0.1901: real time    0.1917
    MIXING:  cpu time    0.0012: real time    0.0012
    --------------------------------------------
      LOOP:  cpu time   36.1683: real time   36.5811

 eigenvalue-minimisations  : 15569
 total energy-change (2. order) : 0.5407931E+00  (-0.5111344E+00)
 number of electron     503.0000032 magnetization 
 augmentation part      113.7480330 magnetization 

 Broyden mixing:
  rms(total) = 0.10393E+01    rms(broyden)= 0.10387E+01
  rms(prec ) = 0.15714E+01
  weight for this iteration     100.00

 eigenvalues of (default mixing * dielectric matrix)
  average eigenvalue GAMMA=   0.4823
  0.9604  0.9604  0.4216  0.2181  0.2075  0.1256

 Free energy of the ion-electron system (eV)
  ---------------------------------------------------
  alpha Z        PSCENC =      4120.39198108
  Ewald energy   TEWEN  =    -41684.57660330
  -Hartree energ DENC   =     -9601.40150179
  -exchange      EXHF   =         0.00000000
  -V(xc)+E(xc)   XCENC  =      1607.93308462
  PAW double counting   =     32638.33099979   -32514.94663263
  entropy T*S    EENTRO =        -0.16727587
  eigenvalues    EBANDS =     -4733.20898701
  atomic energy  EATOM  =     49529.82357030
  Solvation  Ediel_sol  =         0.00000000
  ---------------------------------------------------
  free energy    TOTEN  =      -637.82136481 eV

  energy without entropy =     -637.65408893  energy(sigma->0) =     -637.73772687


--------------------------------------------------------------------------------------------------------




--------------------------------------- Iteration      1(  12)  ---------------------------------------


    POTLOK:  cpu time    0.0197: real time    0.0227
    SETDIJ:  cpu time    0.0070: real time    0.0070
    EDDIAG:  cpu time    1.8286: real time    1.8408
  RMM-DIIS:  cpu time   33.4831: real time   33.8481
    ORTHCH:  cpu time    0.4289: real time    0.4332
       DOS:  cpu time    0.0012: real time    0.0014
    CHARGE:  cpu time    0.1949: real time    0.1952
    MIXING:  cpu time    0.0012: real time    0.0012
    --------------------------------------------
      LOOP:  cpu time   35.9647: real time   36.3496

 eigenvalue-minimisations  : 15377
 total energy-change (2. order) : 0.5029752E+00  (-0.2597668E+00)
 number of electron     503.0000030 magnetization 
 augmentation part      113.8455024 magnetization 

 Broyden mixing:
  rms(total) = 0.81444E+00    rms(broyden)= 0.81377E+00
  rms(prec ) = 0.11878E+01
  weight for this iteration     100.00

 eigenvalues of (default mixing * dielectric matrix)
  average eigenvalue GAMMA=   0.5448
  1.2027  1.2027  0.4423  0.4423  0.2237  0.1763  0.1236

 Free energy of the ion-electron system (eV)
  ---------------------------------------------------
  alpha Z        PSCENC =      4120.39198108
  Ewald energy   TEWEN  =    -41684.57660330
  -Hartree energ DENC   =     -9593.99707536
  -exchange      EXHF   =         0.00000000
  -V(xc)+E(xc)   XCENC  =      1607.06726022
  PAW double counting   =     32798.66248936   -32672.39208086
  entropy T*S    EENTRO =        -0.16040626
  eigenvalues    EBANDS =     -4742.13752479
  atomic energy  EATOM  =     49529.82357030
  Solvation  Ediel_sol  =         0.00000000
  ---------------------------------------------------
  free energy    TOTEN  =      -637.31838961 eV

  energy without entropy =     -637.15798335  energy(sigma->0) =     -637.23818648


--------------------------------------------------------------------------------------------------------




--------------------------------------- Iteration      1(  13)  ---------------------------------------


    POTLOK:  cpu time    0.0197: real time    0.0231
    SETDIJ:  cpu time    0.0069: real time    0.0069
    EDDIAG:  cpu time    1.9249: real time    1.9549
  RMM-DIIS:  cpu time   30.6453: real time   31.0709
    ORTHCH:  cpu time    0.5437: real time    0.5449
       DOS:  cpu time    0.0011: real time    0.0011
    CHARGE:  cpu time    0.1902: real time    0.1917
    MIXING:  cpu time    0.0014: real time    0.0014
    --------------------------------------------
      LOOP:  cpu time   33.3333: real time   33.7950

 eigenvalue-minimisations  : 14331
 total energy-change (2. order) :-0.2630115E+00  (-0.3518707E+00)
 number of electron     503.0000044 magnetization 
 augmentation part      113.7950797 magnetization 

 Broyden mixing:
  rms(total) = 0.10856E+01    rms(broyden)= 0.10849E+01
  rms(prec ) = 0.18784E+01
  weight for this iteration     100.00

 eigenvalues of (default mixing * dielectric matrix)
  average eigenvalue GAMMA=   0.5679
  1.4045  1.4045  0.5918  0.4496  0.2372  0.1934  0.1415  0.1210

 Free energy of the ion-electron system (eV)
  ---------------------------------------------------
  alpha Z        PSCENC =      4120.39198108
  Ewald energy   TEWEN  =    -41684.57660330
  -Hartree energ DENC   =     -9582.96107681
[...]
  0.005  -0.007  -0.002  -0.003  -0.010  -0.002  -0.005  -0.013   0.624   0.021   0.012  -0.003  -0.005  -0.271   0.009   0.002
  0.013  -0.019  -0.014   0.024  -0.005  -0.014   0.028  -0.006   0.021   0.806  -0.024   0.000   0.004   0.009  -0.322  -0.001
 -0.025   0.034  -0.006   0.003  -0.010  -0.010   0.002  -0.013   0.012  -0.024   0.693  -0.013   0.049   0.003  -0.002  -0.547
  0.053  -0.079  -0.004   0.054  -0.051  -0.005   0.065  -0.061  -0.003   0.000  -0.013   0.852  -0.026   0.006  -0.005   0.002
  0.031  -0.045  -0.018  -0.003   0.023  -0.026  -0.004   0.029  -0.005   0.004   0.049  -0.026   0.671  -0.001  -0.001  -0.026
  0.007  -0.009   0.002   0.003   0.005  -0.001   0.005   0.007  -0.271   0.009   0.003   0.006  -0.001   0.206  -0.006  -0.003
 -0.004   0.010  -0.002  -0.009   0.003  -0.006  -0.005   0.004   0.009  -0.322  -0.002  -0.005  -0.001  -0.006   0.251   0.004
  0.014  -0.042   0.005   0.020   0.004   0.009   0.027   0.008   0.002  -0.001  -0.547   0.002  -0.026  -0.003   0.004   0.561
 -0.014   0.024   0.003  -0.008   0.013   0.004  -0.006   0.011   0.005  -0.005   0.002  -0.290   0.012  -0.005   0.003   0.002
 -0.027   0.047   0.023   0.008  -0.020   0.030   0.009  -0.024  -0.001  -0.002  -0.025   0.012  -0.530  -0.000  -0.004   0.011


------------------------ aborting loop because EDIFF is reached ----------------------------------------


    CHARGE:  cpu time    0.1933: real time    0.1943
    FORLOC:  cpu time    0.0109: real time    0.0109
    FORNL :  cpu time   28.4601: real time   28.6414
    STRESS:  cpu time   37.5241: real time   37.9868
    FORCOR:  cpu time    0.0253: real time    0.0254
    FORHAR:  cpu time    0.0146: real time    0.0147
    MIXING:  cpu time    0.0039: real time    0.0040
    OFIELD:  cpu time    0.0000: real time    0.0000

  FORCE on cell =-STRESS in cart. coord.  units (eV):
  Direction    XX          YY          ZZ          XY          YZ          ZX
  --------------------------------------------------------------------------------------
  Alpha Z  4120.39198  4120.39198  4120.39198
  Ewald  -13707.69326-14137.90784-13839.20703   276.83848   138.57597  -136.08970
  Hartree  3285.16323  2936.13755  3359.97727   249.49352    96.77516  -132.98497
  E(xc)   -2369.03100 -2368.01764 -2369.75920     0.07842     0.14866     0.03849
  Local    1104.16225  1867.81230  1150.70074  -525.37657  -236.95548   269.47781
  n-local -1222.89505 -1233.60279 -1226.57346    -0.51294     0.10331     2.77202
  augment  1110.33495  1117.77421  1113.74619     0.51786     0.20896    -0.02209
  Kinetic  7679.65708  7697.29838  7690.84786    -1.03910     1.13785    -3.18012
  Fock        0.00000     0.00000     0.00000     0.00000     0.00000     0.00000
  -------------------------------------------------------------------------------------
  Total       0.09019    -0.11386     0.12435    -0.00033    -0.00556     0.01144
  in kB       0.22634    -0.28574     0.31207    -0.00083    -0.01395     0.02872
  external pressure =        0.08 kB  Pullay stress =        0.00 kB


 VOLUME and BASIS-vectors are now :
 -----------------------------------------------------------------------------
  energy-cutoff  :      400.00
  volume of cell :      638.41
      direct lattice vectors                 reciprocal lattice vectors
     8.583736419  0.005071989  0.005395387     0.116499776 -0.000145822 -0.000486906
     0.010825281  8.601717000  0.014013091    -0.000068702  0.116255924  0.000013068
     0.036136355 -0.000950557  8.646466862    -0.000072584 -0.000188322  0.115654459

  length of vectors
     8.583739613  8.601735226  8.646542426     0.116500884  0.116255945  0.115654635


 FORCES acting on ions
    electron-ion (+dipol)            ewald-force                    non-local-force                 convergence-correction
 -----------------------------------------------------------------------------------------------
   0.130E+03 0.144E+03 -.186E+03   -.130E+03 -.144E+03 0.187E+03   0.498E+00 -.113E+00 -.516E+00   0.794E-03 -.164E-02 0.782E-03
   0.251E+03 0.120E+03 -.110E+03   -.250E+03 -.120E+03 0.109E+03   -.890E+00 -.332E+00 0.574E+00   -.301E-03 -.235E-02 0.800E-03
   0.820E+02 -.603E+02 -.858E+02   -.823E+02 0.598E+02 0.857E+02   0.293E+00 0.493E+00 0.153E+00   0.224E-02 0.182E-02 0.425E-03
   -.168E+03 -.117E+03 -.131E+02   0.168E+03 0.117E+03 0.134E+02   -.770E-01 -.790E-02 -.320E+00   -.102E-02 -.146E-02 0.148E-02
   -.964E+02 -.341E+03 0.204E+03   0.964E+02 0.340E+03 -.205E+03   0.816E-03 0.668E+00 0.265E+00   -.353E-02 -.437E-03 0.740E-03
   0.257E+03 -.161E+03 0.952E+02   -.257E+03 0.162E+03 -.953E+02   0.101E+00 -.134E+00 0.122E+00   0.131E-02 -.118E-02 0.173E-02
   -.162E+03 0.284E+03 0.177E+03   0.162E+03 -.283E+03 -.176E+03   0.285E+00 -.852E+00 -.206E+00   -.212E-02 0.901E-03 -.149E-02
   -.122E+02 -.113E+03 -.870E+02   0.130E+02 0.114E+03 0.858E+02   -.806E+00 -.897E+00 0.116E+01   0.164E-05 -.215E-02 0.143E-02
   -.265E+02 0.182E+03 -.122E+03   0.258E+02 -.182E+03 0.123E+03   0.653E+00 -.104E+00 -.128E+01   0.916E-03 0.784E-03 0.601E-03
   0.182E+03 -.143E+03 0.151E+03   -.182E+03 0.144E+03 -.151E+03   0.220E+00 -.758E+00 0.293E+00   0.284E-02 0.161E-03 -.224E-02
   -.977E+02 -.253E+03 -.121E+03   0.978E+02 0.254E+03 0.123E+03   -.106E+00 -.188E+00 -.154E+01   0.130E-02 0.249E-03 -.502E-03
   0.200E+03 0.392E+02 0.225E+03   -.200E+03 -.387E+02 -.226E+03   -.253E+00 -.476E+00 0.670E+00   0.151E-02 0.498E-03 0.109E-03
   -.463E+02 -.660E+02 0.116E+03   0.469E+02 0.664E+02 -.115E+03   -.551E+00 -.344E+00 -.484E+00   -.532E-03 -.745E-03 -.582E-03
   0.859E+02 -.179E+03 -.129E+03   -.848E+02 0.180E+03 0.129E+03   -.118E+01 -.156E+01 -.500E+00   0.170E-02 -.510E-03 -.221E-02
   0.364E+02 -.356E+03 -.314E+02   -.370E+02 0.357E+03 0.303E+02   0.516E+00 -.512E+00 0.111E+01   -.151E-03 0.260E-03 -.137E-02
   -.312E+03 0.338E+03 -.506E+02   0.310E+03 -.341E+03 0.506E+02   0.144E+01 0.291E+01 0.493E-01   0.194E-03 -.969E-03 -.127E-02
   -.187E+03 -.319E+03 -.419E+02   0.186E+03 0.320E+03 0.427E+02   0.119E+01 -.139E+01 -.833E+00   -.176E-02 -.647E-03 0.161E-02
   0.165E+02 0.768E+02 -.102E+03   -.153E+02 -.774E+02 0.102E+03   -.123E+01 0.582E+00 -.871E+00   -.846E-03 0.612E-03 0.627E-03
   0.791E+02 -.107E+03 0.945E+02   -.788E+02 0.107E+03 -.944E+02   -.299E+00 -.453E-01 -.114E+00   -.137E-02 -.103E-02 0.229E-02
   0.142E+03 0.503E+02 0.230E+02   -.141E+03 -.500E+02 -.230E+02   -.547E+00 -.281E+00 0.112E-01   0.107E-02 0.119E-02 -.470E-03
   0.472E+02 -.500E+02 -.285E+02   -.453E+02 0.508E+02 0.283E+02   -.191E+01 -.788E+00 0.178E+00   0.348E-03 -.204E-03 0.706E-03
   0.383E+01 0.624E+02 -.708E+02   -.712E+00 -.640E+02 0.711E+02   -.312E+01 0.164E+01 -.240E+00   0.859E-03 -.350E-03 -.125E-02
   0.438E+02 -.956E+02 -.456E+02   -.435E+02 0.100E+03 0.476E+02   -.343E+00 -.453E+01 -.199E+01   0.305E-03 0.520E-03 -.230E-03
   -.802E+02 -.188E+03 -.104E+02   0.783E+02 0.190E+03 0.434E+01   0.191E+01 -.191E+01 0.604E+01   -.463E-03 -.388E-03 -.344E-03
   -.996E+02 0.963E+02 -.114E+03   0.101E+03 -.949E+02 0.120E+03   -.127E+01 -.144E+01 -.573E+01   -.859E-03 0.116E-04 0.545E-03
   0.120E+01 0.120E+03 0.357E+02   0.121E+00 -.124E+03 -.396E+02   -.131E+01 0.392E+01 0.386E+01   0.514E-03 -.636E-03 -.151E-03
   0.118E+03 -.990E+02 -.436E+01   -.118E+03 0.994E+02 0.852E+00   -.668E-01 -.394E+00 0.351E+01   -.276E-03 0.159E-03 -.433E-03
   -.489E+02 0.548E+02 -.465E+02   0.464E+02 -.524E+02 0.502E+02   0.253E+01 -.246E+01 -.373E+01   -.756E-03 0.964E-03 0.135E-02
   0.108E+03 0.656E+02 0.168E+03   -.113E+03 -.674E+02 -.170E+03   0.551E+01 0.181E+01 0.201E+01   0.100E-02 -.352E-04 -.734E-03
   -.612E+02 -.152E+03 0.115E+03   0.617E+02 0.152E+03 -.116E+03   -.505E+00 -.296E+00 0.506E+00   0.933E-03 -.110E-03 -.258E-04
   -.124E+03 0.155E+03 -.868E+02   0.123E+03 -.157E+03 0.921E+02   0.102E+01 0.270E+01 -.531E+01   -.763E-04 -.345E-03 -.354E-03
   -.535E+02 -.191E+03 -.532E+02   0.518E+02 0.193E+03 0.538E+02   0.171E+01 -.144E+01 -.564E+00   -.141E-02 -.210E-03 -.560E-03
   0.440E+02 0.610E+02 0.105E+03   -.481E+02 -.615E+02 -.109E+03   0.415E+01 0.491E+00 0.365E+01   -.139E-02 0.374E-05 0.117E-03
   0.905E+01 0.111E+03 -.739E+02   -.101E+02 -.112E+03 0.726E+02   0.103E+01 0.842E+00 0.125E+01   -.243E-03 -.353E-03 0.366E-03
   0.154E+01 -.908E+02 -.394E+02   -.196E+01 0.911E+02 0.408E+02   0.411E+00 -.340E+00 -.138E+01   -.277E-03 -.616E-03 0.559E-03
   0.851E+02 0.192E+02 -.205E+02   -.837E+02 -.191E+02 0.200E+02   -.132E+01 -.763E-01 0.472E+00   0.490E-03 0.308E-03 0.423E-03
   0.157E+02 -.683E+01 -.260E+02   -.164E+02 0.640E+01 0.274E+02   0.731E+00 0.428E+00 -.142E+01   -.266E-03 0.207E-03 -.475E-03
   0.606E+02 -.377E+01 -.104E+03   -.590E+02 0.385E+01 0.105E+03   -.165E+01 -.769E-01 -.121E+01   0.595E-03 -.103E-03 0.987E-04
   -.104E+03 0.927E+02 -.735E+02   0.103E+03 -.904E+02 0.728E+02   0.117E+01 -.224E+01 0.734E+00   -.461E-03 0.489E-03 0.101E-04
   0.427E+01 -.374E+02 -.379E+02   -.328E+01 0.347E+02 0.390E+02   -.993E+00 0.272E+01 -.108E+01   0.250E-03 -.109E-03 0.130E-03
   -.887E+02 -.470E+01 -.737E+02   0.875E+02 0.358E+01 0.726E+02   0.126E+01 0.112E+01 0.113E+01   0.191E-03 0.340E-03 0.289E-03
   0.203E+01 -.613E+02 0.436E+02   -.266E+00 0.601E+02 -.440E+02   -.177E+01 0.114E+01 0.399E+00   -.571E-03 -.619E-03 -.713E-03
   0.126E+03 0.442E+02 -.509E+01   -.125E+03 -.445E+02 0.627E+01   -.158E+01 0.294E+00 -.118E+01   0.976E-04 -.486E-04 0.747E-03
   0.461E+02 0.216E+02 0.938E+01   -.445E+02 -.208E+02 -.921E+01   -.160E+01 -.772E+00 -.170E+00   0.109E-02 -.442E-03 0.403E-03
   0.318E+01 0.236E+02 0.472E+02   -.185E+01 -.216E+02 -.475E+02   -.132E+01 -.202E+01 0.383E+00   -.488E-03 0.670E-03 -.463E-03
   -.414E+02 -.198E+02 0.116E+02   0.409E+02 0.198E+02 -.127E+02   0.458E+00 0.568E-01 0.109E+01   0.343E-03 0.488E-05 0.517E-03
   0.118E+03 -.398E+02 0.689E+02   -.118E+03 0.396E+02 -.691E+02   -.605E+00 0.132E+00 0.135E+00   0.101E-02 0.608E-03 0.410E-04
   0.939E+02 -.457E+00 0.667E+02   -.946E+02 -.807E+00 -.666E+02   0.683E+00 0.126E+01 -.520E-01   0.366E-03 -.189E-03 0.194E-03
   -.259E+02 0.105E+03 0.116E+03   0.258E+02 -.103E+03 -.117E+03   0.993E-01 -.208E+01 0.113E+01   0.560E-03 0.208E-03 -.101E-03
   0.468E+02 -.870E+02 -.361E+01   -.466E+02 0.861E+02 0.406E+01   -.242E+00 0.874E+00 -.447E+00   -.371E-03 0.171E-05 0.454E-04
   -.116E+03 0.898E+02 -.464E+02   0.116E+03 -.877E+02 0.465E+02   0.432E+00 -.207E+01 -.120E+00   -.107E-02 0.224E-03 -.999E-03
   -.992E+02 -.266E+02 0.952E+02   0.100E+03 0.262E+02 -.946E+02   -.803E+00 0.335E+00 -.512E+00   -.393E-03 -.129E-03 -.400E-03
   0.459E+02 0.188E+03 -.140E+03   -.465E+02 -.188E+03 0.141E+03   0.568E+00 -.114E+00 -.932E+00   -.117E-02 0.801E-03 0.925E-03
   0.147E+03 0.219E+02 -.166E+03   -.147E+03 -.227E+02 0.167E+03   -.147E-01 0.724E+00 -.953E+00   0.120E-02 0.845E-03 -.105E-02
   -.201E+03 0.178E+03 -.314E+02   0.201E+03 -.178E+03 0.311E+02   0.459E+00 -.343E+00 0.238E+00   -.150E-02 -.803E-04 0.872E-03
   0.141E+02 0.146E+03 0.238E+03   -.127E+02 -.147E+03 -.239E+03   -.138E+01 0.957E+00 0.217E+00   0.137E-02 0.419E-03 -.120E-02
   -.916E+02 0.165E+03 -.105E+03   0.901E+02 -.166E+03 0.105E+03   0.155E+01 0.129E+01 -.246E+00   -.191E-02 -.118E-02 0.352E-04
   -.250E+03 0.186E+03 0.317E+03   0.250E+03 -.187E+03 -.318E+03   0.392E+00 0.820E+00 0.795E+00   0.310E-03 -.677E-03 0.359E-03
   0.102E+03 0.527E+02 -.781E+02   -.102E+03 -.516E+02 0.781E+02   -.401E+00 -.108E+01 -.868E-01   0.652E-03 0.106E-02 -.183E-03
   -.695E+02 -.596E+02 -.818E+02   0.688E+02 0.608E+02 0.812E+02   0.747E+00 -.115E+01 0.616E+00   -.954E-03 0.817E-04 0.520E-04
   0.885E+02 0.905E+02 0.315E+02   -.870E+02 -.911E+02 -.314E+02   -.152E+01 0.552E+00 -.856E-01   0.101E-02 0.253E-03 0.758E-04
   -.125E+03 -.108E+02 -.312E+02   0.125E+03 0.117E+02 0.308E+02   0.105E+00 -.898E+00 0.406E+00   -.588E-03 0.444E-03 -.539E-03
   0.179E+02 -.250E+02 0.114E+03   -.185E+02 0.261E+02 -.113E+03   0.553E+00 -.107E+01 -.303E+00   0.363E-03 0.118E-03 -.268E-03
   -.702E+02 0.872E+02 0.102E+02   0.698E+02 -.870E+02 -.102E+02   0.463E+00 -.200E+00 0.154E-01   -.410E-03 0.177E-03 -.206E-03
 -----------------------------------------------------------------------------------------------
   -.347E+01 0.699E+01 0.125E+01   0.142E-13 -.341E-12 -.757E-12   0.348E+01 -.701E+01 -.123E+01   0.238E-03 -.457E-02 0.683E-03
 
 
 POSITION                                       TOTAL-FORCE (eV/Angst)
 -----------------------------------------------------------------------------------
      0.10721      0.07348      8.54142         0.001501     -0.000856      0.004384
      2.25552      8.57814      2.13484        -0.001306     -0.000824     -0.000390
      2.18094      4.29564      2.15828         0.001243      0.002189     -0.000164
      4.32657      4.29905      0.02238         0.001331     -0.000658      0.000524
      4.38090      2.08840      6.50255        -0.002568     -0.002074     -0.001722
      8.57826      4.30929      4.39902        -0.000210      0.002195     -0.001579
      4.29828      6.54871      6.45378        -0.000448     -0.000066      0.001784
      8.46549      2.00134      2.21756         0.003667     -0.003729     -0.003684
      6.57059      6.42518      0.01930        -0.004574     -0.002553      0.003206
      0.14421      2.02791      6.50866        -0.001466     -0.000594     -0.000366
      6.54517      2.06459      4.18998        -0.003493     -0.000067      0.004914
      0.06988      6.35076      6.53249        -0.000174     -0.003652     -0.002983
      2.21620      4.32431      6.49904         0.000800      0.001631     -0.002586
      2.30670      2.14889      8.51658        -0.002790      0.005466      0.004185
      4.46900      1.98100      2.27439        -0.002729     -0.002005     -0.004406
      6.32395      0.10619      2.43533         0.000698      0.001288     -0.003683
      6.34385      2.10388      8.49894        -0.001429     -0.016219     -0.000333
      2.05794      6.38844      0.03881         0.004666     -0.004273      0.000409
      2.16782      2.18347      4.44628         0.001185      0.000586     -0.004423
      2.19707      6.39331      4.28922         0.000949     -0.000526      0.001373
      2.13091      2.11850      2.15529         0.001043     -0.000222     -0.000661
      2.32570      8.60002      8.62948         0.001935      0.000362     -0.000207
      0.05168      2.21579      0.07629        -0.002196     -0.001174     -0.002619
      6.42245      2.13964      2.01462        -0.003886      0.000882     -0.003461
      6.46000      0.00684      8.64814        -0.001301     -0.005278      0.005901
      4.37286      8.55203      2.13087         0.003059      0.001481     -0.000673
      8.57988      4.22393      2.18795         0.000193     -0.000643     -0.003599
      4.34049      6.51660      8.64434        -0.002076      0.001838      0.002939
      8.53920      8.51168      6.41308        -0.001098      0.000389     -0.000941
      6.55736      1.99505      6.42126         0.001087      0.004783      0.000668
      6.38339      8.59699      4.39755         0.000162     -0.000271      0.002877
      4.33046      2.13781      4.27303        -0.001783      0.000860     -0.002527
      4.23285      0.02628      6.43579        -0.000909      0.000233     -0.001259
      8.53361      8.58668      2.13189        -0.002121      0.000664     -0.000543
      4.30256      2.11668      0.07285        -0.003037     -0.003646      0.000966
      2.24745      6.43568      2.15124         0.002286     -0.000438     -0.000114
      2.11187      4.28049      8.62926        -0.000808     -0.000902     -0.000296
      0.06852      6.42965      0.06127         0.002670     -0.003391      0.000676
      6.36563      6.57711      2.12963        -0.000810     -0.000317      0.001681
      6.55382      4.22374      0.08436        -0.000382     -0.004201      0.001336
      4.29158      4.26322      2.16632        -0.002042     -0.001646     -0.001599
      2.23433      2.10263      6.47429         0.001721      0.001016     -0.001021
      2.21950      0.00649      4.41118         0.003345      0.001097      0.002188
      0.09718      2.12704      4.34190         0.002100     -0.000410      0.001736
      2.15695      6.53966      6.49970         0.001563      0.000973      0.000424
      2.18045      4.28591      4.34461         0.000179     -0.000402      0.000073
      0.07757      6.45806      4.37243         0.001554      0.000265      0.000127
      8.61071      4.19869      6.54663         0.000798      0.001479     -0.000083
      6.49627      6.59778      6.48643        -0.000578      0.002299      0.000276
      6.43454      4.21201      4.38016         0.000285     -0.001120      0.000299
      4.27684      6.61398      4.27617        -0.000880      0.001054      0.000850
      4.32085      4.32590      6.47315         0.000746      0.000624      0.000143
      4.46051      0.14568      8.48480        -0.003856     -0.003876      0.005114
      8.56276      4.47352      8.43387        -0.007394      0.001457      0.004525
      4.31654      6.33717      2.39019         0.002273     -0.002142     -0.004272
      1.92613      0.08935      6.69303         0.002475      0.003644     -0.003094
      4.07384      0.12496      4.19121         0.001242      0.000362      0.003196
      6.19647      8.59952      6.74820         0.001446      0.016848     -0.003088
      0.05066      6.55550      2.24223         0.000300      0.000618     -0.002821
      6.32602      4.47398      2.20209         0.005928      0.003972     -0.004896
      0.21402      8.57962      4.26338        -0.003146      0.001421      0.002540
      4.31594      4.45204      4.27281        -0.000037      0.002710      0.003576
      6.43704      4.44510      6.58823         0.004230      0.004413     -0.002664
      6.44183      6.38984      4.29903         0.000867     -0.000921      0.003864
 -----------------------------------------------------------------------------------
    total drift:                                0.011720     -0.019917      0.018878


--------------------------------------------------------------------------------------------------------



  FREE ENERGIE OF THE ION-ELECTRON SYSTEM (eV)
  ---------------------------------------------------
  free  energy   TOTEN  =      -636.98967254 eV

  energy  without entropy=     -636.82243351  energy(sigma->0) =     -636.90605303
 


--------------------------------------------------------------------------------------------------------


    POTLOK:  cpu time    0.0282: real time    0.0286


--------------------------------------------------------------------------------------------------------


 writing wavefunctions
     LOOP+:  cpu time 1243.8270: real time 1259.2672
    4ORBIT:  cpu time    0.0000: real time    0.0000

 total amount of memory used by VASP MPI-rank0   250092. kBytes
=======================================================================

   base      :      30000. kBytes
   nonl-proj :     175819. kBytes
   fftplans  :       1252. kBytes
   grid      :       5755. kBytes
   one-center:        995. kBytes
   wavefun   :      36271. kBytes
 
  
  
 General timing and accounting informations for this job:
 ========================================================
  
                  Total CPU time used (sec):     1254.352
                            User time (sec):     1220.181
                          System time (sec):       34.171
                         Elapsed time (sec):     1270.992
  
                   Maximum memory used (kb):      273364.
                   Average memory used (kb):           0.
  
                          Minor page faults:      1329193
                          Major page faults:            0
                 Voluntary context switches:         1816
