HEBCN                                   
           1
     8.583736    0.005072    0.005395
     0.010825    8.601717    0.014013
     0.036136   -0.000951    8.646467
   Nb   W    V    N    C    Cr   Mo
   7   6   7  13  19   6   6
Direct configuration=     1
   0.00831991  0.00864620  0.98783184
   0.26047687  0.99713207  0.24512501
   0.25240122  0.49927178  0.24864728
   0.50340679  0.49949316  0.00146452
   0.50690342  0.24257322  0.75133746
   0.99659473  0.50044815  0.50733207
   0.49665146  0.76111560  0.74486279
   0.98485663  0.23211516  0.25547889
   0.76452642  0.74651352  0.00054544
   0.01333618  0.23583216  0.75236263
   0.76016942  0.23962593  0.48372596
   0.00403380  0.73839387  0.75431033
   0.25439193  0.50265990  0.75066822
   0.26426943  0.24977399  0.98440844
   0.51924092  0.23002546  0.26234607
   0.73553742  0.01194202  0.28117832
   0.73461219  0.24426346  0.98208379
   0.23879865  0.74255303  0.00313628
   0.25006734  0.25375046  0.51366339
   0.25293715  0.74316480  0.49470399
   0.24689224  0.24616982  0.24871568
   0.26548765  0.99975608  0.99624943
   0.00566063  0.25759608  0.00840262
   0.74692099  0.24833034  0.23213011
   0.74837677  0.00046389  0.99972548
   0.50715288  0.99395197  0.24451645
   0.99787323  0.49049611  0.25162832
   0.50050726  0.75740778  0.99821364
   0.99045131  0.98903082  0.73947897
   0.76051350  0.23157037  0.74179561
   0.74026811  0.99906976  0.50651449
   0.50210528  0.24829095  0.49347779
   0.48998810  0.00284865  0.74401616
   0.99187327  0.99769359  0.24432629
   0.50090287  0.24578159  0.00771405
   0.25984136  0.74805972  0.24742531
   0.24120602  0.49759951  0.99705272
   0.00701495  0.74748144  0.00586999
   0.73959829  0.76421841  0.24460107
   0.76286169  0.49058569  0.00848519
   0.49829108  0.49535846  0.24943049
   0.25683972  0.24437379  0.74822198
   0.25642282  0.00066017  0.51001073
   0.00889759  0.24733066  0.50175211
   0.24716581  0.76021044  0.75033143
   0.25128109  0.49816993  0.50150860
   0.00596596  0.75083950  0.50446926
   0.99934563  0.48761662  0.75573082
   0.75269354  0.76666988  0.74847074
   0.74687542  0.48928674  0.50532469
   0.49520443  0.76867596  0.49300186
   0.49959491  0.50269884  0.74752010
   0.51549608  0.01674083  0.98095319
   0.99280099  0.51959554  0.97395086
   0.50078836  0.73646867  0.27492970
   0.22112160  0.01034318  0.77392263
   0.47254266  0.01430237  0.48441276
   0.71734801  0.99940744  0.77839049
   0.00385411  0.76214206  0.25808554
   0.73525563  0.51972095  0.25338014
   0.02160614  0.99747282  0.49144741
   0.50007650  0.51733517  0.49301759
   0.74605735  0.51641333  0.76065431
   0.74744667  0.74246990  0.49553064
