  64  64   0   0
  0.2218804E+02  0.1124000E-08  0.1124000E-08  0.1124000E-08  0.5000000E-15
  1.000000000000000E-004
  CAR 
 HECN                                    
     14.07414573    -60.21642345  301      8.04926706      1.00000000
    -60.216  0.0000E+00  0.0000E+00
    -59.969  0.0000E+00  0.0000E+00
    -59.721  0.0000E+00  0.0000E+00
    -59.474  0.0000E+00  0.0000E+00
    -59.226  0.0000E+00  0.0000E+00
    -58.978  0.0000E+00  0.0000E+00
    -58.731  0.0000E+00  0.0000E+00
    -58.483  0.0000E+00  0.0000E+00
    -58.235  0.0000E+00  0.0000E+00
    -57.988  0.0000E+00  0.0000E+00
    -57.740  0.0000E+00  0.0000E+00
    -57.492  0.0000E+00  0.0000E+00
    -57.245  0.4465E-09  0.1106E-09
    -56.997  0.1507E-02  0.3733E-03
    -56.750  0.2683E+00  0.6681E-01
    -56.502  0.2142E+00  0.1199E+00
    -56.254  0.5751E-03  0.1200E+00
    -56.007  0.5796E-10  0.1200E+00
    -55.759  0.0000E+00  0.1200E+00
    -55.511  0.0000E+00  0.1200E+00
    -55.264  0.0000E+00  0.1200E+00
    -55.016  0.0000E+00  0.1200E+00
    -54.768  0.0000E+00  0.1200E+00
    -54.521  0.0000E+00  0.1200E+00
    -54.273  0.0000E+00  0.1200E+00
    -54.026  0.0000E+00  0.1200E+00
    -53.778  0.0000E+00  0.1200E+00
    -53.530  0.0000E+00  0.1200E+00
    -53.283  0.0000E+00  0.1200E+00
    -53.035  0.0000E+00  0.1200E+00
    -52.787  0.0000E+00  0.1200E+00
    -52.540  0.0000E+00  0.1200E+00
    -52.292  0.0000E+00  0.1200E+00
    -52.044  0.0000E+00  0.1200E+00
    -51.797  0.0000E+00  0.1200E+00
    -51.549  0.0000E+00  0.1200E+00
    -51.302  0.0000E+00  0.1200E+00
    -51.054  0.0000E+00  0.1200E+00
    -50.806  0.0000E+00  0.1200E+00
    -50.559  0.0000E+00  0.1200E+00
    -50.311  0.0000E+00  0.1200E+00
    -50.063  0.5392E-11  0.1200E+00
    -49.816  0.1409E-03  0.1200E+00
    -49.568  0.5926E-01  0.1347E+00
    -49.320  0.2773E+00  0.2034E+00
    -49.073  0.2141E+00  0.2564E+00
    -48.825  0.1455E-01  0.2600E+00
    -48.578  0.3952E-06  0.2600E+00
    -48.330  0.0000E+00  0.2600E+00
    -48.082  0.0000E+00  0.2600E+00
    -47.835  0.0000E+00  0.2600E+00
    -47.587  0.0000E+00  0.2600E+00
    -47.339  0.0000E+00  0.2600E+00
    -47.092  0.0000E+00  0.2600E+00
    -46.844  0.0000E+00  0.2600E+00
    -46.596  0.0000E+00  0.2600E+00
    -46.349  0.0000E+00  0.2600E+00
    -46.101  0.0000E+00  0.2600E+00
    -45.854  0.0000E+00  0.2600E+00
    -45.606  0.0000E+00  0.2600E+00
    -45.358  0.0000E+00  0.2600E+00
    -45.111  0.0000E+00  0.2600E+00
    -44.863  0.0000E+00  0.2600E+00
    -44.615  0.0000E+00  0.2600E+00
    -44.368  0.0000E+00  0.2600E+00
    -44.120  0.0000E+00  0.2600E+00
    -43.872  0.0000E+00  0.2600E+00
    -43.625  0.0000E+00  0.2600E+00
    -43.377  0.0000E+00  0.2600E+00
    -43.130  0.0000E+00  0.2600E+00
    -42.882  0.0000E+00  0.2600E+00
    -42.634  0.0000E+00  0.2600E+00
    -42.387  0.0000E+00  0.2600E+00
    -42.139  0.0000E+00  0.2600E+00
    -41.891  0.0000E+00  0.2600E+00
    -41.644  0.0000E+00  0.2600E+00
    -41.396  0.0000E+00  0.2600E+00
    -41.149  0.0000E+00  0.2600E+00
    -40.901  0.0000E+00  0.2600E+00
    -40.653  0.0000E+00  0.2600E+00
    -40.406  0.0000E+00  0.2600E+00
    -40.158  0.0000E+00  0.2600E+00
    -39.910  0.0000E+00  0.2600E+00
    -39.663  0.0000E+00  0.2600E+00
    -39.415  0.0000E+00  0.2600E+00
    -39.167  0.0000E+00  0.2600E+00
    -38.920  0.0000E+00  0.2600E+00
    -38.672  0.0000E+00  0.2600E+00
    -38.425  0.0000E+00  0.2600E+00
    -38.177  0.0000E+00  0.2600E+00
    -37.929  0.0000E+00  0.2600E+00
    -37.682  0.0000E+00  0.2600E+00
    -37.434  0.0000E+00  0.2600E+00
    -37.186  0.0000E+00  0.2600E+00
    -36.939  0.0000E+00  0.2600E+00
    -36.691  0.0000E+00  0.2600E+00
    -36.443  0.0000E+00  0.2600E+00
    -36.196  0.0000E+00  0.2600E+00
    -35.948  0.0000E+00  0.2600E+00
    -35.701  0.0000E+00  0.2600E+00
    -35.453  0.0000E+00  0.2600E+00
    -35.205  0.0000E+00  0.2600E+00
    -34.958  0.0000E+00  0.2600E+00
    -34.710  0.0000E+00  0.2600E+00
    -34.462  0.0000E+00  0.2600E+00
    -34.215  0.0000E+00  0.2600E+00
    -33.967  0.0000E+00  0.2600E+00
    -33.719  0.0000E+00  0.2600E+00
    -33.472  0.0000E+00  0.2600E+00
    -33.224  0.0000E+00  0.2600E+00
    -32.977  0.0000E+00  0.2600E+00
    -32.729  0.0000E+00  0.2600E+00
    -32.481  0.0000E+00  0.2600E+00
    -32.234  0.8689E-14  0.2600E+00
    -31.986  0.5031E-05  0.2600E+00
    -31.738  0.3079E-01  0.2676E+00
    -31.491  0.2287E+00  0.3243E+00
    -31.243  0.5723E+00  0.4660E+00
    -30.995  0.6109E+00  0.6173E+00
    -30.748  0.5869E+00  0.7626E+00
    -30.500  0.8343E+00  0.9692E+00
    -30.253  0.4367E-01  0.9800E+00
    -30.005  0.6358E-06  0.9800E+00
    -29.757  0.0000E+00  0.9800E+00
    -29.510  0.0000E+00  0.9800E+00
    -29.262  0.0000E+00  0.9800E+00
    -29.014  0.0000E+00  0.9800E+00
    -28.767  0.0000E+00  0.9800E+00
    -28.519  0.0000E+00  0.9800E+00
    -28.271  0.0000E+00  0.9800E+00
    -28.024  0.5891E-13  0.9800E+00
    -27.776  0.1443E-04  0.9800E+00
    -27.529  0.5640E-01  0.9940E+00
    -27.281  0.4130E+00  0.1096E+01
    -27.033  0.6568E+00  0.1259E+01
    -26.786  0.3005E+00  0.1333E+01
    -26.538  0.2706E-01  0.1340E+01
    -26.290  0.3419E-04  0.1340E+01
    -26.043  0.6699E-01  0.1357E+01
    -25.795  0.4582E+00  0.1470E+01
    -25.547  0.9388E+00  0.1703E+01
    -25.300  0.2308E+00  0.1760E+01
    -25.052  0.1148E-02  0.1760E+01
    -24.805  0.2514E-09  0.1760E+01
    -24.557  0.0000E+00  0.1760E+01
    -24.309  0.0000E+00  0.1760E+01
    -24.062  0.0000E+00  0.1760E+01
    -23.814  0.0000E+00  0.1760E+01
    -23.566  0.1113E-09  0.1760E+01
    -23.319  0.6124E-03  0.1760E+01
    -23.071  0.1464E+00  0.1796E+01
    -22.824  0.3943E+00  0.1894E+01
    -22.576  0.2396E+00  0.1953E+01
    -22.328  0.5335E+00  0.2085E+01
    -22.081  0.1602E+00  0.2125E+01
    -21.833  0.2163E+00  0.2179E+01
    -21.585  0.5123E-02  0.2180E+01
    -21.338  0.6161E-08  0.2180E+01
    -21.090  0.0000E+00  0.2180E+01
    -20.842  0.0000E+00  0.2180E+01
    -20.595  0.0000E+00  0.2180E+01
    -20.347  0.0000E+00  0.2180E+01
    -20.100  0.0000E+00  0.2180E+01
    -19.852  0.0000E+00  0.2180E+01
    -19.604  0.0000E+00  0.2180E+01
    -19.357  0.0000E+00  0.2180E+01
    -19.109  0.0000E+00  0.2180E+01
    -18.861  0.0000E+00  0.2180E+01
    -18.614  0.0000E+00  0.2180E+01
    -18.366  0.0000E+00  0.2180E+01
    -18.118  0.0000E+00  0.2180E+01
    -17.871  0.0000E+00  0.2180E+01
    -17.623  0.0000E+00  0.2180E+01
    -17.376  0.0000E+00  0.2180E+01
    -17.128  0.0000E+00  0.2180E+01
    -16.880  0.0000E+00  0.2180E+01
    -16.633  0.0000E+00  0.2180E+01
    -16.385  0.0000E+00  0.2180E+01
    -16.137  0.0000E+00  0.2180E+01
    -15.890  0.0000E+00  0.2180E+01
    -15.642  0.0000E+00  0.2180E+01
    -15.394  0.0000E+00  0.2180E+01
    -15.147  0.0000E+00  0.2180E+01
    -14.899  0.0000E+00  0.2180E+01
    -14.652  0.0000E+00  0.2180E+01
    -14.404  0.0000E+00  0.2180E+01
    -14.156  0.0000E+00  0.2180E+01
    -13.909  0.0000E+00  0.2180E+01
    -13.661  0.0000E+00  0.2180E+01
    -13.413  0.0000E+00  0.2180E+01
    -13.166  0.0000E+00  0.2180E+01
    -12.918  0.0000E+00  0.2180E+01
    -12.670  0.0000E+00  0.2180E+01
    -12.423  0.0000E+00  0.2180E+01
    -12.175  0.0000E+00  0.2180E+01
    -11.928  0.0000E+00  0.2180E+01
    -11.680  0.0000E+00  0.2180E+01
    -11.432  0.0000E+00  0.2180E+01
    -11.185  0.0000E+00  0.2180E+01
    -10.937  0.0000E+00  0.2180E+01
    -10.689  0.0000E+00  0.2180E+01
    -10.442  0.0000E+00  0.2180E+01
    -10.194  0.0000E+00  0.2180E+01
     -9.946  0.0000E+00  0.2180E+01
     -9.699  0.0000E+00  0.2180E+01
     -9.451  0.5812E-17  0.2180E+01
     -9.204  0.2767E-07  0.2180E+01
     -8.956  0.1617E-02  0.2180E+01
     -8.708  0.5181E-01  0.2193E+01
     -8.461  0.2796E-01  0.2200E+01
     -8.213  0.6684E-01  0.2217E+01
     -7.965  0.4346E-01  0.2227E+01
     -7.718  0.1166E+00  0.2256E+01
     -7.470  0.1396E+00  0.2291E+01
     -7.222  0.2527E+00  0.2353E+01
     -6.975  0.1572E+00  0.2392E+01
     -6.727  0.1032E+00  0.2418E+01
     -6.480  0.8817E-01  0.2440E+01
     -6.232  0.7818E-03  0.2440E+01
     -5.984  0.2341E-09  0.2440E+01
     -5.737  0.0000E+00  0.2440E+01
     -5.489  0.0000E+00  0.2440E+01
     -5.241  0.5488E-09  0.2440E+01
     -4.994  0.3411E-03  0.2440E+01
     -4.746  0.3768E-01  0.2449E+01
     -4.498  0.4909E-01  0.2462E+01
     -4.251  0.7197E-01  0.2479E+01
     -4.003  0.8859E-01  0.2501E+01
     -3.756  0.1064E+00  0.2528E+01
     -3.508  0.2245E+00  0.2583E+01
     -3.260  0.2260E+00  0.2639E+01
     -3.013  0.2655E+00  0.2705E+01
     -2.765  0.1635E+00  0.2745E+01
     -2.517  0.1784E+00  0.2790E+01
     -2.270  0.1040E+00  0.2815E+01
     -2.022  0.1847E-01  0.2820E+01
     -1.775  0.9921E-04  0.2820E+01
     -1.527  0.1123E-09  0.2820E+01
     -1.279  0.0000E+00  0.2820E+01
     -1.032  0.0000E+00  0.2820E+01
     -0.784  0.8108E-09  0.2820E+01
     -0.536  0.2487E-03  0.2820E+01
     -0.289  0.9633E-02  0.2822E+01
     -0.041  0.5311E-01  0.2836E+01
      0.207  0.8302E-01  0.2856E+01
      0.454  0.9155E-01  0.2879E+01
      0.702  0.1093E+00  0.2906E+01
      0.949  0.1628E+00  0.2946E+01
      1.197  0.2393E+00  0.3005E+01
      1.445  0.2657E+00  0.3071E+01
      1.692  0.2524E+00  0.3134E+01
      1.940  0.2924E+00  0.3206E+01
      2.188  0.3208E+00  0.3286E+01
      2.435  0.3402E+00  0.3370E+01
      2.683  0.3921E+00  0.3467E+01
      2.931  0.4679E+00  0.3583E+01
      3.178  0.5157E+00  0.3711E+01
      3.426  0.5467E+00  0.3846E+01
      3.673  0.5526E+00  0.3983E+01
      3.921  0.5330E+00  0.4115E+01
      4.169  0.5419E+00  0.4249E+01
      4.416  0.4859E+00  0.4369E+01
      4.664  0.3903E+00  0.4466E+01
      4.912  0.3316E+00  0.4548E+01
      5.159  0.2851E+00  0.4619E+01
      5.407  0.1851E+00  0.4665E+01
      5.655  0.1679E+00  0.4706E+01
      5.902  0.1219E+00  0.4736E+01
      6.150  0.1021E+00  0.4762E+01
      6.397  0.1431E+00  0.4797E+01
      6.645  0.1360E+00  0.4831E+01
      6.893  0.1462E+00  0.4867E+01
      7.140  0.2096E+00  0.4919E+01
      7.388  0.1801E+00  0.4963E+01
      7.636  0.1968E+00  0.5012E+01
      7.883  0.2380E+00  0.5071E+01
      8.131  0.2208E+00  0.5126E+01
      8.379  0.2344E+00  0.5184E+01
      8.626  0.3265E+00  0.5265E+01
      8.874  0.4285E+00  0.5371E+01
      9.121  0.4858E+00  0.5491E+01
      9.369  0.4643E+00  0.5606E+01
      9.617  0.5243E+00  0.5736E+01
      9.864  0.5437E+00  0.5870E+01
     10.112  0.5461E+00  0.6006E+01
     10.360  0.5309E+00  0.6137E+01
     10.607  0.3486E+00  0.6224E+01
     10.855  0.6641E-01  0.6240E+01
     11.103  0.2007E-03  0.6240E+01
     11.350  0.4531E-10  0.6240E+01
     11.598  0.0000E+00  0.6240E+01
     11.845  0.0000E+00  0.6240E+01
     12.093  0.0000E+00  0.6240E+01
     12.341  0.0000E+00  0.6240E+01
     12.588  0.0000E+00  0.6240E+01
     12.836  0.0000E+00  0.6240E+01
     13.084  0.0000E+00  0.6240E+01
     13.331  0.0000E+00  0.6240E+01
     13.579  0.0000E+00  0.6240E+01
     13.827  0.0000E+00  0.6240E+01
     14.074  0.0000E+00  0.6240E+01
