  64  64   0   0
  0.1129557E+02  0.8932500E-09  0.9055600E-09  0.8937200E-09  0.5000000E-15
  1.000000000000000E-004
  CAR 
 HECN                                    
     14.94404114    -59.74081437  301      8.66587641      1.00000000
    -59.741  0.0000E+00  0.0000E+00
    -59.492  0.0000E+00  0.0000E+00
    -59.243  0.0000E+00  0.0000E+00
    -58.994  0.0000E+00  0.0000E+00
    -58.745  0.0000E+00  0.0000E+00
    -58.496  0.0000E+00  0.0000E+00
    -58.247  0.0000E+00  0.0000E+00
    -57.998  0.0000E+00  0.0000E+00
    -57.749  0.0000E+00  0.0000E+00
    -57.500  0.0000E+00  0.0000E+00
    -57.251  0.0000E+00  0.0000E+00
    -57.002  0.0000E+00  0.0000E+00
    -56.753  0.3404E-09  0.8475E-10
    -56.504  0.1153E-02  0.2869E-03
    -56.256  0.1553E+00  0.3895E-01
    -56.007  0.3564E+00  0.1277E+00
    -55.758  0.4945E-01  0.1400E+00
    -55.509  0.2851E-05  0.1400E+00
    -55.260  0.2016E-14  0.1400E+00
    -55.011  0.0000E+00  0.1400E+00
    -54.762  0.0000E+00  0.1400E+00
    -54.513  0.0000E+00  0.1400E+00
    -54.264  0.0000E+00  0.1400E+00
    -54.015  0.0000E+00  0.1400E+00
    -53.766  0.0000E+00  0.1400E+00
    -53.517  0.0000E+00  0.1400E+00
    -53.268  0.0000E+00  0.1400E+00
    -53.019  0.0000E+00  0.1400E+00
    -52.770  0.0000E+00  0.1400E+00
    -52.521  0.0000E+00  0.1400E+00
    -52.272  0.0000E+00  0.1400E+00
    -52.023  0.0000E+00  0.1400E+00
    -51.774  0.0000E+00  0.1400E+00
    -51.525  0.0000E+00  0.1400E+00
    -51.277  0.0000E+00  0.1400E+00
    -51.028  0.0000E+00  0.1400E+00
    -50.779  0.0000E+00  0.1400E+00
    -50.530  0.0000E+00  0.1400E+00
    -50.281  0.0000E+00  0.1400E+00
    -50.032  0.0000E+00  0.1400E+00
    -49.783  0.0000E+00  0.1400E+00
    -49.534  0.0000E+00  0.1400E+00
    -49.285  0.0000E+00  0.1400E+00
    -49.036  0.0000E+00  0.1400E+00
    -48.787  0.0000E+00  0.1400E+00
    -48.538  0.0000E+00  0.1400E+00
    -48.289  0.0000E+00  0.1400E+00
    -48.040  0.9942E-11  0.1400E+00
    -47.791  0.2003E-03  0.1400E+00
    -47.542  0.6381E-01  0.1559E+00
    -47.293  0.9853E-01  0.1805E+00
    -47.044  0.2146E+00  0.2339E+00
    -46.795  0.9768E-01  0.2582E+00
    -46.546  0.7159E-02  0.2600E+00
    -46.298  0.4552E-07  0.2600E+00
    -46.049  0.0000E+00  0.2600E+00
    -45.800  0.0000E+00  0.2600E+00
    -45.551  0.0000E+00  0.2600E+00
    -45.302  0.0000E+00  0.2600E+00
    -45.053  0.0000E+00  0.2600E+00
    -44.804  0.0000E+00  0.2600E+00
    -44.555  0.0000E+00  0.2600E+00
    -44.306  0.0000E+00  0.2600E+00
    -44.057  0.0000E+00  0.2600E+00
    -43.808  0.0000E+00  0.2600E+00
    -43.559  0.0000E+00  0.2600E+00
    -43.310  0.0000E+00  0.2600E+00
    -43.061  0.0000E+00  0.2600E+00
    -42.812  0.0000E+00  0.2600E+00
    -42.563  0.0000E+00  0.2600E+00
    -42.314  0.0000E+00  0.2600E+00
    -42.065  0.0000E+00  0.2600E+00
    -41.816  0.0000E+00  0.2600E+00
    -41.567  0.0000E+00  0.2600E+00
    -41.319  0.0000E+00  0.2600E+00
    -41.070  0.2464E-12  0.2600E+00
    -40.821  0.3192E-04  0.2600E+00
    -40.572  0.5582E-01  0.2739E+00
    -40.323  0.1137E+00  0.3022E+00
    -40.074  0.7253E-01  0.3203E+00
    -39.825  0.1486E+00  0.3573E+00
    -39.576  0.9577E-01  0.3811E+00
    -39.327  0.7376E-01  0.3995E+00
    -39.078  0.2171E-02  0.4000E+00
    -38.829  0.2056E-08  0.4000E+00
    -38.580  0.0000E+00  0.4000E+00
    -38.331  0.0000E+00  0.4000E+00
    -38.082  0.0000E+00  0.4000E+00
    -37.833  0.0000E+00  0.4000E+00
    -37.584  0.0000E+00  0.4000E+00
    -37.335  0.0000E+00  0.4000E+00
    -37.086  0.0000E+00  0.4000E+00
    -36.837  0.0000E+00  0.4000E+00
    -36.589  0.0000E+00  0.4000E+00
    -36.340  0.0000E+00  0.4000E+00
    -36.091  0.0000E+00  0.4000E+00
    -35.842  0.0000E+00  0.4000E+00
    -35.593  0.1127E-13  0.4000E+00
    -35.344  0.6748E-05  0.4000E+00
    -35.095  0.6395E-01  0.4159E+00
    -34.846  0.8440E+00  0.6260E+00
    -34.597  0.5349E+00  0.7592E+00
    -34.348  0.3252E-02  0.7600E+00
    -34.099  0.1458E-08  0.7600E+00
    -33.850  0.0000E+00  0.7600E+00
    -33.601  0.0000E+00  0.7600E+00
    -33.352  0.0000E+00  0.7600E+00
    -33.103  0.0000E+00  0.7600E+00
    -32.854  0.0000E+00  0.7600E+00
    -32.605  0.0000E+00  0.7600E+00
    -32.356  0.0000E+00  0.7600E+00
    -32.107  0.0000E+00  0.7600E+00
    -31.858  0.0000E+00  0.7600E+00
    -31.610  0.0000E+00  0.7600E+00
    -31.361  0.4460E-17  0.7600E+00
    -31.112  0.9127E-07  0.7600E+00
    -30.863  0.1332E-01  0.7633E+00
    -30.614  0.5385E+00  0.8974E+00
    -30.365  0.8725E+00  0.1115E+01
    -30.116  0.9115E+00  0.1341E+01
    -29.867  0.7517E+00  0.1529E+01
    -29.618  0.4568E-01  0.1540E+01
    -29.369  0.1527E-05  0.1540E+01
    -29.120  0.7016E-15  0.1540E+01
    -28.871  0.0000E+00  0.1540E+01
    -28.622  0.0000E+00  0.1540E+01
    -28.373  0.0000E+00  0.1540E+01
    -28.124  0.0000E+00  0.1540E+01
    -27.875  0.0000E+00  0.1540E+01
    -27.626  0.0000E+00  0.1540E+01
    -27.377  0.0000E+00  0.1540E+01
    -27.128  0.0000E+00  0.1540E+01
    -26.879  0.0000E+00  0.1540E+01
    -26.631  0.0000E+00  0.1540E+01
    -26.382  0.0000E+00  0.1540E+01
    -26.133  0.0000E+00  0.1540E+01
    -25.884  0.0000E+00  0.1540E+01
    -25.635  0.0000E+00  0.1540E+01
    -25.386  0.0000E+00  0.1540E+01
    -25.137  0.0000E+00  0.1540E+01
    -24.888  0.0000E+00  0.1540E+01
    -24.639  0.0000E+00  0.1540E+01
    -24.390  0.8919E-17  0.1540E+01
    -24.141  0.1380E-06  0.1540E+01
    -23.892  0.1668E-01  0.1544E+01
    -23.643  0.2716E+00  0.1612E+01
    -23.394  0.3663E+00  0.1703E+01
    -23.145  0.5241E+00  0.1833E+01
    -22.896  0.2525E+00  0.1896E+01
    -22.647  0.1498E-01  0.1900E+01
    -22.398  0.7361E-07  0.1900E+01
    -22.149  0.0000E+00  0.1900E+01
    -21.900  0.0000E+00  0.1900E+01
    -21.652  0.0000E+00  0.1900E+01
    -21.403  0.0000E+00  0.1900E+01
    -21.154  0.0000E+00  0.1900E+01
    -20.905  0.0000E+00  0.1900E+01
    -20.656  0.0000E+00  0.1900E+01
    -20.407  0.0000E+00  0.1900E+01
    -20.158  0.0000E+00  0.1900E+01
    -19.909  0.0000E+00  0.1900E+01
    -19.660  0.2908E-12  0.1900E+01
    -19.411  0.3458E-04  0.1900E+01
    -19.162  0.4647E-01  0.1912E+01
    -18.913  0.1625E+00  0.1952E+01
    -18.664  0.2523E+00  0.2015E+01
    -18.415  0.2793E+00  0.2084E+01
    -18.166  0.5371E+00  0.2218E+01
    -17.917  0.2762E+00  0.2287E+01
    -17.668  0.1330E+00  0.2320E+01
    -17.419  0.1253E-03  0.2320E+01
    -17.170  0.1919E-11  0.2320E+01
    -16.921  0.0000E+00  0.2320E+01
    -16.673  0.0000E+00  0.2320E+01
    -16.424  0.0000E+00  0.2320E+01
    -16.175  0.0000E+00  0.2320E+01
    -15.926  0.0000E+00  0.2320E+01
    -15.677  0.0000E+00  0.2320E+01
    -15.428  0.0000E+00  0.2320E+01
    -15.179  0.0000E+00  0.2320E+01
    -14.930  0.0000E+00  0.2320E+01
    -14.681  0.0000E+00  0.2320E+01
    -14.432  0.0000E+00  0.2320E+01
    -14.183  0.0000E+00  0.2320E+01
    -13.934  0.0000E+00  0.2320E+01
    -13.685  0.0000E+00  0.2320E+01
    -13.436  0.0000E+00  0.2320E+01
    -13.187  0.0000E+00  0.2320E+01
    -12.938  0.0000E+00  0.2320E+01
    -12.689  0.0000E+00  0.2320E+01
    -12.440  0.0000E+00  0.2320E+01
    -12.191  0.0000E+00  0.2320E+01
    -11.943  0.0000E+00  0.2320E+01
    -11.694  0.0000E+00  0.2320E+01
    -11.445  0.0000E+00  0.2320E+01
    -11.196  0.0000E+00  0.2320E+01
    -10.947  0.0000E+00  0.2320E+01
    -10.698  0.0000E+00  0.2320E+01
    -10.449  0.0000E+00  0.2320E+01
    -10.200  0.0000E+00  0.2320E+01
     -9.951  0.0000E+00  0.2320E+01
     -9.702  0.0000E+00  0.2320E+01
     -9.453  0.0000E+00  0.2320E+01
     -9.204  0.0000E+00  0.2320E+01
     -8.955  0.0000E+00  0.2320E+01
     -8.706  0.0000E+00  0.2320E+01
     -8.457  0.0000E+00  0.2320E+01
     -8.208  0.0000E+00  0.2320E+01
     -7.959  0.3319E-10  0.2320E+01
     -7.710  0.1101E-03  0.2320E+01
     -7.461  0.4257E-01  0.2331E+01
     -7.212  0.3903E-01  0.2340E+01
     -6.964  0.7267E-01  0.2358E+01
     -6.715  0.1023E+00  0.2384E+01
     -6.466  0.1513E+00  0.2422E+01
     -6.217  0.1472E+00  0.2458E+01
     -5.968  0.2630E+00  0.2524E+01
     -5.719  0.1450E+00  0.2560E+01
     -5.470  0.7741E-01  0.2579E+01
     -5.221  0.3627E-02  0.2580E+01
     -4.972  0.7540E-08  0.2580E+01
     -4.723  0.2727E-05  0.2580E+01
     -4.474  0.9063E-02  0.2582E+01
     -4.225  0.6198E-01  0.2598E+01
     -3.976  0.9588E-02  0.2600E+01
     -3.727  0.5552E-01  0.2614E+01
     -3.478  0.1166E+00  0.2643E+01
     -3.229  0.1498E+00  0.2680E+01
     -2.980  0.2049E+00  0.2731E+01
     -2.731  0.2357E+00  0.2790E+01
     -2.482  0.1987E+00  0.2839E+01
     -2.233  0.1774E+00  0.2884E+01
     -1.985  0.1507E+00  0.2921E+01
     -1.736  0.9444E-01  0.2945E+01
     -1.487  0.5946E-01  0.2959E+01
     -1.238  0.2409E-02  0.2960E+01
     -0.989  0.2979E-06  0.2960E+01
     -0.740  0.6042E-15  0.2960E+01
     -0.491  0.0000E+00  0.2960E+01
     -0.242  0.0000E+00  0.2960E+01
      0.007  0.3303E-17  0.2960E+01
      0.256  0.1701E-07  0.2960E+01
      0.505  0.8337E-03  0.2960E+01
      0.754  0.8946E-02  0.2962E+01
      1.003  0.4852E-01  0.2975E+01
      1.252  0.8886E-01  0.2997E+01
      1.501  0.1163E+00  0.3026E+01
      1.750  0.1882E+00  0.3072E+01
      1.999  0.2485E+00  0.3134E+01
      2.248  0.2646E+00  0.3200E+01
      2.497  0.2717E+00  0.3268E+01
      2.746  0.3231E+00  0.3348E+01
      2.994  0.3390E+00  0.3433E+01
      3.243  0.4160E+00  0.3536E+01
      3.492  0.5312E+00  0.3668E+01
      3.741  0.5951E+00  0.3817E+01
      3.990  0.5923E+00  0.3964E+01
      4.239  0.5861E+00  0.4110E+01
      4.488  0.5858E+00  0.4256E+01
      4.737  0.5356E+00  0.4389E+01
      4.986  0.4527E+00  0.4502E+01
      5.235  0.4039E+00  0.4602E+01
      5.484  0.3292E+00  0.4684E+01
      5.733  0.3127E+00  0.4762E+01
      5.982  0.2402E+00  0.4822E+01
      6.231  0.1414E+00  0.4857E+01
      6.480  0.1026E+00  0.4883E+01
      6.729  0.1091E+00  0.4910E+01
      6.978  0.2116E+00  0.4963E+01
      7.227  0.1892E+00  0.5010E+01
      7.476  0.1824E+00  0.5055E+01
      7.725  0.2137E+00  0.5108E+01
      7.973  0.2574E+00  0.5172E+01
      8.222  0.2906E+00  0.5245E+01
      8.471  0.3184E+00  0.5324E+01
      8.720  0.2873E+00  0.5395E+01
      8.969  0.3390E+00  0.5480E+01
      9.218  0.4551E+00  0.5593E+01
      9.467  0.5341E+00  0.5726E+01
      9.716  0.5370E+00  0.5860E+01
      9.965  0.5357E+00  0.5993E+01
     10.214  0.5309E+00  0.6125E+01
     10.463  0.4977E+00  0.6249E+01
     10.712  0.4786E+00  0.6368E+01
     10.961  0.4945E+00  0.6491E+01
     11.210  0.4785E+00  0.6611E+01
     11.459  0.3689E+00  0.6702E+01
     11.708  0.7023E-01  0.6720E+01
     11.957  0.3018E-03  0.6720E+01
     12.206  0.7343E-10  0.6720E+01
     12.455  0.0000E+00  0.6720E+01
     12.703  0.0000E+00  0.6720E+01
     12.952  0.0000E+00  0.6720E+01
     13.201  0.0000E+00  0.6720E+01
     13.450  0.0000E+00  0.6720E+01
     13.699  0.0000E+00  0.6720E+01
     13.948  0.0000E+00  0.6720E+01
     14.197  0.0000E+00  0.6720E+01
     14.446  0.0000E+00  0.6720E+01
     14.695  0.0000E+00  0.6720E+01
     14.944  0.0000E+00  0.6720E+01
