HECN                                    
           1
     8.932500    0.000000    0.000000
     0.005753    9.055598    0.000000
     0.032102   -0.015743    8.937128
   V    Nb   Zr   N    C    Cr   W 
   7   6   7  13  19   6   6
Direct configuration=     1
   0.99688001  0.99204997  0.99924002
   0.25398003  0.99714995  0.24912000
   0.24803003  0.50165000  0.24955001
   0.50501006  0.49745998  0.99834003
   0.50479003  0.24631001  0.74710002
   0.99427992  0.50449999  0.49779000
   0.49950005  0.75481999  0.74817004
   0.99437004  0.23617001  0.26379999
   0.75718000  0.74102998  0.01100000
   0.00201000  0.25541000  0.73894001
   0.75307001  0.26163001  0.50533002
   0.99514004  0.74492004  0.74511997
   0.25679999  0.49462002  0.74545002
   0.24788999  0.24839000  0.99657997
   0.50833000  0.25676999  0.25376001
   0.74879004  0.98787999  0.26967001
   0.75719000  0.25603001  0.99591997
   0.24762001  0.74973999  0.99974006
   0.25272001  0.24823001  0.50015003
   0.24457999  0.75048999  0.49983999
   0.24982001  0.24942998  0.24825000
   0.26146999  0.99984002  0.99295996
   0.00281000  0.25024000  0.00130000
   0.75313998  0.24617000  0.25492002
   0.74767001  0.99748000  0.01202000
   0.50714994  0.99977000  0.24673000
   0.99051999  0.48088002  0.24100998
   0.50519005  0.76130999  0.00855000
   0.98896989  0.00202000  0.73708999
   0.75744996  0.24437997  0.74896999
   0.73632001  0.00417000  0.51063000
   0.50563996  0.23264999  0.49544997
   0.50008998  0.00061000  0.73471998
   0.99720000  0.99771992  0.25899999
   0.50427997  0.24673000  0.00262000
   0.25133999  0.74958002  0.24910999
   0.24328000  0.50072997  0.99510994
   0.99837005  0.74313996  0.00460000
   0.75633000  0.73891003  0.25767000
   0.75839004  0.50315998  0.00288000
   0.50700002  0.50333002  0.25878999
   0.24900999  0.25315000  0.74854000
   0.24446000  0.99823996  0.50287998
   0.99804009  0.24229999  0.50128003
   0.24177002  0.75340997  0.75018002
   0.25841001  0.50062002  0.50129001
   0.99000004  0.76215003  0.49746000
   0.99203996  0.50055999  0.75138002
   0.75036005  0.74888000  0.74756004
   0.74036002  0.50197000  0.50067003
   0.50575006  0.74958002  0.49720000
   0.50501003  0.50217998  0.73912003
   0.51588997  0.01358000  0.98075008
   0.99841994  0.50976998  0.98613004
   0.50379003  0.73926997  0.25905001
   0.23780002  0.01082000  0.74607998
   0.47957999  0.98308000  0.49717999
   0.74279003  0.97869994  0.76450995
   0.99864998  0.77573999  0.26102000
   0.73551001  0.51468004  0.26666001
   0.02362000  0.99783001  0.49557002
   0.50539000  0.52833005  0.49917999
   0.73876003  0.52828003  0.73814999
   0.75400003  0.72937999  0.49116997
HECN                                    
           1
     8.472630    0.008784   -0.004844
     0.014362    8.555060    0.002502
     0.025587   -0.012369    8.499258
   V    Nb   Zr   N    C    Cr   W 
   7   6   7  13  19   6   6
Direct configuration=     2
   0.99676200  0.98924201  0.99895991
   0.25224521  0.99325807  0.24914160
   0.25161614  0.50532855  0.24848976
   0.50359868  0.49396490  0.99719419
   0.50107458  0.24342497  0.75128788
   0.99451644  0.50161924  0.50131487
   0.49938288  0.75834082  0.74821953
   0.99961101  0.23735000  0.26079430
   0.75270983  0.74519694  0.00892534
   0.00319522  0.25362793  0.74012383
   0.75115900  0.25869537  0.50942598
   0.99954578  0.74775714  0.74835673
   0.25727880  0.49669709  0.74954652
   0.24925969  0.24540135  0.99957967
   0.50176340  0.25136029  0.25122930
   0.74016205  0.99159971  0.26530552
   0.75584228  0.25262162  0.99233352
   0.25500434  0.75381583  0.00055523
   0.25727295  0.24895263  0.49776022
   0.24962333  0.74939097  0.49888874
   0.24874419  0.25031485  0.24891141
   0.25914015  0.00048866  0.99437513
   0.00215338  0.24779927  0.00161318
   0.75469418  0.24824462  0.25561959
   0.74892340  0.99541854  0.00449580
   0.49834094  0.99748770  0.24864982
   0.99281344  0.48254998  0.24458236
   0.50686050  0.75870464  0.00545841
   0.98854992  0.00230394  0.74104997
   0.75216637  0.24476181  0.74727869
   0.73779489  0.00261633  0.51313148
   0.50651249  0.23278908  0.50285687
   0.50358316  0.00012009  0.73794750
   0.00484210  0.99962607  0.25079112
   0.50426855  0.24825417 -0.00592962
   0.25125651  0.74870634  0.24982139
   0.24591806  0.50010455  0.99991863
   0.99637109  0.74509244  0.00555381
   0.75291057  0.74091544  0.25293352
   0.75515064  0.50537093  0.00264353
   0.49835068  0.50877120  0.25141264
   0.25338918  0.24962077  0.74833356
   0.25258982  0.99788909  0.50233960
   0.99686641  0.24729783  0.50111945
   0.24641183  0.75387454  0.75008907
   0.25452580  0.50053540  0.49549354
   0.99173763  0.75569238  0.49943727
   0.99247520  0.50101274  0.74990589
   0.74299707  0.75703582  0.74924501
   0.75048071  0.49768246  0.50313115
   0.50459854  0.75633034  0.49894802
   0.50350629  0.50107688  0.74618935
   0.51673612  0.01657708  0.97588340
   0.00029293  0.51385048  0.98213124
   0.50348954  0.73730961  0.25692222
   0.23717385  0.01091797  0.74881312
   0.47624873  0.98184656  0.49952884
   0.73808990  0.97400351  0.76723199
   0.00496339  0.77359535  0.25419322
   0.74007265  0.51060994  0.25939387
   0.02184953  0.00181306  0.50127543
   0.49713558  0.52567689  0.49998967
   0.73914514  0.52097779  0.74440388
   0.75425570  0.73668718  0.49545349
HECN                                    
           1
     8.694812    0.004540   -0.002504
     0.010203    8.796890    0.001293
     0.028734   -0.013999    8.710811
   V    Nb   Zr   N    C    Cr   W 
   7   6   7  13  19   6   6
Direct configuration=     3
   0.99682068  0.99067792  0.99910182
   0.25312676  0.99524751  0.24913054
   0.24979180  0.50344902  0.24902791
   0.50431605  0.49575140  0.99777620
   0.50296430  0.24489911  0.74916096
   0.99439337  0.50309315  0.49952362
   0.49944445  0.75654018  0.74819495
   0.99694298  0.23674882  0.26231994
   0.75498963  0.74306326  0.00998126
   0.00259020  0.25454010  0.73952180
   0.75212960  0.26019581  0.50734522
   0.99730222  0.74630903  0.74671151
   0.25703482  0.49563574  0.74746555
   0.24855952  0.24693095  0.99805488
   0.50510603  0.25412303  0.25251607
   0.74456013  0.98969223  0.26752588
   0.75652799  0.25436344  0.99415543
   0.25124498  0.75173540  0.00013956
   0.25495494  0.24858509  0.49897310
   0.24705412  0.74995550  0.49937037
   0.24929246  0.24986186  0.24857584
   0.26032682  0.00015594  0.99365696
   0.00248643  0.24904719  0.00145390
   0.75390344  0.24718456  0.25526405
   0.74828609  0.99647227  0.00831766
   0.50282613  0.99865058  0.24767671
   0.99164508  0.48169770  0.24276707
   0.50600915  0.76003743  0.00702815
   0.98876282  0.00215912  0.73903834
   0.75485835  0.24456351  0.74813951
   0.73704206  0.00341205  0.51185999
   0.50606593  0.23271955  0.49909370
   0.50180264  0.00037296  0.73630673
   0.00095295  0.99865397  0.25495955
   0.50427772  0.24747337 -0.00158591
   0.25129835  0.74915321  0.24945987
   0.24457256  0.50042652  0.99747480
   0.99739005  0.74409303  0.00507012
   0.75465479  0.73988733  0.25534109
   0.75680194  0.50423850  0.00276494
   0.50276146  0.50598287  0.25516390
   0.25115674  0.25142790  0.74843663
   0.24844876  0.99807269  0.50261171
   0.99746698  0.24474126  0.50120213
   0.24404773  0.75363937  0.75013400
   0.25650595  0.50057574  0.49843944
   0.99084850  0.75899609  0.49843127
   0.99225419  0.50078120  0.75065473
   0.74675140  0.75286128  0.74839236
   0.74532255  0.49988081  0.50187724
   0.50518820  0.75287784  0.49806132
   0.50426955  0.50164133  0.74259819
   0.51630818  0.01504404  0.97835603
  -0.00065772  0.51176404  0.98416283
   0.50364218  0.73831167  0.25800299
   0.23749204  0.01086796  0.74742480
   0.47794420  0.98247598  0.49833633
   0.74048064  0.97640327  0.76584977
   0.00174844  0.77469438  0.25765928
   0.73774857  0.51269268  0.26308336
   0.02275179 -0.00022395  0.49837802
   0.50133841  0.52702955  0.49958032
   0.73894319  0.52471338  0.74122549
   0.75412814  0.73295102  0.49327835
HECN                                    
           1
     8.716854    0.008511   -0.006022
     0.014261    8.767590    0.002441
     0.025284   -0.012804    8.739252
   V    Nb   Zr   N    C    Cr   W 
   7   6   7  13  19   6   6
Direct configuration=     4
   0.99779577  0.98784628  0.99802727
   0.25134341  0.99109680  0.24905317
   0.25480238  0.50779062  0.24711370
   0.50199439  0.49170306  0.99662313
   0.49793029  0.24142971  0.75427182
   0.99627387  0.49911760  0.50374411
   0.49903008  0.76104812  0.74835804
   0.00321515  0.23892600  0.25697947
   0.74837878  0.74923110  0.00631023
   0.00499152  0.25161320  0.74310155
   0.74942622  0.25611813  0.51091121
   0.00076172  0.75063262  0.75154747
   0.25617114  0.49816019  0.75233556
   0.24970289  0.24404112  0.00062593
   0.49822283  0.24978896  0.24915288
   0.73875157  0.99395418  0.26157599
   0.75503392  0.25049112  0.99152352
   0.25967090  0.75594539  0.00081393
   0.25887184  0.24969049  0.49732407
   0.25096322  0.74938661  0.49880998
   0.24806303  0.25095941  0.24892947
   0.25812684  0.00054486  0.99526788
   0.00196630  0.24665486  0.00203913
   0.75457992  0.24987000  0.25531532
   0.74990508  0.99443573 -0.00045822
   0.49123665  0.99502870  0.24887039
   0.99470554  0.48625612  0.24639326
   0.50749897  0.75746596  0.00334280
   0.98796989  0.00244406  0.74524195
   0.74821517  0.24538896  0.74641989
   0.73944166  0.00057137  0.51632519
   0.50728167  0.23358865  0.50743184
   0.50539069 -0.00003171  0.74061799
   0.00794534  0.00111401  0.24572287
   0.50359737  0.24979330 -0.01090924
   0.25287854  0.74802084  0.24962360
   0.24739925  0.49993809  0.00376140
   0.99770070  0.74640528  0.00601989
   0.75030158  0.74349311  0.25121999
   0.75339633  0.50491196  0.00267780
   0.49213810  0.51121825  0.24614441
   0.25724300  0.24661521  0.74879224
   0.25797729  0.99796762  0.50255583
   0.99741336  0.25164742  0.50078027
   0.25066391  0.75541088  0.75047739
   0.25090360  0.50018234  0.49201135
   0.99411255  0.75128674  0.50016057
   0.99390378  0.50110754  0.74909153
   0.73935368  0.76092994  0.75013391
   0.75469264  0.49668084  0.50327900
   0.50390416  0.76167630  0.49996140
   0.50164303  0.49989322  0.75113683
   0.51617078  0.01757937  0.97226293
   0.00174393  0.51585696  0.97993942
   0.50252525  0.73666348  0.25513994
   0.23670341  0.00973072  0.75094026
   0.47590166  0.98204132  0.50079826
   0.73419773  0.97324124  0.76928974
   0.00781833  0.76860360  0.24906951
   0.74267161  0.50530500  0.25391951
   0.01822842  0.00425603  0.50336630
   0.49519755  0.51997275  0.49926494
   0.74099561  0.51573934  0.75070944
   0.75296458  0.74152881  0.49871891
HECN                                    
           1
     8.718116    0.008738   -0.006223
     0.014493    8.765913    0.002506
     0.025087   -0.012735    8.740880
   V    Nb   Zr   N    C    Cr   W 
   7   6   7  13  19   6   6
Direct configuration=     5
   0.99785149  0.98768364  0.99796600
   0.25124171  0.99085847  0.24904874
   0.25508830  0.50803985  0.24700457
   0.50186192  0.49147063  0.99655732
   0.49764310  0.24123056  0.75456332
   0.99638144  0.49888920  0.50398497
   0.49900630  0.76130702  0.74836730
   0.00357307  0.23905092  0.25667491
   0.74800109  0.74958552  0.00610059
   0.00512878  0.25144502  0.74330586
   0.74927206  0.25588400  0.51111463
   0.00095923  0.75088080  0.75182342
   0.25612188  0.49830515  0.75261337
   0.24976831  0.24387510  0.00077266
   0.49782989  0.24954026  0.24896088
   0.73841969  0.99419914  0.26123637
   0.75494867  0.25026880  0.99137336
   0.26015187  0.75618695  0.00085257
   0.25909540  0.24975388  0.49723007
   0.25118641  0.74935384  0.49877811
   0.24799282  0.25102247  0.24894961
   0.25800126  0.00056724  0.99535974
   0.00193669  0.24651747  0.00207253
   0.75461848  0.25002420  0.25531824
   0.74999736  0.99431880 -0.00095885
   0.49057509  0.99482099  0.24893826
   0.99488023  0.48651780  0.24660018
   0.50758401  0.75731827  0.00313260
   0.98792475  0.00246039  0.74559585
   0.74783582  0.24543655  0.74632162
   0.73957884  0.00040813  0.51658002
   0.50735125  0.23363846  0.50790758
   0.50559565 -0.00005507  0.74086405
   0.00834428  0.00125518  0.24519604
   0.50355824  0.24992663 -0.01144119
   0.25296879  0.74795577  0.24963299
   0.24756079  0.49990992  0.00412013
   0.99771839  0.74653806  0.00607407
   0.75005284  0.74370033  0.25098474
   0.75320187  0.50495073  0.00267275
   0.49153122  0.51151926  0.24562955
   0.25759063  0.24633866  0.74881271
   0.25852131  0.99796134  0.50255286
   0.99741011  0.25204404  0.50075615
   0.25104161  0.75551245  0.75049712
   0.25058360  0.50015994  0.49164448
   0.99429915  0.75084390  0.50025936
   0.99399792  0.50112625  0.74900238
   0.73893114  0.76139350  0.75023304
   0.75522773  0.49649681  0.50335921
   0.50383066  0.76218161  0.50006971
   0.50149332  0.49979282  0.75162393
   0.51616272  0.01772502  0.97191528
   0.00188085  0.51609198  0.97969849
   0.50246146  0.73656887  0.25497658
   0.23665850  0.00966540  0.75114082
   0.47578512  0.98201639  0.50093868
   0.73383918  0.97305978  0.76948587
   0.00816485  0.76825372  0.24857963
   0.74295267  0.50488067  0.25339686
   0.01797016  0.00451339  0.50365076
   0.49484713  0.51956764  0.49924686
   0.74111325  0.51522383  0.75125063
   0.75289805  0.74202141  0.49902922
HECN                                    
           1
     8.765727    0.001291   -0.010341
     0.007040    8.810525    0.004776
     0.021128   -0.010561    8.774784
   V    Nb   Zr   N    C    Cr   W 
   7   6   7  13  19   6   6
Direct configuration=     6
   0.00008219  0.98568909  0.99715024
   0.25030335  0.98824403  0.25069829
   0.25995543  0.51170053  0.24486150
   0.50054867  0.48806538  0.99601545
   0.49328951  0.23903585  0.75673739
   0.99982518  0.49630712  0.50809573
   0.49902162  0.76351275  0.74621990
   0.00411565  0.24099962  0.25559718
   0.74533851  0.74978223  0.00425068
   0.00849672  0.24944218  0.74472514
   0.74918933  0.25476573  0.51118178
   0.00014927  0.75212319  0.75386924
   0.25458622  0.49855767  0.75398805
   0.24815123  0.24378875 -0.00056687
   0.49810383  0.25086349  0.24724825
   0.73949695  0.99468011  0.25900735
   0.75499329  0.24932835  0.99203861
   0.26240733  0.75638544  0.00053004
   0.25657227  0.24996557  0.49942309
   0.24869119  0.74983423  0.49964190
   0.24747312  0.25118461  0.24917780
   0.25705074  0.00066278  0.99618076
   0.00169990  0.24562117  0.00206336
   0.75338779  0.25100034  0.25468691
   0.75017968  0.99501972 -0.00476661
   0.48767898  0.99303439  0.24946874
   0.99502983  0.49147664  0.24863600
   0.50837175  0.75635707  0.00086817
   0.98831250  0.00274763  0.74862614
   0.74645739  0.24782327  0.74618861
   0.74364496 -0.00149411  0.51669670
   0.50821047  0.23699854  0.50871773
   0.50740122  0.00013500  0.74430518
   0.00787739 -0.00223832  0.24422395
   0.50259412  0.25097509 -0.01239819
   0.25466949  0.74765375  0.24916026
   0.24754922  0.50077772  0.00621115
   0.99994311  0.74691826  0.00560765
   0.74877585  0.74286279  0.25353462
   0.75279402  0.50409560  0.00285945
   0.49183008  0.51128603  0.24375683
   0.25923429  0.24464003  0.74972771
   0.25614325  0.99912458  0.50402442
   0.99884590  0.25454950  0.50022110
   0.25413024  0.75738681  0.75110559
   0.24818268  0.49996751  0.49137148
   0.99476769  0.74898457  0.49864572
   0.99575914  0.50144844  0.74939704
   0.73953621  0.75666257  0.74956775
   0.75448233  0.50012240  0.50241965
   0.50559559  0.76016712  0.49928147
   0.50210799  0.49928006  0.75239162
   0.51615819  0.01880711  0.96752855
   0.00317823  0.51970248  0.97646190
   0.50068505  0.73398188  0.25586325
   0.23425670  0.00709200  0.75179240
   0.47697439  0.98330999  0.50273330
   0.72802955  0.97485565  0.77167196
   0.00683707  0.76831369  0.24706471
   0.73957666  0.50544919  0.24978242
   0.01882558  0.00495155  0.50178269
   0.49904349  0.51884674  0.49763424
   0.74129558  0.51629651  0.75517993
   0.75210522  0.74009010  0.49983307
HECN                                    
           1
     8.777424   -0.000538   -0.011352
     0.005209    8.821484    0.005334
     0.020156   -0.010027    8.783113
   V    Nb   Zr   N    C    Cr   W 
   7   6   7  13  19   6   6
Direct configuration=     7
   0.00062670  0.98520210  0.99695099
   0.25007373  0.98760471  0.25110201
   0.26114513  0.51259640  0.24433738
   0.50022703  0.48723284  0.99588291
   0.49222560  0.23849838  0.75726906
   0.00066650  0.49567647  0.50910224
   0.49902558  0.76405200  0.74569427
   0.00424850  0.24147610  0.25533339
   0.74468780  0.74982987  0.00379766
   0.00931934  0.24895327  0.74507296
   0.74916889  0.25449238  0.51119828
  -0.00004814  0.75242656  0.75436971
   0.25421123  0.49861898  0.75432426
   0.24775596  0.24376738 -0.00089485
   0.49817085  0.25118707  0.24682910
   0.73976000  0.99479803  0.25846197
   0.75500408  0.24909846  0.99220148
   0.26295840  0.75643445  0.00045136
   0.25595609  0.25001665  0.49995945
   0.24808174  0.74995107  0.49985297
   0.24734621  0.25122412  0.24923357
   0.25681861  0.00068588  0.99638156
   0.00164186  0.24540205  0.00206114
   0.75308724  0.25123871  0.25453222
   0.75022394  0.99519131 -0.00569844
   0.48697107  0.99259708  0.24959833
   0.99506765  0.49268857  0.24913390
   0.50856376  0.75612244  0.00031419
   0.98840764  0.00281773  0.74936771
   0.74612109  0.24840635  0.74615576
   0.74463804 -0.00195821  0.51672583
   0.50842120  0.23781993  0.50891588
   0.50784280  0.00018162  0.74514747
   0.00776248 -0.00309223  0.24398624
   0.50235867  0.25123121 -0.01263256
   0.25508490  0.74758031  0.24904479
   0.24754681  0.50098970  0.00672279
   0.00048669  0.74701168  0.00549374
   0.74846396  0.74265765  0.25415851
   0.75269422  0.50388650  0.00290514
   0.49190284  0.51122920  0.24329860
   0.25963563  0.24422514  0.74995192
   0.25556264  0.99940831  0.50438419
   0.99919717  0.25516221  0.50009018
   0.25488534  0.75784554  0.75125472
   0.24759600  0.49991999  0.49130442
   0.99488159  0.74853032  0.49825101
   0.99618956  0.50152753  0.74949380
   0.73968298  0.75550642  0.74940531
   0.75430086  0.50100846  0.50218941
   0.50602630  0.75967516  0.49908890
   0.50225815  0.49915481  0.75257959
   0.51615682  0.01907186  0.96645499
   0.00349560  0.52058542  0.97566979
   0.50025058  0.73334915  0.25608019
   0.23366941  0.00646247  0.75195174
   0.47726544  0.98362630  0.50317252
   0.72661073  0.97529326  0.77220615
   0.00651250  0.76832817  0.24669384
   0.73875152  0.50558767  0.24889751
   0.01903446  0.00505893  0.50132562
   0.50006845  0.51867151  0.49724013
   0.74134080  0.51655848  0.75614144
   0.75191119  0.73961784  0.50002982
HECN                                    
           1
     8.711917   -0.004807   -0.011494
     0.000878    8.770198    0.005313
     0.019791   -0.009963    8.723471
   V    Nb   Zr   N    C    Cr   W 
   7   6   7  13  19   6   6
Direct configuration=     8
   0.00431409  0.98298004  0.99599142
   0.24934895  0.98457812  0.25360418
   0.26798203  0.51650850  0.24259162
   0.49910284  0.48359433  0.99471129
   0.48688338  0.23681853  0.75799973
   0.00379862  0.49340449  0.51501689
   0.50040021  0.76588896  0.74213172
   0.00363127  0.24251448  0.25506309
   0.74279328  0.74963508  0.00251310
   0.01202387  0.24641835  0.74564795
   0.75010429  0.25570951  0.51144694
  -0.00098278  0.75392914  0.75455344
   0.25381177  0.50004273  0.75463501
   0.24600470  0.24379818 -0.00029908
   0.49763867  0.25155976  0.24655647
   0.74040785  0.99403981  0.25715777
   0.75552466  0.24884381  0.99233602
   0.26513336  0.75687101  0.00013528
   0.25536764  0.25075388  0.50066377
   0.24776961  0.74984731  0.50059756
   0.24707787  0.25139030  0.24962160
   0.25542188  0.00054553  0.99750355
   0.00095426  0.24434231  0.00184346
   0.75178242  0.25165706  0.25379919
   0.74996070  0.99560469 -0.00819147
   0.48629909  0.99160531  0.25115421
   0.99397777  0.49698753  0.25153289
   0.50960384  0.75526372 -0.00219530
   0.99012906  0.00294081  0.75135651
   0.74599062  0.25077408  0.74586279
   0.74962443 -0.00259410  0.51527206
   0.50874588  0.24218903  0.50855226
   0.50913442  0.00028955  0.74707372
   0.00593508 -0.00310379  0.24474151
   0.50123086  0.25119205 -0.01199813
   0.25629661  0.74756504  0.24935264
   0.24680060  0.50193975  0.00774271
   0.00200756  0.74716271  0.00476527
   0.74742398  0.74199396  0.25560670
   0.75314285  0.50336649  0.00310403
   0.49385095  0.50932854  0.24209624
   0.26041796  0.24298688  0.75086465
   0.25381693  0.99991220  0.50608952
   0.99982860  0.25579535  0.50014247
   0.25713400  0.75961800  0.75136218
   0.24661677  0.50047901  0.49217587
   0.99387244  0.74826102  0.49671910
   0.99740607  0.50148879  0.75015441
   0.74120145  0.75317392  0.74904657
   0.75353187  0.50243877  0.50147650
   0.50614841  0.75768135  0.49760094
   0.50328280  0.49857024  0.75174932
   0.51631339  0.02126101  0.96358554
   0.00490604  0.52513574  0.97226714
   0.49806676  0.73125589  0.25877095
   0.22943269  0.00296849  0.75250126
   0.47708507  0.98485125  0.50531833
   0.72104641  0.97419787  0.77281794
   0.00474881  0.76663485  0.24650165
   0.73345097  0.50709371  0.24560843
   0.01820232  0.00581568  0.49840706
   0.50339266  0.51771965  0.49571506
   0.74105938  0.51729956  0.75857345
   0.75258953  0.73718398  0.50090121
HECN                                    
           1
     8.730611   -0.003588   -0.011453
     0.002114    8.784834    0.005319
     0.019895   -0.009981    8.740492
   V    Nb   Zr   N    C    Cr   W 
   7   6   7  13  19   6   6
Direct configuration=     9
   0.00325421  0.98361735  0.99626710
   0.24955775  0.98544699  0.25288524
   0.26601573  0.51538459  0.24309318
   0.49942660  0.48463891  0.99504793
   0.48841962  0.23730147  0.75778982
   0.00289834  0.49405621  0.51331743
   0.50000474  0.76536148  0.74315533
   0.00380859  0.24221650  0.25514076
   0.74333804  0.74969126  0.00288220
   0.01124662  0.24714561  0.74548272
   0.74983517  0.25536000  0.51137549
  -0.00071426  0.75349796  0.75450066
   0.25392642  0.49963410  0.75454573
   0.24650822  0.24378959 -0.00047025
   0.49779163  0.25145286  0.24663481
   0.74022170  0.99425736  0.25753250
   0.75537501  0.24891683  0.99229735
   0.26450795  0.75674539  0.00022608
   0.25553672  0.25054234  0.50046141
   0.24785937  0.74987713  0.50038362
   0.24715500  0.25134263  0.24951011
   0.25582348  0.00058601  0.99718118
   0.00115211  0.24464660  0.00190601
   0.75215753  0.25153716  0.25400982
   0.75003635  0.99548607 -0.00747515
   0.48649243  0.99189009  0.25070717
   0.99429051  0.49575369  0.25084360
   0.50930493  0.75551006 -0.00147426
   0.98963408  0.00290524  0.75078506
   0.74602780  0.25009445  0.74594697
   0.74819083 -0.00241227  0.51568973
   0.50865191  0.24093485  0.50865673
   0.50876302  0.00025838  0.74652025
   0.00646050 -0.00310021  0.24452451
   0.50155513  0.25120345 -0.01218041
   0.25594821  0.74756925  0.24926418
   0.24701501  0.50166715  0.00744966
   0.00157026  0.74711914  0.00497457
   0.74772308  0.74218461  0.25519060
   0.75301393  0.50351569  0.00304688
   0.49329110  0.50987385  0.24244170
   0.26019319  0.24334221  0.75060239
   0.25431877  0.99976781  0.50559954
   0.99964696  0.25561352  0.50012744
   0.25648721  0.75910891  0.75133129
   0.24689823  0.50031868  0.49192548
   0.99416264  0.74833846  0.49715927
   0.99705630  0.50149974  0.74996459
   0.74076519  0.75384324  0.74914964
   0.75375278  0.50202831  0.50168134
   0.50611359  0.75825365  0.49802847
   0.50298828  0.49873789  0.75198787
   0.51626808  0.02063260  0.96441001
   0.00449989  0.52382939  0.97324481
   0.49869493  0.73185706  0.25799783
   0.23065133  0.00397201  0.75234340
   0.47713674  0.98449966  0.50470178
   0.72264643  0.97451307  0.77264220
   0.00525615  0.76712116  0.24655688
   0.73497481  0.50666215  0.24655351
   0.01844150  0.00559857  0.49924565
   0.50243702  0.51799241  0.49615323
   0.74114017  0.51708688  0.75787467
   0.75239483  0.73788251  0.50065083
HECN                                    
           1
     8.737972   -0.001897   -0.007689
     0.003820    8.794152    0.002612
     0.023691   -0.012688    8.750495
   V    Nb   Zr   N    C    Cr   W 
   7   6   7  13  19   6   6
Direct configuration=    10
   0.00681829  0.98245454  0.99581453
   0.24908716  0.98394358  0.25518268
   0.27082202  0.51680743  0.24298655
   0.49896475  0.48251931  0.99358616
   0.48498998  0.23729425  0.75654652
   0.00409432  0.49346211  0.51800325
   0.50199073  0.76566901  0.73976373
   0.00264833  0.24318107  0.25531006
   0.74297460  0.74974976  0.00254647
   0.01169609  0.24524713  0.74575092
   0.75090155  0.25783359  0.51155237
  -0.00097336  0.75486239  0.75273208
   0.25463504  0.50179504  0.75395308
   0.24548048  0.24407166  0.00183183
   0.49669232  0.24973357  0.24779954
   0.73987783  0.99322977  0.25743044
   0.75581341  0.24906894  0.99179061
   0.26606976  0.75724623  0.00013257
   0.25688048  0.25143307  0.49933695
   0.24891053  0.74954947  0.50055453
   0.24692714  0.25164407  0.24997068
   0.25449105  0.00036659  0.99835900
   0.00043240  0.24373558  0.00164057
   0.75150206  0.25148330  0.25362615
   0.74964047  0.99522172 -0.00786879
   0.48720113  0.99144884  0.25255869
   0.99289532  0.49802757  0.25240623
   0.50994787  0.75502482 -0.00316769
   0.99144139  0.00264879  0.75129379
   0.74671812  0.25130697  0.74557820
   0.75194109 -0.00161689  0.51405875
   0.50848382  0.24419988  0.50827711
   0.50790049  0.00041941  0.74511220
   0.00486625 -0.00051161  0.24552018
   0.50078583  0.25016661 -0.01104735
   0.25667513  0.74782784  0.25002528
   0.24608945  0.50225801  0.00744290
   0.00192246  0.74732859  0.00416534
   0.74677490  0.74230484  0.25447928
   0.75401902  0.50356532  0.00305546
   0.49469167  0.50758140  0.24138175
   0.25993040  0.24271166  0.75104007
   0.25473863  0.99953250  0.50683849
   0.99945649  0.25472080  0.50065272
   0.25731038  0.76019602  0.75084508
   0.24721066  0.50110604  0.49282883
   0.99330493  0.74903419  0.49676707
   0.99733584  0.50107903  0.75026182
   0.74197267  0.75538777  0.74906685
   0.75455440  0.50027874  0.50138364
   0.50509170  0.75842196  0.49665089
   0.50341938  0.49820592  0.75066338
   0.51581841  0.02265518  0.96548507
   0.00537598  0.52657986  0.97199876
   0.49732976  0.73218346  0.26128569
   0.22690151  0.00078736  0.75280719
   0.47621797  0.98552175  0.50631480
   0.72149126  0.97222020  0.77106502
   0.00414862  0.76375459  0.24765911
   0.73216060  0.50726405  0.24489213
   0.01530854  0.00631864  0.49682422
   0.50243398  0.51562635  0.49570317
   0.74115879  0.51560543  0.75794218
   0.75360809  0.73722469  0.50155133
HECN                                    
           1
     8.741721   -0.001036   -0.005771
     0.004689    8.798898    0.001233
     0.025625   -0.014067    8.755591
   V    Nb   Zr   N    C    Cr   W 
   7   6   7  13  19   6   6
Direct configuration=    11
   0.00863244  0.98186243  0.99558329
   0.24884729  0.98317899  0.25635148
   0.27326806  0.51753094  0.24293147
   0.49873022  0.48144060  0.99284218
   0.48324474  0.23729072  0.75591468
   0.00470204  0.49316042  0.52038701
   0.50300222  0.76582477  0.73803772
   0.00205768  0.24367202  0.25539661
   0.74278970  0.74977952  0.00237574
   0.01192499  0.24428111  0.74588699
   0.75144400  0.25909216  0.51164253
  -0.00110497  0.75555641  0.75183251
   0.25499561  0.50289444  0.75365173
   0.24495688  0.24421565  0.00300339
   0.49613274  0.24885902  0.24839212
   0.73970294  0.99270691  0.25737843
   0.75603663  0.24914621  0.99153271
   0.26686462  0.75750091  0.00008473
   0.25756455  0.25188599  0.49876468
   0.24944552  0.74938267  0.50064120
   0.24681104  0.25179755  0.25020511
   0.25381267  0.00025526  0.99895852
   0.00006625  0.24327205  0.00150553
   0.75116855  0.25145590  0.25343109
   0.74943911  0.99508719 -0.00806902
   0.48756146  0.99122453  0.25350051
   0.99218467  0.49918499  0.25320195
   0.51027551  0.75477758 -0.00402951
   0.99236113  0.00251821  0.75155219
   0.74706941  0.25192382  0.74539062
   0.75385007 -0.00121279  0.51322822
   0.50839802  0.24586120  0.50808451
   0.50746180  0.00050122  0.74439600
   0.00405438  0.00080588  0.24602753
   0.50039415  0.24963929 -0.01047084
   0.25704490  0.74795947  0.25041240
   0.24561833  0.50255875  0.00743975
   0.00210187  0.74743500  0.00375357
   0.74629246  0.74236600  0.25411759
   0.75453055  0.50359048  0.00305961
   0.49540495  0.50641461  0.24084178
   0.25979662  0.24239091  0.75126272
   0.25495207  0.99941291  0.50746872
   0.99935952  0.25426665  0.50091988
   0.25772933  0.76074902  0.75059769
   0.24736940  0.50150679  0.49328851
   0.99286842  0.74938822  0.49656781
   0.99747809  0.50086498  0.75041292
   0.74258709  0.75617356  0.74902470
   0.75496263  0.49938836  0.50123172
   0.50457190  0.75850748  0.49595024
   0.50363914  0.49793499  0.74998931
   0.51558911  0.02368455  0.96603247
   0.00582187  0.52797912  0.97136502
   0.49663421  0.73235019  0.26295889
   0.22499326 -0.00083267  0.75304349
   0.47574990  0.98604217  0.50713586
   0.72090391  0.97105336  0.77026245
   0.00358503  0.76204183  0.24821964
   0.73072862  0.50757033  0.24404754
   0.01371448  0.00668496  0.49559302
   0.50243276  0.51442234  0.49547382
   0.74116841  0.51485162  0.75797630
   0.75422544  0.73688999  0.50200913
HECN                                    
           1
     8.781417    0.002086   -0.004693
     0.007852    8.804148   -0.001156
     0.026823   -0.016446    8.768174
   V    Nb   Zr   N    C    Cr   W 
   7   6   7  13  19   6   6
Direct configuration=    12
   0.01057411  0.98139875  0.99648680
   0.24759673  0.98346881  0.25853697
   0.27420667  0.51647356  0.24401136