<?xml version="1.0" encoding="ISO-8859-1"?>
<modeling>
 <generator>
  <i name="program" type="string">vasp </i>
  <i name="version" type="string">5.4.4.18Apr17-6-g9f103f2a35  </i>
  <i name="subversion" type="string">(build Oct 18 2021 20:38:43) complex            parallel </i>
  <i name="platform" type="string">LinuxIFC </i>
  <i name="date" type="string">2024 05 30 </i>
  <i name="time" type="string">10:53:39 </i>
 </generator>
 <incar>
  <i type="string" name="SYSTEM">HECN</i>
  <i type="int" name="ISTART">     0</i>
  <i type="string" name="PREC">normal</i>
  <i type="string" name="ALGO">Fast</i>
  <i type="int" name="ICHARG">     2</i>
  <i type="int" name="NELM">    60</i>
  <i type="int" name="IBRION">     2</i>
  <i name="EDIFF">      0.00001000</i>
  <i name="EDIFFG">     -0.01000000</i>
  <i type="int" name="NSW">   100</i>
  <i type="int" name="ISIF">     3</i>
  <i name="ENCUT">    400.00000000</i>
  <i name="POTIM">      0.50000000</i>
  <i type="logical" name="LREAL"> F  </i>
  <i type="int" name="ISMEAR">     0</i>
  <i name="SIGMA">      0.10000000</i>
  <i type="logical" name="LWAVE"> F  </i>
  <i type="logical" name="LCHARG"> F  </i>
  <v type="int" name="KPOINT_BSE">    -1     0     0     0</v>
  <i type="int" name="NELM">    60</i>
 </incar>
 <structure name="primitive_cell" >
  <crystal>
   <varray name="basis" >
    <v>      11.23999977       0.00000000       0.00000000 </v>
    <v>       0.00000000      11.23999977       0.00000000 </v>
    <v>       0.00000000       0.00000000      11.23999977 </v>
   </varray>
   <i name="volume">   1420.03453724 </i>
   <varray name="rec_basis" >
    <v>       0.08896797       0.00000000       0.00000000 </v>
    <v>       0.00000000       0.08896797       0.00000000 </v>
    <v>       0.00000000       0.00000000       0.08896797 </v>
   </varray>
  </crystal>
  <varray name="positions" >
   <v>       0.00000000       0.00000000       0.00000000 </v>
   <v>      -0.24999996       0.00000000       0.00000000 </v>
   <v>       0.00000000       0.00000000      -0.24999996 </v>
   <v>       0.00000000      -0.24999996       0.00000000 </v>
   <v>       0.25000000       0.00000000       0.00000000 </v>
   <v>       0.00000000       0.25000000       0.00000000 </v>
   <v>       0.00000000       0.00000000       0.25000000 </v>
   <v>      -0.24999996      -0.24999996       0.00000000 </v>
   <v>       0.00000000      -0.24999996      -0.24999996 </v>
   <v>      -0.24999996       0.00000000      -0.24999996 </v>
   <v>       0.00000000       0.25000000      -0.24999996 </v>
   <v>      -0.24999996       0.00000000       0.25000000 </v>
   <v>      -0.24999996       0.25000000       0.00000000 </v>
   <v>       0.25000000      -0.24999996       0.00000000 </v>
   <v>       0.25000000       0.00000000      -0.24999996 </v>
   <v>       0.00000000      -0.24999996       0.25000000 </v>
   <v>       0.25000000       0.00000000       0.25000000 </v>
   <v>       0.00000000       0.25000000       0.25000000 </v>
   <v>       0.25000000       0.25000000       0.00000000 </v>
   <v>      -0.24999996      -0.24999996      -0.24999996 </v>
   <v>      -0.24999996       0.25000000      -0.24999996 </v>
   <v>       0.25000000      -0.24999996      -0.24999996 </v>
   <v>      -0.24999996      -0.24999996       0.25000000 </v>
   <v>      -0.24999996       0.25000000       0.25000000 </v>
   <v>       0.25000000      -0.24999996       0.25000000 </v>
   <v>       0.25000000       0.25000000      -0.24999996 </v>
   <v>       0.25000000       0.25000000       0.25000000 </v>
   <v>      -0.50000000       0.00000000       0.00000000 </v>
   <v>       0.00000000      -0.50000000       0.00000000 </v>
   <v>       0.00000000       0.00000000      -0.50000000 </v>
   <v>      -0.50000000      -0.24999996       0.00000000 </v>
   <v>      -0.24999996       0.00000000      -0.50000000 </v>
   <v>      -0.50000000       0.00000000      -0.24999996 </v>
   <v>      -0.24999996      -0.50000000       0.00000000 </v>
   <v>       0.00000000      -0.24999996      -0.50000000 </v>
   <v>       0.00000000      -0.50000000      -0.24999996 </v>
   <v>      -0.50000000       0.00000000       0.25000000 </v>
   <v>       0.00000000      -0.50000000       0.25000000 </v>
   <v>      -0.50000000       0.25000000       0.00000000 </v>
   <v>       0.25000000      -0.50000000       0.00000000 </v>
   <v>       0.25000000       0.00000000      -0.50000000 </v>
   <v>       0.00000000       0.25000000      -0.50000000 </v>
   <v>      -0.24999996      -0.24999996      -0.50000000 </v>
   <v>      -0.50000000      -0.24999996      -0.24999996 </v>
   <v>      -0.24999996      -0.50000000      -0.24999996 </v>
   <v>      -0.50000000       0.25000000      -0.24999996 </v>
   <v>      -0.24999996       0.25000000      -0.50000000 </v>
   <v>       0.25000000      -0.50000000      -0.24999996 </v>
   <v>       0.25000000      -0.24999996      -0.50000000 </v>
   <v>      -0.50000000      -0.24999996       0.25000000 </v>
   <v>      -0.24999996      -0.50000000       0.25000000 </v>
   <v>       0.25000000      -0.50000000       0.25000000 </v>
   <v>      -0.50000000       0.25000000       0.25000000 </v>
   <v>       0.25000000       0.25000000      -0.50000000 </v>
   <v>      -0.50000000      -0.50000000       0.00000000 </v>
   <v>       0.00000000      -0.50000000      -0.50000000 </v>
   <v>      -0.50000000       0.00000000      -0.50000000 </v>
   <v>      -0.24999996      -0.50000000      -0.50000000 </v>
   <v>      -0.50000000      -0.24999996      -0.50000000 </v>
   <v>      -0.50000000      -0.50000000      -0.24999996 </v>
   <v>      -0.50000000       0.25000000      -0.50000000 </v>
   <v>      -0.50000000      -0.50000000       0.25000000 </v>
   <v>       0.25000000      -0.50000000      -0.50000000 </v>
   <v>      -0.50000000      -0.50000000      -0.50000000 </v>
  </varray>
 </structure>
 <varray name="primitive_index" >
  <v type="int" >        1 </v>
  <v type="int" >       25 </v>
  <v type="int" >       29 </v>
  <v type="int" >       38 </v>
  <v type="int" >       22 </v>
  <v type="int" >       23 </v>
  <v type="int" >       34 </v>
  <v type="int" >        9 </v>
  <v type="int" >       12 </v>
  <v type="int" >       58 </v>
  <v type="int" >       10 </v>
  <v type="int" >       16 </v>
  <v type="int" >       17 </v>
  <v type="int" >       18 </v>
  <v type="int" >       56 </v>
  <v type="int" >       59 </v>
  <v type="int" >        2 </v>
  <v type="int" >        8 </v>
  <v type="int" >       14 </v>
  <v type="int" >       49 </v>
  <v type="int" >       30 </v>
  <v type="int" >       45 </v>
  <v type="int" >       39 </v>
  <v type="int" >       24 </v>
  <v type="int" >       36 </v>
  <v type="int" >       42 </v>
  <v type="int" >       21 </v>
  <v type="int" >       53 </v>
  <v type="int" >       54 </v>
  <v type="int" >       61 </v>
  <v type="int" >       28 </v>
  <v type="int" >       31 </v>
  <v type="int" >       33 </v>
  <v type="int" >       40 </v>
  <v type="int" >       47 </v>
  <v type="int" >       48 </v>
  <v type="int" >       26 </v>
  <v type="int" >       27 </v>
  <v type="int" >       35 </v>
  <v type="int" >       37 </v>
  <v type="int" >       43 </v>
  <v type="int" >       44 </v>
  <v type="int" >       64 </v>
  <v type="int" >        7 </v>
  <v type="int" >       63 </v>
  <v type="int" >        5 </v>
  <v type="int" >       11 </v>
  <v type="int" >       13 </v>
  <v type="int" >       20 </v>
  <v type="int" >       55 </v>
  <v type="int" >       60 </v>
  <v type="int" >        3 </v>
  <v type="int" >       15 </v>
  <v type="int" >       19 </v>
  <v type="int" >        4 </v>
  <v type="int" >        6 </v>
  <v type="int" >       57 </v>
  <v type="int" >       50 </v>
  <v type="int" >       51 </v>
  <v type="int" >       52 </v>
  <v type="int" >       32 </v>
  <v type="int" >       41 </v>
  <v type="int" >       46 </v>
  <v type="int" >       62 </v>
 </varray>
 <kpoints>
  <generation param="Gamma">
   <v type="int" name="divisions">       3        3        3 </v>
   <v name="usershift">      0.00000000       0.00000000       0.00000000 </v>
   <v name="genvec1">      0.33333333       0.00000000       0.00000000 </v>
   <v name="genvec2">      0.00000000       0.33333333       0.00000000 </v>
   <v name="genvec3">      0.00000000       0.00000000       0.33333333 </v>
   <v name="shift">      0.00000000       0.00000000       0.00000000 </v>
  </generation>
  <varray name="kpointlist" >
   <v>       0.00000000       0.00000000       0.00000000 </v>
   <v>       0.33333333       0.00000000       0.00000000 </v>
   <v>       0.00000000       0.33333333       0.00000000 </v>
   <v>       0.33333333       0.33333333       0.00000000 </v>
   <v>      -0.33333333       0.33333333       0.00000000 </v>
   <v>       0.00000000       0.00000000       0.33333333 </v>
   <v>       0.33333333       0.00000000       0.33333333 </v>
   <v>      -0.33333333       0.00000000       0.33333333 </v>
   <v>       0.00000000       0.33333333       0.33333333 </v>
   <v>       0.33333333       0.33333333       0.33333333 </v>
   <v>      -0.33333333       0.33333333       0.33333333 </v>
   <v>       0.00000000      -0.33333333       0.33333333 </v>
   <v>       0.33333333      -0.33333333       0.33333333 </v>
   <v>      -0.33333333      -0.33333333       0.33333333 </v>
  </varray>
  <varray name="weights" >
   <v>       0.03703704 </v>
   <v>       0.07407407 </v>
   <v>       0.07407407 </v>
   <v>       0.07407407 </v>
   <v>       0.07407407 </v>
   <v>       0.07407407 </v>
   <v>       0.07407407 </v>
   <v>       0.07407407 </v>
   <v>       0.07407407 </v>
   <v>       0.07407407 </v>
   <v>       0.07407407 </v>
   <v>       0.07407407 </v>
   <v>       0.07407407 </v>
   <v>       0.07407407 </v>
  </varray>
 </kpoints>
 <parameters>
  <separator name="general" >
   <i type="string" name="SYSTEM">HECN</i>
   <i type="logical" name="LCOMPAT"> F  </i>
  </separator>
  <separator name="electronic" >
   <i type="string" name="PREC">normal</i>
   <i name="ENMAX">    400.00000000</i>
   <i name="ENAUG">    644.87300000</i>
   <i name="EDIFF">      0.00001000</i>
   <i type="int" name="IALGO">    68</i>
   <i type="int" name="IWAVPR">    11</i>
   <i type="int" name="NBANDS">   312</i>
   <i name="NELECT">    502.00000000</i>
   <i type="int" name="TURBO">     0</i>
   <i type="int" name="IRESTART">     0</i>
   <i type="int" name="NREBOOT">     0</i>
   <i type="int" name="NMIN">     0</i>
   <i name="EREF">      0.00000000</i>
   <separator name="electronic smearing" >
    <i type="int" name="ISMEAR">     0</i>
    <i name="SIGMA">      0.10000000</i>
    <i name="KSPACING">      0.50000000</i>
    <i type="logical" name="KGAMMA"> T  </i>
   </separator>
   <separator name="electronic projectors" >
    <i type="logical" name="LREAL"> F  </i>
    <v name="ROPT">      0.00000000      0.00000000      0.00000000      0.00000000      0.00000000      0.00000000      0.00000000</v>
    <i type="int" name="LMAXPAW">  -100</i>
    <i type="int" name="LMAXMIX">     2</i>
    <i type="logical" name="NLSPLINE"> F  </i>
   </separator>
   <separator name="electronic startup" >
    <i type="int" name="ISTART">     0</i>
    <i type="int" name="ICHARG">     2</i>
    <i type="int" name="INIWAV">     1</i>
   </separator>
   <separator name="electronic spin" >
    <i type="int" name="ISPIN">     1</i>
    <i type="logical" name="LNONCOLLINEAR"> F  </i>
    <v name="MAGMOM">      1.00000000      1.00000000      1.00000000      1.00000000      1.00000000      1.00000000      1.00000000      1.00000000      1.00000000      1.00000000      1.00000000      1.00000000      1.00000000      1.00000000      1.00000000      1.00000000      1.00000000      1.00000000      1.00000000      1.00000000
      1.00000000      1.00000000      1.00000000      1.00000000      1.00000000      1.00000000      1.00000000      1.00000000      1.00000000      1.00000000      1.00000000      1.00000000      1.00000000      1.00000000      1.00000000      1.00000000      1.00000000      1.00000000      1.00000000      1.00000000
      1.00000000      1.00000000      1.00000000      1.00000000      1.00000000      1.00000000      1.00000000      1.00000000      1.00000000      1.00000000      1.00000000      1.00000000      1.00000000      1.00000000      1.00000000      1.00000000      1.00000000      1.00000000      1.00000000      1.00000000
      1.00000000      1.00000000      1.00000000      1.00000000</v>
    <i name="NUPDOWN">     -1.00000000</i>
    <i type="logical" name="LSORBIT"> F  </i>
    <v name="SAXIS">      0.00000000      0.00000000      1.00000000</v>
    <i type="logical" name="LSPIRAL"> F  </i>
    <v name="QSPIRAL">      0.00000000      0.00000000      0.00000000</v>
    <i type="logical" name="LZEROZ"> F  </i>
   </separator>
   <separator name="electronic exchange-correlation" >
    <i type="logical" name="LASPH"> F  </i>
    <i type="logical" name="LMETAGGA"> F  </i>
   </separator>
   <separator name="electronic convergence" >
    <i type="int" name="NELM">    60</i>
    <i type="int" name="NELMDL">    -5</i>
    <i type="int" name="NELMIN">     2</i>
    <i name="ENINI">    400.00000000</i>
    <separator name="electronic convergence detail" >
     <i type="logical" name="LDIAG"> T  </i>
     <i type="logical" name="LSUBROT"> F  </i>
     <i name="WEIMIN">      0.00100000</i>
     <i name="EBREAK">      0.00000001</i>
     <i name="DEPER">      0.30000000</i>
     <i type="int" name="NRMM">     4</i>
     <i name="TIME">      0.40000000</i>
    </separator>
   </separator>
   <separator name="electronic mixer" >
    <i name="AMIX">      0.40000000</i>
    <i name="BMIX">      1.00000000</i>
    <i name="AMIN">      0.10000000</i>
    <i name="AMIX_MAG">      1.60000000</i>
    <i name="BMIX_MAG">      1.00000000</i>
    <separator name="electronic mixer details" >
     <i type="int" name="IMIX">     4</i>
     <i type="logical" name="MIXFIRST"> F  </i>
     <i type="int" name="MAXMIX">   -45</i>
     <i name="WC">    100.00000000</i>
     <i type="int" name="INIMIX">     1</i>
     <i type="int" name="MIXPRE">     1</i>
     <i type="int" name="MREMOVE">     5</i>
    </separator>
   </separator>
   <separator name="electronic dipolcorrection" >
    <i type="logical" name="LDIPOL"> F  </i>
    <i type="logical" name="LMONO"> F  </i>
    <i type="int" name="IDIPOL">     0</i>
    <i name="EPSILON">      1.00000000</i>
    <v name="DIPOL">   -100.00000000   -100.00000000   -100.00000000</v>
    <i name="EFIELD">      0.00000000</i>
   </separator>
  </separator>
  <separator name="grids" >
   <i type="int" name="NGX">    56</i>
   <i type="int" name="NGY">    56</i>
   <i type="int" name="NGZ">    56</i>
   <i type="int" name="NGXF">   112</i>
   <i type="int" name="NGYF">   112</i>
   <i type="int" name="NGZF">   112</i>
   <i type="logical" name="ADDGRID"> F  </i>
  </separator>
  <separator name="ionic" >
   <i type="int" name="NSW">   100</i>
   <i type="int" name="IBRION">     2</i>
   <i type="int" name="MDALGO">     0</i>
   <i type="int" name="ISIF">     3</i>
   <i name="PSTRESS">      0.00000000</i>
   <i name="EDIFFG">     -0.01000000</i>
   <i type="int" name="NFREE">     1</i>
   <i name="POTIM">      0.50000000</i>
   <i name="SMASS">     -3.00000000</i>
   <i name="SCALEE">      1.00000000</i>
  </separator>
  <separator name="ionic md" >
   <i name="TEBEG">      0.00010000</i>
   <i name="TEEND">      0.00010000</i>
   <i type="int" name="NBLOCK">     1</i>
   <i type="int" name="KBLOCK">   100</i>
   <i type="int" name="NPACO">   256</i>
   <i name="APACO">     16.00000000</i>
  </separator>
  <separator name="symmetry" >
   <i type="int" name="ISYM">     2</i>
   <i name="SYMPREC">      0.00001000</i>
  </separator>
  <separator name="dos" >
   <i type="int" name="LORBIT">     0</i>
   <v name="RWIGS">     -1.00000000     -1.00000000     -1.00000000     -1.00000000     -1.00000000     -1.00000000     -1.00000000</v>
   <i type="int" name="NEDOS">   301</i>
   <i name="EMIN">     10.00000000</i>
   <i name="EMAX">    -10.00000000</i>
   <i name="EFERMI">      0.00000000</i>
  </separator>
  <separator name="writing" >
   <i type="int" name="NWRITE">     2</i>
   <i type="logical" name="LWAVE"> F  </i>
   <i type="logical" name="LDOWNSAMPLE"> F  </i>
   <i type="logical" name="LCHARG"> F  </i>
   <i type="logical" name="LPARD"> F  </i>
   <i type="logical" name="LVTOT"> F  </i>
   <i type="logical" name="LVHAR"> F  </i>
   <i type="logical" name="LELF"> F  </i>
   <i type="logical" name="LOPTICS"> F  </i>
   <v name="STM">      0.00000000      0.00000000      0.00000000      0.00000000      0.00000000      0.00000000      0.00000000</v>
  </separator>
  <separator name="performance" >
   <i type="int" name="NPAR">    24</i>
   <i type="int" name="NSIM">     4</i>
   <i type="int" name="NBLK">    -1</i>
   <i type="logical" name="LPLANE"> T  </i>
   <i type="logical" name="LSCALAPACK"> T  </i>
   <i type="logical" name="LSCAAWARE"> F  </i>
   <i type="logical" name="LSCALU"> F  </i>
   <i type="logical" name="LASYNC"> F  </i>
   <i type="logical" name="LORBITALREAL"> F  </i>
  </separator>
  <separator name="miscellaneous" >
   <i type="int" name="IDIOT">     3</i>
   <i type="int" name="ISPECIAL">     0</i>
   <i type="logical" name="LMUSIC"> F  </i>
   <v name="POMASS">     47.88000000     95.94000000     50.94100000     14.00100000     12.01100000     92.91000000    183.85000000</v>
   <v name="DARWINR">      0.00000000      0.00000000      0.00000000      0.00000000      0.00000000      0.00000000      0.00000000</v>
   <v name="DARWINV">      1.00000000      1.00000000      1.00000000      1.00000000      1.00000000      1.00000000      1.00000000</v>
   <i type="logical" name="LCORR"> T  </i>
  </separator>
  <i type="logical" name="GGA_COMPAT"> T  </i>
  <i type="logical" name="LBERRY"> F  </i>
  <i type="int" name="ICORELEVEL">     0</i>
  <i type="logical" name="LDAU"> F  </i>
  <i type="int" name="I_CONSTRAINED_M">     0</i>
  <separator name="electronic exchange-correlation" >
   <i type="string" name="GGA">--</i>
   <i type="int" name="VOSKOWN">     0</i>
   <i type="logical" name="LHFCALC"> F  </i>
   <i type="string" name="PRECFOCK"></i>
   <i type="logical" name="LSYMGRAD"> F  </i>
   <i type="logical" name="LHFONE"> F  </i>
   <i type="logical" name="LRHFCALC"> F  </i>
   <i type="logical" name="LTHOMAS"> F  </i>
   <i type="logical" name="LMODELHF"> F  </i>
   <i name="ENCUT4O">     -1.00000000</i>
   <i type="int" name="EXXOEP">     0</i>
   <i type="int" name="FOURORBIT">     0</i>
   <i name="AEXX">      0.00000000</i>
   <i name="HFALPHA">      0.00000000</i>
   <i name="MCALPHA">      0.00000000</i>
   <i name="ALDAX">      1.00000000</i>
   <i name="AGGAX">      1.00000000</i>
   <i name="ALDAC">      1.00000000</i>
   <i name="AGGAC">      1.00000000</i>
   <i type="int" name="NKREDX">     1</i>
   <i type="int" name="NKREDY">     1</i>
   <i type="int" name="NKREDZ">     1</i>
   <i type="logical" name="SHIFTRED"> F  </i>
   <i type="logical" name="ODDONLY"> F  </i>
   <i type="logical" name="EVENONLY"> F  </i>
   <i type="int" name="LMAXFOCK">     0</i>
   <i type="int" name="NMAXFOCKAE">     0</i>
   <i type="logical" name="LFOCKAEDFT"> F  </i>
   <i name="HFSCREEN">      0.00000000</i>
   <i name="HFSCREENC">      0.00000000</i>
   <i type="int" name="NBANDSGWLOW">     0</i>
  </separator>
  <separator name="vdW DFT" >
   <i type="logical" name="LUSE_VDW"> F  </i>
   <i name="Zab_VDW">     -0.84910000</i>
   <i name="PARAM1">      0.12340000</i>
   <i name="PARAM2">      1.00000000</i>
   <i name="PARAM3">      0.00000000</i>
  </separator>
  <separator name="model GW" >
   <i type="int" name="MODEL_GW">     0</i>
   <i name="MODEL_EPS0">     13.31282379</i>
   <i name="MODEL_ALPHA">      1.00000000</i>
  </separator>
  <separator name="linear response parameters" >
   <i type="logical" name="LEPSILON"> F  </i>
   <i type="logical" name="LRPA"> F  </i>
   <i type="logical" name="LNABLA"> F  </i>
   <i type="logical" name="LVEL"> F  </i>
   <i type="int" name="KINTER">     0</i>
   <i name="CSHIFT">      0.10000000</i>
   <i name="OMEGAMAX">     -1.00000000</i>
   <i name="DEG_THRESHOLD">      0.00200000</i>
   <i name="RTIME">     -0.10000000</i>
   <i name="WPLASMAI">      0.00000000</i>
   <v name="DFIELD">      0.00000000      0.00000000      0.00000000</v>
   <v name="WPLASMA">      0.00000000      0.00000000      0.00000000      0.00000000      0.00000000      0.00000000      0.00000000      0.00000000      0.00000000</v>
  </separator>
  <separator name="orbital magnetization" >
   <i type="logical" name="NUCIND"> F  </i>
   <v name="MAGPOS">      0.00000000      0.00000000      0.00000000</v>
   <i type="logical" name="LNICSALL"> T  </i>
   <i type="logical" name="ORBITALMAG"> F  </i>
   <i type="logical" name="LMAGBLOCH"> F  </i>
   <i type="logical" name="LCHIMAG"> F  </i>
   <i type="logical" name="LGAUGE"> T  </i>
   <i type="int" name="MAGATOM">     0</i>
   <v name="MAGDIPOL">      0.00000000      0.00000000      0.00000000</v>
   <v name="AVECCONST">      0.00000000      0.00000000      0.00000000</v>
  </separator>
  <separator name="response functions" >
   <i type="logical" name="LADDER"> F  </i>
   <i type="logical" name="LRPAFORCE"> F  </i>
   <i type="logical" name="LFXC"> F  </i>
   <i type="logical" name="LHARTREE"> T  </i>
   <i type="int" name="IBSE">     0</i>
   <v type="int" name="KPOINT">    -1     0     0     0</v>
   <i type="logical" name="LTCTE"> F  </i>
   <i type="logical" name="LTETE"> F  </i>
   <i type="logical" name="LTRIPLET"> F  </i>
   <i type="logical" name="LFXCEPS"> F  </i>
   <i type="logical" name="LFXHEG"> F  </i>
   <i type="int" name="NATURALO">     2</i>
   <i type="logical" name="L2ORDER"> F  </i>
   <i type="logical" name="LMP2LT"> F  </i>
   <i type="logical" name="LUSEW"> F  </i>
   <i name="ENCUTGW">     -2.00000000</i>
   <i name="ENCUTGWSOFT">     -2.00000000</i>
   <i name="ENCUTLF">     -1.00000000</i>
   <i type="int" name="LMAXMP2">    -1</i>
   <i name="SCISSOR">      0.00000000</i>
   <i type="int" name="NOMEGA">     0</i>
   <i type="int" name="NOMEGAR">     0</i>
   <i type="int" name="NBANDSGW">    -1</i>
   <i type="int" name="NBANDSO">    -1</i>
   <i type="int" name="NBANDSV">    -1</i>
   <i type="int" name="NELM">    60</i>
   <i type="int" name="NELMHF">     1</i>
   <i type="int" name="DIM">     3</i>
   <i type="int" name="ANTIRES">     0</i>
   <i name="OMEGAMAX">    -30.00000000</i>
   <i name="OMEGAMIN">    -30.00000000</i>
   <i name="OMEGATL">   -200.00000000</i>
   <i type="int" name="OMEGAGRID">   140</i>
   <i name="CSHIFT">     -0.10000000</i>
   <i type="logical" name="SELFENERGY"> F  </i>
   <i type="logical" name="LSPECTRAL"> F  </i>
   <i type="logical" name="LSPECTRALGW"> F  </i>
   <i type="logical" name="LSINGLES"> F  </i>
   <i type="logical" name="LFERMIGW"> F  </i>
   <i type="logical" name="ODDONLYGW"> F  </i>
   <i type="logical" name="EVENONLYGW"> F  </i>
   <i type="int" name="NKREDLFX">     1</i>
   <i type="int" name="NKREDLFY">     1</i>
   <i type="int" name="NKREDLFZ">     1</i>
   <i type="int" name="MAXMEM">  2800</i>
   <i type="int" name="TELESCOPE">     0</i>
   <i type="int" name="TAUPAR">     1</i>
   <i type="int" name="OMEGAPAR">    -1</i>
   <i name="LAMBDA">      1.00000000</i>
  </separator>
  <separator name="External order field" >
   <i name="OFIELD_KAPPA">      0.00000000</i>
   <v name="OFIELD_K">      0.00000000      0.00000000      0.00000000</v>
   <i name="OFIELD_Q6_NEAR">      0.00000000</i>
   <i name="OFIELD_Q6_FAR">      0.00000000</i>
   <i name="OFIELD_A">      0.00000000</i>
  </separator>
 </parameters>
 <atominfo>
  <atoms>      64 </atoms>
  <types>       7 </types>
  <array name="atoms" >
   <dimension dim="1">ion</dimension>
   <field type="string">element</field>
   <field type="int">atomtype</field>
   <set>
    <rc><c>Ti</c><c>   1</c></rc>
    <rc><c>Ti</c><c>   1</c></rc>
    <rc><c>Ti</c><c>   1</c></rc>
    <rc><c>Ti</c><c>   1</c></rc>
    <rc><c>Ti</c><c>   1</c></rc>
    <rc><c>Ti</c><c>   1</c></rc>
    <rc><c>Ti</c><c>   1</c></rc>
    <rc><c>Mo</c><c>   2</c></rc>
    <rc><c>Mo</c><c>   2</c></rc>
    <rc><c>Mo</c><c>   2</c></rc>
    <rc><c>Mo</c><c>   2</c></rc>
    <rc><c>Mo</c><c>   2</c></rc>
    <rc><c>Mo</c><c>   2</c></rc>
    <rc><c>V </c><c>   3</c></rc>
    <rc><c>V </c><c>   3</c></rc>
    <rc><c>V </c><c>   3</c></rc>
    <rc><c>V </c><c>   3</c></rc>
    <rc><c>V </c><c>   3</c></rc>
    <rc><c>V </c><c>   3</c></rc>
    <rc><c>V </c><c>   3</c></rc>
    <rc><c>N </c><c>   4</c></rc>
    <rc><c>N </c><c>   4</c></rc>
    <rc><c>N </c><c>   4</c></rc>
    <rc><c>N </c><c>   4</c></rc>
    <rc><c>N </c><c>   4</c></rc>
    <rc><c>N </c><c>   4</c></rc>
    <rc><c>N </c><c>   4</c></rc>
    <rc><c>N </c><c>   4</c></rc>
    <rc><c>N </c><c>   4</c></rc>
    <rc><c>N </c><c>   4</c></rc>
    <rc><c>N </c><c>   4</c></rc>
    <rc><c>N </c><c>   4</c></rc>
    <rc><c>N </c><c>   4</c></rc>
    <rc><c>C </c><c>   5</c></rc>
    <rc><c>C </c><c>   5</c></rc>
    <rc><c>C </c><c>   5</c></rc>
    <rc><c>C </c><c>   5</c></rc>
    <rc><c>C </c><c>   5</c></rc>
    <rc><c>C </c><c>   5</c></rc>
    <rc><c>C </c><c>   5</c></rc>
    <rc><c>C </c><c>   5</c></rc>
    <rc><c>C </c><c>   5</c></rc>
    <rc><c>C </c><c>   5</c></rc>
    <rc><c>C </c><c>   5</c></rc>
    <rc><c>C </c><c>   5</c></rc>
    <rc><c>C </c><c>   5</c></rc>
    <rc><c>C </c><c>   5</c></rc>
    <rc><c>C </c><c>   5</c></rc>
    <rc><c>C </c><c>   5</c></rc>
    <rc><c>C </c><c>   5</c></rc>
    <rc><c>C </c><c>   5</c></rc>
    <rc><c>C </c><c>   5</c></rc>
    <rc><c>Nb</c><c>   6</c></rc>
    <rc><c>Nb</c><c>   6</c></rc>
    <rc><c>Nb</c><c>   6</c></rc>
    <rc><c>Nb</c><c>   6</c></rc>
    <rc><c>Nb</c><c>   6</c></rc>
    <rc><c>Nb</c><c>   6</c></rc>
    <rc><c>W </c><c>   7</c></rc>
    <rc><c>W </c><c>   7</c></rc>
    <rc><c>W </c><c>   7</c></rc>
    <rc><c>W </c><c>   7</c></rc>
    <rc><c>W </c><c>   7</c></rc>
    <rc><c>W </c><c>   7</c></rc>
   </set>
  </array>
  <array name="atomtypes" >
   <dimension dim="1">type</dimension>
   <field type="int">atomspertype</field>
   <field type="string">element</field>
   <field>mass</field>
   <field>valence</field>
   <field type="string">pseudopotential</field>
   <set>
    <rc><c>   7</c><c>Ti</c><c>     47.88000000</c><c>     12.00000000</c><c> PAW_PBE Ti_sv 07Sep2000                </c></rc>
    <rc><c>   6</c><c>Mo</c><c>     95.94000000</c><c>      6.00000000</c><c> PAW_PBE Mo 08Apr2002                   </c></rc>
    <rc><c>   7</c><c>V </c><c>     50.94100000</c><c>     13.00000000</c><c> PAW_PBE V_sv 07Sep2000                 </c></rc>
    <rc><c>  13</c><c>N </c><c>     14.00100000</c><c>      5.00000000</c><c> PAW_PBE N 08Apr2002                    </c></rc>
    <rc><c>  19</c><c>C </c><c>     12.01100000</c><c>      4.00000000</c><c> PAW_PBE C 08Apr2002                    </c></rc>
    <rc><c>   6</c><c>Nb</c><c>     92.91000000</c><c>     13.00000000</c><c> PAW_PBE Nb_sv 17Jan2003                </c></rc>
    <rc><c>   6</c><c>W </c><c>    183.85000000</c><c>     12.00000000</c><c> PAW_PBE W_pv 06Sep2000                 </c></rc>
   </set>
  </array>
 </atominfo>
 <structure name="initialpos" >
  <crystal>
   <varray name="basis" >
    <v>      11.23999977       0.00000000       0.00000000 </v>
    <v>       0.00000000      11.23999977       0.00000000 </v>
    <v>       0.00000000       0.00000000      11.23999977 </v>
   </varray>
   <i name="volume">   1420.03453724 </i>
   <varray name="rec_basis" >
    <v>       0.08896797       0.00000000       0.00000000 </v>
    <v>       0.00000000       0.08896797       0.00000000 </v>
    <v>       0.00000000       0.00000000       0.08896797 </v>
   </varray>
  </crystal>
  <varray name="positions" >
   <v>       0.00000000       0.00000000       0.00000000 </v>
   <v>       0.25000000       0.00000000       0.25000000 </v>
   <v>       0.25000000       0.50000000       0.25000000 </v>
   <v>       0.50000000       0.50000000       0.00000000 </v>
   <v>       0.50000000       0.25000000       0.75000004 </v>
   <v>       0.00000000       0.50000000       0.50000000 </v>
   <v>       0.50000000       0.75000004       0.75000004 </v>
   <v>       0.00000000       0.25000000       0.25000000 </v>
   <v>       0.75000004       0.75000004       0.00000000 </v>
   <v>       0.00000000       0.25000000       0.75000004 </v>
   <v>       0.75000004       0.25000000       0.50000000 </v>
   <v>       0.00000000       0.75000004       0.75000004 </v>
   <v>       0.25000000       0.50000000       0.75000004 </v>
   <v>       0.25000000       0.25000000       0.00000000 </v>
   <v>       0.50000000       0.25000000       0.25000000 </v>
   <v>       0.75000004       0.00000000       0.25000000 </v>
   <v>       0.75000004       0.25000000       0.00000000 </v>
   <v>       0.25000000       0.75000004       0.00000000 </v>
   <v>       0.25000000       0.25000000       0.50000000 </v>
   <v>       0.25000000       0.75000004       0.50000000 </v>
   <v>       0.25000000       0.25000000       0.25000000 </v>
   <v>       0.25000000       0.00000000       0.00000000 </v>
   <v>       0.00000000       0.25000000       0.00000000 </v>
   <v>       0.75000004       0.25000000       0.25000000 </v>
   <v>       0.75000004       0.00000000       0.00000000 </v>
   <v>       0.50000000       0.00000000       0.25000000 </v>
   <v>       0.00000000       0.50000000       0.25000000 </v>
   <v>       0.50000000       0.75000004       0.00000000 </v>
   <v>       0.00000000       0.00000000       0.75000004 </v>
   <v>       0.75000004       0.25000000       0.75000004 </v>
   <v>       0.75000004       0.00000000       0.50000000 </v>
   <v>       0.50000000       0.25000000       0.50000000 </v>
   <v>       0.50000000       0.00000000       0.75000004 </v>
   <v>       0.00000000       0.00000000       0.25000000 </v>
   <v>       0.50000000       0.25000000       0.00000000 </v>
   <v>       0.25000000       0.75000004       0.25000000 </v>
   <v>       0.25000000       0.50000000       0.00000000 </v>
   <v>       0.00000000       0.75000004       0.00000000 </v>
   <v>       0.75000004       0.75000004       0.25000000 </v>
   <v>       0.75000004       0.50000000       0.00000000 </v>
   <v>       0.50000000       0.50000000       0.25000000 </v>
   <v>       0.25000000       0.25000000       0.75000004 </v>
   <v>       0.25000000       0.00000000       0.50000000 </v>
   <v>       0.00000000       0.25000000       0.50000000 </v>
   <v>       0.25000000       0.75000004       0.75000004 </v>
   <v>       0.25000000       0.50000000       0.50000000 </v>
   <v>       0.00000000       0.75000004       0.50000000 </v>
   <v>       0.00000000       0.50000000       0.75000004 </v>
   <v>       0.75000004       0.75000004       0.75000004 </v>
   <v>       0.75000004       0.50000000       0.50000000 </v>
   <v>       0.50000000       0.75000004       0.50000000 </v>
   <v>       0.50000000       0.50000000       0.75000004 </v>
   <v>       0.50000000       0.00000000       0.00000000 </v>
   <v>       0.00000000       0.50000000       0.00000000 </v>
   <v>       0.50000000       0.75000004       0.25000000 </v>
   <v>       0.25000000       0.00000000       0.75000004 </v>
   <v>       0.50000000       0.00000000       0.50000000 </v>
   <v>       0.75000004       0.00000000       0.75000004 </v>
   <v>       0.00000000       0.75000004       0.25000000 </v>
   <v>       0.75000004       0.50000000       0.25000000 </v>
   <v>       0.00000000       0.00000000       0.50000000 </v>
   <v>       0.50000000       0.50000000       0.50000000 </v>
   <v>       0.75000004       0.50000000       0.75000004 </v>
   <v>       0.75000004       0.75000004       0.50000000 </v>
  </varray>
 </structure>
 <calculation>
  <scstep>
   <time name="dav">   87.50   89.56</time>
   <time name="total">   87.56   89.62</time>
   <energy>
    <i name="alphaZ">   1849.01506398 </i>
    <i name="ewald"> -32344.56735424 </i>
    <i name="hartreedc"> -13940.46502706 </i>
    <i name="XCdc">   1534.91476883 </i>
    <i name="pawpsdc">  31782.39730866 </i>
    <i name="pawaedc"> -31174.91508558 </i>
    <i name="eentropy">     -0.11316518 </i>
    <i name="bandstr">  -1766.22220035 </i>
    <i name="atom">  49201.86010375 </i>
    <i name="e_fr_energy">   5141.90441280 </i>
    <i name="e_wo_entrp">   5142.01757798 </i>
    <i name="e_0_energy">   5141.96099539 </i>
   </energy>
  </scstep>
  <scstep>
   <time name="dav">   81.21   82.78</time>
   <time name="total">   81.21   82.78</time>
   <energy>
    <i name="e_fr_energy">    341.47743912 </i>
    <i name="e_wo_entrp">    341.79777881 </i>
    <i name="e_0_energy">    341.63760897 </i>
   </energy>
  </scstep>
  <scstep>
   <time name="dav">  122.80  123.05</time>
   <time name="total">  122.80  123.05</time>
   <energy>
    <i name="e_fr_energy">   -483.58684841 </i>
    <i name="e_wo_entrp">   -483.29189661 </i>
    <i name="e_0_energy">   -483.43937251 </i>
   </energy>
  </scstep>
  <scstep>
   <time name="dav">  116.30  117.71</time>
   <time name="total">  116.30  117.71</time>
   <energy>
    <i name="e_fr_energy">   -589.47559908 </i>
    <i name="e_wo_entrp">   -589.18669448 </i>
    <i name="e_0_energy">   -589.33114678 </i>
   </energy>
  </scstep>
  <scstep>
   <time name="dav">  141.26  141.46</time>
   <time name="total">  141.88  142.07</time>
   <energy>
    <i name="e_fr_energy">   -608.73236023 </i>
    <i name="e_wo_entrp">   -608.42136103 </i>
    <i name="e_0_energy">   -608.57686063 </i>
   </energy>
  </scstep>
  <scstep>
   <time name="diag">    2.83    2.83</time>
   <time name="diis">   83.39   83.49</time>
   <time name="orth">    0.68    0.68</time>
   <time name="total">   87.57   87.67</time>
   <energy>
    <i name="e_fr_energy">   -784.14793912 </i>
    <i name="e_wo_entrp">   -783.80398747 </i>
    <i name="e_0_energy">   -783.97596330 </i>
   </energy>
  </scstep>
  <scstep>
   <time name="diag">    2.84    2.84</time>
   <time name="diis">   87.58   87.79</time>
   <time name="orth">    0.69    0.69</time>
   <time name="total">   91.76   91.98</time>
   <energy>
    <i name="e_fr_energy">   -485.42216092 </i>
    <i name="e_wo_entrp">   -485.08400828 </i>
    <i name="e_0_energy">   -485.25308460 </i>
   </energy>
  </scstep>
  <scstep>
   <time name="diag">    2.78    2.87</time>
   <time name="diis">   76.93   79.64</time>
   <time name="orth">    0.68    0.68</time>
   <time name="total">   81.09   83.89</time>
   <energy>
    <i name="e_fr_energy">   -440.38191006 </i>
    <i name="e_wo_entrp">   -439.84577802 </i>
    <i name="e_0_energy">   -440.11384404 </i>
   </energy>
  </scstep>
  <scstep>
   <time name="diag">    2.85    2.85</time>
   <time name="diis">   87.10   87.24</time>
   <time name="orth">    0.69    0.70</time>
   <time name="total">   91.35   91.49</time>
   <energy>
    <i name="e_fr_energy">   -435.29571738 </i>
    <i name="e_wo_entrp">   -434.70057112 </i>
    <i name="e_0_energy">   -434.99814425 </i>
   </energy>
  </scstep>
  <scstep>
   <time name="diag">    2.85    2.85</time>
   <time name="diis">   87.86   88.01</time>
   <time name="orth">    0.69    0.69</time>
   <time name="total">   92.11   92.27</time>
   <energy>
    <i name="e_fr_energy">   -437.28394532 </i>
    <i name="e_wo_entrp">   -436.73378454 </i>
    <i name="e_0_energy">   -437.00886493 </i>
   </energy>
  </scstep>
  <scstep>
   <time name="diag">    2.84    2.84</time>
   <time name="diis">   85.97   86.13</time>
   <time name="orth">    0.69    0.69</time>
   <time name="total">   90.24   90.42</time>
   <energy>
    <i name="e_fr_energy">   -436.05412839 </i>
    <i name="e_wo_entrp">   -435.44479260 </i>
    <i name="e_0_energy">   -435.74946049 </i>
   </energy>
  </scstep>
  <scstep>
   <time name="diag">    2.91    2.91</time>
   <time name="diis">   88.20   88.57</time>
   <time name="orth">    0.68    0.68</time>
   <time name="total">   92.51   92.89</time>
   <energy>
    <i name="e_fr_energy">   -439.39596567 </i>
    <i name="e_wo_entrp">   -438.87171271 </i>
    <i name="e_0_energy">   -439.13383919 </i>
   </energy>
  </scstep>
  <scstep>
   <time name="diag">    2.79    2.87</time>
   <time name="diis">   85.94   86.11</time>
   <time name="orth">    0.69    0.69</time>
   <time name="total">   90.13   90.38</time>
   <energy>
    <i name="e_fr_energy">   -434.77557072 </i>
    <i name="e_wo_entrp">   -434.12489531 </i>
    <i name="e_0_energy">   -434.45023302 </i>
   </energy>
  </scstep>
  <scstep>
   <time name="diag">    2.85    2.85</time>
   <time name="diis">   87.23   87.34</time>
   <time name="orth">    0.69    0.69</time>
   <time name="total">   91.47   91.58</time>
   <energy>
    <i name="e_fr_energy">   -434.12894441 </i>
    <i name="e_wo_entrp">   -433.47444487 </i>
    <i name="e_0_energy">   -433.80169464 </i>
   </energy>
  </scstep>
  <scstep>
   <time name="diag">    2.77    2.85</time>
   <time name="diis">   84.05   87.87</time>
   <time name="orth">    0.68    0.69</time>
   <time name="total">   88.22   92.16</time>
   <energy>
    <i name="e_fr_energy">   -432.75273869 </i>
    <i name="e_wo_entrp">   -432.12120251 </i>
    <i name="e_0_energy">   -432.43697060 </i>
   </energy>
  </scstep>
  <scstep>
   <time name="diag">    2.80    2.88</time>
   <time name="diis">   84.44   86.46</time>
   <time name="orth">    0.69    0.69</time>
   <time name="total">   88.64   90.76</time>
   <energy>
    <i name="e_fr_energy">   -432.31639384 </i>
    <i name="e_wo_entrp">   -431.67338677 </i>
    <i name="e_0_energy">   -431.99489031 </i>
   </energy>
  </scstep>
  <scstep>
   <time name="diag">    2.85    2.86</time>
   <time name="diis">   87.60   87.75</time>
   <time name="orth">    0.68    0.68</time>
   <time name="total">   91.85   92.02</time>
   <energy>
    <i name="e_fr_energy">   -432.51544578 </i>
    <i name="e_wo_entrp">   -431.86880723 </i>
    <i name="e_0_energy">   -432.19212651 </i>
   </energy>
  </scstep>
  <scstep>
   <time name="diag">    2.84    2.84</time>
   <time name="diis">   88.09   88.28</time>
   <time name="orth">    0.68    0.68</time>
   <time name="total">   92.34   92.53</time>
   <energy>
    <i name="e_fr_energy">   -432.33198810 </i>
    <i name="e_wo_entrp">   -431.69795532 </i>
    <i name="e_0_energy">   -432.01497171 </i>
   </energy>
  </scstep>
  <scstep>
   <time name="diag">    2.83    2.83</time>
   <time name="diis">   88.94   89.20</time>
   <time name="orth">    0.69    0.69</time>
   <time name="total">   93.20   93.46</time>
   <energy>
    <i name="e_fr_energy">   -432.24953425 </i>
    <i name="e_wo_entrp">   -431.57672708 </i>
    <i name="e_0_energy">   -431.91313067 </i>
   </energy>
  </scstep>
  <scstep>
   <time name="diag">    2.83    2.83</time>
   <time name="diis">   90.88   91.02</time>
   <time name="orth">    0.68    0.68</time>
   <time name="total">   95.11   95.25</time>
   <energy>
    <i name="e_fr_energy">   -431.91707657 </i>
    <i name="e_wo_entrp">   -431.24746689 </i>
    <i name="e_0_energy">   -431.58227173 </i>
   </energy>
  </scstep>
  <scstep>
   <time name="diag">    2.84    2.87</time>
   <time name="diis">   87.75   88.74</time>
   <time name="orth">    0.69    0.72</time>
   <time name="total">   92.01   93.07</time>
   <energy>
    <i name="e_fr_energy">   -431.97195400 </i>
    <i name="e_wo_entrp">   -431.30076545 </i>
    <i name="e_0_energy">   -431.63635973 </i>
   </energy>
  </scstep>
  <scstep>
   <time name="diag">    2.84    2.85</time>
   <time name="diis">   88.41   88.74</time>
   <time name="orth">    0.71    0.71</time>
   <time name="total">   92.68   93.03</time>
   <energy>
    <i name="e_fr_energy">   -431.98361360 </i>
    <i name="e_wo_entrp">   -431.31252178 </i>
    <i name="e_0_energy">   -431.64806769 </i>
   </energy>
  </scstep>
  <scstep>
   <time name="diag">    2.84    2.86</time>
   <time name="diis">   87.17   87.49</time>
   <time name="orth">    0.68    0.69</time>
   <time name="total">   91.44   91.79</time>
   <energy>
    <i name="e_fr_energy">   -431.90336855 </i>
    <i name="e_wo_entrp">   -431.22897230 </i>
    <i name="e_0_energy">   -431.56617042 </i>
   </energy>
  </scstep>
  <scstep>
   <time name="diag">    2.83    2.83</time>
   <time name="diis">   87.21   87.41</time>
   <time name="orth">    0.68    0.69</time>
   <time name="total">   91.47   91.68</time>
   <energy>
    <i name="e_fr_energy">   -431.87329126 </i>
    <i name="e_wo_entrp">   -431.19895642 </i>
    <i name="e_0_energy">   -431.53612384 </i>
   </energy>
  </scstep>
  <scstep>
   <time name="diag">    2.83    2.83</time>
   <time name="diis">   89.69   89.78</time>
   <time name="orth">    0.68    0.68</time>
   <time name="total">   93.93   94.02</time>
   <energy>
    <i name="e_fr_energy">   -431.86102960 </i>
    <i name="e_wo_entrp">   -431.17335721 </i>
    <i name="e_0_energy">   -431.51719340 </i>
   </energy>
  </scstep>
  <scstep>
   <time name="diag">    2.82    2.83</time>
   <time name="diis">   89.29   89.55</time>
   <time name="orth">    0.69    0.69</time>
   <time name="total">   93.53   93.81</time>
   <energy>
    <i name="e_fr_energy">   -431.90547672 </i>
    <i name="e_wo_entrp">   -431.21400617 </i>
    <i name="e_0_energy">   -431.55974145 </i>
   </energy>
  </scstep>
  <scstep>
   <time name="diag">    2.78    2.85</time>
   <time name="diis">   87.62   89.46</time>
   <time name="orth">    0.69    0.69</time>
   <time name="total">   91.79   93.72</time>
   <energy>
    <i name="e_fr_energy">   -431.93060142 </i>
    <i name="e_wo_entrp">   -431.24085973 </i>
    <i name="e_0_energy">   -431.58573058 </i>
   </energy>
  </scstep>
  <scstep>
   <time name="diag">    2.79    2.85</time>
   <time name="diis">   88.54   88.87</time>
   <time name="orth">    0.69    0.69</time>
   <time name="total">   92.75   93.14</time>
   <energy>
    <i name="e_fr_energy">   -431.93533802 </i>
    <i name="e_wo_entrp">   -431.24453306 </i>
    <i name="e_0_energy">   -431.58993554 </i>
   </energy>
  </scstep>
  <scstep>
   <time name="diag">    2.83    2.83</time>
   <time name="diis">   87.32   87.47</time>
   <time name="orth">    0.68    0.68</time>
   <time name="total">   91.58   91.73</time>
   <energy>
    <i name="e_fr_energy">   -431.94422511 </i>
    <i name="e_wo_entrp">   -431.25158121 </i>
    <i name="e_0_energy">   -431.59790316 </i>
   </energy>
  </scstep>
  <scstep>
   <time name="diag">    2.78    2.86</time>
   <time name="diis">   85.76   86.52</time>
   <time name="orth">    0.69    0.69</time>
   <time name="total">   89.96   90.81</time>
   <energy>
    <i name="e_fr_energy">   -431.95192317 </i>
    <i name="e_wo_entrp">   -431.25493009 </i>
    <i name="e_0_energy">   -431.60342663 </i>
   </energy>
  </scstep>
  <scstep>
   <time name="diag">    2.83    2.84</time>
   <time name="diis">   86.86   87.08</time>
   <time name="orth">    0.69    0.69</time>
   <time name="total">   91.11   91.35</time>
   <energy>
    <i name="e_fr_energy">   -431.96213197 </i>
    <i name="e_wo_entrp">   -431.26128467 </i>
    <i name="e_0_energy">   -431.61170832 </i>
   </energy>
  </scstep>
  <scstep>
   <time name="diag">    2.87    2.91</time>
   <time name="diis">   86.39   86.58</time>
   <time name="orth">    0.69    0.69</time>
   <time name="total">   90.70   90.93</time>
   <energy>
    <i name="e_fr_energy">   -431.97313613 </i>
    <i name="e_wo_entrp">   -431.27034054 </i>
    <i name="e_0_energy">   -431.62173833 </i>
   </energy>
  </scstep>
  <scstep>
   <time name="diag">    2.84    2.85</time>
   <time name="diis">   84.06   84.20</time>
   <time name="orth">    0.69    0.69</time>
   <time name="total">   88.33   88.49</time>
   <energy>
    <i name="e_fr_energy">   -431.98323029 </i>
    <i name="e_wo_entrp">   -431.27968015 </i>
    <i name="e_0_energy">   -431.63145522 </i>
   </energy>
  </scstep>
  <scstep>
   <time name="diag">    2.82    2.82</time>
   <time name="diis">   80.21   80.51</time>
   <time name="orth">    0.69    0.69</time>
   <time name="total">   84.44   84.75</time>
   <energy>
    <i name="e_fr_energy">   -431.99142033 </i>
    <i name="e_wo_entrp">   -431.28553242 </i>
    <i name="e_0_energy">   -431.63847638 </i>
   </energy>
  </scstep>
  <scstep>
   <time name="diag">    2.82    2.83</time>
   <time name="diis">   83.09   83.34</time>
   <time name="orth">    0.69    0.69</time>
   <time name="total">   87.32   87.57</time>
   <energy>
    <i name="e_fr_energy">   -431.99864102 </i>
    <i name="e_wo_entrp">   -431.29120143 </i>
    <i name="e_0_energy">   -431.64492123 </i>
   </energy>
  </scstep>
  <scstep>
   <time name="diag">    2.78    2.85</time>
   <time name="diis">   83.31   83.85</time>
   <time name="orth">    0.72    0.72</time>
   <time name="total">   87.53   88.15</time>
   <energy>
    <i name="e_fr_energy">   -432.00489796 </i>
    <i name="e_wo_entrp">   -431.29671794 </i>
    <i name="e_0_energy">   -431.65080795 </i>
   </energy>
  </scstep>
  <scstep>
   <time name="diag">    2.82    2.82</time>
   <time name="diis">   77.97   78.04</time>
   <time name="orth">    0.69    0.69</time>
   <time name="total">   82.20   82.27</time>
   <energy>
    <i name="e_fr_energy">   -432.01072747 </i>
    <i name="e_wo_entrp">   -431.30174444 </i>
    <i name="e_0_energy">   -431.65623595 </i>
   </energy>
  </scstep>
  <scstep>
   <time name="diag">    2.83    2.83</time>
   <time name="diis">   74.11   74.18</time>
   <time name="orth">    0.69    0.69</time>
   <time name="total">   78.38   78.45</time>
   <energy>
    <i name="e_fr_energy">   -432.01565555 </i>
    <i name="e_wo_entrp">   -431.30543204 </i>
    <i name="e_0_energy">   -431.66054379 </i>
   </energy>
  </scstep>
  <scstep>
   <time name="diag">    2.87    2.90</time>
   <time name="diis">   72.40   72.53</time>
   <time name="orth">    0.69    0.69</time>
   <time name="total">   76.68   76.84</time>
   <energy>
    <i name="e_fr_energy">   -432.02016332 </i>
    <i name="e_wo_entrp">   -431.30862840 </i>
    <i name="e_0_energy">   -431.66439586 </i>
   </energy>
  </scstep>
  <scstep>
   <time name="diag">    2.80    2.88</time>
   <time name="diis">   67.15   70.16</time>
   <time name="orth">    0.67    0.69</time>
   <time name="total">   71.36   74.48</time>
   <energy>
    <i name="e_fr_energy">   -432.02401558 </i>
    <i name="e_wo_entrp">   -431.31117710 </i>
    <i name="e_0_energy">   -431.66759634 </i>
   </energy>
  </scstep>
  <scstep>
   <time name="diag">    2.85    2.85</time>
   <time name="diis">   71.25   71.45</time>
   <time name="orth">    0.69    0.69</time>
   <time name="total">   75.55   75.75</time>
   <energy>
    <i name="e_fr_energy">   -432.02754318 </i>
    <i name="e_wo_entrp">   -431.31349329 </i>
    <i name="e_0_energy">   -431.67051823 </i>
   </energy>
  </scstep>
  <scstep>
   <time name="diag">    2.85    2.85</time>
   <time name="diis">   69.07   69.20</time>
   <time name="orth">    0.69    0.69</time>
   <time name="total">   73.36   73.49</time>
   <energy>
    <i name="e_fr_energy">   -432.03060160 </i>
    <i name="e_wo_entrp">   -431.31545865 </i>
    <i name="e_0_energy">   -431.67303012 </i>
   </energy>
  </scstep>
  <scstep>
   <time name="diag">    2.81    2.84</time>
   <time name="diis">   65.67   65.82</time>
   <time name="orth">    0.69    0.70</time>
   <time name="total">   69.91   70.10</time>
   <energy>
    <i name="e_fr_energy">   -432.03336488 </i>
    <i name="e_wo_entrp">   -431.31726307 </i>
    <i name="e_0_energy">   -431.67531398 </i>
   </energy>
  </scstep>
  <scstep>
   <time name="diag">    2.83    2.84</time>
   <time name="diis">   69.84   70.40</time>
   <time name="orth">    0.69    0.69</time>
   <time name="total">   74.09   74.66</time>
   <energy>
    <i name="e_fr_energy">   -432.03578349 </i>
    <i name="e_wo_entrp">   -431.31881390 </i>
    <i name="e_0_energy">   -431.67729869 </i>
   </energy>
  </scstep>
  <scstep>
   <time name="diag">    2.82    2.82</time>
   <time name="diis">   68.19   68.29</time>
   <time name="orth">    0.70    0.70</time>
   <time name="total">   72.45   72.55</time>
   <energy>
    <i name="e_fr_energy">   -432.03798016 </i>
    <i name="e_wo_entrp">   -431.32022717 </i>
    <i name="e_0_energy">   -431.67910367 </i>
   </energy>
  </scstep>
  <scstep>
   <time name="diag">    2.82    2.82</time>
   <time name="diis">   68.14   68.42</time>
   <time name="orth">    0.69    0.69</time>
   <time name="total">   72.40   72.68</time>
   <energy>
    <i name="e_fr_energy">   -432.03989939 </i>
    <i name="e_wo_entrp">   -431.32133690 </i>
    <i name="e_0_energy">   -431.68061815 </i>
   </energy>
  </scstep>
  <scstep>
   <time name="diag">    2.82    2.82</time>
   <time name="diis">   56.59   56.71</time>
   <time name="orth">    0.69    0.69</time>
   <time name="total">   60.85   60.97</time>
   <energy>
    <i name="e_fr_energy">   -432.04164798 </i>
    <i name="e_wo_entrp">   -431.32238112 </i>
    <i name="e_0_energy">   -431.68201455 </i>
   </energy>
  </scstep>
  <scstep>
   <time name="diag">    2.83    2.83</time>
   <time name="diis">   50.36   50.51</time>
   <time name="orth">    0.68    0.68</time>
   <time name="total">   54.62   54.78</time>
   <energy>
    <i name="e_fr_energy">   -432.04318526 </i>
    <i name="e_wo_entrp">   -431.32325136 </i>
    <i name="e_0_energy">   -431.68321831 </i>
   </energy>
  </scstep>
  <scstep>
   <time name="diag">    2.84    2.85</time>
   <time name="diis">   52.55   52.60</time>
   <time name="orth">    0.68    0.68</time>
   <time name="total">   56.82   56.88</time>
   <energy>
    <i name="e_fr_energy">   -432.04458415 </i>
    <i name="e_wo_entrp">   -431.32400838 </i>
    <i name="e_0_energy">   -431.68429627 </i>
   </energy>
  </scstep>
  <scstep>
   <time name="diag">    2.82    2.82</time>
   <time name="diis">   49.64   49.77</time>
   <time name="orth">    0.69    0.69</time>
   <time name="total">   53.91   54.03</time>
   <energy>
    <i name="e_fr_energy">   -432.04582292 </i>
    <i name="e_wo_entrp">   -431.32466647 </i>
    <i name="e_0_energy">   -431.68524469 </i>
   </energy>
  </scstep>
  <scstep>
   <time name="diag">    2.84    2.84</time>
   <time name="diis">   49.49   49.60</time>
   <time name="orth">    0.69    0.69</time>
   <time name="total">   53.75   53.86</time>
   <energy>
    <i name="e_fr_energy">   -432.04695084 </i>
    <i name="e_wo_entrp">   -431.32524411 </i>
    <i name="e_0_energy">   -431.68609747 </i>
   </energy>
  </scstep>
  <scstep>
   <time name="diag">    2.86    2.86</time>
   <time name="diis">   49.73   49.88</time>
   <time name="orth">    0.69    0.69</time>
   <time name="total">   54.01   54.16</time>
   <energy>
    <i name="e_fr_energy">   -432.04794808 </i>
    <i name="e_wo_entrp">   -431.32573300 </i>
    <i name="e_0_energy">   -431.68684054 </i>
   </energy>
  </scstep>
  <scstep>
   <time name="diag">    2.83    2.83</time>
   <time name="diis">   50.31   50.46</time>
   <time name="orth">    0.69    0.69</time>
   <time name="total">   54.57   54.72</time>
   <energy>
    <i name="e_fr_energy">   -432.04886100 </i>
    <i name="e_wo_entrp">   -431.32617081 </i>
    <i name="e_0_energy">   -431.68751590 </i>
   </energy>
  </scstep>
  <scstep>
   <time name="diag">    2.82    2.82</time>
   <time name="diis">   48.19   48.31</time>
   <time name="orth">    0.70    0.70</time>
   <time name="total">   52.46   52.58</time>
   <energy>
    <i name="e_fr_energy">   -432.04966613 </i>
    <i name="e_wo_entrp">   -431.32653255 </i>
    <i name="e_0_energy">   -431.68809934 </i>
   </energy>
  </scstep>
  <scstep>
   <time name="diag">    2.82    2.83</time>
   <time name="diis">   49.51   49.58</time>
   <time name="orth">    0.69    0.69</time>
   <time name="total">   53.77   53.85</time>
   <energy>
    <i name="e_fr_energy">   -432.05040140 </i>
    <i name="e_wo_entrp">   -431.32684253 </i>
    <i name="e_0_energy">   -431.68862196 </i>
   </energy>
  </scstep>
  <scstep>
   <time name="diag">    2.87    2.87</time>
   <time name="diis">   48.92   49.02</time>
   <time name="orth">    0.68    0.68</time>
   <time name="total">   53.22   53.33</time>
   <energy>
    <i name="e_fr_energy">   -432.05106038 </i>
    <i name="e_wo_entrp">   -431.32712083 </i>
    <i name="e_0_energy">   -431.68909060 </i>
   </energy>
  </scstep>
  <scstep>
   <time name="diag">    2.88    2.90</time>
   <time name="diis">   48.75   48.93</time>
   <time name="orth">    0.69    0.69</time>
   <time name="total">   53.06   53.27</time>
   <energy>
    <i name="e_fr_energy">   -432.05165995 </i>
    <i name="e_wo_entrp">   -431.32735890 </i>
    <i name="e_0_energy">   -431.68950943 </i>
   </energy>
  </scstep>
  <scstep>
   <time name="diag">    2.82    2.83</time>
   <time name="diis">   49.31   49.52</time>
   <time name="orth">    0.69    0.69</time>
   <time name="total">   53.56   53.78</time>
   <energy>
    <i name="e_fr_energy">   -432.05219522 </i>
    <i name="e_wo_entrp">   -431.32755523 </i>
    <i name="e_0_energy">   -431.68987522 </i>
   </energy>
  </scstep>
  <scstep>
   <time name="diag">    2.83    2.85</time>
   <time name="diis">   48.96   49.05</time>
   <time name="orth">    0.69    0.69</time>
   <time name="total">   53.24   53.35</time>
   <energy>
    <i name="e_fr_energy">   -432.05267967 </i>
    <i name="e_wo_entrp">   -431.32772075 </i>
    <i name="e_0_energy">   -431.69020021 </i>
   </energy>
  </scstep>
  <scstep>
   <time name="diag">    2.82    2.82</time>
   <time name="diis">   48.06   48.19</time>
   <time name="orth">    0.69    0.69</time>
   <time name="total">   51.61   51.74</time>
   <energy>
    <i name="alphaZ">   1849.01506398 </i>
    <i name="ewald"> -32344.56735424 </i>
    <i name="hartreedc"> -13048.33772451 </i>
    <i name="XCdc">   1507.41059105 </i>
    <i name="pawpsdc">  29690.19374096 </i>
    <i name="pawaedc"> -29146.64564504 </i>
    <i name="eentropy">     -0.72525992 </i>
    <i name="bandstr">  -8140.25662293 </i>
    <i name="atom">  49201.86010375 </i>
    <i name="e_fr_energy">   -432.05310690 </i>
    <i name="e_wo_entrp">   -431.32784698 </i>
    <i name="e_0_energy">   -431.69047694 </i>
   </energy>
  </scstep>
  <structure>
   <crystal>
    <varray name="basis" >
     <v>      11.23999977       0.00000000       0.00000000 </v>
     <v>       0.00000000      11.23999977       0.00000000 </v>
     <v>       0.00000000       0.00000000      11.23999977 </v>
    </varray>
    <i name="volume">   1420.03453724 </i>
    <varray name="rec_basis" >
     <v>       0.08896797       0.00000000       0.00000000 </v>
     <v>       0.00000000       0.08896797       0.00000000 </v>
     <v>       0.00000000       0.00000000       0.08896797 </v>
    </varray>
   </crystal>
   <varray name="positions" >
    <v>       0.00000000       0.00000000       0.00000000 </v>
    <v>       0.25000000       0.00000000       0.25000000 </v>
    <v>       0.25000000       0.50000000       0.25000000 </v>
    <v>       0.50000000       0.50000000       0.00000000 </v>
    <v>       0.50000000       0.25000000       0.75000004 </v>
    <v>       0.00000000       0.50000000       0.50000000 </v>
    <v>       0.50000000       0.75000004       0.75000004 </v>
    <v>       0.00000000       0.25000000       0.25000000 </v>
    <v>       0.75000004       0.75000004       0.00000000 </v>
    <v>       0.00000000       0.25000000       0.75000004 </v>
    <v>       0.75000004       0.25000000       0.50000000 </v>
    <v>       0.00000000       0.75000004       0.75000004 </v>
    <v>       0.25000000       0.50000000       0.75000004 </v>
    <v>       0.25000000       0.25000000       0.00000000 </v>
    <v>       0.50000000       0.25000000       0.25000000 </v>
    <v>       0.75000004       0.00000000       0.25000000 </v>
    <v>       0.75000004       0.25000000       0.00000000 </v>
    <v>       0.25000000       0.75000004       0.00000000 </v>
    <v>       0.25000000       0.25000000       0.50000000 </v>
    <v>       0.25000000       0.75000004       0.50000000 </v>
    <v>       0.25000000       0.25000000       0.25000000 </v>
    <v>       0.25000000       0.00000000       0.00000000 </v>
    <v>       0.00000000       0.25000000       0.00000000 </v>
    <v>       0.75000004       0.25000000       0.25000000 </v>
    <v>       0.75000004       0.00000000       0.00000000 </v>
    <v>       0.50000000       0.00000000       0.25000000 </v>
    <v>       0.00000000       0.50000000       0.25000000 </v>
    <v>       0.50000000       0.75000004       0.00000000 </v>
    <v>       0.00000000       0.00000000       0.75000004 </v>
    <v>       0.75000004       0.25000000       0.75000004 </v>
    <v>       0.75000004       0.00000000       0.50000000 </v>
    <v>       0.50000000       0.25000000       0.50000000 </v>
    <v>       0.50000000       0.00000000       0.75000004 </v>
    <v>       0.00000000       0.00000000       0.25000000 </v>
    <v>       0.50000000       0.25000000       0.00000000 </v>
    <v>       0.25000000       0.75000004       0.25000000 </v>
    <v>       0.25000000       0.50000000       0.00000000 </v>
    <v>       0.00000000       0.75000004       0.00000000 </v>
    <v>       0.75000004       0.75000004       0.25000000 </v>
    <v>       0.75000004       0.50000000       0.00000000 </v>
    <v>       0.50000000       0.50000000       0.25000000 </v>
    <v>       0.25000000       0.25000000       0.75000004 </v>
    <v>       0.25000000       0.00000000       0.50000000 </v>
    <v>       0.00000000       0.25000000       0.50000000 </v>
    <v>       0.25000000       0.75000004       0.75000004 </v>
    <v>       0.25000000       0.50000000       0.50000000 </v>
    <v>       0.00000000       0.75000004       0.50000000 </v>
    <v>       0.00000000       0.50000000       0.75000004 </v>
    <v>       0.75000004       0.75000004       0.75000004 </v>
    <v>       0.75000004       0.50000000       0.50000000 </v>
    <v>       0.50000000       0.75000004       0.50000000 </v>
    <v>       0.50000000       0.50000000       0.75000004 </v>
    <v>       0.50000000       0.00000000       0.00000000 </v>
    <v>       0.00000000       0.50000000       0.00000000 </v>
    <v>       0.50000000       0.75000004       0.25000000 </v>
    <v>       0.25000000       0.00000000       0.75000004 </v>
    <v>       0.50000000       0.00000000       0.50000000 </v>
    <v>       0.75000004       0.00000000       0.75000004 </v>
    <v>       0.00000000       0.75000004       0.25000000 </v>
    <v>       0.75000004       0.50000000       0.25000000 </v>
    <v>       0.00000000       0.00000000       0.50000000 </v>
    <v>       0.50000000       0.50000000       0.50000000 </v>
    <v>       0.75000004       0.50000000       0.75000004 </v>
    <v>       0.75000004       0.75000004       0.50000000 </v>
   </varray>
  </structure>
  <varray name="forces" >
   <v>      -0.07952527      -0.17506877       0.27189772 </v>
   <v>      -0.22180525      -0.12184204       0.25169360 </v>
   <v>       0.25408770       0.14377923      -0.00847804 </v>
   <v>       0.01024570      -0.26203532      -0.00797064 </v>
   <v>      -0.18794799       0.28809633       0.16496527 </v>
   <v>       0.02075990      -0.04361260       0.23003573 </v>
   <v>      -0.01710321      -0.27879042      -0.23687647 </v>
   <v>      -0.07609730      -0.56933926       0.47804092 </v>
   <v>       0.52619792      -0.43672834      -0.00509903 </v>
   <v>       0.43446125       0.39589501      -0.47853998 </v>
   <v>       0.52034812       0.45019834      -0.03651310 </v>
   <v>       0.00212441      -0.41518477       0.02668052 </v>
   <v>       0.00957405       0.02682129       0.01806191 </v>
   <v>       0.18581252       0.30788289      -0.28847628 </v>
   <v>       0.05301464       0.27850481      -0.26871341 </v>
   <v>       0.29974496      -0.28586800       0.00994012 </v>
   <v>      -0.22058189       0.29105671       0.03738694 </v>
   <v>      -0.37093868      -0.33743341      -0.05198585 </v>
   <v>      -0.32989081       0.02776834       0.29222352 </v>
   <v>      -0.06298064      -0.02098268       0.06438800 </v>
   <v>      -0.21549389      -0.02807660       0.00302387 </v>
   <v>       0.29689927       0.00415978      -0.23834282 </v>
   <v>      -0.02258720       0.27881886       0.00615836 </v>
   <v>       0.19878112       0.47821800       0.23349589 </v>
   <v>      -0.28394284      -0.09761381      -0.43593621 </v>
   <v>      -0.11262003      -0.37188518      -0.02404478 </v>
   <v>      -0.31660239       0.25168557      -0.26927330 </v>
   <v>       0.12476632       0.32180273       0.23063791 </v>
   <v>      -0.05235502       0.02816543      -0.26738775 </v>
   <v>      -0.01266804      -0.01492415      -0.19096635 </v>
   <v>       0.08214625      -0.24210226       0.35991355 </v>
   <v>       0.18652306       0.04192073       0.14576116 </v>
   <v>       0.04773408       0.00732088       0.02366525 </v>
   <v>      -0.00957326      -0.28217737       0.53629423 </v>
   <v>       0.02175261      -0.44252767      -0.04844250 </v>
   <v>      -0.14674313       0.00443289      -0.01314155 </v>
   <v>      -0.40995161      -0.00597726      -0.14255781 </v>
   <v>      -0.25376837      -0.33501645       0.28866681 </v>
   <v>       0.13563327      -0.52712443       0.29638957 </v>
   <v>       0.35271840       0.21222002       0.03481259 </v>
   <v>       0.53852056       0.33607376       0.47495665 </v>
   <v>      -0.25948655      -0.17882267      -0.00918028 </v>
   <v>      -0.18247244       0.03020889       0.31916564 </v>
   <v>      -0.29281084      -0.50915375      -0.00562509 </v>
   <v>      -0.17584286       0.18596661       0.00587459 </v>
   <v>       0.50942180      -0.03068508       0.14728101 </v>
   <v>      -0.53336591       0.47910409      -0.27201489 </v>
   <v>      -0.30582328      -0.01574920       0.32839620 </v>
   <v>       0.13561444      -0.14919094      -0.30217869 </v>
   <v>      -0.40830212       0.26190180      -0.03551574 </v>
   <v>       0.51809199      -0.15630088      -0.29054764 </v>
   <v>       0.32546751      -0.01564953      -0.49407349 </v>
   <v>       0.13422743       0.45010402       0.07184480 </v>
   <v>      -0.04043758       0.25237170      -0.34851301 </v>
   <v>       0.04964644      -0.30834982       0.35473156 </v>
   <v>      -0.14369698      -0.02640944      -0.38608081 </v>
   <v>      -0.43553985      -0.37164656      -0.07306275 </v>
   <v>       0.15160764      -0.42063031      -0.01932217 </v>
   <v>      -0.00395321       0.56587657      -0.05247981 </v>
   <v>      -0.48626145       0.43289829      -0.07717104 </v>
   <v>       0.47876041       0.08557226      -0.42591473 </v>
   <v>      -0.00840221       0.46660446      -0.00651024 </v>
   <v>      -0.02075046       0.54497380       0.09027492 </v>
   <v>       0.09563877      -0.45350511       0.01427746 </v>
  </varray>
  <varray name="stress" >
   <v>    -421.99711052       0.29786468       0.10274800 </v>
   <v>       0.29786533    -420.38341470       0.12379736 </v>
   <v>       0.10274829       0.12379716    -422.33305012 </v>
  </varray>
  <energy>
   <i name="e_fr_energy">   -432.05310690 </i>
   <i name="e_wo_entrp">   -431.69047694 </i>
   <i name="e_0_energy">     -0.72525992 </i>
  </energy>
  <time name="totalsc"> 5011.67 5043.31</time>
 </calculation>
 <calculation>
  <scstep>
   <time name="dav">   87.74   87.92</time>
   <time name="total">   88.40   88.58</time>
   <energy>
    <i name="alphaZ">   4988.08047385 </i>
    <i name="ewald"> -45057.57357117 </i>
    <i name="hartreedc"> -18129.68642484 </i>
    <i name="XCdc">   2248.84194587 </i>
    <i name="pawpsdc">  29690.24417062 </i>
    <i name="pawaedc"> -29146.69967251 </i>
    <i name="eentropy">     -0.06144363 </i>
    <i name="bandstr">   2024.66671326 </i>
    <i name="atom">  49201.86010375 </i>
    <i name="e_fr_energy">  -4180.32770477 </i>
    <i name="e_wo_entrp">  -4180.26626114 </i>
    <i name="e_0_energy">  -4180.29698296 </i>
   </energy>
  </scstep>
  <scstep>
   <time name="diag">    2.82    2.82</time>
   <time name="diis">   86.46   86.77</time>
   <time name="orth">    0.68    0.68</time>
   <time name="total">   90.62   90.94</time>
   <energy>
    <i name="e_fr_energy">  -1395.72758975 </i>
    <i name="e_wo_entrp">  -1395.67001863 </i>
    <i name="e_0_energy">  -1395.69880419 </i>
   </energy>
  </scstep>
  <scstep>
   <time name="diag">    2.82    2.82</time>
   <time name="diis">   64.47   64.73</time>
   <time name="orth">    0.69    0.69</time>
   <time name="total">   68.66   68.92</time>
   <energy>
    <i name="e_fr_energy">   -644.56740878 </i>
    <i name="e_wo_entrp">   -644.45236873 </i>
    <i name="e_0_energy">   -644.50988875 </i>
   </energy>
  </scstep>
  <scstep>
   <time name="diag">    2.86    2.86</time>
   <time name="diis">   79.01   79.16</time>
   <time name="orth">    0.68    0.68</time>
   <time name="total">   83.22   83.37</time>
   <energy>
    <i name="e_fr_energy">   -628.63389087 </i>
    <i name="e_wo_entrp">   -628.49237160 </i>
    <i name="e_0_energy">   -628.56313123 </i>
   </energy>
  </scstep>
  <scstep>
   <time name="diag">    2.86    2.87</time>
   <time name="diis">   85.06   85.30</time>
   <time name="orth">    0.69    0.70</time>
   <time name="total">   89.29   89.54</time>
   <energy>
    <i name="e_fr_energy">   -614.80327574 </i>
    <i name="e_wo_entrp">   -614.69072616 </i>
    <i name="e_0_energy">   -614.74700095 </i>
   </energy>
  </scstep>
  <scstep>
   <time name="diag">    2.83    2.87</time>
   <time name="diis">   95.54   95.87</time>
   <time name="orth">    0.68    0.68</time>
   <time name="total">   99.69  100.06</time>
   <energy>
    <i name="e_fr_energy">   -601.87477322 </i>
    <i name="e_wo_entrp">   -601.76125940 </i>
    <i name="e_0_energy">   -601.81801631 </i>
   </energy>
  </scstep>
  <scstep>
   <time name="diag">    2.84    2.84</time>
   <time name="diis">   92.27   92.40</time>
   <time name="orth">    0.70    0.71</time>
   <time name="total">   96.49   96.65</time>
   <energy>
    <i name="e_fr_energy">   -601.52038694 </i>
    <i name="e_wo_entrp">   -601.37391103 </i>
    <i name="e_0_energy">   -601.44714898 </i>
   </energy>
  </scstep>
  <scstep>
   <time name="diag">    2.87    2.87</time>
   <time name="diis">  100.50  100.62</time>
   <time name="orth">    0.68    0.68</time>
   <time name="total">  104.70  104.84</time>
   <energy>
    <i name="e_fr_energy">   -602.90897096 </i>
    <i name="e_wo_entrp">   -602.78557825 </i>
    <i name="e_0_energy">   -602.84727461 </i>
   </energy>
  </scstep>
  <scstep>
   <time name="diag">    2.94    2.98</time>
   <time name="diis">   99.59   99.83</time>
   <time name="orth">    0.69    0.69</time>
   <time name="total">  103.87  104.15</time>
   <energy>
    <i name="e_fr_energy">   -603.75543560 </i>
    <i name="e_wo_entrp">   -603.63267013 </i>
    <i name="e_0_energy">   -603.69405287 </i>
   </energy>
  </scstep>
  <scstep>
   <time name="diag">    2.83    2.87</time>
   <time name="diis">  100.88  101.22</time>
   <time name="orth">    0.69    0.69</time>
   <time name="total">  105.04  105.43</time>
   <energy>
    <i name="e_fr_energy">   -604.55195030 </i>
    <i name="e_wo_entrp">   -604.43348206 </i>
    <i name="e_0_energy">   -604.49271618 </i>
   </energy>
  </scstep>
  <scstep>
   <time name="diag">    2.85    2.85</time>
   <time name="diis">  100.23  100.48</time>
   <time name="orth">    0.68    0.68</time>
   <time name="total">  104.42  104.68</time>
   <energy>
    <i name="e_fr_energy">   -605.93596047 </i>
    <i name="e_wo_entrp">   -605.81070489 </i>
    <i name="e_0_energy">   -605.87333268 </i>
   </energy>
  </scstep>
  <scstep>
   <time name="diag">    2.87    2.88</time>
   <time name="diis">  101.57  101.91</time>
   <time name="orth">    0.69    0.70</time>
   <time name="total">  105.78  106.16</time>
   <energy>
    <i name="e_fr_energy">   -606.55565192 </i>
    <i name="e_wo_entrp">   -606.43842793 </i>
    <i name="e_0_energy">   -606.49703992 </i>
   </energy>
  </scstep>
  <scstep>
   <time name="diag">    2.86    2.86</time>
   <time name="diis">   96.28   96.50</time>
   <time name="orth">    0.68    0.68</time>
   <time name="total">  100.47  100.69</time>
   <energy>
    <i name="e_fr_energy">   -606.91421060 </i>
    <i name="e_wo_entrp">   -606.79156907 </i>
    <i name="e_0_energy">   -606.85288984 </i>
   </energy>
  </scstep>
  <scstep>
   <time name="diag">    2.85    2.85</time>
   <time name="diis">  101.67  102.04</time>
   <time name="orth">    0.68    0.68</time>
   <time name="total">  105.85  106.22</time>
   <energy>
    <i name="e_fr_energy">   -607.02130509 </i>
    <i name="e_wo_entrp">   -606.90225614 </i>
    <i name="e_0_energy">   -606.96178062 </i>
   </energy>
  </scstep>
  <scstep>
   <time name="diag">    2.86    2.87</time>
   <time name="diis">   99.48   99.70</time>
   <time name="orth">    0.69    0.69</time>
   <time name="total">  103.69  103.93</time>
   <energy>
    <i name="e_fr_energy">   -607.02622143 </i>
    <i name="e_wo_entrp">   -606.90633785 </i>
    <i name="e_0_energy">   -606.96627964 </i>
   </energy>
  </scstep>
  <scstep>
   <time name="diag">    2.83    2.83</time>
   <time name="diis">  101.45  101.65</time>
   <time name="orth">    0.68    0.68</time>
   <time name="total">  105.62  105.83</time>
   <energy>
    <i name="e_fr_energy">   -607.05508655 </i>
    <i name="e_wo_entrp">   -606.93574107 </i>
    <i name="e_0_energy">   -606.99541381 </i>
   </energy>
  </scstep>
  <scstep>
   <time name="diag">    2.88    2.89</time>
   <time name="diis">  102.33  102.56</time>
   <time name="orth">    0.69    0.69</time>
   <time name="total">  106.55  106.78</time>
   <energy>
    <i name="e_fr_energy">   -607.07460371 </i>
    <i name="e_wo_entrp">   -606.95490586 </i>
    <i name="e_0_energy">   -607.01475478 </i>
   </energy>
  </scstep>
  <scstep>
   <time name="diag">    2.89    2.89</time>
   <time name="diis">  102.76  103.06</time>
   <time name="orth">    0.69    0.69</time>
   <time name="total">  107.00  107.30</time>
   <energy>
    <i name="e_fr_energy">   -607.08420961 </i>
    <i name="e_wo_entrp">   -606.96427817 </i>
    <i name="e_0_energy">   -607.02424389 </i>
   </energy>
  </scstep>
  <scstep>
   <time name="diag">    2.86    2.86</time>
   <time name="diis">  101.73  102.00</time>
   <time name="orth">    0.69    0.69</time>
   <time name="total">  105.93  106.20</time>
   <energy>
    <i name="e_fr_energy">   -607.09177630 </i>
    <i name="e_wo_entrp">   -606.97164770 </i>
    <i name="e_0_energy">   -607.03171200 </i>
   </energy>
  </scstep>
  <scstep>
   <time name="diag">    2.85    2.85</time>
   <time name="diis">  101.20  101.65</time>
   <time name="orth">    0.69    0.69</time>
   <time name="total">  105.38  105.84</time>
   <energy>
    <i name="e_fr_energy">   -607.09616422 </i>
    <i name="e_wo_entrp">   -606.97598365 </i>
    <i name="e_0_energy">   -607.03607394 </i>
   </energy>
  </scstep>
  <scstep>
   <time name="diag">    2.87    2.87</time>
   <time name="diis">   98.96  100.29</time>
   <time name="orth">    0.68    0.69</time>
   <time name="total">  103.16  104.53</time>
   <energy>
    <i name="e_fr_energy">   -607.09890836 </i>
    <i name="e_wo_entrp">   -606.97888415 </i>
    <i name="e_0_energy">   -607.03889625 </i>
   </energy>
  </scstep>
  <scstep>
   <time name="diag">    2.80    2.89</time>
   <time name="diis">   98.06  102.51</time>
   <time name="orth">    0.69    0.70</time>
   <time name="total">  102.21  106.78</time>
   <energy>
    <i name="e_fr_energy">   -607.10045079 </i>
    <i name="e_wo_entrp">   -606.98052442 </i>
    <i name="e_0_energy">   -607.04048760 </i>
   </energy>
  </scstep>
  <scstep>
   <time name="diag">    2.86    2.87</time>
   <time name="diis">  100.41  100.58</time>
   <time name="orth">    0.69    0.69</time>
   <time name="total">  104.63  104.80</time>
   <energy>
    <i name="e_fr_energy">   -607.10145558 </i>
    <i name="e_wo_entrp">   -606.98156991 </i>
    <i name="e_0_energy">   -607.04151274 </i>
   </energy>
  </scstep>
  <scstep>
   <time name="diag">    2.85    2.86</time>
   <time name="diis">  101.09  101.24</time>
   <time name="orth">    0.69    0.69</time>
   <time name="total">  105.29  105.44</time>
   <energy>
    <i name="e_fr_energy">   -607.10209443 </i>
    <i name="e_wo_entrp">   -606.98213672 </i>
    <i name="e_0_energy">   -607.04211557 </i>
   </energy>
  </scstep>
  <scstep>
   <time name="diag">    2.86    2.87</time>
   <time name="diis">   99.91  100.03</time>
   <time name="orth">    0.68    0.69</time>
   <time name="total">  104.10  104.23</time>
   <energy>
    <i name="e_fr_energy">   -607.10251237 </i>
    <i name="e_wo_entrp">   -606.98257341 </i>
    <i name="e_0_energy">   -607.04254289 </i>
   </energy>
  </scstep>
  <scstep>
   <time name="diag">    2.86    2.86</time>
   <time name="diis">   97.03   98.30</time>
   <time name="orth">    0.68    0.68</time>
   <time name="total">  101.22  102.50</time>
   <energy>
    <i name="e_fr_energy">   -607.10276851 </i>
    <i name="e_wo_entrp">   -606.98282737 </i>
    <i name="e_0_energy">   -607.04279794 </i>
   </energy>
  </scstep>
  <scstep>
   <time name="diag">    2.86    2.87</time>
   <time name="diis">   94.87   95.13</time>
   <time name="orth">    0.68    0.68</time>
   <time name="total">   99.07   99.33</time>
   <energy>
    <i name="e_fr_energy">   -607.10294826 </i>
    <i name="e_wo_entrp">   -606.98302012 </i>
    <i name="e_0_energy">   -607.04298419 </i>
   </energy>
  </scstep>
  <scstep>
   <time name="diag">    2.85    2.85</time>
   <time name="diis">   94.64   94.90</time>
   <time name="orth">    0.68    0.70</time>
   <time name="total">   98.83   99.13</time>
   <energy>
    <i name="e_fr_energy">   -607.10305962 </i>
    <i name="e_wo_entrp">   -606.98313293 </i>
    <i name="e_0_energy">   -607.04309627 </i>
   </energy>
  </scstep>
  <scstep>
   <time name="diag">    2.85    2.88</time>
   <time name="diis">   88.69   92.71</time>
   <time name="orth">    0.68    0.69</time>
   <time name="total">   92.87   96.94</time>
   <energy>
    <i name="e_fr_energy">   -607.10313910 </i>
    <i name="e_wo_entrp">   -606.98320701 </i>
    <i name="e_0_energy">   -607.04317306 </i>
   </energy>
  </scstep>
  <scstep>
   <time name="diag">    2.87    2.88</time>
   <time name="diis">   87.49   87.70</time>
   <time name="orth">    0.68    0.68</time>
   <time name="total">   91.70   91.91</time>
   <energy>
    <i name="e_fr_energy">   -607.10318759 </i>
    <i name="e_wo_entrp">   -606.98326320 </i>
    <i name="e_0_energy">   -607.04322540 </i>
   </energy>
  </scstep>
  <scstep>
   <time name="diag">    2.91    2.95</time>
   <time name="diis">   83.17   83.45</time>
   <time name="orth">    0.69    0.69</time>
   <time name="total">   87.42   87.73</time>
   <energy>
    <i name="e_fr_energy">   -607.10322471 </i>
    <i name="e_wo_entrp">   -606.98329961 </i>
    <i name="e_0_energy">   -607.04326216 </i>
   </energy>
  </scstep>
  <scstep>
   <time name="diag">    2.86    2.86</time>
   <time name="diis">   78.00   78.15</time>
   <time name="orth">    0.69    0.69</time>
   <time name="total">   82.20   82.36</time>
   <energy>
    <i name="e_fr_energy">   -607.10324602 </i>
    <i name="e_wo_entrp">   -606.98332182 </i>
    <i name="e_0_energy">   -607.04328392 </i>
   </energy>
  </scstep>
  <scstep>
   <time name="diag">    2.86    2.86</time>
   <time name="diis">   72.96   73.10</time>
   <time name="orth">    0.73    0.73</time>
   <time name="total">   77.21   77.36</time>
   <energy>
    <i name="e_fr_energy">   -607.10326285 </i>
    <i name="e_wo_entrp">   -606.98333835 </i>
    <i name="e_0_energy">   -607.04330060 </i>
   </energy>
  </scstep>
  <scstep>
   <time name="diag">    2.85    2.88</time>
   <time name="diis">   66.79   66.96</time>
   <time name="orth">    0.69    0.69</time>
   <time name="total">   71.00   71.19</time>
   <energy>
    <i name="e_fr_energy">   -607.10327248 </i>
    <i name="e_wo_entrp">   -606.98334808 </i>
    <i name="e_0_energy">   -607.04331028 </i>
   </energy>
  </scstep>
  <scstep>
   <time name="diag">    2.85    2.85</time>
   <time name="diis">   63.63   63.87</time>
   <time name="orth">    0.69    0.69</time>
   <time name="total">   67.21   67.47</time>
   <energy>
    <i name="alphaZ">   4988.08047385 </i>
    <i name="ewald"> -45057.57357117 </i>
    <i name="hartreedc">  -8054.61189394 </i>
    <i name="XCdc">   1712.41843811 </i>
    <i name="pawpsdc">  35788.79623140 </i>
    <i name="pawaedc"> -35215.28564958 </i>
    <i name="eentropy">     -0.11992466 </i>
    <i name="bandstr">  -3970.66748819 </i>
    <i name="atom">  49201.86010375 </i>
    <i name="e_fr_energy">   -607.10328043 </i>
    <i name="e_wo_entrp">   -606.98335577 </i>
    <i name="e_0_energy">   -607.04331810 </i>
   </energy>
  </scstep>
  <structure>
   <crystal>
    <varray name="basis" >
     <v>       8.07105024       0.00223679       0.00077158 </v>
     <v>       0.00223679       8.08316814       0.00092965 </v>
     <v>       0.00077158       0.00092964       8.06852753 </v>
    </varray>
    <i name="volume">    526.38790904 </i>
    <varray name="rec_basis" >
     <v>       0.12389962      -0.00003428      -0.00001184 </v>
     <v>      -0.00003428       0.12371388      -0.00001425 </v>
     <v>      -0.00001184      -0.00001425       0.12393835 </v>
    </varray>
   </crystal>
   <varray name="positions" >
    <v>      -0.00034133      -0.00075140       0.00116700 </v>
    <v>       0.24904800      -0.00052295       0.25108028 </v>
    <v>       0.25109056       0.50061711       0.24996361 </v>
    <v>       0.50004398       0.49887533      -0.00003421 </v>
    <v>       0.49919332       0.25123652       0.75070808 </v>
    <v>       0.00008910       0.49981281       0.50098733 </v>
    <v>       0.49992659       0.74880346       0.74898336 </v>
    <v>      -0.00032661       0.24755637       0.25205178 </v>
    <v>       0.75225851       0.74812558      -0.00002189 </v>
    <v>       0.00186473       0.25169920       0.74794612 </v>
    <v>       0.75223340       0.25193227       0.49984328 </v>
    <v>       0.00000912       0.74821805       0.75011456 </v>
    <v>       0.25004109       0.50011512       0.75007756 </v>
    <v>       0.25079752       0.25132145      -0.00123815 </v>
    <v>       0.50022754       0.25119536       0.24884667 </v>
    <v>       0.75128656      -0.00122696       0.25004266 </v>
    <v>       0.74905329       0.25124923       0.00016047 </v>
    <v>       0.24840791       0.74855176      -0.00022313 </v>
    <v>       0.24858409       0.25011918       0.50125424 </v>
    <v>       0.24972968       0.74990998       0.50027636 </v>
    <v>       0.24907509       0.24987949       0.25001298 </v>
    <v>       0.25127431       0.00001785      -0.00102298 </v>
    <v>      -0.00009695       0.25119670       0.00002643 </v>
    <v>       0.75085322       0.25205254       0.25100218 </v>
    <v>       0.74878134      -0.00041896      -0.00187106 </v>
    <v>       0.49951663      -0.00159615       0.24989680 </v>
[...]
      </set>
     </set>
    </set>
   </array>
  </eigenvalues>
  <separator name="orbital magnetization" >
   <v name="MAGDIPOLOUT">      0.00000000      0.00000000      0.00000000</v>
  </separator>
  <dos>
   <i name="efermi">      9.46758345 </i>
   <total>
    <array>
     <dimension dim="1">gridpoints</dimension>
     <dimension dim="2">spin</dimension>
     <field>energy</field>
     <field>total</field>
     <field>integrated</field>
     <set>
      <set comment="spin 1">
       <r>   -58.9479     0.0000     0.0000 </r>
       <r>   -58.7009     0.0000     0.0000 </r>
       <r>   -58.4540     0.0000     0.0000 </r>
       <r>   -58.2071     0.0000     0.0000 </r>
       <r>   -57.9601     0.0000     0.0000 </r>
       <r>   -57.7132     0.0000     0.0000 </r>
       <r>   -57.4663     0.0000     0.0000 </r>
       <r>   -57.2193     0.0000     0.0000 </r>
       <r>   -56.9724     0.0000     0.0000 </r>
       <r>   -56.7255     0.0000     0.0000 </r>
       <r>   -56.4785     0.0000     0.0000 </r>
       <r>   -56.2316     0.0000     0.0000 </r>
       <r>   -55.9847     0.0000     0.0000 </r>
       <r>   -55.7377     0.1325     0.0327 </r>
       <r>   -55.4908    31.7336     7.8687 </r>
       <r>   -55.2439    24.7927    13.9908 </r>
       <r>   -54.9970     0.0372    14.0000 </r>
       <r>   -54.7500     0.0000    14.0000 </r>
       <r>   -54.5031     0.0000    14.0000 </r>
       <r>   -54.2562     0.0000    14.0000 </r>
       <r>   -54.0092     0.0000    14.0000 </r>
       <r>   -53.7623     0.0000    14.0000 </r>
       <r>   -53.5154     0.0000    14.0000 </r>
       <r>   -53.2684     0.0000    14.0000 </r>
       <r>   -53.0215     0.0000    14.0000 </r>
       <r>   -52.7746     0.0000    14.0000 </r>
       <r>   -52.5276     0.0000    14.0000 </r>
       <r>   -52.2807     0.0000    14.0000 </r>
       <r>   -52.0338     0.0000    14.0000 </r>
       <r>   -51.7868     0.0000    14.0000 </r>
       <r>   -51.5399     0.0000    14.0000 </r>
       <r>   -51.2930     0.0000    14.0000 </r>
       <r>   -51.0460     0.0000    14.0000 </r>
       <r>   -50.7991     0.0000    14.0000 </r>
       <r>   -50.5522     0.0000    14.0000 </r>
       <r>   -50.3053     0.0000    14.0000 </r>
       <r>   -50.0583     0.0000    14.0000 </r>
       <r>   -49.8114     0.0000    14.0000 </r>
       <r>   -49.5645     0.0000    14.0000 </r>
       <r>   -49.3175     0.0000    14.0000 </r>
       <r>   -49.0706     0.0000    14.0000 </r>
       <r>   -48.8237     0.0000    14.0000 </r>
       <r>   -48.5767     0.0072    14.0018 </r>
       <r>   -48.3298     5.2070    15.2876 </r>
       <r>   -48.0829    11.6580    18.1663 </r>
       <r>   -47.8359    33.4917    26.4364 </r>
       <r>   -47.5890     6.3190    27.9968 </r>
       <r>   -47.3421     0.0130    28.0000 </r>
       <r>   -47.0951     0.0053    28.0013 </r>
       <r>   -46.8482     4.9566    29.2253 </r>
       <r>   -46.6013    12.3010    32.2627 </r>
       <r>   -46.3544    22.5754    37.8373 </r>
       <r>   -46.1074     8.7384    39.9951 </r>
       <r>   -45.8605     0.0198    40.0000 </r>
       <r>   -45.6136     0.0000    40.0000 </r>
       <r>   -45.3666     0.0000    40.0000 </r>
       <r>   -45.1197     0.0000    40.0000 </r>
       <r>   -44.8728     0.0000    40.0000 </r>
       <r>   -44.6258     0.0000    40.0000 </r>
       <r>   -44.3789     0.0000    40.0000 </r>
       <r>   -44.1320     0.0000    40.0000 </r>
       <r>   -43.8850     0.0000    40.0000 </r>
       <r>   -43.6381     0.0000    40.0000 </r>
       <r>   -43.3912     0.0000    40.0000 </r>
       <r>   -43.1442     0.0000    40.0000 </r>
       <r>   -42.8973     0.0000    40.0000 </r>
       <r>   -42.6504     0.0000    40.0000 </r>
       <r>   -42.4035     0.0000    40.0000 </r>
       <r>   -42.1565     0.0000    40.0000 </r>
       <r>   -41.9096     0.0000    40.0000 </r>
       <r>   -41.6627     0.0000    40.0000 </r>
       <r>   -41.4157     0.0000    40.0000 </r>
       <r>   -41.1688     0.0000    40.0000 </r>
       <r>   -40.9219     0.0000    40.0000 </r>
       <r>   -40.6749     0.0000    40.0000 </r>
       <r>   -40.4280     0.0000    40.0000 </r>
       <r>   -40.1811     0.0000    40.0000 </r>
       <r>   -39.9341     0.0000    40.0000 </r>
       <r>   -39.6872     0.0000    40.0000 </r>
       <r>   -39.4403     0.0000    40.0000 </r>
       <r>   -39.1933     0.0000    40.0000 </r>
       <r>   -38.9464     0.0000    40.0000 </r>
       <r>   -38.6995     0.0000    40.0000 </r>
       <r>   -38.4526     0.0000    40.0000 </r>
       <r>   -38.2056     0.0000    40.0000 </r>
       <r>   -37.9587     0.0000    40.0000 </r>
       <r>   -37.7118     0.0000    40.0000 </r>
       <r>   -37.4648     0.0000    40.0000 </r>
       <r>   -37.2179     0.0000    40.0000 </r>
       <r>   -36.9710     0.0000    40.0000 </r>
       <r>   -36.7240     0.0000    40.0000 </r>
       <r>   -36.4771     0.0000    40.0000 </r>
       <r>   -36.2302     0.0000    40.0000 </r>
       <r>   -35.9832     0.0000    40.0000 </r>
       <r>   -35.7363     0.0000    40.0000 </r>
       <r>   -35.4894     0.0000    40.0000 </r>
       <r>   -35.2424     0.0000    40.0000 </r>
       <r>   -34.9955     0.0000    40.0000 </r>
       <r>   -34.7486     0.0000    40.0000 </r>
       <r>   -34.5017     0.0000    40.0000 </r>
       <r>   -34.2547     0.0000    40.0000 </r>
       <r>   -34.0078     0.0000    40.0000 </r>
       <r>   -33.7609     0.0000    40.0000 </r>
       <r>   -33.5139     0.0000    40.0000 </r>
       <r>   -33.2670     0.0000    40.0000 </r>
       <r>   -33.0201     0.0000    40.0000 </r>
       <r>   -32.7731     0.0000    40.0000 </r>
       <r>   -32.5262     0.0000    40.0000 </r>
       <r>   -32.2793     0.0000    40.0000 </r>
       <r>   -32.0323     0.0000    40.0000 </r>
       <r>   -31.7854     0.0000    40.0000 </r>
       <r>   -31.5385     0.0000    40.0000 </r>
       <r>   -31.2915     0.0000    40.0000 </r>
       <r>   -31.0446     0.0000    40.0000 </r>
       <r>   -30.7977     0.0000    40.0000 </r>
       <r>   -30.5507     0.0000    40.0000 </r>
       <r>   -30.3038     0.0925    40.0228 </r>
       <r>   -30.0569    20.7436    45.1451 </r>
       <r>   -29.8100    93.8272    68.3140 </r>
       <r>   -29.5630    58.4704    82.7521 </r>
       <r>   -29.3161   130.9532   115.0886 </r>
       <r>   -29.0692    11.7899   117.9999 </r>
       <r>   -28.8222     0.0005   118.0000 </r>
       <r>   -28.5753     0.0000   118.0000 </r>
       <r>   -28.3284     0.0000   118.0000 </r>
       <r>   -28.0814     0.0000   118.0000 </r>
       <r>   -27.8345     0.0000   118.0000 </r>
       <r>   -27.5876     0.0000   118.0000 </r>
       <r>   -27.3406     0.0000   118.0000 </r>
       <r>   -27.0937     0.0000   118.0000 </r>
       <r>   -26.8468     0.0000   118.0000 </r>
       <r>   -26.5998     0.0000   118.0000 </r>
       <r>   -26.3529     0.0000   118.0000 </r>
       <r>   -26.1060     0.0000   118.0000 </r>
       <r>   -25.8591     0.0000   118.0000 </r>
       <r>   -25.6121     0.0000   118.0000 </r>
       <r>   -25.3652     0.0000   118.0000 </r>
       <r>   -25.1183     0.0000   118.0000 </r>
       <r>   -24.8713     1.1520   118.2845 </r>
       <r>   -24.6244    23.0268   123.9705 </r>
       <r>   -24.3775    78.2205   143.2856 </r>
       <r>   -24.1305    60.4618   158.2155 </r>
       <r>   -23.8836     7.2250   159.9996 </r>
       <r>   -23.6367     0.0016   160.0000 </r>
       <r>   -23.3897     0.0010   160.0002 </r>
       <r>   -23.1428     4.8258   161.1919 </r>
       <r>   -22.8959    28.1207   168.1358 </r>
       <r>   -22.6489    46.9113   179.7196 </r>
       <r>   -22.4020    57.7948   193.9910 </r>
       <r>   -22.1551     8.1324   195.9991 </r>
       <r>   -21.9082     0.0035   196.0000 </r>
       <r>   -21.6612     0.0000   196.0000 </r>
       <r>   -21.4143     0.0000   196.0000 </r>
       <r>   -21.1674     0.0000   196.0000 </r>
       <r>   -20.9204     0.0000   196.0000 </r>
       <r>   -20.6735     0.0000   196.0000 </r>
       <r>   -20.4266     0.0000   196.0000 </r>
       <r>   -20.1796     0.0000   196.0000 </r>
       <r>   -19.9327     0.0000   196.0000 </r>
       <r>   -19.6858     0.0000   196.0000 </r>
       <r>   -19.4388     0.0000   196.0000 </r>
       <r>   -19.1919     0.0000   196.0000 </r>
       <r>   -18.9450     0.0000   196.0000 </r>
       <r>   -18.6980     0.0000   196.0000 </r>
       <r>   -18.4511     0.0000   196.0000 </r>
       <r>   -18.2042     0.0000   196.0000 </r>
       <r>   -17.9573     0.0000   196.0000 </r>
       <r>   -17.7103     0.0000   196.0000 </r>
       <r>   -17.4634     0.0000   196.0000 </r>
       <r>   -17.2165     0.0000   196.0000 </r>
       <r>   -16.9695     0.0000   196.0000 </r>
       <r>   -16.7226     0.0000   196.0000 </r>
       <r>   -16.4757     0.0000   196.0000 </r>
       <r>   -16.2287     0.0000   196.0000 </r>
       <r>   -15.9818     0.0000   196.0000 </r>
       <r>   -15.7349     0.0000   196.0000 </r>
       <r>   -15.4879     0.0000   196.0000 </r>
       <r>   -15.2410     0.0000   196.0000 </r>
       <r>   -14.9941     0.0000   196.0000 </r>
       <r>   -14.7471     0.0000   196.0000 </r>
       <r>   -14.5002     0.0000   196.0000 </r>
       <r>   -14.2533     0.0000   196.0000 </r>
       <r>   -14.0064     0.0000   196.0000 </r>
       <r>   -13.7594     0.0000   196.0000 </r>
       <r>   -13.5125     0.0000   196.0000 </r>
       <r>   -13.2656     0.0000   196.0000 </r>
       <r>   -13.0186     0.0000   196.0000 </r>
       <r>   -12.7717     0.0000   196.0000 </r>
       <r>   -12.5248     0.0000   196.0000 </r>
       <r>   -12.2778     0.0000   196.0000 </r>
       <r>   -12.0309     0.0000   196.0000 </r>
       <r>   -11.7840     0.0000   196.0000 </r>
       <r>   -11.5370     0.0000   196.0000 </r>
       <r>   -11.2901     0.0000   196.0000 </r>
       <r>   -11.0432     0.0000   196.0000 </r>
       <r>   -10.7962     0.0000   196.0000 </r>
       <r>   -10.5493     0.0000   196.0000 </r>
       <r>   -10.3024     0.0000   196.0000 </r>
       <r>   -10.0554     0.0000   196.0000 </r>
       <r>    -9.8085     0.0000   196.0000 </r>
       <r>    -9.5616     0.0000   196.0000 </r>
       <r>    -9.3147     0.0000   196.0000 </r>
       <r>    -9.0677     0.0000   196.0000 </r>
       <r>    -8.8208     0.0000   196.0000 </r>
       <r>    -8.5739     0.0000   196.0000 </r>
       <r>    -8.3269     0.0000   196.0000 </r>
       <r>    -8.0800     0.0000   196.0000 </r>
       <r>    -7.8331     0.0000   196.0000 </r>
       <r>    -7.5861     0.0000   196.0000 </r>
       <r>    -7.3392     0.0069   196.0017 </r>
       <r>    -7.0923     2.1895   196.5424 </r>
       <r>    -6.8453     6.0691   198.0410 </r>
       <r>    -6.5984     8.7417   200.1996 </r>
       <r>    -6.3515     9.5665   202.5619 </r>
       <r>    -6.1045    10.7060   205.2055 </r>
       <r>    -5.8576    16.7179   209.3337 </r>
       <r>    -5.6107    25.2434   215.5671 </r>
       <r>    -5.3638    21.5610   220.8912 </r>
       <r>    -5.1168     4.4880   221.9994 </r>
       <r>    -4.8699     0.0025   222.0000 </r>
       <r>    -4.6230     0.0000   222.0000 </r>
       <r>    -4.3760     0.0000   222.0000 </r>
       <r>    -4.1291     0.0175   222.0043 </r>
       <r>    -3.8822     2.7056   222.6724 </r>
       <r>    -3.6352     5.1982   223.9560 </r>
       <r>    -3.3883     5.2698   225.2573 </r>
       <r>    -3.1414     6.8818   226.9566 </r>
       <r>    -2.8944    11.1952   229.7211 </r>
       <r>    -2.6475    17.7592   234.1064 </r>
       <r>    -2.4006    26.2944   240.5993 </r>
       <r>    -2.1536    22.5643   246.1711 </r>
       <r>    -1.9067    19.4388   250.9712 </r>
       <r>    -1.6598    19.1309   255.6952 </r>
       <r>    -1.4129    13.1136   258.9333 </r>
       <r>    -1.1659     4.2729   259.9884 </r>
       <r>    -0.9190     0.0468   260.0000 </r>
       <r>    -0.6721     0.0000   260.0000 </r>
       <r>    -0.4251     0.0000   260.0000 </r>
       <r>    -0.1782     0.0000   260.0000 </r>
       <r>     0.0687     0.0000   260.0000 </r>
       <r>     0.3157     0.0000   260.0000 </r>
       <r>     0.5626     0.0000   260.0000 </r>
       <r>     0.8095     0.0013   260.0003 </r>
       <r>     1.0565     0.4411   260.1092 </r>
       <r>     1.3034     2.0136   260.6065 </r>
       <r>     1.5503     9.3673   262.9195 </r>
       <r>     1.7973     8.3057   264.9705 </r>
       <r>     2.0442    15.6574   268.8368 </r>
       <r>     2.2911    21.3152   274.1002 </r>
       <r>     2.5380    28.8420   281.2222 </r>
       <r>     2.7850    27.2527   287.9517 </r>
       <r>     3.0319    26.9801   294.6139 </r>
       <r>     3.2788    36.3578   303.5918 </r>
       <r>     3.5258    37.0984   312.7526 </r>
       <r>     3.7727    43.6522   323.5317 </r>
       <r>     4.0196    53.7553   336.8055 </r>
       <r>     4.2666    64.9428   352.8420 </r>
       <r>     4.5135    65.9248   369.1209 </r>
       <r>     4.7604    57.7444   383.3798 </r>
       <r>     5.0074    58.8282   397.9063 </r>
       <r>     5.2543    52.2507   410.8086 </r>
       <r>     5.5012    40.8343   420.8919 </r>
       <r>     5.7482    31.5679   428.6870 </r>
       <r>     5.9951    29.5572   435.9856 </r>
       <r>     6.2420    24.2961   441.9851 </r>
       <r>     6.4889    19.1043   446.7025 </r>
       <r>     6.7359    15.3715   450.4983 </r>
       <r>     6.9828     6.2973   452.0533 </r>
       <r>     7.2297    10.5861   454.6673 </r>
       <r>     7.4767    15.1752   458.4145 </r>
       <r>     7.7236    19.3983   463.2046 </r>
       <r>     7.9705    19.0462   467.9077 </r>
       <r>     8.2175    16.8885   472.0780 </r>
       <r>     8.4644    18.5217   476.6516 </r>
       <r>     8.7113    23.7449   482.5149 </r>
       <r>     8.9583    27.2837   489.2521 </r>
       <r>     9.2052    22.8892   494.9042 </r>
       <r>     9.4521    26.9850   501.5676 </r>
       <r>     9.6991    30.1141   509.0037 </r>
       <r>     9.9460    42.0528   519.3879 </r>
       <r>    10.1929    50.6808   531.9026 </r>
       <r>    10.4398    56.6349   545.8875 </r>
       <r>    10.6868    57.7221   560.1409 </r>
       <r>    10.9337    64.0335   575.9528 </r>
       <r>    11.1806    64.7480   591.9411 </r>
       <r>    11.4276    61.7063   607.1783 </r>
       <r>    11.6745    56.1807   621.0511 </r>
       <r>    11.9214    11.9103   623.9921 </r>
       <r>    12.1684     0.0320   624.0000 </r>
       <r>    12.4153     0.0000   624.0000 </r>
       <r>    12.6622     0.0000   624.0000 </r>
       <r>    12.9092     0.0000   624.0000 </r>
       <r>    13.1561     0.0000   624.0000 </r>
       <r>    13.4030     0.0000   624.0000 </r>
       <r>    13.6500     0.0000   624.0000 </r>
       <r>    13.8969     0.0000   624.0000 </r>
       <r>    14.1438     0.0000   624.0000 </r>
       <r>    14.3908     0.0000   624.0000 </r>
       <r>    14.6377     0.0000   624.0000 </r>
       <r>    14.8846     0.0000   624.0000 </r>
       <r>    15.1315     0.0000   624.0000 </r>
      </set>
     </set>
    </array>
   </total>
  </dos>
 </calculation>
 <structure name="finalpos" >
  <crystal>
   <varray name="basis" >
    <v>       8.68860999       0.00120885       0.02974364 </v>
    <v>       0.00129372       8.67201404       0.01602698 </v>
    <v>       0.02957598       0.01588569       8.68674791 </v>
   </varray>
   <i name="volume">    654.51703743 </i>
   <varray name="rec_basis" >
    <v>       0.11509455      -0.00001645      -0.00039184 </v>
    <v>      -0.00001532       0.11531386      -0.00021083 </v>
    <v>      -0.00039406      -0.00021270       0.11511961 </v>
   </varray>
  </crystal>
  <varray name="positions" >
   <v>       0.00297100       0.01006685       0.00283661 </v>
   <v>       0.24670627       0.00949874       0.25004394 </v>
   <v>       0.25349305       0.48968510       0.25219424 </v>
   <v>       0.49767878       0.50048787       0.00077301 </v>
   <v>       0.50028697       0.25161452       0.75315443 </v>
   <v>       0.00950314       0.49952095       0.50102863 </v>
   <v>       0.49495471       0.74942026       0.74878200 </v>
   <v>      -0.01075480       0.23663921       0.26320126 </v>
   <v>       0.77275186       0.74891597      -0.00314875 </v>
   <v>       0.02289416       0.26329787       0.75246500 </v>
   <v>       0.76474098       0.26522135       0.47675699 </v>
   <v>       0.00057804       0.73734390       0.75163798 </v>
   <v>       0.25631385       0.50006137       0.75017131 </v>
   <v>       0.26533125       0.26168446      -0.01193753 </v>
   <v>       0.50056934       0.25567018       0.23040860 </v>
   <v>       0.74961796      -0.01306778       0.22191782 </v>
   <v>       0.72626975       0.25264465       0.00242425 </v>
   <v>       0.23687595       0.73306897       0.00639144 </v>
   <v>       0.24440841       0.24674220       0.51498473 </v>
   <v>       0.25306535       0.75408491       0.49259728 </v>
   <v>       0.25010916       0.24920002       0.25073553 </v>
   <v>       0.24896177       0.00639075       0.00255889 </v>
   <v>      -0.00347105       0.24682180       0.00700666 </v>
   <v>       0.73837689       0.23393113       0.24000874 </v>
   <v>       0.75637381       0.00645836       0.00089647 </v>
   <v>       0.49982592       0.00581857       0.25047299 </v>
   <v>       0.00048939       0.50059501       0.25484994 </v>
   <v>       0.49095752       0.75091660      -0.00342009 </v>
   <v>      -0.00256777       0.00259346       0.75227183 </v>
   <v>       0.74745219       0.24890418       0.75309114 </v>
   <v>       0.75186746      -0.00058975       0.50246983 </v>
   <v>       0.49971960       0.25055802       0.50009417 </v>
   <v>       0.50035395       0.00133873       0.74897455 </v>
   <v>      -0.00665579       0.00021248       0.24941889 </v>
   <v>       0.49517946       0.25756090      -0.00313809 </v>
   <v>       0.24783579       0.74988009       0.24836348 </v>
   <v>       0.25064969       0.49843508       0.00405283 </v>
   <v>       0.00972563       0.75251428       0.00364585 </v>
   <v>       0.75221434       0.74701168       0.24902101 </v>
   <v>       0.74486962       0.49567413       0.00535934 </v>
   <v>       0.49504064       0.49168946       0.24953376 </v>
   <v>       0.26029654       0.25039612       0.75154671 </v>
   <v>       0.24997415       0.00207182       0.49295482 </v>
   <v>       0.00503396       0.25295848       0.50924641 </v>
   <v>       0.25004891       0.74836064       0.75274591 </v>
   <v>       0.25135105       0.49876960       0.49828220 </v>
   <v>       0.00358192       0.75143754       0.50205353 </v>
   <v>      -0.00199082       0.49864706       0.74751626 </v>
   <v>       0.74393431       0.74855214       0.74774766 </v>
   <v>       0.75456735       0.49889175       0.50380694 </v>
   <v>       0.49587777       0.74949565       0.50422000 </v>
   <v>       0.50146219       0.50100748       0.75061644 </v>
   <v>       0.50013026       0.00677066       0.00368428 </v>
   <v>      -0.00125435       0.49543356       0.00015391 </v>
   <v>       0.49472639       0.74486389       0.25204873 </v>
   <v>       0.24677004      -0.00318700       0.74517273 </v>
   <v>       0.49102440      -0.00260778       0.49507843 </v>
   <v>       0.75212618      -0.00568177       0.75969594 </v>
   <v>       0.00655669       0.76568734       0.25501538 </v>
   <v>       0.73894727       0.49248558       0.24911681 </v>
   <v>       0.01396285       0.00489865       0.49582653 </v>
   <v>       0.49360778       0.50757647       0.50020771 </v>
   <v>       0.74293058       0.50834321       0.76430790 </v>
   <v>       0.75077101       0.73631307       0.49600448 </v>
  </varray>
 </structure>
</modeling>
