HECN                                    
           1
    11.240000    0.000000    0.000000
     0.000000   11.240000    0.000000
     0.000000    0.000000   11.240000
   Ti   Mo   V    N    C    Nb   W 
   7   6   7  13  19   6   6
Direct configuration=     1
   0.00000000  0.00000000  0.00000000
   0.25000000  0.00000000  0.25000000
   0.25000000  0.50000000  0.25000000
   0.50000000  0.50000000  0.00000000
   0.50000000  0.25000000  0.75000004
   0.00000000  0.50000000  0.50000000
   0.50000000  0.75000004  0.75000004
   0.00000000  0.25000000  0.25000000
   0.75000004  0.75000004  0.00000000
   0.00000000  0.25000000  0.75000004
   0.75000004  0.25000000  0.50000000
   0.00000000  0.75000004  0.75000004
   0.25000000  0.50000000  0.75000004
   0.25000000  0.25000000  0.00000000
   0.50000000  0.25000000  0.25000000
   0.75000004  0.00000000  0.25000000
   0.75000004  0.25000000  0.00000000
   0.25000000  0.75000004  0.00000000
   0.25000000  0.25000000  0.50000000
   0.25000000  0.75000004  0.50000000
   0.25000000  0.25000000  0.25000000
   0.25000000  0.00000000  0.00000000
   0.00000000  0.25000000  0.00000000
   0.75000004  0.25000000  0.25000000
   0.75000004  0.00000000  0.00000000
   0.50000000  0.00000000  0.25000000
   0.00000000  0.50000000  0.25000000
   0.50000000  0.75000004  0.00000000
   0.00000000  0.00000000  0.75000004
   0.75000004  0.25000000  0.75000004
   0.75000004  0.00000000  0.50000000
   0.50000000  0.25000000  0.50000000
   0.50000000  0.00000000  0.75000004
   0.00000000  0.00000000  0.25000000
   0.50000000  0.25000000  0.00000000
   0.25000000  0.75000004  0.25000000
   0.25000000  0.50000000  0.00000000
   0.00000000  0.75000004  0.00000000
   0.75000004  0.75000004  0.25000000
   0.75000004  0.50000000  0.00000000
   0.50000000  0.50000000  0.25000000
   0.25000000  0.25000000  0.75000004
   0.25000000  0.00000000  0.50000000
   0.00000000  0.25000000  0.50000000
   0.25000000  0.75000004  0.75000004
   0.25000000  0.50000000  0.50000000
   0.00000000  0.75000004  0.50000000
   0.00000000  0.50000000  0.75000004
   0.75000004  0.75000004  0.75000004
   0.75000004  0.50000000  0.50000000
   0.50000000  0.75000004  0.50000000
   0.50000000  0.50000000  0.75000004
   0.50000000  0.00000000  0.00000000
   0.00000000  0.50000000  0.00000000
   0.50000000  0.75000004  0.25000000
   0.25000000  0.00000000  0.75000004
   0.50000000  0.00000000  0.50000000
   0.75000004  0.00000000  0.75000004
   0.00000000  0.75000004  0.25000000
   0.75000004  0.50000000  0.25000000
   0.00000000  0.00000000  0.50000000
   0.50000000  0.50000000  0.50000000
   0.75000004  0.50000000  0.75000004
   0.75000004  0.75000004  0.50000000
HECN                                    
           1
     8.071050    0.002237    0.000772
     0.002237    8.083168    0.000930
     0.000772    0.000930    8.068528
   Ti   Mo   V    N    C    Nb   W 
   7   6   7  13  19   6   6
Direct configuration=     2
  -0.00034133 -0.00075140  0.00116700
   0.24904800 -0.00052295  0.25108028
   0.25109056  0.50061711  0.24996361
   0.50004398  0.49887533 -0.00003421
   0.49919332  0.25123652  0.75070808
   0.00008910  0.49981281  0.50098733
   0.49992659  0.74880346  0.74898336
  -0.00032661  0.24755637  0.25205178
   0.75225851  0.74812558 -0.00002189
   0.00186473  0.25169920  0.74794612
   0.75223340  0.25193227  0.49984328
   0.00000912  0.74821805  0.75011456
   0.25004109  0.50011512  0.75007756
   0.25079752  0.25132145 -0.00123815
   0.50022754  0.25119536  0.24884667
   0.75128656 -0.00122696  0.25004266
   0.74905329  0.25124923  0.00016047
   0.24840791  0.74855176 -0.00022313
   0.24858409  0.25011918  0.50125424
   0.24972968  0.74990998  0.50027636
   0.24907509  0.24987949  0.25001298
   0.25127431  0.00001785 -0.00102298
  -0.00009695  0.25119670  0.00002643
   0.75085322  0.25205254  0.25100218
   0.74878134 -0.00041896 -0.00187106
   0.49951663 -0.00159615  0.24989680
  -0.00135887  0.50108025  0.24884427
   0.50053550  0.75138124  0.00098991
  -0.00022471  0.00012089  0.74885240
   0.74994567  0.24993594  0.74918040
   0.75035262 -0.00103912  0.50154477
   0.50080057  0.25017993  0.50062561
   0.50020488  0.00003142  0.75010161
  -0.00004109 -0.00121112  0.25230180
   0.50009336  0.24810065 -0.00020792
   0.24937017  0.75001907  0.24994360
   0.24824047  0.49997435 -0.00061187
  -0.00108919  0.74856213  0.00123897
   0.75058219  0.74773760  0.25127212
   0.75151393  0.50091086  0.00014942
   0.50231136  0.50144245  0.25203854
   0.24888627  0.24923248  0.74996064
   0.24921682  0.00012966  0.50136988
  -0.00125676  0.24781469  0.49997586
   0.24924527  0.75079822  0.75002526
   0.25218646  0.49986830  0.50063214
  -0.00228923  0.75205638  0.49883250
  -0.00131261  0.49993240  0.75140954
   0.75058211  0.74935971  0.74870308
   0.74824759  0.50112410  0.49984756
   0.50222368  0.74932919  0.49875295
   0.50139692  0.49993283  0.74787945
   0.50057611  0.00193187  0.00030836
  -0.00017356  0.50108319 -0.00149584
   0.50021309  0.74867659  0.25152253
   0.24938325 -0.00011335  0.74834296
   0.49813064 -0.00159513  0.49968641
   0.75065075 -0.00180537  0.74991711
  -0.00001697  0.75242881  0.24977475
   0.74791298  0.50185802  0.24966878
   0.00205486  0.00036728  0.49817195
   0.49996394  0.50200269  0.49997206
   0.74991098  0.50233906  0.75038751
   0.75041053  0.74805357  0.50006128
HECN                                    
           1
     8.745529    0.001761    0.000607
     0.001761    8.755068    0.000732
     0.000607    0.000732    8.743544
   Ti   Mo   V    N    C    Nb   W 
   7   6   7  13  19   6   6
Direct configuration=     3
  -0.00024018 -0.00052900  0.00082095
   0.24933017 -0.00036822  0.25075993
   0.25076736  0.50043455  0.24997445
   0.50003085  0.49920819 -0.00002410
   0.49943255  0.25087052  0.75049817
   0.00006270  0.49986825  0.50069458
   0.49994822  0.74915756  0.74928476
  -0.00022995  0.24827964  0.25144333
   0.75158893  0.74868054 -0.00001540
   0.00131209  0.25119638  0.74855522
   0.75157157  0.25136057  0.49988988
   0.00000627  0.74874546  0.75008054
   0.25002892  0.50008105  0.75005458
   0.25056120  0.25093037 -0.00087097
   0.50016016  0.25084155  0.24918868
   0.75090513 -0.00086372  0.25003001
   0.74933402  0.25087943  0.00011290
   0.24887969  0.74898026 -0.00015706
   0.24900382  0.25008384  0.50088232
   0.24980981  0.74993662  0.50019441
   0.24934923  0.24991508  0.25000910
   0.25089656  0.00001264 -0.00071963
  -0.00006811  0.25084252  0.00001863
   0.75060053  0.25144516  0.25070512
   0.74914249 -0.00029513 -0.00131634
   0.49965977 -0.00112379  0.24992733
  -0.00095604  0.50076038  0.24918694
   0.50037692  0.75097253  0.00069646
  -0.00015813  0.00008505  0.74919267
   0.74996176  0.24995487  0.74942342
   0.75024807 -0.00073149  0.50108672
   0.50056330  0.25012676  0.50044015
   0.50014416  0.00002214  0.75007151
  -0.00002894 -0.00085260  0.25161927
   0.50006553  0.24866279 -0.00014633
   0.24955686  0.75001338  0.24996030
   0.24876199  0.49998177 -0.00043050
  -0.00076643  0.74898766  0.00087154
   0.75040949  0.74840729  0.25089487
   0.75106528  0.50064141  0.00010519
   0.50162643  0.50101579  0.25143423
   0.24921632  0.24945955  0.74997226
   0.24944901  0.00009127  0.50096369
  -0.00088443  0.24846136  0.49998291
   0.24946905  0.75056193  0.75001779
   0.25153839  0.49990748  0.50044477
  -0.00161055  0.75144755  0.49917867
  -0.00092351  0.49995235  0.75099158
   0.75040949  0.74954923  0.74908762
   0.74876712  0.50079126  0.49989275
   0.50156447  0.74952788  0.49912274
   0.50098280  0.49995275  0.74850825
   0.50040551  0.00136016  0.00021701
  -0.00012207  0.50076254 -0.00105229
   0.50014986  0.74906835  0.25107106
   0.24956600 -0.00007991  0.74883427
   0.49868459 -0.00112319  0.49977928
   0.75045772 -0.00127099  0.74994166
  -0.00001175  0.75170998  0.24984162
   0.74853175  0.50130793  0.24976699
   0.00144576  0.00025869  0.49871404
   0.49997479  0.50140996  0.49998041
   0.74993758  0.50164679  0.75027270
   0.75028870  0.74862969  0.50004306
HECN                                    
           1
     8.685158    0.001803    0.000622
     0.001803    8.694928    0.000749
     0.000622    0.000749    8.683124
   Ti   Mo   V    N    C    Nb   W 
   7   6   7  13  19   6   6
Direct configuration=     4
  -0.00024854 -0.00054738  0.00084953
   0.24930686 -0.00038101  0.25078639
   0.25079406  0.50044964  0.24997356
   0.50003193  0.49918069 -0.00002494
   0.49941279  0.25090076  0.75051551
   0.00006489  0.49986367  0.50071876
   0.49994643  0.74912830  0.74925986
  -0.00023793  0.24821987  0.25149359
   0.75164424  0.74863468 -0.00001593
   0.00135774  0.25123794  0.74850491
   0.75162625  0.25140782  0.49988603
   0.00000650  0.74870187  0.75008335
   0.25002993  0.50008387  0.75005648
   0.25058072  0.25096269 -0.00090130
   0.50016573  0.25087079  0.24916043
   0.75093663 -0.00089373  0.25003105
   0.74931084  0.25090999  0.00011683
   0.24884072  0.74894485 -0.00016252
   0.24896915  0.25008676  0.50091304
   0.24980319  0.74993442  0.50020117
   0.24932658  0.24991214  0.25000942
   0.25092777  0.00001307 -0.00074468
  -0.00007049  0.25087179  0.00001928
   0.75062141  0.25149536  0.25072966
   0.74911265 -0.00030537 -0.00136216
   0.49964794 -0.00116283  0.24992481
  -0.00098931  0.50078681  0.24915864
   0.50039002  0.75100631  0.00072070
  -0.00016363  0.00008801  0.74916457
   0.74996043  0.24995331  0.74940335
   0.75025671 -0.00075691  0.50112455
   0.50058290  0.25013116  0.50045547
   0.50014917  0.00002291  0.75007399
  -0.00002995 -0.00088222  0.25167565
   0.50006782  0.24861633 -0.00015142
   0.24954144  0.75001385  0.24995892
   0.24871891  0.49998116 -0.00044548
  -0.00079309  0.74895249  0.00090188
   0.75042375  0.74835195  0.25092603
   0.75110234  0.50066368  0.00010884
   0.50168301  0.50105106  0.25148414
   0.24918906  0.24944078  0.74997130
   0.24942983  0.00009444  0.50099724
  -0.00091519  0.24840791  0.49998232
   0.24945056  0.75058145  0.75001840
   0.25159192  0.49990424  0.50046024
  -0.00166661  0.75149786  0.49915008
  -0.00095565  0.49995070  0.75102610
   0.75042375  0.74953356  0.74905586
   0.74872420  0.50081876  0.49988902
   0.50161892  0.74951146  0.49909220
   0.50101701  0.49995111  0.74845631
   0.50041961  0.00140741  0.00022456
  -0.00012632  0.50078904 -0.00108892
   0.50015508  0.74903598  0.25110835
   0.24955090 -0.00008268  0.74879369
   0.49863883 -0.00116220  0.49977161
   0.75047367 -0.00131515  0.74993963
  -0.00001217  0.75176938  0.24983610
   0.74848064  0.50135339  0.24975888
   0.00149608  0.00026766  0.49866927
   0.49997390  0.50145895  0.49997972
   0.74993539  0.50170400  0.75028218
   0.75029876  0.74858208  0.50004456
HECN                                    
           1
     8.664479    0.001818    0.000627
     0.001818    8.674328    0.000756
     0.000627    0.000756    8.662429
   Ti   Mo   V    N    C    Nb   W 
   7   6   7  13  19   6   6
Direct configuration=     5
  -0.00025142 -0.00055372  0.00085939
   0.24929882 -0.00038542  0.25079552
   0.25080327  0.50045485  0.24997325
   0.50003230  0.49917120 -0.00002523
   0.49940597  0.25091119  0.75052149
   0.00006564  0.49986209  0.50072710
   0.49994582  0.74911821  0.74925128
  -0.00024069  0.24819925  0.25151092
   0.75166331  0.74861886 -0.00001612
   0.00137349  0.25125227  0.74848756
   0.75164510  0.25142411  0.49988471
   0.00000658  0.74868684  0.75008432
   0.25003028  0.50008484  0.75005714
   0.25058746  0.25097384 -0.00091176
   0.50016765  0.25088088  0.24915069
   0.75094750 -0.00090409  0.25003141
   0.74930284  0.25092053  0.00011819
   0.24882728  0.74893263 -0.00016440
   0.24895719  0.25008776  0.50092363
   0.24980091  0.74993366  0.50020351
   0.24931877  0.24991113  0.25000953
   0.25093853  0.00001322 -0.00075333
  -0.00007131  0.25088188  0.00001950
   0.75062861  0.25151267  0.25073813
   0.74910236 -0.00030890 -0.00137796
   0.49964386 -0.00117629  0.24992394
  -0.00100079  0.50079593  0.24914887
   0.50039454  0.75101796  0.00072906
  -0.00016552  0.00008903  0.74915487
   0.74995997  0.24995277  0.74939643
   0.75025968 -0.00076568  0.50113760
   0.50058966  0.25013267  0.50046075
   0.50015090  0.00002317  0.75007485
  -0.00003029 -0.00089244  0.25169509
   0.50006862  0.24860031 -0.00015318
   0.24953612  0.75001401  0.24995845
   0.24870405  0.49998094 -0.00045065
  -0.00080229  0.74894036  0.00091235
   0.75042867  0.74833286  0.25093678
   0.75111512  0.50067136  0.00011010
   0.50170253  0.50106322  0.25150136
   0.24917965  0.24943431  0.74997097
   0.24942322  0.00009553  0.50100881
  -0.00092580  0.24838948  0.49998212
   0.24944419  0.75058819  0.75001862
   0.25161039  0.49990313  0.50046558
  -0.00168595  0.75151521  0.49914021
  -0.00096673  0.49995013  0.75103801
   0.75042866  0.74952816  0.74904490
   0.74870940  0.50082824  0.49988773
   0.50163770  0.74950580  0.49908167
   0.50102880  0.49995054  0.74843840
   0.50042447  0.00142371  0.00022716
  -0.00012779  0.50079818 -0.00110156
   0.50015688  0.74902481  0.25112121
   0.24954569 -0.00008363  0.74877969
   0.49862305 -0.00117565  0.49976896
   0.75047916 -0.00133038  0.74993893
  -0.00001232  0.75178987  0.24983420
   0.74846301  0.50136906  0.24975608
   0.00151343  0.00027076  0.49865382
   0.49997359  0.50147584  0.49997948
   0.74993463  0.50172373  0.75028546
   0.75030223  0.74856566  0.50004508
HECN                                    
           1
     8.653745   -0.000867    0.001481
    -0.000868    8.651870   -0.000816
     0.001481   -0.000815    8.645445
   Ti   Mo   V    N    C    Nb   W 
   7   6   7  13  19   6   6
Direct configuration=     6
  -0.00090655  0.00002525  0.00326844
   0.24858305  0.00131566  0.25137805
   0.25279886  0.49867668  0.24991067
   0.49878070  0.49652662  0.00009591
   0.49754678  0.25236866  0.75269396
   0.00267209  0.49889646  0.50090487
   0.49814608  0.74763705  0.74887973
   0.00159684  0.24218593  0.25401914
   0.75559747  0.74624679  0.00010558
   0.00600937  0.25456808  0.74618441
   0.75468936  0.25427485  0.49803318
   0.00199186  0.74540967  0.75116195
   0.25167736  0.49972988  0.75064193
   0.25346814  0.25405171 -0.00243386
   0.49876777  0.25283491  0.24535849
   0.75281041 -0.00190038  0.24850588
   0.74585719  0.25246134  0.00145359
   0.24547285  0.74524669  0.00021049
   0.24682386  0.25030095  0.50227691
   0.24966983  0.74977390  0.49987523
   0.25334274  0.24962027  0.25016246
   0.24772313  0.00042149  0.00352988
  -0.00008544  0.24721134  0.00019144
   0.74617120  0.24792938  0.24687882
   0.75330931  0.00476500  0.00337700
   0.49994400  0.00362895  0.24964281
   0.00216008  0.50151210  0.25288243
   0.49561519  0.74799981 -0.00346603
  -0.00027873  0.00023100  0.75252419
   0.74537067  0.25082162  0.75363627
   0.75170271 -0.00130712  0.49582109
   0.49615154  0.25121122  0.50010327
   0.49991258  0.00035264  0.75047327
  -0.00216001 -0.00086673  0.24910189
   0.50002972  0.25233978  0.00168513
   0.24806262  0.75028083  0.24980594
   0.25211391  0.49963051  0.00240746
   0.00403900  0.75286634  0.00119788
   0.75130347  0.75272471  0.25103290
   0.74713366  0.49565504  0.00050479
   0.49884402  0.49474008  0.24847312
   0.25147550  0.25084848  0.74977544
   0.24726643  0.00049424  0.49613209
   0.00371764  0.25129852  0.50011438
   0.25264783  0.74935495  0.75002477
   0.24969998  0.49937403  0.49750896
   0.00268928  0.74930401  0.49898130
  -0.00068491  0.49966132  0.74663973
   0.74627911  0.74800778  0.74892739
   0.75239805  0.50040046  0.49955906
   0.49711243  0.74782790  0.50383286
   0.50102340  0.49971591  0.75108518
   0.50099863  0.00567917  0.00201344
   0.00132290  0.49963847 -0.00161880
   0.49782340  0.74755511  0.25102733
   0.24856792 -0.00005538  0.74843889
   0.49398062 -0.00179841  0.49822390
   0.75122245 -0.00208393  0.75224220
   0.00283948  0.75675492  0.24900808
   0.74534326  0.50136199  0.24771381
   0.00653487  0.00132390  0.49552723
   0.49668999  0.50328845  0.49971997
   0.74761613  0.50387907  0.75263640
   0.75097757  0.74577073  0.49999646
HECN                                    
           1
     8.649368   -0.001962    0.001829
    -0.001963    8.642711   -0.001457
     0.001830   -0.001455    8.638519
   Ti   Mo   V    N    C    Nb   W 
   7   6   7  13  19   6   6
Direct configuration=     7
  -0.00117409  0.00026210  0.00425297
   0.24829096  0.00201119  0.25161625
   0.25361354  0.49794983  0.24988488
   0.49826926  0.49544508  0.00014527
   0.49678767  0.25296455  0.75358192
   0.00373632  0.49850195  0.50097733
   0.49741098  0.74703114  0.74872787
   0.00234633  0.23972747  0.25504360
   0.75720369  0.74527734  0.00015497
   0.00790296  0.25592435  0.74524328
   0.75593293  0.25544078  0.49727665
   0.00280210  0.74406995  0.75160200
   0.25234989  0.49958499  0.75088081
   0.25464493  0.25531052 -0.00305575
   0.49819652  0.25363346  0.24380901
   0.75357107 -0.00230764  0.24788233
   0.74445029  0.25309105  0.00199956
   0.24410258  0.74373910  0.00036355
   0.24595268  0.25038795  0.50283002
   0.24961629  0.74970853  0.49974107
   0.25498590  0.24950186  0.25022477
   0.24640999  0.00058834  0.00528036
  -0.00009168  0.24571045  0.00026143
   0.74435071  0.24646330  0.24530164
   0.75502767  0.00684063  0.00532032
   0.50006718  0.00559386  0.24952827
   0.00345077  0.50180562  0.25440807
   0.49366332  0.74676475 -0.00518038
  -0.00032507  0.00028929  0.75390107
   0.74349656  0.25117663  0.75536912
   0.75229212 -0.00152873  0.49364841
   0.49433938  0.25165166  0.49995744
   0.49981528  0.00048736  0.75063611
  -0.00302957 -0.00085668  0.24804227
   0.50001423  0.25386901  0.00243663
   0.24746096  0.75038973  0.24974370
   0.25350617  0.49948786  0.00357526
   0.00601643  0.75447232  0.00131466
   0.75166125  0.75452069  0.25107247
   0.74550717  0.49360337  0.00066587
   0.49767607  0.49215392  0.24723528
   0.25241320  0.25142703  0.74969555
   0.24638595  0.00065663  0.49413934
   0.00561416  0.25248864  0.50016846
   0.25395589  0.74885108  0.75002706
   0.24891991  0.49915722  0.49630079
   0.00447565  0.74840037  0.49891602
  -0.00056969  0.49954294  0.74484236
   0.74458444  0.74738555  0.74887943
   0.75390428  0.50022599  0.49942457
   0.49526412  0.74714157  0.50577449
   0.50102105  0.49962017  0.75216677
   0.50123356  0.00741946  0.00274369
   0.00191517  0.49916441 -0.00183031
   0.49687034  0.74695384  0.25098895
   0.24816866 -0.00004397  0.74829967
   0.49208486 -0.00205377  0.49759266
   0.75152578 -0.00239179  0.75318334
   0.00400468  0.75878546  0.24867075
   0.74406939  0.50135856  0.24687937
   0.00858565  0.00175493  0.49424942
   0.49534937  0.50402921  0.49961418
   0.74666954  0.50476029  0.75359737
   0.75125300  0.74462795  0.49997635
HECN                                    
           1
     8.686781    0.002757    0.005923
     0.002757    8.709134    0.002155
     0.005917    0.002153    8.682599
   Ti   Mo   V    N    C    Nb   W 
   7   6   7  13  19   6   6
Direct configuration=     8
  -0.00183032  0.00217370  0.00441624
   0.24790428  0.00397334  0.24988834
   0.25406711  0.49599649  0.24987393
   0.49720573  0.49501601  0.00034808
   0.49621463  0.25311613  0.75481922
   0.00626842  0.49895390  0.49980112
   0.49586524  0.74675222  0.74984538
   0.00216020  0.23738748  0.25614339
   0.76075863  0.74498148  0.00033790
   0.01082809  0.25770113  0.74539864
   0.75827808  0.25685407  0.49547020
   0.00337729  0.74190380  0.75195817
   0.25381381  0.50007562  0.75102001
   0.25726664  0.25761451 -0.00380478
   0.49738703  0.25432568  0.23994482
   0.75381303 -0.00321788  0.24661752
   0.74027832  0.25290284  0.00320336
   0.24225694  0.74015864  0.00054557
   0.24527444  0.25033928  0.50422554
   0.24954770  0.74954257  0.49921763
   0.25571974  0.24927721  0.25022062
   0.24697156  0.00146990  0.00541648
   0.00032538  0.24575559  0.00081790
   0.74362976  0.24558855  0.24488414
   0.75551345  0.00796740  0.00632516
   0.49974755  0.00652736  0.25018749
   0.00299558  0.50146898  0.25381820
   0.49271597  0.74756219 -0.00502171
  -0.00109402  0.00038284  0.75380872
   0.74252011  0.25056950  0.75583767
   0.75206618 -0.00178344  0.49296878
   0.49395380  0.25151842  0.50024510
   0.49985300  0.00111607  0.75057382
  -0.00284420 -0.00083408  0.24833743
   0.49940040  0.25468989  0.00213642
   0.24818551  0.75026624  0.24929214
   0.25231541  0.49903893  0.00376042
   0.00713859  0.75321130  0.00069123
   0.75104902  0.75464670  0.25039812
   0.74636216  0.49332542  0.00110671
   0.49736229  0.49217480  0.24802026
   0.25299554  0.25121419  0.74974895
   0.24772870  0.00061093  0.49480573
   0.00652151  0.25248552  0.50026536
   0.25304177  0.74892323  0.75038702
   0.24958183  0.49917601  0.49647516
   0.00472100  0.74928633  0.49941317
  -0.00099562  0.49926513  0.74532852
   0.74466462  0.74839001  0.74971452
   0.75331836  0.49999314  0.49908387
   0.49461216  0.74806147  0.50481480
   0.50062196  0.49924502  0.75149778
   0.50253785  0.00845801  0.00363254
   0.00185128  0.49878331 -0.00218799
   0.49636375  0.74504626  0.25162854
   0.24728098 -0.00037155  0.74829919
   0.49047617 -0.00330558  0.49720202
   0.75186286 -0.00264929  0.75356395
   0.00508911  0.76033841  0.24913529
   0.74185912  0.50136490  0.24633513
   0.00973979  0.00241474  0.49396158
   0.49460156  0.50477380  0.49953820
   0.74519214  0.50511332  0.75490117
   0.75171172  0.74289259  0.49936078
HECN                                    
           1
     8.682941    0.002272    0.005503
     0.002273    8.702316    0.001784
     0.005497    0.001782    8.678074
   Ti   Mo   V    N    C    Nb   W 
   7   6   7  13  19   6   6
Direct configuration=     9
  -0.00176314  0.00197895  0.00439962
   0.24794383  0.00377339  0.25006486
   0.25402064  0.49619548  0.24987498
   0.49731441  0.49505967  0.00032730
   0.49627326  0.25310071  0.75469284
   0.00600960  0.49890796  0.49992138
   0.49602325  0.74678059  0.74973117
   0.00217915  0.23762586  0.25603097
   0.76039531  0.74501182  0.00031938
   0.01052925  0.25752031  0.74538299
   0.75803840  0.25671017  0.49565485
   0.00331841  0.74212449  0.75192173
   0.25366423  0.50002573  0.75100589
   0.25699880  0.25737994 -0.00372806
   0.49746962  0.25425496  0.24033943
   0.75378819 -0.00312521  0.24674665
   0.74070474  0.25292184  0.00308022
   0.24244537  0.74052325  0.00052674
   0.24534382  0.25034426  0.50408300
   0.24955467  0.74955944  0.49927107
   0.25564473  0.24930013  0.25022107
   0.24691422  0.00138014  0.00540265
   0.00028279  0.24575104  0.00076110
   0.74370337  0.24567759  0.24492670
   0.75546391  0.00785270  0.00622262
   0.49978030  0.00643228  0.25012020
   0.00304206  0.50150322  0.25387840
   0.49281284  0.74748091 -0.00503793
  -0.00101543  0.00037326  0.75381812
   0.74261989  0.25063131  0.75578975
   0.75208923 -0.00175753  0.49303816
   0.49399321  0.25153198  0.50021570
   0.49984918  0.00105203  0.75058021
  -0.00286313 -0.00083636  0.24830730
   0.49946316  0.25460623  0.00216708
   0.24811143  0.75027884  0.24933829
   0.25243709  0.49908460  0.00374143
   0.00702381  0.75333978  0.00075490
   0.75111156  0.75463380  0.25046696
   0.74627478  0.49335380  0.00106172
   0.49739440  0.49217269  0.24794008
   0.25293602  0.25123591  0.74974351
   0.24759150  0.00061569  0.49473774
   0.00642878  0.25248589  0.50025551
   0.25313521  0.74891584  0.75035022
   0.24951419  0.49917414  0.49645739
   0.00469600  0.74919612  0.49936245
  -0.00095209  0.49929343  0.74527884
   0.74465652  0.74828774  0.74962928
   0.75337821  0.50001681  0.49911863
   0.49467879  0.74796769  0.50491281
   0.50066269  0.49928318  0.75156606
   0.50240465  0.00835234  0.00354188
   0.00185777  0.49882211 -0.00215148
   0.49641545  0.74524056  0.25156312
   0.24737168 -0.00033824  0.74829918
   0.49064049 -0.00317817  0.49724178
   0.75182841 -0.00262303  0.75352509
   0.00497839  0.76018031  0.24908797
   0.74208498  0.50136411  0.24639060
   0.00962186  0.00234758  0.49399106
   0.49467802  0.50469791  0.49954596
   0.74534322  0.50507734  0.75476797
   0.75166472  0.74306935  0.49942359
HECN                                    
           1
     8.673802    0.005667    0.009599
     0.005673    8.699625    0.004410
     0.009593    0.004404    8.666482
   Ti   Mo   V    N    C    Nb   W 
   7   6   7  13  19   6   6
Direct configuration=    10
  -0.00229039  0.00354535  0.00425336
   0.24776542  0.00530745  0.24883855
   0.25428865  0.49468588  0.24994647
   0.49676354  0.49505520  0.00044665
   0.49596650  0.25303522  0.75555683
   0.00767829  0.49932595  0.49909316
   0.49502731  0.74671916  0.75038468
   0.00146451  0.23605168  0.25700898
   0.76338525  0.74485475  0.00036541
   0.01286643  0.25890004  0.74567853
   0.76024918  0.25801216  0.49376762
   0.00357709  0.74036478  0.75202209
   0.25461483  0.50044330  0.75103934
   0.25916707  0.25909528 -0.00432009
   0.49708703  0.25472578  0.23720305
   0.75381798 -0.00410387  0.24577685
   0.73713011  0.25263999  0.00412439
   0.24099394  0.73762207  0.00072175
   0.24480866  0.25013122  0.50542052
   0.24954845  0.74951898  0.49882490
   0.25570502  0.24916084  0.25019012
   0.24772825  0.00212942  0.00503151
   0.00064080  0.24610433  0.00130661
   0.74351817  0.24541775  0.24502938
   0.75551212  0.00828298  0.00644694
   0.49951195  0.00667858  0.25066302
   0.00233053  0.50119787  0.25314684
   0.49246991  0.74844156 -0.00447835
  -0.00168336  0.00048899  0.75336677
   0.74226331  0.25012153  0.75565928
   0.75183004 -0.00187777  0.49307793
   0.49426184  0.25129367  0.50052374
   0.49985319  0.00149463  0.75053866
  -0.00259110 -0.00109967  0.24873787
   0.49889647  0.25501946  0.00157805
   0.24847181  0.75012570  0.24889801
   0.25138626  0.49873453  0.00362269
   0.00751470  0.75226125  0.00053897
   0.75079390  0.75417600  0.25001827
   0.74691596  0.49373365  0.00131770
   0.49724237  0.49254175  0.24869482
   0.25317313  0.25107017  0.74985580
   0.24834047  0.00058283  0.49536416
   0.00679275  0.25231455  0.50061560
   0.25212290  0.74901544  0.75069720
   0.25023760  0.49920695  0.49686732
   0.00438170  0.75016761  0.49964611
  -0.00133621  0.49899467  0.74572966
   0.74494498  0.74892258  0.75013281
   0.75281782  0.49984065  0.49899068
   0.49471124  0.74853539  0.50413848
   0.50045802  0.49915103  0.75092980
   0.50339723  0.00884494  0.00414409
   0.00159750  0.49841260 -0.00230977
   0.49611996  0.74400504  0.25196417
   0.24665327 -0.00064980  0.74843335
   0.48976135 -0.00416806  0.49700534
   0.75214039 -0.00293551  0.75368924
   0.00565401  0.76132946  0.24959478
   0.74048240  0.50143774  0.24609908
   0.01062041  0.00288552  0.49403864
   0.49421759  0.50559274  0.49956630
   0.74420731  0.50546422  0.75576313
   0.75202286  0.74162251  0.49898283
HECN                                    
           1
     8.663194    0.009607    0.014353
     0.009619    8.696501    0.007458
     0.014346    0.007447    8.653027
   Ti   Mo   V    N    C    Nb   W 
   7   6   7  13  19   6   6
Direct configuration=    11
  -0.00290361  0.00536421  0.00408311
   0.24755812  0.00708899  0.24741291
   0.25460067  0.49293310  0.25002993
   0.49612344  0.49505022  0.00058566
   0.49560965  0.25295902  0.75656113
   0.00961732  0.49981077  0.49812956
   0.49386984  0.74664806  0.75114475
   0.00063439  0.23422405  0.25814654
   0.76685916  0.74467102  0.00041733
   0.01558110  0.26050072  0.74602023
   0.76281821  0.25952341  0.49157265
   0.00387839  0.73832164  0.75213921
   0.25571908  0.50092764  0.75107756
   0.26168582  0.26108598 -0.00500993
   0.49664403  0.25527367  0.23355807
   0.75385356 -0.00523976  0.24465008
   0.73297649  0.25231402  0.00533996
   0.23930881  0.73425442  0.00095021
   0.24418623  0.24988366  0.50697534
   0.24954149  0.74947217  0.49830639
   0.25577515  0.24899909  0.25015416
   0.24867390  0.00299909  0.00459948
   0.00105630  0.24651415  0.00194028
   0.74330306  0.24511612  0.24514891
   0.75556781  0.00878242  0.00670745
   0.49919976  0.00696446  0.25129393
   0.00150439  0.50084393  0.25229714
   0.49207072  0.74955682 -0.00382818
  -0.00245920  0.00062380  0.75284254
   0.74184932  0.24952989  0.75550803
   0.75152894 -0.00201726  0.49312433
   0.49457388  0.25101676  0.50088168
   0.49985768  0.00200849  0.75049022
  -0.00227515 -0.00140565  0.24923822
   0.49823819  0.25549968  0.00089366
   0.24889082  0.74994790  0.24838618
   0.25016557  0.49832862  0.00348539
   0.00808565  0.75100894  0.00028812
   0.75042527  0.75364481  0.24949716
   0.74766060  0.49417427  0.00161471
   0.49706515  0.49297003  0.24957192
   0.25344863  0.25087760  0.74998621
   0.24921034  0.00054413  0.49609178
   0.00721551  0.25211533  0.50103395
   0.25094650  0.74913140  0.75110097
   0.25107785  0.49924457  0.49734332
   0.00401595  0.75129554  0.49997561
  -0.00178262  0.49864784  0.74625391
   0.74527956  0.74965932  0.75071762
   0.75216688  0.49963643  0.49884236
   0.49474911  0.74919474  0.50323836
   0.50022063  0.49899792  0.75019051
   0.50454989  0.00941618  0.00484324
   0.00129537  0.49793733 -0.00249345
   0.49577698  0.74257062  0.25243086
   0.24581866 -0.00101125  0.74858977
   0.48874051 -0.00531682  0.49673138
   0.75250291 -0.00329848  0.75387995
   0.00643818  0.76266313  0.25018300
   0.73862057  0.50152406  0.24576113
   0.01178031  0.00350958  0.49409320
   0.49368223  0.50663182  0.49958989
   0.74288684  0.50591355  0.75692017
   0.75243988  0.73994273  0.49847090
HECN                                    
           1
     8.680212    0.008722    0.018845
     0.008763    8.685956    0.008517
     0.018863    0.008487    8.650559
   Ti   Mo   V    N    C    Nb   W 
   7   6   7  13  19   6   6
Direct configuration=    12
  -0.00318959  0.00683278  0.00346748
   0.24792103  0.00815120  0.24703752
   0.25475958  0.49188136  0.25030339