  64  64   0   0
  0.1129557E+02  0.8932500E-09  0.9055600E-09  0.8937200E-09  0.5000000E-15
  1.000000000000000E-004
  CAR 
 HECN                                    
     15.29487384    -59.10865265  301      9.37823053      1.00000000
    -59.109  0.0000E+00  0.0000E+00
    -58.861  0.0000E+00  0.0000E+00
    -58.613  0.0000E+00  0.0000E+00
    -58.365  0.0000E+00  0.0000E+00
    -58.117  0.0000E+00  0.0000E+00
    -57.869  0.0000E+00  0.0000E+00
    -57.621  0.0000E+00  0.0000E+00
    -57.373  0.0000E+00  0.0000E+00
    -57.125  0.0000E+00  0.0000E+00
    -56.877  0.0000E+00  0.0000E+00
    -56.629  0.0000E+00  0.0000E+00
    -56.381  0.0000E+00  0.0000E+00
    -56.133  0.3831E-09  0.9501E-10
    -55.884  0.1068E-02  0.2648E-03
    -55.636  0.1596E+00  0.3984E-01
    -55.388  0.3847E+00  0.1353E+00
    -55.140  0.1915E-01  0.1400E+00
    -54.892  0.3664E-06  0.1400E+00
    -54.644  0.0000E+00  0.1400E+00
    -54.396  0.0000E+00  0.1400E+00
    -54.148  0.0000E+00  0.1400E+00
    -53.900  0.0000E+00  0.1400E+00
    -53.652  0.0000E+00  0.1400E+00
    -53.404  0.0000E+00  0.1400E+00
    -53.156  0.0000E+00  0.1400E+00
    -52.908  0.0000E+00  0.1400E+00
    -52.660  0.0000E+00  0.1400E+00
    -52.412  0.0000E+00  0.1400E+00
    -52.164  0.0000E+00  0.1400E+00
    -51.916  0.0000E+00  0.1400E+00
    -51.668  0.0000E+00  0.1400E+00
    -51.420  0.0000E+00  0.1400E+00
    -51.172  0.0000E+00  0.1400E+00
    -50.924  0.0000E+00  0.1400E+00
    -50.676  0.0000E+00  0.1400E+00
    -50.428  0.0000E+00  0.1400E+00
    -50.180  0.0000E+00  0.1400E+00
    -49.932  0.0000E+00  0.1400E+00
    -49.684  0.0000E+00  0.1400E+00
    -49.436  0.0000E+00  0.1400E+00
    -49.188  0.0000E+00  0.1400E+00
    -48.940  0.0000E+00  0.1400E+00
    -48.692  0.0000E+00  0.1400E+00
    -48.444  0.0000E+00  0.1400E+00
    -48.196  0.0000E+00  0.1400E+00
    -47.948  0.0000E+00  0.1400E+00
    -47.700  0.0000E+00  0.1400E+00
    -47.452  0.0000E+00  0.1400E+00
    -47.204  0.0000E+00  0.1400E+00
    -46.956  0.4445E-08  0.1400E+00
    -46.708  0.3599E-02  0.1409E+00
    -46.460  0.2756E+00  0.2092E+00
    -46.212  0.2844E+00  0.2798E+00
    -45.964  0.8908E-03  0.2800E+00
    -45.716  0.1239E-09  0.2800E+00
    -45.468  0.0000E+00  0.2800E+00
    -45.220  0.0000E+00  0.2800E+00
    -44.972  0.0000E+00  0.2800E+00
    -44.724  0.0000E+00  0.2800E+00
    -44.476  0.0000E+00  0.2800E+00
    -44.228  0.0000E+00  0.2800E+00
    -43.980  0.0000E+00  0.2800E+00
    -43.732  0.0000E+00  0.2800E+00
    -43.484  0.0000E+00  0.2800E+00
    -43.236  0.0000E+00  0.2800E+00
    -42.988  0.0000E+00  0.2800E+00
    -42.740  0.0000E+00  0.2800E+00
    -42.492  0.0000E+00  0.2800E+00
    -42.244  0.0000E+00  0.2800E+00
    -41.996  0.0000E+00  0.2800E+00
    -41.748  0.0000E+00  0.2800E+00
    -41.500  0.0000E+00  0.2800E+00
    -41.252  0.0000E+00  0.2800E+00
    -41.004  0.0000E+00  0.2800E+00
    -40.756  0.0000E+00  0.2800E+00
    -40.508  0.0000E+00  0.2800E+00
    -40.260  0.0000E+00  0.2800E+00
    -40.012  0.0000E+00  0.2800E+00
    -39.764  0.0000E+00  0.2800E+00
    -39.516  0.0000E+00  0.2800E+00
    -39.268  0.0000E+00  0.2800E+00
    -39.020  0.0000E+00  0.2800E+00
    -38.772  0.0000E+00  0.2800E+00
    -38.524  0.0000E+00  0.2800E+00
    -38.276  0.0000E+00  0.2800E+00
    -38.028  0.0000E+00  0.2800E+00
    -37.780  0.0000E+00  0.2800E+00
    -37.532  0.0000E+00  0.2800E+00
    -37.284  0.0000E+00  0.2800E+00
    -37.036  0.0000E+00  0.2800E+00
    -36.788  0.0000E+00  0.2800E+00
    -36.540  0.0000E+00  0.2800E+00
    -36.292  0.0000E+00  0.2800E+00
    -36.044  0.0000E+00  0.2800E+00
    -35.796  0.0000E+00  0.2800E+00
    -35.548  0.0000E+00  0.2800E+00
    -35.300  0.0000E+00  0.2800E+00
    -35.052  0.1958E-13  0.2800E+00
    -34.804  0.7973E-05  0.2800E+00
    -34.555  0.3375E-01  0.2884E+00
    -34.307  0.3800E+00  0.3826E+00
    -34.059  0.9359E+00  0.6147E+00
    -33.811  0.1019E+00  0.6400E+00
    -33.563  0.2477E-04  0.6400E+00
    -33.315  0.1171E-12  0.6400E+00
    -33.067  0.0000E+00  0.6400E+00
    -32.819  0.0000E+00  0.6400E+00
    -32.571  0.0000E+00  0.6400E+00
    -32.323  0.0000E+00  0.6400E+00
    -32.075  0.0000E+00  0.6400E+00
    -31.827  0.0000E+00  0.6400E+00
    -31.579  0.0000E+00  0.6400E+00
    -31.331  0.0000E+00  0.6400E+00
    -31.083  0.0000E+00  0.6400E+00
    -30.835  0.0000E+00  0.6400E+00
    -30.587  0.0000E+00  0.6400E+00
    -30.339  0.3134E-16  0.6400E+00
    -30.091  0.2787E-06  0.6400E+00
    -29.843  0.2145E-01  0.6453E+00
    -29.595  0.5082E+00  0.7714E+00
    -29.347  0.1087E+01  0.1041E+01
    -29.099  0.7691E-01  0.1060E+01
    -28.851  0.2464E-05  0.1060E+01
    -28.603  0.6088E-15  0.1060E+01
    -28.355  0.0000E+00  0.1060E+01
    -28.107  0.0000E+00  0.1060E+01
    -27.859  0.0000E+00  0.1060E+01
    -27.611  0.0000E+00  0.1060E+01
    -27.363  0.0000E+00  0.1060E+01
    -27.115  0.0000E+00  0.1060E+01
    -26.867  0.1043E-09  0.1060E+01
    -26.619  0.5822E-03  0.1060E+01
    -26.371  0.1293E+00  0.1092E+01
    -26.123  0.3901E+00  0.1189E+01
    -25.875  0.4646E+00  0.1304E+01
    -25.627  0.3282E+00  0.1386E+01
    -25.379  0.1384E+00  0.1420E+01
    -25.131  0.3735E-03  0.1420E+01
    -24.883  0.3727E-10  0.1420E+01
    -24.635  0.0000E+00  0.1420E+01
    -24.387  0.0000E+00  0.1420E+01
    -24.139  0.0000E+00  0.1420E+01
    -23.891  0.0000E+00  0.1420E+01
    -23.643  0.0000E+00  0.1420E+01
    -23.395  0.1568E-12  0.1420E+01
    -23.147  0.2427E-04  0.1420E+01
    -22.899  0.6523E-01  0.1436E+01
    -22.651  0.7693E+00  0.1627E+01
    -22.403  0.7759E+00  0.1819E+01
    -22.155  0.8287E-01  0.1840E+01
    -21.907  0.1077E-03  0.1840E+01
    -21.659  0.2963E-11  0.1840E+01
    -21.411  0.0000E+00  0.1840E+01
    -21.163  0.0000E+00  0.1840E+01
    -20.915  0.0000E+00  0.1840E+01
    -20.667  0.0000E+00  0.1840E+01
    -20.419  0.0000E+00  0.1840E+01
    -20.171  0.0000E+00  0.1840E+01
    -19.923  0.0000E+00  0.1840E+01
    -19.675  0.0000E+00  0.1840E+01
    -19.427  0.0000E+00  0.1840E+01
    -19.179  0.0000E+00  0.1840E+01
    -18.931  0.0000E+00  0.1840E+01
    -18.683  0.0000E+00  0.1840E+01
    -18.435  0.0000E+00  0.1840E+01
    -18.187  0.0000E+00  0.1840E+01
    -17.939  0.0000E+00  0.1840E+01
    -17.691  0.0000E+00  0.1840E+01
    -17.443  0.0000E+00  0.1840E+01
    -17.195  0.0000E+00  0.1840E+01
    -16.947  0.0000E+00  0.1840E+01
    -16.699  0.0000E+00  0.1840E+01
    -16.451  0.0000E+00  0.1840E+01
    -16.203  0.0000E+00  0.1840E+01
    -15.955  0.0000E+00  0.1840E+01
    -15.707  0.0000E+00  0.1840E+01
    -15.459  0.0000E+00  0.1840E+01
    -15.211  0.0000E+00  0.1840E+01
    -14.963  0.0000E+00  0.1840E+01
    -14.715  0.0000E+00  0.1840E+01
    -14.467  0.0000E+00  0.1840E+01
    -14.219  0.0000E+00  0.1840E+01
    -13.971  0.0000E+00  0.1840E+01
    -13.723  0.0000E+00  0.1840E+01
    -13.474  0.0000E+00  0.1840E+01
    -13.226  0.0000E+00  0.1840E+01
    -12.978  0.0000E+00  0.1840E+01
    -12.730  0.0000E+00  0.1840E+01
    -12.482  0.0000E+00  0.1840E+01
    -12.234  0.0000E+00  0.1840E+01
    -11.986  0.0000E+00  0.1840E+01
    -11.738  0.0000E+00  0.1840E+01
    -11.490  0.0000E+00  0.1840E+01
    -11.242  0.0000E+00  0.1840E+01
    -10.994  0.0000E+00  0.1840E+01
    -10.746  0.0000E+00  0.1840E+01
    -10.498  0.0000E+00  0.1840E+01
    -10.250  0.0000E+00  0.1840E+01
    -10.002  0.0000E+00  0.1840E+01
     -9.754  0.0000E+00  0.1840E+01
     -9.506  0.0000E+00  0.1840E+01
     -9.258  0.0000E+00  0.1840E+01
     -9.010  0.0000E+00  0.1840E+01
     -8.762  0.0000E+00  0.1840E+01
     -8.514  0.0000E+00  0.1840E+01
     -8.266  0.0000E+00  0.1840E+01
     -8.018  0.0000E+00  0.1840E+01
     -7.770  0.8288E-14  0.1840E+01
     -7.522  0.1255E-05  0.1840E+01
     -7.274  0.5252E-02  0.1841E+01
     -7.026  0.5879E-01  0.1856E+01
     -6.778  0.4411E-01  0.1867E+01
     -6.530  0.9724E-01  0.1891E+01
     -6.282  0.1948E+00  0.1939E+01
     -6.034  0.2239E+00  0.1995E+01
     -5.786  0.1442E+00  0.2031E+01
     -5.538  0.2033E+00  0.2081E+01
     -5.290  0.7669E-01  0.2100E+01
     -5.042  0.1815E-03  0.2100E+01
     -4.794  0.1038E-10  0.2100E+01
     -4.546  0.0000E+00  0.2100E+01
     -4.298  0.7646E-13  0.2100E+01
     -4.050  0.4777E-05  0.2100E+01
     -3.802  0.8071E-02  0.2102E+01
     -3.554  0.6089E-01  0.2117E+01
     -3.306  0.2306E-01  0.2123E+01
     -3.058  0.9304E-01  0.2146E+01
     -2.810  0.1249E+00  0.2177E+01
     -2.562  0.2166E+00  0.2231E+01
     -2.314  0.2508E+00  0.2293E+01
     -2.066  0.2486E+00  0.2354E+01
     -1.818  0.2543E+00  0.2417E+01
     -1.570  0.1695E+00  0.2460E+01
     -1.322  0.7257E-01  0.2478E+01
     -1.074  0.9931E-02  0.2480E+01
     -0.826  0.2006E-04  0.2480E+01
     -0.578  0.2683E-11  0.2480E+01
     -0.330  0.0000E+00  0.2480E+01
     -0.082  0.0000E+00  0.2480E+01
      0.166  0.0000E+00  0.2480E+01
      0.414  0.0000E+00  0.2480E+01
      0.662  0.1345E-08  0.2480E+01
      0.910  0.3796E-03  0.2480E+01
      1.158  0.8711E-02  0.2482E+01
      1.406  0.4466E-01  0.2493E+01
      1.654  0.9773E-01  0.2518E+01
      1.902  0.1159E+00  0.2546E+01
      2.150  0.1776E+00  0.2590E+01
      2.398  0.2559E+00  0.2654E+01
      2.646  0.3070E+00  0.2730E+01
      2.894  0.2744E+00  0.2798E+01
      3.142  0.3523E+00  0.2885E+01
      3.390  0.2991E+00  0.2960E+01
      3.638  0.4074E+00  0.3061E+01
      3.886  0.5226E+00  0.3190E+01
      4.134  0.5689E+00  0.3331E+01
      4.382  0.6367E+00  0.3489E+01
      4.630  0.6405E+00  0.3648E+01
      4.878  0.6275E+00  0.3804E+01
      5.126  0.5668E+00  0.3944E+01
      5.374  0.4616E+00  0.4059E+01
      5.622  0.3248E+00  0.4139E+01
      5.870  0.3130E+00  0.4217E+01
      6.118  0.2834E+00  0.4287E+01
      6.366  0.2019E+00  0.4337E+01
      6.614  0.1548E+00  0.4376E+01
      6.862  0.7287E-01  0.4394E+01
      7.110  0.8086E-01  0.4414E+01
      7.358  0.1438E+00  0.4449E+01
      7.607  0.2109E+00  0.4502E+01
      7.855  0.2106E+00  0.4554E+01
      8.103  0.1875E+00  0.4600E+01
      8.351  0.2168E+00  0.4654E+01
      8.599  0.2961E+00  0.4728E+01
      8.847  0.3195E+00  0.4807E+01
      9.095  0.2959E+00  0.4880E+01
      9.343  0.3120E+00  0.4958E+01
      9.591  0.3747E+00  0.5051E+01
      9.839  0.4611E+00  0.5165E+01
     10.087  0.5260E+00  0.5295E+01
     10.335  0.5635E+00  0.5435E+01
     10.583  0.5653E+00  0.5575E+01
     10.831  0.5444E+00  0.5710E+01
     11.079  0.5459E+00  0.5846E+01
     11.327  0.5152E+00  0.5974E+01
     11.575  0.5200E+00  0.6103E+01
     11.823  0.4579E+00  0.6216E+01
     12.071  0.9620E-01  0.6240E+01
     12.319  0.2913E-03  0.6240E+01
     12.567  0.7430E-10  0.6240E+01
     12.815  0.0000E+00  0.6240E+01
     13.063  0.0000E+00  0.6240E+01
     13.311  0.0000E+00  0.6240E+01
     13.559  0.0000E+00  0.6240E+01
     13.807  0.0000E+00  0.6240E+01
     14.055  0.0000E+00  0.6240E+01
     14.303  0.0000E+00  0.6240E+01
     14.551  0.0000E+00  0.6240E+01
     14.799  0.0000E+00  0.6240E+01
     15.047  0.0000E+00  0.6240E+01
     15.295  0.0000E+00  0.6240E+01
