       N       E                     dE             d eps       ncg     rms          rms(c)
DAV:   1     0.667794290326E+04    0.66779E+04   -0.21010E+05  8952   0.147E+03
DAV:   2     0.336291849283E+03   -0.63417E+04   -0.61421E+04  8832   0.623E+02
DAV:   3    -0.650330882386E+03   -0.98662E+03   -0.91520E+03 13896   0.214E+02
DAV:   4    -0.767194871550E+03   -0.11686E+03   -0.11311E+03 14688   0.919E+01
DAV:   5    -0.783724260155E+03   -0.16529E+02   -0.16086E+02 17352   0.297E+01    0.789E+01
RMM:   6    -0.951882783959E+03   -0.16816E+03   -0.26266E+03 11706   0.137E+02    0.130E+02
RMM:   7    -0.646462330446E+03    0.30542E+03   -0.28173E+02 12380   0.498E+01    0.528E+01
RMM:   8    -0.659802466300E+03   -0.13340E+02   -0.93001E+01 13738   0.188E+01    0.522E+01
RMM:   9    -0.643628533082E+03    0.16174E+02   -0.40087E+01 12871   0.165E+01    0.395E+01
RMM:  10    -0.633607263672E+03    0.10021E+02   -0.13413E+01 14171   0.828E+00    0.170E+01
RMM:  11    -0.633370778623E+03    0.23649E+00   -0.54635E+00 13686   0.553E+00    0.219E+01
RMM:  12    -0.632160672305E+03    0.12101E+01   -0.45003E+00 12895   0.526E+00    0.172E+01
RMM:  13    -0.631529888185E+03    0.63078E+00   -0.68346E+00 13398   0.465E+00    0.128E+01
RMM:  14    -0.632272689682E+03   -0.74280E+00   -0.59222E+00 13569   0.415E+00    0.176E+01
RMM:  15    -0.631473001058E+03    0.79969E+00   -0.21902E+00 12227   0.351E+00    0.128E+01
RMM:  16    -0.631210299476E+03    0.26270E+00   -0.12980E+00 12469   0.249E+00    0.104E+01
RMM:  17    -0.630937090702E+03    0.27321E+00   -0.10034E+00 12455   0.253E+00    0.981E+00
RMM:  18    -0.630684844821E+03    0.25225E+00   -0.52269E-01 13050   0.168E+00    0.482E+00
RMM:  19    -0.630629850370E+03    0.54994E-01   -0.36749E-01 13765   0.112E+00    0.375E+00
RMM:  20    -0.630595514977E+03    0.34335E-01   -0.24157E-01 13483   0.942E-01    0.331E+00
RMM:  21    -0.630592523695E+03    0.29913E-02   -0.16359E-01 13662   0.743E-01    0.238E+00
RMM:  22    -0.630582927187E+03    0.95965E-02   -0.96309E-02 12705   0.573E-01    0.118E+00
RMM:  23    -0.630591324389E+03   -0.83972E-02   -0.57096E-02 12987   0.428E-01    0.187E+00
RMM:  24    -0.630582538800E+03    0.87856E-02   -0.38067E-02 12414   0.414E-01    0.126E+00
RMM:  25    -0.630580974137E+03    0.15647E-02   -0.22392E-02 12695   0.275E-01    0.920E-01
RMM:  26    -0.630578418015E+03    0.25561E-02   -0.16636E-02 12977   0.169E-01    0.255E-01
RMM:  27    -0.630579201284E+03   -0.78327E-03   -0.96782E-03 13341   0.133E-01    0.367E-01
RMM:  28    -0.630579154748E+03    0.46536E-04   -0.75270E-03 12675   0.966E-02    0.678E-02
RMM:  29    -0.630579454725E+03   -0.29998E-03   -0.39164E-03 12401   0.765E-02    0.538E-02
RMM:  30    -0.630579748109E+03   -0.29338E-03   -0.33707E-03  9813   0.543E-02    0.300E-02
RMM:  31    -0.630579886757E+03   -0.13865E-03   -0.16012E-03  8852   0.468E-02    0.219E-02
RMM:  32    -0.630580080260E+03   -0.19350E-03   -0.20271E-03  7913   0.328E-02    0.944E-03
RMM:  33    -0.630580127985E+03   -0.47726E-04   -0.55286E-04  7468   0.268E-02    0.461E-03
RMM:  34    -0.630580169401E+03   -0.41416E-04   -0.42808E-04  7293   0.224E-02    0.355E-03
RMM:  35    -0.630580185067E+03   -0.15666E-04   -0.16336E-04  6946   0.188E-02    0.199E-03
RMM:  36    -0.630580199848E+03   -0.14781E-04   -0.15313E-04  6774   0.171E-02    0.187E-03
RMM:  37    -0.630580205382E+03   -0.55333E-05   -0.59159E-05  6606   0.125E-02
   1 F= -.63058021E+03 E0= -.63043857E+03  d E =-.630580E+03
       N       E                     dE             d eps       ncg     rms          rms(c)
DAV:   1    -0.900197796280E+03   -0.26962E+03   -0.84391E+03 12384   0.432E+02    0.117E+02
RMM:   2    -0.925812608516E+03   -0.25615E+02   -0.25637E+03  9805   0.203E+02    0.998E+01
RMM:   3    -0.678696837921E+03    0.24712E+03   -0.21008E+02 11556   0.564E+01    0.637E+01
RMM:   4    -0.650116007223E+03    0.28581E+02   -0.99118E+01 11694   0.344E+01    0.412E+01
RMM:   5    -0.640681990273E+03    0.94340E+01   -0.10478E+02 11023   0.337E+01    0.472E+01
RMM:   6    -0.621062028675E+03    0.19620E+02   -0.29402E+01 11300   0.202E+01    0.165E+01
RMM:   7    -0.621577571326E+03   -0.51554E+00   -0.12948E+01 12529   0.953E+00    0.195E+01
RMM:   8    -0.619344556820E+03    0.22330E+01   -0.44244E+00 12485   0.716E+00    0.105E+01
RMM:   9    -0.619178308584E+03    0.16625E+00   -0.25430E+00 13684   0.377E+00    0.766E+00
RMM:  10    -0.619190426917E+03   -0.12118E-01   -0.16279E+00 13840   0.317E+00    0.560E+00
RMM:  11    -0.619197137698E+03   -0.67108E-02   -0.69062E-01 14412   0.227E+00    0.464E+00
RMM:  12    -0.619281380689E+03   -0.84243E-01   -0.54874E-01 12741   0.213E+00    0.544E+00
RMM:  13    -0.619208661494E+03    0.72719E-01   -0.38662E-01 13821   0.184E+00    0.263E+00
RMM:  14    -0.619321879958E+03   -0.11322E+00   -0.33684E-01 14661   0.149E+00    0.381E+00
RMM:  15    -0.619279809011E+03    0.42071E-01   -0.20422E-01 13838   0.140E+00    0.177E+00
RMM:  16    -0.619297106750E+03   -0.17298E-01   -0.16517E-01 14567   0.101E+00    0.186E+00
RMM:  17    -0.619285050106E+03    0.12057E-01   -0.10715E-01 14695   0.797E-01    0.793E-01
RMM:  18    -0.619290644954E+03   -0.55948E-02   -0.73052E-02 14868   0.634E-01    0.955E-01
RMM:  19    -0.619291189701E+03   -0.54475E-03   -0.46843E-02 14774   0.574E-01    0.794E-01
RMM:  20    -0.619289743464E+03    0.14462E-02   -0.28522E-02 14752   0.399E-01    0.358E-01
RMM:  21    -0.619289888405E+03   -0.14494E-03   -0.15817E-02 14448   0.313E-01    0.285E-01
RMM:  22    -0.619290151636E+03   -0.26323E-03   -0.98229E-03 14913   0.230E-01    0.175E-01
RMM:  23    -0.619290611137E+03   -0.45950E-03   -0.71462E-03 14801   0.192E-01    0.574E-02
RMM:  24    -0.619291029437E+03   -0.41830E-03   -0.44931E-03 14025   0.156E-01    0.737E-02
RMM:  25    -0.619291309815E+03   -0.28038E-03   -0.33865E-03 13161   0.108E-01    0.501E-02
RMM:  26    -0.619291431347E+03   -0.12153E-03   -0.16146E-03 12755   0.878E-02    0.166E-02
RMM:  27    -0.619291534746E+03   -0.10340E-03   -0.11355E-03 12189   0.728E-02    0.149E-02
RMM:  28    -0.619291602896E+03   -0.68150E-04   -0.73251E-04 11298   0.598E-02    0.189E-02
RMM:  29    -0.619291655216E+03   -0.52320E-04   -0.51286E-04 10868   0.494E-02    0.577E-03
RMM:  30    -0.619291680149E+03   -0.24933E-04   -0.27545E-04 10739   0.415E-02    0.878E-03
RMM:  31    -0.619291701108E+03   -0.20959E-04   -0.19972E-04 10737   0.298E-02    0.321E-03
RMM:  32    -0.619291712308E+03   -0.11201E-04   -0.11814E-04 10235   0.264E-02    0.305E-03
RMM:  33    -0.619291720762E+03   -0.84537E-05   -0.76848E-05  9404   0.219E-02
   2 F= -.61929172E+03 E0= -.61920034E+03  d E =0.112885E+02
       N       E                     dE             d eps       ncg     rms          rms(c)
DAV:   1    -0.792096879993E+03   -0.17281E+03   -0.33843E+03 12024   0.254E+02    0.132E+02
RMM:   2    -0.132913681778E+04   -0.53704E+03   -0.12523E+03 11881   0.928E+01    0.118E+02
RMM:   3    -0.754555624097E+03    0.57458E+03   -0.38582E+02 12189   0.760E+01    0.734E+01
RMM:   4    -0.690137621926E+03    0.64418E+02   -0.36250E+02 10320   0.719E+01    0.655E+01
RMM:   5    -0.654884551788E+03    0.35253E+02   -0.74149E+01 11698   0.251E+01    0.348E+01
RMM:   6    -0.650527769254E+03    0.43568E+01   -0.19655E+01 11634   0.137E+01    0.411E+01
RMM:   7    -0.644067388643E+03    0.64604E+01   -0.12922E+01 11599   0.992E+00    0.249E+01
RMM:   8    -0.641765150936E+03    0.23022E+01   -0.56254E+00 10996   0.906E+00    0.230E+01
RMM:   9    -0.640708236796E+03    0.10569E+01   -0.40189E+00 12614   0.504E+00    0.200E+01
RMM:  10    -0.638132755516E+03    0.25755E+01   -0.24243E+00 12216   0.449E+00    0.861E+00
RMM:  11    -0.638928607560E+03   -0.79585E+00   -0.37505E+00 12205   0.507E+00    0.142E+01
RMM:  12    -0.638223154663E+03    0.70545E+00   -0.10714E+00 12757   0.284E+00    0.882E+00
RMM:  13    -0.637755609230E+03    0.46755E+00   -0.61707E-01 12543   0.228E+00    0.387E+00
RMM:  14    -0.637744117958E+03    0.11491E-01   -0.45273E-01 14411   0.154E+00    0.302E+00
RMM:  15    -0.637736561768E+03    0.75562E-02   -0.17439E-01 14579   0.987E-01    0.257E+00
RMM:  16    -0.637728247055E+03    0.83147E-02   -0.93559E-02 13391   0.895E-01    0.220E+00
RMM:  17    -0.637748409718E+03   -0.20163E-01   -0.88864E-02 13918   0.725E-01    0.233E+00
RMM:  18    -0.637793494668E+03   -0.45085E-01   -0.89514E-02 14110   0.613E-01    0.301E+00
RMM:  19    -0.637827773665E+03   -0.34279E-01   -0.63236E-02 13901   0.663E-01    0.375E+00
RMM:  20    -0.637754812016E+03    0.72962E-01   -0.89504E-02 12860   0.841E-01    0.139E+00
RMM:  21    -0.637757289480E+03   -0.24775E-02   -0.69752E-02 13989   0.592E-01    0.145E+00
RMM:  22    -0.637755921549E+03    0.13679E-02   -0.41465E-02 14159   0.477E-01    0.120E+00
RMM:  23    -0.637752995539E+03    0.29260E-02   -0.20814E-02 13769   0.298E-01    0.992E-01
RMM:  24    -0.637747296219E+03    0.56993E-02   -0.13591E-02 14013   0.274E-01    0.539E-01
RMM:  25    -0.637745322829E+03    0.19734E-02   -0.11410E-02 13390   0.258E-01    0.143E-01
RMM:  26    -0.637745957525E+03   -0.63470E-03   -0.64546E-03 13067   0.173E-01    0.176E-01
RMM:  27    -0.637746032731E+03   -0.75206E-04   -0.31055E-03 11666   0.154E-01    0.931E-02
RMM:  28    -0.637746181317E+03   -0.14859E-03   -0.23760E-03 12172   0.815E-02    0.846E-02
RMM:  29    -0.637746215589E+03   -0.34272E-04   -0.11894E-03 12046   0.736E-02    0.267E-02
RMM:  30    -0.637746275028E+03   -0.59439E-04   -0.70912E-04 11804   0.559E-02    0.226E-02
RMM:  31    -0.637746312346E+03   -0.37318E-04   -0.45505E-04 11099   0.442E-02    0.112E-02
RMM:  32    -0.637746342373E+03   -0.30027E-04   -0.32996E-04 10423   0.353E-02    0.789E-03
RMM:  33    -0.637746359407E+03   -0.17034E-04   -0.20036E-04 10007   0.315E-02    0.116E-02
RMM:  34    -0.637746370828E+03   -0.11421E-04   -0.13645E-04  9712   0.245E-02    0.502E-03
RMM:  35    -0.637746378124E+03   -0.72964E-05   -0.89081E-05  9352   0.204E-02
   3 F= -.63774638E+03 E0= -.63762834E+03  d E =-.716617E+01
       N       E                     dE             d eps       ncg     rms          rms(c)
DAV:   1    -0.637897054886E+03   -0.15068E+00   -0.31077E+00 12768   0.783E+00    0.344E+00
RMM:   2    -0.639150248464E+03   -0.12532E+01   -0.21060E+00 10535   0.535E+00    0.137E+01
RMM:   3    -0.638183881042E+03    0.96637E+00   -0.60430E-01 10504   0.337E+00    0.873E+00
RMM:   4    -0.637810756701E+03    0.37312E+00   -0.16008E-01 10778   0.146E+00    0.254E+00
RMM:   5    -0.637791145418E+03    0.19611E-01   -0.51520E-02 11597   0.771E-01    0.188E+00
RMM:   6    -0.637798696753E+03   -0.75513E-02   -0.43016E-02 11199   0.606E-01    0.221E+00
RMM:   7    -0.637772139516E+03    0.26557E-01   -0.20672E-02 11367   0.496E-01    0.101E+00
RMM:   8    -0.637770780978E+03    0.13585E-02   -0.86833E-03 11164   0.302E-01    0.944E-01
RMM:   9    -0.637769691845E+03    0.10891E-02   -0.59953E-03 11730   0.237E-01    0.754E-01
RMM:  10    -0.637767268715E+03    0.24231E-02   -0.24750E-03 11394   0.167E-01    0.399E-01
RMM:  11    -0.637766892039E+03    0.37668E-03   -0.12680E-03 11139   0.110E-01    0.249E-01
RMM:  12    -0.637766715188E+03    0.17685E-03   -0.61978E-04 11615   0.669E-02    0.165E-01
RMM:  13    -0.637766655679E+03    0.59509E-04   -0.27243E-04 11015   0.502E-02    0.104E-01
RMM:  14    -0.637766702121E+03   -0.46442E-04   -0.20854E-04 10315   0.359E-02    0.109E-01
RMM:  15    -0.637766680731E+03    0.21390E-04   -0.10972E-04  9174   0.288E-02    0.571E-02
RMM:  16    -0.637766751645E+03   -0.70914E-04   -0.10340E-04  9297   0.298E-02    0.959E-02
RMM:  17    -0.637766747215E+03    0.44295E-05   -0.83281E-05  8487   0.296E-02
   4 F= -.63776675E+03 E0= -.63764968E+03  d E =-.718654E+01
       N       E                     dE             d eps       ncg     rms          rms(c)
DAV:   1    -0.633017212499E+03    0.47495E+01   -0.84477E+02  9720   0.110E+02    0.636E+00
RMM:   2    -0.643675053128E+03   -0.10658E+02   -0.85413E+01 12725   0.280E+01    0.231E+01
RMM:   3    -0.640892885970E+03    0.27822E+01   -0.76832E+00 11407   0.113E+01    0.972E+00
RMM:   4    -0.640853601120E+03    0.39285E-01   -0.30046E+00 12369   0.489E+00    0.904E+00
RMM:   5    -0.640605762557E+03    0.24784E+00   -0.97558E-01 11783   0.299E+00    0.671E+00
RMM:   6    -0.640424827426E+03    0.18094E+00   -0.59799E-01 12824   0.188E+00    0.409E+00
RMM:   7    -0.640458497264E+03   -0.33670E-01   -0.51910E-01 13025   0.145E+00    0.503E+00
RMM:   8    -0.640436991486E+03    0.21506E-01   -0.30934E-01 11434   0.176E+00    0.494E+00
RMM:   9    -0.640326674455E+03    0.11032E+00   -0.21420E-01 12249   0.128E+00    0.189E+00
RMM:  10    -0.640325870653E+03    0.80380E-03   -0.11262E-01 13355   0.730E-01    0.207E+00
RMM:  11    -0.640315905861E+03    0.99648E-02   -0.60306E-02 13089   0.553E-01    0.152E+00
RMM:  12    -0.640312639621E+03    0.32662E-02   -0.41464E-02 13232   0.421E-01    0.101E+00
RMM:  13    -0.640311067080E+03    0.15725E-02   -0.25316E-02 13609   0.305E-01    0.754E-01
RMM:  14    -0.640309119582E+03    0.19475E-02   -0.13499E-02 13609   0.227E-01    0.358E-01
RMM:  15    -0.640310581097E+03   -0.14615E-02   -0.91528E-03 13431   0.172E-01    0.506E-01
RMM:  16    -0.640309713459E+03    0.86764E-03   -0.48490E-03 12774   0.131E-01    0.203E-01
RMM:  17    -0.640310119439E+03   -0.40598E-03   -0.31934E-03 12711   0.981E-02    0.252E-01
RMM:  18    -0.640310079693E+03    0.39746E-04   -0.20921E-03 12867   0.852E-02    0.125E-01
RMM:  19    -0.640310230512E+03   -0.15082E-03   -0.16020E-03 12470   0.667E-02    0.126E-01
RMM:  20    -0.640310186940E+03    0.43571E-04   -0.80844E-04 11804   0.538E-02    0.409E-02
RMM:  21    -0.640310241380E+03   -0.54439E-04   -0.61430E-04 10496   0.386E-02    0.590E-02
RMM:  22    -0.640310244566E+03   -0.31866E-05   -0.31319E-04  9836   0.343E-02    0.246E-02
RMM:  23    -0.640310276671E+03   -0.32105E-04   -0.35877E-04 10188   0.269E-02    0.167E-02
RMM:  24    -0.640310285938E+03   -0.92669E-05   -0.10794E-04  7554   0.258E-02    0.247E-02
RMM:  25    -0.640310291655E+03   -0.57170E-05   -0.11017E-04  7260   0.186E-02    0.806E-03
RMM:  26    -0.640310295948E+03   -0.42930E-05   -0.61936E-05  6948   0.164E-02
   5 F= -.64031030E+03 E0= -.64019872E+03  d E =-.254355E+01
       N       E                     dE             d eps       ncg     rms          rms(c)
DAV:   1    -0.640310150650E+03    0.14101E-03   -0.21835E-02 10968   0.556E-01    0.345E-02
RMM:   2    -0.640310489389E+03   -0.33874E-03   -0.24929E-03 12656   0.156E-01    0.161E-01
RMM:   3    -0.640310367801E+03    0.12159E-03   -0.23037E-04  9936   0.558E-02    0.394E-02
RMM:   4    -0.640310375403E+03   -0.76023E-05   -0.87612E-05  7735   0.298E-02
   6 F= -.64031038E+03 E0= -.64019886E+03  d E =-.254363E+01
       N       E                     dE             d eps       ncg     rms          rms(c)
DAV:   1    -0.641286484795E+03   -0.97612E+00   -0.25052E+02 12408   0.902E+01    0.200E+01
RMM:   2    -0.679716002996E+03   -0.38430E+02   -0.82935E+01 11961   0.304E+01    0.516E+01
RMM:   3    -0.642939739199E+03    0.36776E+02   -0.20053E+01 10697   0.192E+01    0.175E+01
RMM:   4    -0.641876128470E+03    0.10636E+01   -0.52727E+00 12392   0.659E+00    0.130E+01
RMM:   5    -0.641914218017E+03   -0.38090E-01   -0.20005E+00 11522   0.446E+00    0.137E+01
RMM:   6    -0.640908481551E+03    0.10057E+01   -0.90860E-01 10753   0.337E+00    0.527E+00
RMM:   7    -0.641040719610E+03   -0.13224E+00   -0.57054E-01 11551   0.216E+00    0.760E+00
RMM:   8    -0.640826698486E+03    0.21402E+00   -0.31030E-01 11214   0.185E+00    0.420E+00
RMM:   9    -0.640761012927E+03    0.65686E-01   -0.20725E-01 12367   0.119E+00    0.246E+00
RMM:  10    -0.640782934786E+03   -0.21922E-01   -0.10921E-01 12366   0.101E+00    0.337E+00
RMM:  11    -0.640729309436E+03    0.53625E-01   -0.50446E-02 12272   0.727E-01    0.102E+00
RMM:  12    -0.640733222728E+03   -0.39133E-02   -0.43421E-02 14564   0.416E-01    0.109E+00
RMM:  13    -0.640727446289E+03    0.57764E-02   -0.20409E-02 14275   0.335E-01    0.422E-01
RMM:  14    -0.640729975969E+03   -0.25297E-02   -0.14353E-02 14478   0.238E-01    0.699E-01
RMM:  15    -0.640729106504E+03    0.86946E-03   -0.74453E-03 14067   0.205E-01    0.349E-01
RMM:  16    -0.640729631954E+03   -0.52545E-03   -0.55516E-03 14115   0.133E-01    0.335E-01
RMM:  17    -0.640730100754E+03   -0.46880E-03   -0.33836E-03 13541   0.146E-01    0.327E-01
RMM:  18    -0.640730074240E+03    0.26515E-04   -0.26429E-03 13510   0.110E-01    0.199E-01
RMM:  19    -0.640730451404E+03   -0.37716E-03   -0.20765E-03 13619   0.107E-01    0.185E-01
RMM:  20    -0.640730378437E+03    0.72967E-04   -0.15759E-03 13176   0.856E-02    0.936E-02
RMM:  21    -0.640730376400E+03    0.20372E-05   -0.85632E-04 12568   0.702E-02    0.515E-02
RMM:  22    -0.640730435281E+03   -0.58881E-04   -0.69232E-04 12120   0.506E-02    0.527E-02
RMM:  23    -0.640730452010E+03   -0.16729E-04   -0.37211E-04 11669   0.451E-02    0.276E-02
RMM:  24    -0.640730478042E+03   -0.26033E-04   -0.29647E-04 11318   0.328E-02    0.291E-02
RMM:  25    -0.640730486772E+03   -0.87300E-05   -0.15120E-04 10474   0.298E-02    0.180E-02
RMM:  26    -0.640730492402E+03   -0.56299E-05   -0.11431E-04  9885   0.220E-02    0.751E-03
RMM:  27    -0.640730496786E+03   -0.43840E-05   -0.83902E-05  9552   0.208E-02
   7 F= -.64073050E+03 E0= -.64061799E+03  d E =-.420121E+00
       N       E                     dE             d eps       ncg     rms          rms(c)
DAV:   1    -0.640753268673E+03   -0.22776E-01   -0.10924E+01 12216   0.197E+01    0.399E+00
RMM:   2    -0.642636338001E+03   -0.18831E+01   -0.44924E+00 10940   0.816E+00    0.154E+01
RMM:   3    -0.641156520605E+03    0.14798E+01   -0.10400E+00 10825   0.412E+00    0.823E+00
RMM:   4    -0.640815113010E+03    0.34141E+00   -0.24954E-01 11193   0.167E+00    0.273E+00
RMM:   5    -0.640798351366E+03    0.16762E-01   -0.87454E-02 11881   0.976E-01    0.218E+00
RMM:   6    -0.640792536971E+03    0.58144E-02   -0.49371E-02 11090   0.710E-01    0.217E+00
RMM:   7    -0.640769588586E+03    0.22948E-01   -0.25929E-02 10913   0.552E-01    0.115E+00
RMM:   8    -0.640770196568E+03   -0.60798E-03   -0.17178E-02 11447   0.408E-01    0.118E+00
RMM:   9    -0.640767000470E+03    0.31961E-02   -0.10626E-02 11433   0.339E-01    0.942E-01
RMM:  10    -0.640763609984E+03    0.33905E-02   -0.55461E-03 11906   0.239E-01    0.465E-01
RMM:  11    -0.640763530210E+03    0.79775E-04   -0.35937E-03 12745   0.151E-01    0.395E-01
RMM:  12    -0.640762723866E+03    0.80634E-03   -0.16979E-03 12558   0.976E-02    0.130E-01
RMM:  13    -0.640762868572E+03   -0.14471E-03   -0.95772E-04 12579   0.693E-02    0.173E-01
RMM:  14    -0.640762807500E+03    0.61072E-04   -0.53238E-04 11588   0.523E-02    0.871E-02
RMM:  15    -0.640762856816E+03   -0.49316E-04   -0.33919E-04 11890   0.376E-02    0.889E-02
RMM:  16    -0.640762899664E+03   -0.42847E-04   -0.22443E-04 10780   0.348E-02    0.802E-02
RMM:  17    -0.640762924215E+03   -0.24552E-04   -0.15287E-04  9589   0.342E-02    0.796E-02
RMM:  18    -0.640762945049E+03   -0.20833E-04   -0.13343E-04 10200   0.308E-02    0.444E-02
RMM:  19    -0.640762952553E+03   -0.75044E-05   -0.10515E-04 10166   0.249E-02    0.318E-02
RMM:  20    -0.640762954969E+03   -0.24158E-05   -0.59902E-05  8029   0.215E-02
   8 F= -.64076295E+03 E0= -.64065067E+03  d E =-.452580E+00
       N       E                     dE             d eps       ncg     rms          rms(c)
DAV:   1    -0.636622215626E+03    0.41407E+01   -0.22758E+02 12552   0.973E+01    0.762E+00
RMM:   2    -0.648626920387E+03   -0.12005E+02   -0.68883E+01 12082   0.244E+01    0.287E+01
RMM:   3    -0.642202773379E+03    0.64241E+01   -0.72134E+00 10841   0.104E+01    0.137E+01
RMM:   4    -0.641359332670E+03    0.84344E+00   -0.24678E+00 12229   0.392E+00    0.486E+00
RMM:   5    -0.641319948570E+03    0.39384E-01   -0.51933E-01 11819   0.213E+00    0.527E+00
RMM:   6    -0.641194136510E+03    0.12581E+00   -0.20779E-01 11199   0.152E+00    0.344E+00
RMM:   7    -0.641156035883E+03    0.38101E-01   -0.15502E-01 11968   0.999E-01    0.262E+00
RMM:   8    -0.641225777201E+03   -0.69741E-01   -0.14726E-01 11001   0.126E+00    0.449E+00
RMM:   9    -0.641121240088E+03    0.10454E+00   -0.98981E-02 11193   0.109E+00    0.171E+00
RMM:  10    -0.641110004892E+03    0.11235E-01   -0.52190E-02 13295   0.541E-01    0.807E-01
RMM:  11    -0.641112210947E+03   -0.22061E-02   -0.23863E-02 13900   0.331E-01    0.918E-01
RMM:  12    -0.641108958613E+03    0.32523E-02   -0.11033E-02 13212   0.247E-01    0.393E-01
RMM:  13    -0.641109606713E+03   -0.64810E-03   -0.73284E-03 13878   0.182E-01    0.401E-01
RMM:  14    -0.641109250785E+03    0.35593E-03   -0.43095E-03 14026   0.120E-01    0.197E-01
RMM:  15    -0.641109915116E+03   -0.66433E-03   -0.23512E-03 13140   0.116E-01    0.333E-01
RMM:  16    -0.641109739149E+03    0.17597E-03   -0.18434E-03 12797   0.911E-02    0.149E-01
RMM:  17    -0.641109876230E+03   -0.13708E-03   -0.11063E-03 13007   0.730E-02    0.144E-01
RMM:  18    -0.641109924864E+03   -0.48635E-04   -0.96438E-04 12966   0.594E-02    0.607E-02
RMM:  19    -0.641109991783E+03   -0.66919E-04   -0.51610E-04 12436   0.569E-02    0.822E-02
RMM:  20    -0.641109982297E+03    0.94853E-05   -0.38571E-04 11756   0.415E-02    0.317E-02
RMM:  21    -0.641110003617E+03   -0.21319E-04   -0.23628E-04 10995   0.344E-02    0.336E-02
RMM:  22    -0.641110011374E+03   -0.77573E-05   -0.15274E-04  9601   0.275E-02    0.165E-02
RMM:  23    -0.641110021800E+03   -0.10426E-04   -0.11009E-04  8825   0.235E-02    0.661E-03
RMM:  24    -0.641110027759E+03   -0.59585E-05   -0.58098E-05  7965   0.202E-02
   9 F= -.64111003E+03 E0= -.64100426E+03  d E =-.347073E+00
       N       E                     dE             d eps       ncg     rms          rms(c)
DAV:   1    -0.641109935044E+03    0.86757E-04   -0.58344E-03 13440   0.500E-01    0.385E-02
RMM:   2    -0.641110193430E+03   -0.25839E-03   -0.15630E-03 13093   0.109E-01    0.143E-01
RMM:   3    -0.641110090191E+03    0.10324E-03   -0.16182E-04  8241   0.605E-02    0.863E-02
RMM:   4    -0.641110056534E+03    0.33657E-04   -0.55866E-05  7377   0.276E-02    0.265E-02
RMM:   5    -0.641110058505E+03   -0.19710E-05   -0.20014E-05  5521   0.230E-02
  10 F= -.64111006E+03 E0= -.64100425E+03  d E =-.347104E+00
       N       E                     dE             d eps       ncg     rms          rms(c)
DAV:   1    -0.638346609090E+03    0.27634E+01   -0.94390E+01  9576   0.661E+01    0.273E+00
RMM:   2    -0.641469839324E+03   -0.31232E+01   -0.29660E+01 13487   0.151E+01    0.734E+00
RMM:   3    -0.641340670917E+03    0.12917E+00   -0.26142E+00 10958   0.522E+00    0.314E+00
RMM:   4    -0.641388656614E+03   -0.47986E-01   -0.48853E-01 12308   0.192E+00    0.340E+00
RMM:   5    -0.641331503976E+03    0.57153E-01   -0.11839E-01 12044   0.986E-01    0.136E+00
RMM:   6    -0.641328196441E+03    0.33075E-02   -0.52109E-02 13405   0.451E-01    0.111E+00
RMM:   7    -0.641327910452E+03    0.28599E-03   -0.26365E-02 12797   0.365E-01    0.117E+00
RMM:   8    -0.641324122064E+03    0.37884E-02   -0.24830E-02 12196   0.389E-01    0.106E+00
RMM:   9    -0.641319710891E+03    0.44112E-02   -0.17428E-02 12145   0.330E-01    0.634E-01
RMM:  10    -0.641320160873E+03   -0.44998E-03   -0.90673E-03 11760   0.248E-01    0.684E-01
RMM:  11    -0.641318168146E+03    0.19927E-02   -0.42022E-03 11404   0.183E-01    0.288E-01
RMM:  12    -0.641318260431E+03   -0.92285E-04   -0.29483E-03 11587   0.116E-01    0.297E-01
RMM:  13    -0.641317809584E+03    0.45085E-03   -0.16949E-03 11683   0.892E-02    0.114E-01
RMM:  14    -0.641318022176E+03   -0.21259E-03   -0.10773E-03 11703   0.692E-02    0.200E-01
RMM:  15    -0.641317853857E+03    0.16832E-03   -0.60426E-04 10389   0.583E-02    0.916E-02
RMM:  16    -0.641317859524E+03   -0.56671E-05   -0.39247E-04  8826   0.366E-02    0.654E-02
RMM:  17    -0.641317859777E+03   -0.25381E-06   -0.21183E-04  7244   0.289E-02    0.379E-02
RMM:  18    -0.641317865077E+03   -0.52999E-05   -0.13179E-04  7003   0.230E-02    0.261E-02
RMM:  19    -0.641317866712E+03   -0.16348E-05   -0.77886E-05  6652   0.195E-02
  11 F= -.64131787E+03 E0= -.64121699E+03  d E =-.207808E+00
       N       E                     dE             d eps       ncg     rms          rms(c)
DAV:   1    -0.640162239789E+03    0.11556E+01   -0.36351E+01  9408   0.415E+01    0.171E+00
RMM:   2    -0.641377543694E+03   -0.12153E+01   -0.11792E+01 13437   0.946E+00    0.386E+00
RMM:   3    -0.641375803709E+03    0.17400E-02   -0.10762E+00 11008   0.320E+00    0.232E+00
RMM:   4    -0.641380334540E+03   -0.45308E-02   -0.17649E-01 12191   0.122E+00    0.187E+00
RMM:   5    -0.641362691093E+03    0.17643E-01   -0.48982E-02 12220   0.607E-01    0.808E-01
RMM:   6    -0.641361303928E+03    0.13872E-02   -0.19911E-02 13372   0.276E-01    0.630E-01
RMM:   7    -0.641361374414E+03   -0.70486E-04   -0.97995E-03 12709   0.221E-01    0.700E-01
RMM:   8    -0.641358994138E+03    0.23803E-02   -0.10661E-02 12234   0.254E-01    0.513E-01
RMM:   9    -0.641358460562E+03    0.53358E-03   -0.54760E-03 11730   0.200E-01    0.418E-01
RMM:  10    -0.641358121180E+03    0.33938E-03   -0.34468E-03 12046   0.143E-01    0.292E-01
RMM:  11    -0.641357788640E+03    0.33254E-03   -0.15672E-03 11284   0.975E-02    0.171E-01
RMM:  12    -0.641357836140E+03   -0.47500E-04   -0.10205E-03 10624   0.715E-02    0.206E-01
RMM:  13    -0.641357689031E+03    0.14711E-03   -0.56176E-04 10088   0.570E-02    0.956E-02
RMM:  14    -0.641357738152E+03   -0.49121E-04   -0.41330E-04  9871   0.417E-02    0.112E-01
RMM:  15    -0.641357689611E+03    0.48541E-04   -0.22497E-04  8581   0.358E-02    0.594E-02
RMM:  16    -0.641357688740E+03    0.87120E-06   -0.13551E-04  7034   0.257E-02    0.399E-02
RMM:  17    -0.641357689624E+03   -0.88428E-06   -0.83903E-05  6626   0.225E-02
  12 F= -.64135769E+03 E0= -.64125991E+03  d E =-.247631E+00
       N       E                     dE             d eps       ncg     rms          rms(c)
DAV:   1    -0.639989902928E+03    0.13678E+01   -0.72630E+01  9912   0.519E+01    0.387E+00
RMM:   2    -0.642559529762E+03   -0.25696E+01   -0.19527E+01 12757   0.125E+01    0.101E+01
RMM:   3    -0.641692937137E+03    0.86659E+00   -0.16483E+00 11245   0.465E+00    0.620E+00
RMM:   4    -0.641559682565E+03    0.13325E+00   -0.48513E-01 11671   0.216E+00    0.319E+00
RMM:   5    -0.641562376913E+03   -0.26943E-02   -0.17688E-01 11675   0.131E+00    0.324E+00
RMM:   6    -0.641501878771E+03    0.60498E-01   -0.65520E-02 11606   0.769E-01    0.136E+00
RMM:   7    -0.641503214790E+03   -0.13360E-02   -0.43437E-02 12061   0.526E-01    0.147E+00
RMM:   8    -0.641504072318E+03   -0.85753E-03   -0.31280E-02 11523   0.544E-01    0.152E+00
RMM:   9    -0.641491275096E+03    0.12797E-01   -0.20306E-02 12004   0.399E-01    0.638E-01
RMM:  10    -0.641492334432E+03   -0.10593E-02   -0.12473E-02 12659   0.293E-01    0.791E-01
RMM:  11    -0.641489471392E+03    0.28630E-02   -0.61684E-03 12889   0.195E-01    0.240E-01
RMM:  12    -0.641489710717E+03   -0.23933E-03   -0.40420E-03 13573   0.109E-01    0.233E-01
RMM:  13    -0.641489584995E+03    0.12572E-03   -0.22567E-03 13113   0.872E-02    0.131E-01
RMM:  14    -0.641489638922E+03   -0.53928E-04   -0.95249E-04 12449   0.617E-02    0.115E-01
RMM:  15    -0.641489683645E+03   -0.44723E-04   -0.75440E-04 12181   0.483E-02    0.851E-02
RMM:  16    -0.641489698748E+03   -0.15103E-04   -0.34885E-04 11377   0.421E-02    0.726E-02
RMM:  17    -0.641489747439E+03   -0.48690E-04   -0.31944E-04 10970   0.397E-02    0.909E-02
RMM:  18    -0.641489717792E+03    0.29647E-04   -0.17853E-04 10088   0.319E-02    0.312E-02
RMM:  19    -0.641489727549E+03   -0.97568E-05   -0.15051E-04  9927   0.252E-02    0.309E-02
RMM:  20    -0.641489726474E+03    0.10743E-05   -0.72403E-05  7769   0.217E-02
  13 F= -.64148973E+03 E0= -.64139401E+03  d E =-.132037E+00
       N       E                     dE             d eps       ncg     rms          rms(c)
DAV:   1    -0.641369911322E+03    0.11982E+00   -0.52612E+00 10080   0.143E+01    0.107E+00
RMM:   2    -0.641582930030E+03   -0.21302E+00   -0.15897E+00 12683   0.364E+00    0.301E+00
RMM:   3    -0.641514985019E+03    0.67945E-01   -0.16715E-01 11082   0.135E+00    0.186E+00
RMM:   4    -0.641501780662E+03    0.13204E-01   -0.37071E-02 11526   0.624E-01    0.865E-01
RMM:   5    -0.641502174467E+03   -0.39380E-03   -0.14136E-02 11828   0.355E-01    0.883E-01
RMM:   6    -0.641497719006E+03    0.44555E-02   -0.52528E-03 11448   0.211E-01    0.387E-01
RMM:   7    -0.641497584995E+03    0.13401E-03   -0.32885E-03 11776   0.146E-01    0.366E-01
RMM:   8    -0.641498027563E+03   -0.44257E-03   -0.25813E-03 11227   0.158E-01    0.457E-01
RMM:   9    -0.641496777006E+03    0.12506E-02   -0.15963E-03 11695   0.121E-01    0.164E-01
RMM:  10    -0.641496860073E+03   -0.83067E-04   -0.97612E-04 11606   0.798E-02    0.203E-01
RMM:  11    -0.641496687885E+03    0.17219E-03   -0.49670E-04 11098   0.549E-02    0.636E-02
RMM:  12    -0.641496698924E+03   -0.11039E-04   -0.30709E-04 10341   0.310E-02    0.531E-02
RMM:  13    -0.641496692574E+03    0.63491E-05   -0.15693E-04  7728   0.238E-02    0.298E-02
RMM:  14    -0.641496698104E+03   -0.55295E-05   -0.63655E-05  6865   0.235E-02
  14 F= -.64149670E+03 E0= -.64140154E+03  d E =-.139008E+00
       N       E                     dE             d eps       ncg     rms          rms(c)
DAV:   1    -0.640013817957E+03    0.14829E+01   -0.87220E+01 12816   0.613E+01    0.638E+00
RMM:   2    -0.645423910016E+03   -0.54101E+01   -0.26866E+01 11284   0.175E+01    0.204E+01
RMM:   3    -0.642128717505E+03    0.32952E+01   -0.38294E+00 10850   0.754E+00    0.932E+00
RMM:   4    -0.641688145088E+03    0.44057E+00   -0.11881E+00 12199   0.298E+00    0.374E+00
RMM:   5    -0.641686635039E+03    0.15100E-02   -0.26478E-01 11803   0.156E+00    0.411E+00
RMM:   6    -0.641593142806E+03    0.93492E-01   -0.13560E-01 10794   0.126E+00    0.221E+00
RMM:   7    -0.641576252607E+03    0.16890E-01   -0.87583E-02 11569   0.839E-01    0.165E+00
RMM:   8    -0.641609379982E+03   -0.33127E-01   -0.70939E-02 11094   0.912E-01    0.298E+00
RMM:   9    -0.641557910265E+03    0.51470E-01   -0.34724E-02 11254   0.672E-01    0.450E-01
RMM:  10    -0.641560051037E+03   -0.21408E-02   -0.18312E-02 13696   0.302E-01    0.729E-01
RMM:  11    -0.641558351136E+03    0.16999E-02   -0.80431E-03 13632   0.211E-01    0.288E-01
RMM:  12    -0.641558485837E+03   -0.13470E-03   -0.45835E-03 13768   0.114E-01    0.198E-01
RMM:  13    -0.641558568393E+03   -0.82556E-04   -0.23471E-03 13564   0.924E-02    0.131E-01
RMM:  14    -0.641558870288E+03   -0.30190E-03   -0.12090E-03 12216   0.847E-02    0.208E-01
RMM:  15    -0.641558907173E+03   -0.36885E-04   -0.10153E-03 12786   0.738E-02    0.106E-01
RMM:  16    -0.641559036084E+03   -0.12891E-03   -0.72747E-04 12940   0.579E-02    0.119E-01
RMM:  17    -0.641559025056E+03    0.11028E-04   -0.47123E-04 12374   0.510E-02    0.472E-02
RMM:  18    -0.641559077626E+03   -0.52570E-04   -0.33053E-04 11977   0.443E-02    0.747E-02
RMM:  19    -0.641559067733E+03    0.98931E-05   -0.18997E-04 11083   0.409E-02    0.369E-02
RMM:  20    -0.641559080166E+03   -0.12433E-04   -0.16508E-04 10485   0.281E-02    0.284E-02
RMM:  21    -0.641559086347E+03   -0.61811E-05   -0.10106E-04  9540   0.248E-02    0.140E-02
RMM:  22    -0.641559092449E+03   -0.61026E-05   -0.61432E-05  8308   0.203E-02
  15 F= -.64155909E+03 E0= -.64146692E+03  d E =-.623943E-01
       N       E                     dE             d eps       ncg     rms          rms(c)
DAV:   1    -0.641476355594E+03    0.82731E-01   -0.41718E+00 12480   0.136E+01    0.145E+00
RMM:   2    -0.641746042166E+03   -0.26969E+00   -0.13797E+00 11781   0.385E+00    0.438E+00
RMM:   3    -0.641589886329E+03    0.15616E+00   -0.21554E-01 10817   0.167E+00    0.192E+00
RMM:   4    -0.641572095814E+03    0.17791E-01   -0.55157E-02 12277   0.655E-01    0.935E-01
RMM:   5    -0.641572277588E+03   -0.18177E-03   -0.13269E-02 11554   0.373E-01    0.102E+00
RMM:   6    -0.641566909915E+03    0.53677E-02   -0.63317E-03 10825   0.274E-01    0.495E-01
RMM:   7    -0.641566129532E+03    0.78038E-03   -0.39689E-03 11427   0.170E-01    0.378E-01
RMM:   8    -0.641567361289E+03   -0.12318E-02   -0.30864E-03 10986   0.189E-01    0.615E-01
RMM:   9    -0.641565201770E+03    0.21595E-02   -0.17500E-03 11042   0.144E-01    0.142E-01
RMM:  10    -0.641565331409E+03   -0.12964E-03   -0.92805E-04 11508   0.871E-02    0.225E-01
RMM:  11    -0.641565096077E+03    0.23533E-03   -0.41356E-04 10358   0.577E-02    0.582E-02
RMM:  12    -0.641565111566E+03   -0.15489E-04   -0.28860E-04 11279   0.299E-02    0.548E-02
RMM:  13    -0.641565102867E+03    0.86988E-05   -0.12056E-04  8238   0.249E-02    0.349E-02
RMM:  14    -0.641565106492E+03   -0.36247E-05   -0.54338E-05  7270   0.235E-02
  16 F= -.64156511E+03 E0= -.64147225E+03  d E =-.684084E-01
       N       E                     dE             d eps       ncg     rms          rms(c)
DAV:   1    -0.639628470239E+03    0.19366E+01   -0.62530E+01  9648   0.538E+01    0.258E+00
RMM:   2    -0.641820521176E+03   -0.21921E+01   -0.20526E+01 13607   0.114E+01    0.624E+00
RMM:   3    -0.641699468015E+03    0.12105E+00   -0.17181E+00 10664   0.444E+00    0.387E+00
RMM:   4    -0.641673890308E+03    0.25578E-01   -0.38840E-01 11711   0.180E+00    0.228E+00
RMM:   5    -0.641646974317E+03    0.26916E-01   -0.94299E-02 12257   0.801E-01    0.139E+00
RMM:   6    -0.641639522252E+03    0.74521E-02   -0.34624E-02 12528   0.441E-01    0.861E-01
RMM:   7    -0.641642490169E+03   -0.29679E-02   -0.20203E-02 12093   0.332E-01    0.115E+00
RMM:   8    -0.641635551169E+03    0.69390E-02   -0.18507E-02 12039   0.356E-01    0.688E-01
RMM:   9    -0.641634865433E+03    0.68574E-03   -0.85699E-03 11853   0.253E-01    0.605E-01
RMM:  10    -0.641633916246E+03    0.94919E-03   -0.56643E-03 12718   0.178E-01    0.367E-01
RMM:  11    -0.641633455145E+03    0.46110E-03   -0.25830E-03 12523   0.121E-01    0.231E-01
RMM:  12    -0.641633455271E+03   -0.12547E-06   -0.17035E-03 12219   0.884E-02    0.205E-01
RMM:  13    -0.641633280421E+03    0.17485E-03   -0.85656E-04 11946   0.605E-02    0.842E-02
RMM:  14    -0.641633372301E+03   -0.91881E-04   -0.60002E-04 11800   0.521E-02    0.123E-01
RMM:  15    -0.641633311479E+03    0.60823E-04   -0.32086E-04 10341   0.413E-02    0.460E-02
RMM:  16    -0.641633342437E+03   -0.30958E-04   -0.21097E-04  9443   0.302E-02    0.713E-02
RMM:  17    -0.641633330950E+03    0.11488E-04   -0.12086E-04  7821   0.305E-02    0.405E-02
RMM:  18    -0.641633334950E+03   -0.40003E-05   -0.94883E-05  7270   0.231E-02
  17 F= -.64163333E+03 E0= -.64154095E+03  d E =-.682285E-01
       N       E                     dE             d eps       ncg     rms          rms(c)
DAV:   1    -0.641477954715E+03    0.15538E+00   -0.45673E+00  9480   0.149E+01    0.704E-01
RMM:   2    -0.641642207912E+03   -0.16425E+00   -0.15858E+00 13595   0.311E+00    0.127E+00
RMM:   3    -0.641642702370E+03   -0.49446E-03   -0.14173E-01 10693   0.119E+00    0.114E+00
RMM:   4    -0.641640778407E+03    0.19240E-02   -0.28070E-02 11696   0.479E-01    0.739E-01
RMM:   5    -0.641638337933E+03    0.24405E-02   -0.65804E-03 11464   0.248E-01    0.410E-01
RMM:   6    -0.641637622956E+03    0.71498E-03   -0.30941E-03 12054   0.115E-01    0.243E-01
RMM:   7    -0.641637858834E+03   -0.23588E-03   -0.17117E-03 11271   0.962E-02    0.318E-01
RMM:   8    -0.641637411653E+03    0.44718E-03   -0.14549E-03 11380   0.109E-01    0.210E-01
RMM:   9    -0.641637252594E+03    0.15906E-03   -0.88595E-04 11638   0.726E-02    0.148E-01
RMM:  10    -0.641637254173E+03   -0.15792E-05   -0.48605E-04 11027   0.584E-02    0.144E-01
RMM:  11    -0.641637165308E+03    0.88866E-04   -0.24083E-04  8637   0.414E-02    0.515E-02
RMM:  12    -0.641637170185E+03   -0.48776E-05   -0.15369E-04  8207   0.268E-02    0.479E-02
RMM:  13    -0.641637161422E+03    0.87629E-05   -0.83689E-05  6466   0.212E-02
  18 F= -.64163716E+03 E0= -.64154500E+03  d E =-.720549E-01
       N       E                     dE             d eps       ncg     rms          rms(c)
DAV:   1    -0.640980843995E+03    0.65633E+00   -0.19578E+01  9312   0.302E+01    0.144E+00
RMM:   2    -0.641696326743E+03   -0.71548E+00   -0.68689E+00 13620   0.674E+00    0.307E+00
RMM:   3    -0.641697681400E+03   -0.13547E-02   -0.69516E-01 10800   0.242E+00    0.201E+00
RMM:   4    -0.641693465503E+03    0.42159E-02   -0.11066E-01 11733   0.937E-01    0.133E+00
RMM:   5    -0.641682750584E+03    0.10715E-01   -0.27166E-02 11766   0.495E-01    0.744E-01
RMM:   6    -0.641680888782E+03    0.18618E-02   -0.11781E-02 12735   0.229E-01    0.520E-01
RMM:   7    -0.641682741084E+03   -0.18523E-02   -0.83013E-03 11958   0.223E-01    0.801E-01
RMM:   8    -0.641679198467E+03    0.35426E-02   -0.58074E-03 11388   0.233E-01    0.371E-01
RMM:   9    -0.641679009771E+03    0.18870E-03   -0.37312E-03 12288   0.136E-01    0.307E-01
RMM:  10    -0.641679017903E+03   -0.81323E-05   -0.20337E-03 11944   0.107E-01    0.288E-01
RMM:  11    -0.641678678061E+03    0.33984E-03   -0.10442E-03 11020   0.745E-02    0.102E-01
RMM:  12    -0.641678680319E+03   -0.22579E-05   -0.64855E-04 10818   0.455E-02    0.883E-02
RMM:  13    -0.641678667981E+03    0.12338E-04   -0.30339E-04  8443   0.327E-02    0.560E-02
RMM:  14    -0.641678687355E+03   -0.19375E-04   -0.18034E-04  8136   0.300E-02    0.638E-02
RMM:  15    -0.641678671747E+03    0.15608E-04   -0.12373E-04  7435   0.259E-02    0.243E-02
RMM:  16    -0.641678679260E+03   -0.75127E-05   -0.82359E-05  6542   0.208E-02
  19 F= -.64167868E+03 E0= -.64158764E+03  d E =-.415178E-01
       N       E                     dE             d eps       ncg     rms          rms(c)
DAV:   1    -0.641362856885E+03    0.31581E+00   -0.90833E+00  9288   0.206E+01    0.983E-01
RMM:   2    -0.641693935288E+03   -0.33108E+00   -0.32023E+00 13600   0.459E+00    0.192E+00
RMM:   3    -0.641699682923E+03   -0.57476E-02   -0.32498E-01 10820   0.164E+00    0.143E+00
RMM:   4    -0.641697144398E+03    0.25385E-02   -0.51613E-02 11702   0.642E-01    0.952E-01
RMM:   5    -0.641691843924E+03    0.53005E-02   -0.12379E-02 11428   0.354E-01    0.507E-01
RMM:   6    -0.641690913740E+03    0.93018E-03   -0.58618E-03 12760   0.155E-01    0.342E-01
RMM:   7    -0.641691924808E+03   -0.10111E-02   -0.39211E-03 11668   0.162E-01    0.568E-01
RMM:   8    -0.641690371980E+03    0.15528E-02   -0.31032E-03 11806   0.151E-01    0.293E-01
RMM:   9    -0.641690080580E+03    0.29140E-03   -0.16592E-03 11954   0.963E-02    0.187E-01
RMM:  10    -0.641690129031E+03   -0.48450E-04   -0.98868E-04 11569   0.742E-02    0.190E-01
RMM:  11    -0.641689969716E+03    0.15931E-03   -0.47069E-04 10043   0.523E-02    0.690E-02
RMM:  12    -0.641689970197E+03   -0.48080E-06   -0.30524E-04  8988   0.323E-02    0.554E-02
RMM:  13    -0.641689962913E+03    0.72838E-05   -0.15658E-04  7007   0.249E-02    0.286E-02
RMM:  14    -0.641689978572E+03   -0.15659E-04   -0.87648E-05  6718   0.244E-02    0.526E-02
RMM:  15    -0.641689968821E+03    0.97509E-05   -0.61686E-05  6350   0.217E-02
  20 F= -.64168997E+03 E0= -.64159972E+03  d E =-.528074E-01
       N       E                     dE             d eps       ncg     rms          rms(c)
DAV:   1    -0.641174952390E+03    0.51503E+00   -0.20926E+01 12288   0.310E+01    0.288E+00
RMM:   2    -0.642424596308E+03   -0.12496E+01   -0.75835E+00 12014   0.829E+00    0.868E+00
RMM:   3    -0.641814125219E+03    0.61047E+00   -0.10116E+00 10913   0.343E+00    0.400E+00
RMM:   4    -0.641734866923E+03    0.79258E-01   -0.24512E-01 12268   0.133E+00    0.161E+00
RMM:   5    -0.641736899091E+03   -0.20322E-02   -0.64854E-02 11870   0.776E-01    0.189E+00
RMM:   6    -0.641714981973E+03    0.21917E-01   -0.24472E-02 10839   0.526E-01    0.815E-01
RMM:   7    -0.641715308963E+03   -0.32699E-03   -0.18794E-02 11857   0.343E-01    0.852E-01
RMM:   8    -0.641716810916E+03   -0.15020E-02   -0.14633E-02 11206   0.408E-01    0.113E+00
RMM:   9    -0.641709689939E+03    0.71210E-02   -0.64202E-03 11260   0.275E-01    0.206E-01
RMM:  10    -0.641709958326E+03   -0.26839E-03   -0.40955E-03 13814   0.126E-01    0.234E-01
RMM:  11    -0.641709817844E+03    0.14048E-03   -0.15056E-03 12714   0.923E-02    0.141E-01
RMM:  12    -0.641709873347E+03   -0.55503E-04   -0.86423E-04 12350   0.584E-02    0.129E-01
RMM:  13    -0.641709848696E+03    0.24651E-04   -0.46523E-04 11958   0.443E-02    0.620E-02
RMM:  14    -0.641709913746E+03   -0.65050E-04   -0.33892E-04 11785   0.348E-02    0.776E-02
RMM:  15    -0.641709926615E+03   -0.12869E-04   -0.16935E-04 10425   0.341E-02    0.563E-02
RMM:  16    -0.641709951735E+03   -0.25121E-04   -0.14691E-04  9692   0.312E-02    0.622E-02
RMM:  17    -0.641709955547E+03   -0.38113E-05   -0.10026E-04  9231   0.273E-02    0.281E-02
RMM:  18    -0.641709967050E+03   -0.11504E-04   -0.75167E-05  8263   0.234E-02    0.339E-02
RMM:  19    -0.641709967987E+03   -0.93625E-06   -0.46516E-05  7138   0.226E-02
  21 F= -.64170997E+03 E0= -.64162126E+03  d E =-.199992E-01
       N       E                     dE             d eps       ncg     rms          rms(c)
DAV:   1    -0.641700041992E+03    0.99251E-02   -0.41503E-01 12384   0.436E+00    0.413E-01
RMM:   2    -0.641724512875E+03   -0.24471E-01   -0.14963E-01 12250   0.117E+00    0.120E+00
RMM:   3    -0.641712643985E+03    0.11869E-01   -0.20184E-02 10903   0.488E-01    0.546E-01
RMM:   4    -0.641711117166E+03    0.15268E-02   -0.45388E-03 12076   0.191E-01    0.232E-01
RMM:   5    -0.641711211733E+03   -0.94567E-04   -0.12633E-03 11410   0.112E-01    0.286E-01
RMM:   6    -0.641710714550E+03    0.49718E-03   -0.46505E-04 10110   0.778E-02    0.113E-01
RMM:   7    -0.641710731775E+03   -0.17225E-04   -0.35490E-04 10179   0.510E-02    0.128E-01
RMM:   8    -0.641710739997E+03   -0.82219E-05   -0.28930E-04  9855   0.595E-02    0.156E-01
RMM:   9    -0.641710602812E+03    0.13718E-03   -0.11366E-04  7684   0.436E-02    0.358E-02
RMM:  10    -0.641710607540E+03   -0.47276E-05   -0.66927E-05  7064   0.254E-02
  22 F= -.64171061E+03 E0= -.64162169E+03  d E =-.206387E-01
       N       E                     dE             d eps       ncg     rms          rms(c)
DAV:   1    -0.641362632871E+03    0.34797E+00   -0.12554E+01 10176   0.239E+01    0.172E+00
RMM:   2    -0.641912623822E+03   -0.54999E+00   -0.43422E+00 12758   0.580E+00    0.429E+00
RMM:   3    -0.641757381886E+03    0.15524E+00   -0.44431E-01 11158   0.207E+00    0.235E+00
RMM:   4    -0.641737342701E+03    0.20039E-01   -0.97051E-02 11724   0.933E-01    0.128E+00
RMM:   5    -0.641735997430E+03    0.13453E-02   -0.24682E-02 11255   0.540E-01    0.125E+00
RMM:   6    -0.641727071328E+03    0.89261E-02   -0.11076E-02 11446   0.304E-01    0.464E-01
RMM:   7    -0.641728097905E+03   -0.10266E-02   -0.76113E-03 12032   0.207E-01    0.603E-01
RMM:   8    -0.641727546668E+03    0.55124E-03   -0.53144E-03 11679   0.220E-01    0.616E-01
RMM:   9    -0.641725598276E+03    0.19484E-02   -0.29336E-03 11631   0.165E-01    0.228E-01
RMM:  10    -0.641725465042E+03    0.13323E-03   -0.20021E-03 12992   0.966E-02    0.160E-01
RMM:  11    -0.641725451038E+03    0.14004E-04   -0.84478E-04 11795   0.705E-02    0.130E-01
RMM:  12    -0.641725438919E+03    0.12119E-04   -0.51441E-04 11678   0.478E-02    0.908E-02
RMM:  13    -0.641725414341E+03    0.24579E-04   -0.27880E-04 10812   0.339E-02    0.421E-02
RMM:  14    -0.641725435856E+03   -0.21515E-04   -0.16345E-04  9075   0.255E-02    0.562E-02
RMM:  15    -0.641725432034E+03    0.38222E-05   -0.95399E-05  7994   0.265E-02
  23 F= -.64172543E+03 E0= -.64163678E+03  d E =-.148245E-01
       N       E                     dE             d eps       ncg     rms          rms(c)
DAV:   1    -0.641720541384E+03    0.48945E-02   -0.18418E-01 11304   0.288E+00    0.209E-01
RMM:   2    -0.641728981016E+03   -0.84396E-02   -0.62662E-02 12609   0.701E-01    0.590E-01
RMM:   3    -0.641726210762E+03    0.27703E-02   -0.67660E-03 10869   0.263E-01    0.300E-01
RMM:   4    -0.641725854376E+03    0.35639E-03   -0.15458E-03 11130   0.117E-01    0.148E-01
RMM:   5    -0.641725841256E+03    0.13120E-04   -0.42456E-04  9819   0.673E-02    0.144E-01
RMM:   6    -0.641725722482E+03    0.11877E-03   -0.17978E-04  8652   0.399E-02    0.615E-02
RMM:   7    -0.641725729704E+03   -0.72228E-05   -0.11148E-04  7871   0.307E-02    0.681E-02
RMM:   8    -0.641725739190E+03   -0.94855E-05   -0.96946E-05  7740   0.322E-02
  24 F= -.64172574E+03 E0= -.64163709E+03  d E =-.151317E-01
       N       E                     dE             d eps       ncg     rms          rms(c)
DAV:   1    -0.641690099570E+03    0.35630E-01   -0.21001E+00  9144   0.829E+00    0.519E-01
RMM:   2    -0.641739360040E+03   -0.49260E-01   -0.48838E-01 13205   0.205E+00    0.875E-01
RMM:   3    -0.641736397594E+03    0.29624E-02   -0.43010E-02 11150   0.714E-01    0.766E-01
RMM:   4    -0.641735275220E+03    0.11224E-02   -0.10401E-02 11673   0.341E-01    0.532E-01
RMM:   5    -0.641733839781E+03    0.14354E-02   -0.34831E-03 11188   0.208E-01    0.375E-01
RMM:   6    -0.641733151181E+03    0.68860E-03   -0.20604E-03 11706   0.113E-01    0.210E-01
RMM:   7    -0.641733835547E+03   -0.68437E-03   -0.18206E-03 11492   0.114E-01    0.408E-01
RMM:   8    -0.641732976360E+03    0.85919E-03   -0.90156E-04 10656   0.102E-01    0.165E-01
RMM:   9    -0.641732861424E+03    0.11494E-03   -0.57101E-04 10935   0.556E-02    0.746E-02
RMM:  10    -0.641732864458E+03   -0.30340E-05   -0.28494E-04  9290   0.348E-02    0.623E-02
RMM:  11    -0.641732860143E+03    0.43153E-05   -0.14873E-04  7493   0.253E-02    0.441E-02
RMM:  12    -0.641732859879E+03    0.26388E-06   -0.83010E-05  6755   0.231E-02
  25 F= -.64173286E+03 E0= -.64164445E+03  d E =-.712069E-02
       N       E                     dE             d eps       ncg     rms          rms(c)
DAV:   1    -0.641723419123E+03    0.94410E-02   -0.52792E-01  9504   0.415E+00    0.262E-01
RMM:   2    -0.641735964747E+03   -0.12546E-01   -0.12136E-01 13179   0.102E+00    0.509E-01
RMM:   3    -0.641734861046E+03    0.11037E-02   -0.10465E-02 11220   0.363E-01    0.397E-01
RMM:   4    -0.641734510340E+03    0.35071E-03   -0.27997E-03 11754   0.174E-01    0.253E-01
RMM:   5    -0.641734215602E+03    0.29474E-03   -0.10850E-03 11151   0.104E-01    0.196E-01
RMM:   6    -0.641734022437E+03    0.19317E-03   -0.52959E-04 10661   0.609E-02    0.109E-01
RMM:   7    -0.641734194223E+03   -0.17179E-03   -0.47272E-04 10391   0.594E-02    0.203E-01
RMM:   8    -0.641733969945E+03    0.22428E-03   -0.24845E-04  9628   0.527E-02    0.696E-02
RMM:   9    -0.641733951947E+03    0.17998E-04   -0.14385E-04  8038   0.301E-02    0.377E-02
RMM:  10    -0.641733955423E+03   -0.34763E-05   -0.81176E-05  6938   0.238E-02
  26 F= -.64173396E+03 E0= -.64164568E+03  d E =-.821623E-02
       N       E                     dE             d eps       ncg     rms          rms(c)
DAV:   1    -0.641705349905E+03    0.28602E-01   -0.21162E+00 12144   0.898E+00    0.104E+00
RMM:   2    -0.641839209733E+03   -0.13386E+00   -0.58989E-01 11373   0.274E+00    0.334E+00
RMM:   3    -0.641752328217E+03    0.86882E-01   -0.10030E-01 10812   0.121E+00    0.145E+00
RMM:   4    -0.641740703526E+03    0.11625E-01   -0.27018E-02 12179   0.463E-01    0.569E-01
RMM:   5    -0.641740902367E+03   -0.19884E-03   -0.71991E-03 11655   0.259E-01    0.649E-01
RMM:   6    -0.641738371744E+03    0.25306E-02   -0.30050E-03 10956   0.182E-01    0.288E-01
RMM:   7    -0.641738247139E+03    0.12460E-03   -0.21336E-03 11440   0.122E-01    0.260E-01
RMM:   8    -0.641738511592E+03   -0.26445E-03   -0.14824E-03 11371   0.123E-01    0.371E-01
RMM:   9    -0.641737806538E+03    0.70505E-03   -0.66796E-04 10482   0.939E-02    0.102E-01
RMM:  10    -0.641737834412E+03   -0.27874E-04   -0.45674E-04 11517   0.523E-02    0.114E-01
RMM:  11    -0.641737786087E+03    0.48325E-04   -0.20680E-04  9098   0.376E-02    0.510E-02
RMM:  12    -0.641737795817E+03   -0.97292E-05   -0.12873E-04  8299   0.242E-02    0.439E-02
RMM:  13    -0.641737794835E+03    0.98198E-06   -0.69784E-05  7011   0.216E-02
  27 F= -.64173779E+03 E0= -.64164973E+03  d E =-.383941E-02
       N       E                     dE             d eps       ncg     rms          rms(c)
DAV:   1    -0.641737013991E+03    0.78183E-03   -0.60429E-02 12696   0.151E+00    0.180E-01
RMM:   2    -0.641740979200E+03   -0.39652E-02   -0.16192E-02 11273   0.449E-01    0.588E-01
RMM:   3    -0.641738287837E+03    0.26914E-02   -0.27464E-03 10331   0.209E-01    0.249E-01
RMM:   4    -0.641737945081E+03    0.34276E-03   -0.77746E-04 10857   0.834E-02    0.972E-02
RMM:   5    -0.641737952229E+03   -0.71475E-05   -0.22689E-04  9064   0.473E-02    0.107E-01
RMM:   6    -0.641737890459E+03    0.61770E-04   -0.91020E-05  7632   0.344E-02    0.501E-02
RMM:   7    -0.641737885564E+03    0.48950E-05   -0.58774E-05  6985   0.248E-02
  28 F= -.64173789E+03 E0= -.64164986E+03  d E =-.393014E-02
       N       E                     dE             d eps       ncg     rms          rms(c)
DAV:   1    -0.641710137135E+03    0.27753E-01   -0.15945E+00  9984   0.778E+00    0.566E-01
RMM:   2    -0.641764973522E+03   -0.54836E-01   -0.42046E-01 12722   0.183E+00    0.147E+00
RMM:   3    -0.641745949234E+03    0.19024E-01   -0.34723E-02 11218   0.697E-01    0.883E-01
RMM:   4    -0.641742968303E+03    0.29809E-02   -0.10281E-02 11564   0.331E-01    0.437E-01
RMM:   5    -0.641742901871E+03    0.66432E-04   -0.34876E-03 11429   0.186E-01    0.416E-01
RMM:   6    -0.641741818612E+03    0.10833E-02   -0.16978E-03 11296   0.109E-01    0.159E-01
RMM:   7    -0.641741956240E+03   -0.13763E-03   -0.10615E-03 10939   0.835E-02    0.208E-01
RMM:   8    -0.641741712097E+03    0.24414E-03   -0.74694E-04 11546   0.780E-02    0.132E-01
RMM:   9    -0.641741668534E+03    0.43563E-04   -0.32967E-04  9952   0.522E-02    0.105E-01
RMM:  10    -0.641741610469E+03    0.58065E-04   -0.17275E-04  8859   0.339E-02    0.325E-02
RMM:  11    -0.641741617191E+03   -0.67219E-05   -0.94837E-05  7411   0.213E-02
  29 F= -.64174162E+03 E0= -.64165337E+03  d E =-.373163E-02
       N       E                     dE             d eps       ncg     rms          rms(c)
DAV:   1    -0.641735888296E+03    0.57222E-02   -0.32697E-01 10584   0.353E+00    0.261E-01
RMM:   2    -0.641747513889E+03   -0.11626E-01   -0.86792E-02 12664   0.835E-01    0.702E-01
RMM:   3    -0.641743255106E+03    0.42588E-02   -0.75953E-03 11042   0.325E-01    0.398E-01
RMM:   4    -0.641742621324E+03    0.63378E-03   -0.22065E-03 11216   0.151E-01    0.184E-01
RMM:   5    -0.641742629916E+03   -0.85927E-05   -0.77175E-04 10386   0.841E-02    0.190E-01
RMM:   6    -0.641742426577E+03    0.20334E-03   -0.36296E-04  9948   0.530E-02    0.867E-02
RMM:   7    -0.641742435391E+03   -0.88146E-05   -0.20335E-04  8718   0.392E-02    0.918E-02
RMM:   8    -0.641742439160E+03   -0.37685E-05   -0.14603E-04  8168   0.417E-02    0.103E-01
RMM:   9    -0.641742380062E+03    0.59098E-04   -0.99238E-05  7855   0.322E-02    0.301E-02
RMM:  10    -0.641742379477E+03    0.58507E-06   -0.53329E-05  6341   0.208E-02
  30 F= -.64174238E+03 E0= -.64165406E+03  d E =-.449391E-02
       N       E                     dE             d eps       ncg     rms          rms(c)
DAV:   1    -0.641714626161E+03    0.27754E-01   -0.12899E+00  9720   0.704E+00    0.516E-01
RMM:   2    -0.641759727600E+03   -0.45101E-01   -0.35694E-01 12768   0.170E+00    0.124E+00
RMM:   3    -0.641745056388E+03    0.14671E-01   -0.32038E-02 11251   0.631E-01    0.718E-01
RMM:   4    -0.641743301414E+03    0.17550E-02   -0.82043E-03 11552   0.289E-01    0.395E-01
RMM:   5    -0.641743212399E+03    0.89014E-04   -0.26782E-03 11418   0.162E-01    0.381E-01
RMM:   6    -0.641742380230E+03    0.83217E-03   -0.13329E-03 10891   0.989E-02    0.162E-01
RMM:   7    -0.641742433783E+03   -0.53553E-04   -0.79328E-04 10694   0.714E-02    0.176E-01
RMM:   8    -0.641742363576E+03    0.70207E-04   -0.61659E-04 11347   0.730E-02    0.172E-01
RMM:   9    -0.641742216907E+03    0.14667E-03   -0.29310E-04  9890   0.531E-02    0.696E-02
RMM:  10    -0.641742195472E+03    0.21435E-04   -0.18145E-04  9210   0.291E-02    0.392E-02
RMM:  11    -0.641742197947E+03   -0.24742E-05   -0.76984E-05  6660   0.233E-02
  31 F= -.64174220E+03 E0= -.64165374E+03  d E =-.431238E-02
       N       E                     dE             d eps       ncg     rms          rms(c)
DAV:   1    -0.641733421128E+03    0.87743E-02   -0.46006E-01 10392   0.419E+00    0.303E-01
RMM:   2    -0.641748907083E+03   -0.15486E-01   -0.12208E-01 12818   0.980E-01    0.731E-01
RMM:   3    -0.641743593253E+03    0.53138E-02   -0.10109E-02 11186   0.375E-01    0.418E-01
RMM:   4    -0.641742991364E+03    0.60189E-03   -0.27342E-03 11529   0.174E-01    0.233E-01
RMM:   5    -0.641742943815E+03    0.47549E-04   -0.88468E-04 10760   0.971E-02    0.222E-01
RMM:   6    -0.641742647608E+03    0.29621E-03   -0.40154E-04 10046   0.614E-02    0.991E-02
RMM:   7    -0.641742665202E+03   -0.17594E-04   -0.24375E-04  9182   0.452E-02    0.109E-01
RMM:   8    -0.641742638104E+03    0.27098E-04   -0.20181E-04  9538   0.452E-02    0.106E-01
RMM:   9    -0.641742575702E+03    0.62403E-04   -0.72967E-05  6712   0.354E-02    0.371E-02
RMM:  10    -0.641742573201E+03    0.25010E-05   -0.46664E-05  6359   0.228E-02
  32 F= -.64174257E+03 E0= -.64165418E+03  d E =-.468764E-02
       N       E                     dE             d eps       ncg     rms          rms(c)
DAV:   1    -0.641717350222E+03    0.25225E-01   -0.11900E+00  9360   0.676E+00    0.409E-01
RMM:   2    -0.641752707913E+03   -0.35358E-01   -0.31838E-01 13101   0.155E+00    0.845E-01
RMM:   3    -0.641746382347E+03    0.63256E-02   -0.25952E-02 11182   0.571E-01    0.507E-01
RMM:   4    -0.641745975732E+03    0.40662E-03   -0.64472E-03 11723   0.249E-01    0.363E-01
RMM:   5    -0.641745507168E+03    0.46856E-03   -0.16678E-03 10955   0.142E-01    0.286E-01
RMM:   6    -0.641745047830E+03    0.45934E-03   -0.80573E-04 10385   0.830E-02    0.129E-01
RMM:   7    -0.641745176816E+03   -0.12899E-03   -0.66156E-04 10510   0.662E-02    0.184E-01
RMM:   8    -0.641744965688E+03    0.21113E-03   -0.42770E-04 10587   0.655E-02    0.104E-01
RMM:   9    -0.641744935917E+03    0.29771E-04   -0.19416E-04  8368   0.402E-02    0.701E-02
RMM:  10    -0.641744916468E+03    0.19449E-04   -0.10969E-04  7667   0.254E-02    0.334E-02
RMM:  11    -0.641744918384E+03   -0.19159E-05   -0.51621E-05  6317   0.216E-02
  33 F= -.64174492E+03 E0= -.64165647E+03  d E =-.234518E-02
       N       E                     dE             d eps       ncg     rms          rms(c)
DAV:   1    -0.641718460608E+03    0.26456E-01   -0.11592E+00  9312   0.668E+00    0.405E-01
RMM:   2    -0.641753259769E+03   -0.34799E-01   -0.31410E-01 13087   0.154E+00    0.832E-01
RMM:   3    -0.641747072428E+03    0.61873E-02   -0.26597E-02 11170   0.571E-01    0.479E-01
RMM:   4    -0.641746786749E+03    0.28568E-03   -0.64289E-03 11840   0.238E-01    0.347E-01
RMM:   5    -0.641746382627E+03    0.40412E-03   -0.17754E-03 11348   0.133E-01    0.291E-01
RMM:   6    -0.641745939019E+03    0.44361E-03   -0.79144E-04 10267   0.818E-02    0.135E-01
RMM:   7    -0.641746052646E+03   -0.11363E-03   -0.66684E-04 10588   0.635E-02    0.182E-01
RMM:   8    -0.641745928437E+03    0.12421E-03   -0.45335E-04 10797   0.646E-02    0.153E-01
RMM:   9    -0.641745828798E+03    0.99639E-04   -0.21551E-04  8432   0.459E-02    0.648E-02
RMM:  10    -0.641745815419E+03    0.13379E-04   -0.14272E-04  8340   0.268E-02    0.309E-02
RMM:  11    -0.641745818219E+03   -0.27997E-05   -0.69429E-05  6613   0.201E-02
  34 F= -.64174582E+03 E0= -.64165732E+03  d E =-.324502E-02
       N       E                     dE             d eps       ncg     rms          rms(c)
DAV:   1    -0.641720805058E+03    0.25010E-01   -0.15140E+00 12360   0.791E+00    0.825E-01
RMM:   2    -0.641806002042E+03   -0.85197E-01   -0.43550E-01 11706   0.222E+00    0.251E+00
RMM:   3    -0.641755932682E+03    0.50069E-01   -0.65688E-02 10877   0.971E-01    0.113E+00
RMM:   4    -0.641749118058E+03    0.68146E-02   -0.17469E-02 12155   0.378E-01    0.445E-01
RMM:   5    -0.641749586980E+03   -0.46892E-03   -0.48111E-03 11589   0.221E-01    0.572E-01
RMM:   6    -0.641747653058E+03    0.19339E-02   -0.19954E-03 10800   0.156E-01    0.239E-01
RMM:   7    -0.641747629435E+03    0.23623E-04   -0.14501E-03 11110   0.998E-02    0.234E-01
RMM:   8    -0.641747926085E+03   -0.29665E-03   -0.10514E-03 10891   0.109E-01    0.345E-01
RMM:   9    -0.641747289300E+03    0.63679E-03   -0.50287E-04  9912   0.823E-02    0.732E-02
RMM:  10    -0.641747309046E+03   -0.19746E-04   -0.30272E-04 10560   0.430E-02    0.859E-02
RMM:  11    -0.641747282754E+03    0.26292E-04   -0.12752E-04  7781   0.288E-02    0.353E-02
RMM:  12    -0.641747290534E+03   -0.77798E-05   -0.73174E-05  6816   0.226E-02
  35 F= -.64174729E+03 E0= -.64165894E+03  d E =-.147231E-02
       N       E                     dE             d eps       ncg     rms          rms(c)
DAV:   1    -0.641747088247E+03    0.19451E-03   -0.15373E-02 13248   0.791E-01    0.815E-02
RMM:   2    -0.641747867825E+03   -0.77958E-03   -0.41503E-03 12188   0.214E-01    0.241E-01
RMM:   3    -0.641747410968E+03    0.45686E-03   -0.56194E-04 10105   0.969E-02    0.109E-01
RMM:   4    -0.641747351602E+03    0.59366E-04   -0.16917E-04 10150   0.443E-02    0.478E-02
RMM:   5    -0.641747359646E+03   -0.80433E-05   -0.44871E-05  6286   0.294E-02
  36 F= -.64174736E+03 E0= -.64165899E+03  d E =-.154143E-02
       N       E                     dE             d eps       ncg     rms          rms(c)
DAV:   1    -0.641706863320E+03    0.40488E-01   -0.13951E+00  9144   0.795E+00    0.358E-01
RMM:   2    -0.641748812809E+03   -0.41949E-01   -0.42042E-01 13239   0.180E+00    0.527E-01
RMM:   3    -0.641750446123E+03   -0.16333E-02   -0.39213E-02 11083   0.603E-01    0.624E-01
RMM:   4    -0.641749650286E+03    0.79584E-03   -0.63994E-03 11322   0.270E-01    0.369E-01
RMM:   5    -0.641748879699E+03    0.77059E-03   -0.18613E-03 11399   0.132E-01    0.179E-01
RMM:   6    -0.641748792790E+03    0.86909E-04   -0.74816E-04 10832   0.655E-02    0.137E-01
RMM:   7    -0.641748881137E+03   -0.88347E-04   -0.49981E-04 10301   0.595E-02    0.181E-01
RMM:   8    -0.641748659609E+03    0.22153E-03   -0.42314E-04 11335   0.538E-02    0.582E-02
RMM:   9    -0.641748674222E+03   -0.14613E-04   -0.17907E-04  9150   0.349E-02    0.746E-02
RMM:  10    -0.641748652654E+03    0.21568E-04   -0.78207E-05  6687   0.275E-02    0.469E-02
RMM:  11    -0.641748646081E+03    0.65735E-05   -0.45727E-05  6264   0.234E-02
  37 F= -.64174865E+03 E0= -.64166017E+03  d E =-.128644E-02
       N       E                     dE             d eps       ncg     rms          rms(c)
DAV:   1    -0.641742304971E+03    0.63477E-02   -0.22408E-01  9384   0.317E+00    0.142E-01
RMM:   2    -0.641748982327E+03   -0.66774E-02   -0.66048E-02 13140   0.714E-01    0.253E-01
RMM:   3    -0.641749041236E+03   -0.58909E-04   -0.59285E-03 11059   0.241E-01    0.236E-01
RMM:   4    -0.641748961649E+03    0.79587E-04   -0.11296E-03 10865   0.111E-01    0.150E-01
RMM:   5    -0.641748845336E+03    0.11631E-03   -0.32954E-04  9582   0.532E-02    0.803E-02
RMM:   6    -0.641748820394E+03    0.24942E-04   -0.12589E-04  7689   0.310E-02    0.513E-02
RMM:   7    -0.641748835174E+03   -0.14780E-04   -0.87993E-05  7523   0.291E-02    0.696E-02
RMM:   8    -0.641748810635E+03    0.24539E-04   -0.83620E-05  7963   0.261E-02    0.389E-02
RMM:   9    -0.641748805348E+03    0.52869E-05   -0.35234E-05  6097   0.198E-02
  38 F= -.64174881E+03 E0= -.64166032E+03  d E =-.144570E-02
       N       E                     dE             d eps       ncg     rms          rms(c)
DAV:   1    -0.641749482088E+03   -0.67145E-03   -0.17485E-01 12408   0.240E+00    0.466E-01
RMM:   2    -0.641768996837E+03   -0.19515E-01   -0.57789E-02 11191   0.919E-01    0.142E+00
RMM:   3    -0.641752305497E+03    0.16691E-01   -0.13042E-02 10622   0.476E-01    0.635E-01
RMM:   4    -0.641749883074E+03    0.24224E-02   -0.30784E-03 11399   0.182E-01    0.219E-01
RMM:   5    -0.641750123583E+03   -0.24051E-03   -0.11508E-03 10730   0.117E-01    0.317E-01
RMM:   6    -0.641749608368E+03    0.51522E-03   -0.66982E-04 10431   0.952E-02    0.163E-01
RMM:   7    -0.641749483516E+03    0.12485E-03   -0.36411E-04 10100   0.567E-02    0.956E-02
RMM:   8    -0.641749528860E+03   -0.45344E-04   -0.19037E-04  8340   0.470E-02    0.140E-01
RMM:   9    -0.641749425210E+03    0.10365E-03   -0.88135E-05  7093   0.373E-02    0.364E-02
RMM:  10    -0.641749428160E+03   -0.29496E-05   -0.56828E-05  6595   0.240E-02
  39 F= -.64174943E+03 E0= -.64166083E+03  d E =-.622811E-03
       N       E                     dE             d eps       ncg     rms          rms(c)
DAV:   1    -0.641749422438E+03    0.27719E-05   -0.35157E-04 13512   0.103E-01    0.260E-02
RMM:   2    -0.641749530154E+03   -0.10772E-03   -0.13856E-04  7747   0.435E-02    0.131E-01
RMM:   3    -0.641749426428E+03    0.10373E-03   -0.42595E-05  6141   0.333E-02    0.319E-02
RMM:   4    -0.641749419539E+03    0.68883E-05   -0.10816E-05  5297   0.160E-02
  40 F= -.64174942E+03 E0= -.64166082E+03  d E =-.614191E-03
       N       E                     dE             d eps       ncg     rms          rms(c)
DAV:   1    -0.641748234271E+03    0.11922E-02   -0.11386E-01 12408   0.192E+00    0.200E-01
RMM:   2    -0.641753210266E+03   -0.49760E-02   -0.26836E-02 11819   0.525E-01    0.600E-01
RMM:   3    -0.641750321087E+03    0.28892E-02   -0.35236E-03 10592   0.230E-01    0.273E-01
RMM:   4    -0.641749946013E+03    0.37507E-03   -0.11188E-03 11409   0.986E-02    0.118E-01
RMM:   5    -0.641749972407E+03   -0.26394E-04   -0.31144E-04  9724   0.613E-02    0.146E-01
RMM:   6    -0.641749841218E+03    0.13119E-03   -0.14007E-04  8527   0.429E-02    0.577E-02
RMM:   7    -0.641749844059E+03   -0.28410E-05   -0.10654E-04  8153   0.297E-02    0.602E-02
RMM:   8    -0.641749847289E+03   -0.32292E-05   -0.58571E-05  6509   0.291E-02
  41 F= -.64174985E+03 E0= -.64166129E+03  d E =-.427749E-03
       N       E                     dE             d eps       ncg     rms          rms(c)
DAV:   1    -0.641749618139E+03    0.22592E-03   -0.20253E-02 12888   0.816E-01    0.860E-02
RMM:   2    -0.641750614747E+03   -0.99661E-03   -0.46718E-03 11655   0.218E-01    0.294E-01
RMM:   3    -0.641750022390E+03    0.59236E-03   -0.64889E-04  9259   0.103E-01    0.147E-01
RMM:   4    -0.641749914639E+03    0.10775E-03   -0.20305E-04  9061   0.496E-02    0.583E-02
RMM:   5    -0.641749913853E+03    0.78646E-06   -0.63332E-05  6518   0.286E-02
  42 F= -.64174991E+03 E0= -.64166138E+03  d E =-.494314E-03
       N       E                     dE             d eps       ncg     rms          rms(c)
DAV:   1    -0.641748801083E+03    0.11136E-02   -0.80853E-02 12576   0.162E+00    0.179E-01
RMM:   2    -0.641752475284E+03   -0.36742E-02   -0.18925E-02 11682   0.448E-01    0.525E-01
RMM:   3    -0.641750259354E+03    0.22159E-02   -0.26461E-03 10345   0.201E-01    0.239E-01
RMM:   4    -0.641749957244E+03    0.30211E-03   -0.86224E-04 10905   0.860E-02    0.974E-02
RMM:   5    -0.641750004998E+03   -0.47753E-04   -0.23178E-04  8851   0.555E-02    0.145E-01
RMM:   6    -0.641749882157E+03    0.12284E-03   -0.10921E-04  7823   0.393E-02    0.445E-02
RMM:   7    -0.641749897597E+03   -0.15439E-04   -0.97155E-05  8136   0.275E-02    0.616E-02
RMM:   8    -0.641749894269E+03    0.33279E-05   -0.46402E-05  6083   0.263E-02
  43 F= -.64174989E+03 E0= -.64166138E+03  d E =-.474730E-03
       N       E                     dE             d eps       ncg     rms          rms(c)
DAV:   1    -0.641749592780E+03    0.30482E-03   -0.26069E-02 12264   0.916E-01    0.100E-01
RMM:   2    -0.641750799722E+03   -0.12069E-02   -0.62097E-03 11882   0.251E-01    0.310E-01
RMM:   3    -0.641750070759E+03    0.72896E-03   -0.80386E-04 10006   0.113E-01    0.148E-01
RMM:   4    -0.641749958455E+03    0.11230E-03   -0.24831E-04  9808   0.546E-02    0.632E-02
RMM:   5    -0.641749957949E+03    0.50575E-06   -0.70536E-05  6773   0.319E-02
  44 F= -.64174996E+03 E0= -.64166140E+03  d E =-.538410E-03
       N       E                     dE             d eps       ncg     rms          rms(c)
DAV:   1    -0.641749327237E+03    0.63122E-03   -0.29282E-02  9864   0.105E+00    0.584E-02
RMM:   2    -0.641750422718E+03   -0.10955E-02   -0.78584E-03 12866   0.224E-01    0.262E-01
RMM:   3    -0.641750054326E+03    0.36839E-03   -0.62882E-04  9016   0.973E-02    0.666E-02
RMM:   4    -0.641750069146E+03   -0.14820E-04   -0.17029E-04  8214   0.424E-02    0.697E-02
RMM:   5    -0.641750044134E+03    0.25012E-04   -0.34062E-05  5821   0.262E-02    0.304E-02
RMM:   6    -0.641750038507E+03    0.56273E-05   -0.14789E-05  5560   0.169E-02
  45 F= -.64175004E+03 E0= -.64166147E+03  d E =-.805573E-04
       N       E                     dE             d eps       ncg     rms          rms(c)
DAV:   1    -0.641749719595E+03    0.32454E-03   -0.15813E-02  9984   0.760E-01    0.303E-02
RMM:   2    -0.641750153470E+03   -0.43388E-03   -0.39874E-03 12501   0.165E-01    0.942E-02
RMM:   3    -0.641750105592E+03    0.47879E-04   -0.27993E-04  7710   0.611E-02    0.344E-02
RMM:   4    -0.641750114130E+03   -0.85383E-05   -0.77872E-05  7106   0.295E-02
  46 F= -.64175011E+03 E0= -.64166154E+03  d E =-.156181E-03
       N       E                     dE             d eps       ncg     rms          rms(c)
DAV:   1    -0.641750367861E+03   -0.26227E-03   -0.61612E-03 13392   0.407E-01    0.127E-01
RMM:   2    -0.641751580803E+03   -0.12129E-02   -0.28017E-03 10608   0.201E-01    0.377E-01
RMM:   3    -0.641750464643E+03    0.11162E-02   -0.76975E-04  9153   0.135E-01    0.203E-01
RMM:   4    -0.641750244214E+03    0.22043E-03   -0.21517E-04  9109   0.604E-02    0.713E-02
RMM:   5    -0.641750254384E+03   -0.10171E-04   -0.80263E-05  7154   0.334E-02    0.833E-02
RMM:   6    -0.641750219798E+03    0.34586E-04   -0.44970E-05  6487   0.284E-02    0.495E-02
RMM:   7    -0.641750205199E+03    0.14599E-04   -0.21124E-05  5555   0.198E-02    0.247E-02
RMM:   8    -0.641750206101E+03   -0.90138E-06   -0.14499E-05  5381   0.184E-02
  47 F= -.64175021E+03 E0= -.64166158E+03  d E =-.919705E-04
       N       E                     dE             d eps       ncg     rms          rms(c)
DAV:   1    -0.641750358467E+03   -0.15327E-03   -0.48606E-03 12960   0.373E-01    0.112E-01
RMM:   2    -0.641751363053E+03   -0.10046E-02   -0.23014E-03 10628   0.182E-01    0.336E-01
RMM:   3    -0.641750410013E+03    0.95304E-03   -0.63611E-04  9011   0.120E-01    0.158E-01
RMM:   4    -0.641750263349E+03    0.14666E-03   -0.14752E-04  8507   0.492E-02    0.555E-02
RMM:   5    -0.641750275331E+03   -0.11981E-04   -0.51122E-05  6427   0.293E-02    0.753E-02
RMM:   6    -0.641750246887E+03    0.28444E-04   -0.29781E-05  5704   0.258E-02    0.386E-02
RMM:   7    -0.641750237299E+03    0.95881E-05   -0.15226E-05  5311   0.172E-02
  48 F= -.64175024E+03 E0= -.64166158E+03  d E =-.123169E-03
       N       E                     dE             d eps       ncg     rms          rms(c)
DAV:   1    -0.641750663245E+03   -0.41636E-03   -0.19787E-02 12984   0.744E-01    0.228E-01
RMM:   2    -0.641754966471E+03   -0.43032E-02   -0.93485E-03 10664   0.368E-01    0.711E-01
RMM:   3    -0.641750956526E+03    0.40099E-02   -0.26928E-03  9805   0.244E-01    0.341E-01
RMM:   4    -0.641750275644E+03    0.68088E-03   -0.68655E-04 10015   0.977E-02    0.110E-01
RMM:   5    -0.641750307753E+03   -0.32109E-04   -0.25925E-04  9343   0.533E-02    0.136E-01
RMM:   6    -0.641750211588E+03    0.96165E-04   -0.14445E-04  8749   0.459E-02    0.835E-02
RMM:   7    -0.641750173034E+03    0.38554E-04   -0.63272E-05  6923   0.317E-02    0.446E-02
RMM:   8    -0.641750176757E+03   -0.37226E-05   -0.34676E-05  5879   0.251E-02
  49 F= -.64175018E+03 E0= -.64166145E+03  d E =-.626269E-04
       N       E                     dE             d eps       ncg     rms          rms(c)
DAV:   1    -0.641750483135E+03   -0.31010E-03   -0.11217E-02 12912   0.546E-01    0.160E-01
RMM:   2    -0.641752294426E+03   -0.18113E-02   -0.46876E-03 10875   0.261E-01    0.448E-01
RMM:   3    -0.641750551759E+03    0.17427E-02   -0.11764E-03  9897   0.160E-01    0.218E-01
RMM:   4    -0.641750282794E+03    0.26897E-03   -0.32347E-04 10002   0.683E-02    0.833E-02
RMM:   5    -0.641750306569E+03   -0.23776E-04   -0.13473E-04  8573   0.404E-02    0.106E-01
RMM:   6    -0.641750242915E+03    0.63654E-04   -0.70171E-05  7487   0.329E-02    0.515E-02
RMM:   7    -0.641750230219E+03    0.12697E-04   -0.30785E-05  5950   0.232E-02    0.323E-02
RMM:   8    -0.641750227080E+03    0.31392E-05   -0.14945E-05  5098   0.187E-02
  50 F= -.64175023E+03 E0= -.64166157E+03  d E =-.112950E-03
       N       E                     dE             d eps       ncg     rms          rms(c)
DAV:   1    -0.641750237182E+03   -0.69634E-05   -0.41948E-04 12720   0.115E-01    0.378E-02
RMM:   2    -0.641750412940E+03   -0.17576E-03   -0.25966E-04  8545   0.607E-02    0.153E-01
RMM:   3    -0.641750251680E+03    0.16126E-03   -0.86610E-05  6886   0.456E-02    0.564E-02
RMM:   4    -0.641750228951E+03    0.22729E-04   -0.13652E-05  5343   0.176E-02    0.194E-02
RMM:   5    -0.641750229076E+03   -0.12496E-06   -0.65344E-06  4490   0.141E-02
  51 F= -.64175023E+03 E0= -.64166158E+03  d E =-.114946E-03
       N       E                     dE             d eps       ncg     rms          rms(c)
DAV:   1    -0.641750139024E+03    0.89928E-04   -0.71116E-03  9840   0.519E-01    0.321E-02
RMM:   2    -0.641750352155E+03   -0.21313E-03   -0.18943E-03 13058   0.118E-01    0.838E-02
RMM:   3    -0.641750316642E+03    0.35514E-04   -0.14194E-04  7355   0.505E-02    0.375E-02
RMM:   4    -0.641750319234E+03   -0.25921E-05   -0.37193E-05  6046   0.271E-02
  52 F= -.64175032E+03 E0= -.64166165E+03  d E =-.901574E-04
       N       E                     dE             d eps       ncg     rms          rms(c)
DAV:   1    -0.641750063616E+03    0.25303E-03   -0.13891E-02  9720   0.717E-01    0.468E-02
RMM:   2    -0.641750437116E+03   -0.37350E-03   -0.35923E-03 13385   0.165E-01    0.946E-02
RMM:   3    -0.641750411170E+03    0.25946E-04   -0.30783E-04  8329   0.717E-02    0.715E-02
RMM:   4    -0.641750398836E+03    0.12335E-04   -0.93347E-05  7298   0.355E-02    0.431E-02
RMM:   5    -0.641750393355E+03    0.54804E-05   -0.30502E-05  5927   0.236E-02
  53 F= -.64175039E+03 E0= -.64166171E+03  d E =-.164279E-03
       N       E                     dE             d eps       ncg     rms          rms(c)
DAV:   1    -0.641750484514E+03   -0.85678E-04   -0.56241E-03 12432   0.436E-01    0.106E-01
RMM:   2    -0.641751387384E+03   -0.90287E-03   -0.24760E-03 10982   0.187E-01    0.319E-01
RMM:   3    -0.641750601163E+03    0.78622E-03   -0.60136E-04  9110   0.104E-01    0.161E-01
RMM:   4    -0.641750450308E+03    0.15085E-03   -0.13714E-04  8663   0.467E-02    0.511E-02
RMM:   5    -0.641750464922E+03   -0.14614E-04   -0.57738E-05  6571   0.300E-02    0.737E-02
RMM:   6    -0.641750440114E+03    0.24807E-04   -0.32475E-05  5783   0.262E-02    0.436E-02
RMM:   7    -0.641750432101E+03    0.80130E-05   -0.18088E-05  5446   0.200E-02
  54 F= -.64175043E+03 E0= -.64166176E+03  d E =-.387458E-04
       N       E                     dE             d eps       ncg     rms          rms(c)
DAV:   1    -0.641750498629E+03   -0.58514E-04   -0.59760E-03 12432   0.458E-01    0.114E-01
RMM:   2    -0.641751759542E+03   -0.12609E-02   -0.28842E-03 11030   0.198E-01    0.379E-01
RMM:   3    -0.641750672648E+03    0.10869E-02   -0.71552E-04  9140   0.113E-01    0.191E-01
RMM:   4    -0.641750462416E+03    0.21023E-03   -0.17606E-04  8769   0.544E-02    0.580E-02
RMM:   5    -0.641750464036E+03   -0.16195E-05   -0.61907E-05  6754   0.289E-02
  55 F= -.64175046E+03 E0= -.64166181E+03  d E =-.706805E-04
       N       E                     dE             d eps       ncg     rms          rms(c)
DAV:   1    -0.641750470733E+03   -0.83170E-05   -0.88743E-04 13512   0.180E-01    0.777E-02
RMM:   2    -0.641751638931E+03   -0.11682E-02   -0.11995E-03  9285   0.123E-01    0.442E-01
RMM:   3    -0.641750516227E+03    0.11227E-02   -0.43546E-04  8414   0.938E-02    0.102E-01
RMM:   4    -0.641750444611E+03    0.71616E-04   -0.70747E-05  6879   0.367E-02    0.472E-02
RMM:   5    -0.641750435924E+03    0.86861E-05   -0.20508E-05  5583   0.219E-02
  56 F= -.64175044E+03 E0= -.64166178E+03  d E =-.425690E-04
       N       E                     dE             d eps       ncg     rms          rms(c)
DAV:   1    -0.641750441290E+03    0.33203E-05   -0.13833E-04 12312   0.622E-02    0.308E-02
RMM:   2    -0.641750722931E+03   -0.28164E-03   -0.22144E-04  8059   0.547E-02    0.218E-01
RMM:   3    -0.641750444348E+03    0.27858E-03   -0.81262E-05  6755   0.444E-02    0.265E-02
RMM:   4    -0.641750438605E+03    0.57425E-05   -0.80509E-06  4564   0.114E-02
  57 F= -.64175044E+03 E0= -.64166177E+03  d E =-.452499E-04
       N       E                     dE             d eps       ncg     rms          rms(c)
DAV:   1    -0.641750443435E+03    0.91289E-06   -0.10088E-04  9936   0.588E-02    0.173E-02
RMM:   2    -0.641750488619E+03   -0.45184E-04   -0.59754E-05  6620   0.319E-02    0.894E-02
RMM:   3    -0.641750447331E+03    0.41288E-04   -0.19810E-05  5675   0.255E-02    0.243E-02
RMM:   4    -0.641750443697E+03    0.36338E-05   -0.46787E-06  4444   0.102E-02
  58 F= -.64175044E+03 E0= -.64166178E+03  d E =-.503415E-04
       N       E                     dE             d eps       ncg     rms          rms(c)
DAV:   1    -0.641750445229E+03    0.21015E-05   -0.20596E-05  6480   0.268E-02    0.125E-02
RMM:   2    -0.641750478199E+03   -0.32969E-04   -0.25899E-05  5810   0.234E-02    0.768E-02
RMM:   3    -0.641750445651E+03    0.32548E-04   -0.11895E-05  5336   0.194E-02    0.125E-02
RMM:   4    -0.641750444723E+03    0.92797E-06   -0.23520E-06  4420   0.613E-03
  59 F= -.64175044E+03 E0= -.64166177E+03  d E =-.513674E-04
       N       E                     dE             d eps       ncg     rms          rms(c)
DAV:   1    -0.641750355261E+03    0.90390E-04   -0.46986E-03 11568   0.449E-01    0.288E-02
RMM:   2    -0.641750536520E+03   -0.18126E-03   -0.14712E-03 11542   0.956E-02    0.763E-02
RMM:   3    -0.641750492172E+03    0.44348E-04   -0.11334E-04  6584   0.427E-02    0.409E-02
RMM:   4    -0.641750486241E+03    0.59311E-05   -0.28339E-05  5713   0.229E-02
  60 F= -.64175049E+03 E0= -.64166181E+03  d E =-.415180E-04
       N       E                     dE             d eps       ncg     rms          rms(c)
DAV:   1    -0.641750338462E+03    0.15371E-03   -0.73069E-03 11640   0.553E-01    0.456E-02
RMM:   2    -0.641750748082E+03   -0.40962E-03   -0.24554E-03 12100   0.127E-01    0.174E-01
RMM:   3    -0.641750569208E+03    0.17887E-03   -0.24717E-04  7843   0.622E-02    0.835E-02
RMM:   4    -0.641750531217E+03    0.37991E-04   -0.67302E-05  6517   0.312E-02    0.220E-02
RMM:   5    -0.641750535477E+03   -0.42599E-05   -0.20521E-05  5667   0.199E-02
  61 F= -.64175054E+03 E0= -.64166184E+03  d E =-.907543E-04
       N       E                     dE             d eps       ncg     rms          rms(c)
DAV:   1    -0.641749816587E+03    0.71463E-03   -0.28536E-02 11040   0.110E+00    0.801E-02
RMM:   2    -0.641751056337E+03   -0.12398E-02   -0.93809E-03 12764   0.246E-01    0.228E-01
RMM:   3    -0.641750686329E+03    0.37001E-03   -0.82208E-04  9306   0.102E-01    0.122E-01
RMM:   4    -0.641750623250E+03    0.63079E-04   -0.24647E-04  8915   0.487E-02    0.558E-02
RMM:   5    -0.641750624694E+03   -0.14442E-05   -0.59883E-05  6299   0.302E-02
  62 F= -.64175062E+03 E0= -.64166194E+03  d E =-.179971E-03
       N       E                     dE             d eps       ncg     rms          rms(c)
DAV:   1    -0.641747809417E+03    0.28138E-02   -0.11629E-01 12792   0.220E+00    0.159E-01
RMM:   2    -0.641752628933E+03   -0.48195E-02   -0.35262E-02 12531   0.483E-01    0.470E-01
RMM:   3    -0.641750967519E+03    0.16614E-02   -0.32687E-03 10395   0.202E-01    0.217E-01
RMM:   4    -0.641750768932E+03    0.19859E-03   -0.10034E-03 10884   0.853E-02    0.105E-01
RMM:   5    -0.641750774510E+03   -0.55772E-05   -0.19982E-04  7997   0.526E-02    0.119E-01
RMM:   6    -0.641750687635E+03    0.86875E-04   -0.88039E-05  7157   0.324E-02    0.384E-02
RMM:   7    -0.641750714091E+03   -0.26456E-04   -0.86641E-05  7666   0.277E-02    0.746E-02
RMM:   8    -0.641750694661E+03    0.19429E-04   -0.52943E-05  6703   0.281E-02    0.551E-02
RMM:   9    -0.641750681296E+03    0.13365E-04   -0.28450E-05  5799   0.218E-02    0.222E-02
RMM:  10    -0.641750681440E+03   -0.14433E-06   -0.15061E-05  5506   0.174E-02
  63 F= -.64175068E+03 E0= -.64166194E+03  d E =-.236718E-03
       N       E                     dE             d eps       ncg     rms          rms(c)
DAV:   1    -0.641750637025E+03    0.44271E-04   -0.44667E-03 11520   0.435E-01    0.311E-02
RMM:   2    -0.641750831522E+03   -0.19450E-03   -0.14700E-03 11862   0.958E-02    0.896E-02
RMM:   3    -0.641750769864E+03    0.61658E-04   -0.12662E-04  6781   0.458E-02    0.441E-02
RMM:   4    -0.641750763091E+03    0.67727E-05   -0.37335E-05  6011   0.234E-02
  64 F= -.64175076E+03 E0= -.64166199E+03  d E =-.816505E-04
       N       E                     dE             d eps       ncg     rms          rms(c)
DAV:   1    -0.641749905724E+03    0.86414E-03   -0.38337E-02 10824   0.127E+00    0.959E-02
RMM:   2    -0.641751797599E+03   -0.18919E-02   -0.13060E-02 12841   0.281E-01    0.317E-01
RMM:   3    -0.641751159088E+03    0.63851E-03   -0.12029E-03  9638   0.124E-01    0.187E-01
RMM:   4    -0.641750991833E+03    0.16725E-03   -0.35213E-04  9498   0.610E-02    0.530E-02
RMM:   5    -0.641750997711E+03   -0.58775E-05   -0.10523E-04  7047   0.320E-02    0.623E-02
RMM:   6    -0.641750976286E+03    0.21424E-04   -0.35080E-05  5907   0.233E-02    0.324E-02
RMM:   7    -0.641750975168E+03    0.11180E-05   -0.20442E-05  5797   0.176E-02
  65 F= -.64175098E+03 E0= -.64166214E+03  d E =-.293728E-03
       N       E                     dE             d eps       ncg     rms          rms(c)
DAV:   1    -0.641746973246E+03    0.40030E-02   -0.15107E-01 10464   0.254E+00    0.177E-01
RMM:   2    -0.641753677682E+03   -0.67044E-02   -0.51338E-02 12870   0.545E-01    0.488E-01
RMM:   3    -0.641751687219E+03    0.19905E-02   -0.43653E-03 10690   0.223E-01    0.277E-01
RMM:   4    -0.641751406907E+03    0.28031E-03   -0.11982E-03 10685   0.994E-02    0.128E-01
RMM:   5    -0.641751378865E+03    0.28042E-04   -0.36997E-04  9650   0.516E-02    0.102E-01
RMM:   6    -0.641751313018E+03    0.65847E-04   -0.11925E-04  7591   0.332E-02    0.581E-02
RMM:   7    -0.641751310898E+03    0.21203E-05   -0.55535E-05  6413   0.265E-02
  66 F= -.64175131E+03 E0= -.64166237E+03  d E =-.629458E-03
       N       E                     dE             d eps       ncg     rms          rms(c)
DAV:   1    -0.641734261518E+03    0.17052E-01   -0.60453E-01 10440   0.508E+00    0.352E-01
RMM:   2    -0.641760454604E+03   -0.26193E-01   -0.20470E-01 12861   0.109E+00    0.938E-01
RMM:   3    -0.641753069798E+03    0.73848E-02   -0.17110E-02 10934   0.440E-01    0.540E-01
[...]
RMM:   3    -0.641760932994E+03    0.41640E-02   -0.15564E-02 10674   0.421E-01    0.437E-01
RMM:   4    -0.641760513296E+03    0.41970E-03   -0.40394E-03 11330   0.184E-01    0.269E-01
RMM:   5    -0.641760282883E+03    0.23041E-03   -0.10076E-03 10151   0.103E-01    0.198E-01
RMM:   6    -0.641760078377E+03    0.20451E-03   -0.44542E-04  9940   0.547E-02    0.996E-02
RMM:   7    -0.641760073038E+03    0.53386E-05   -0.21636E-04  8788   0.370E-02    0.904E-02
RMM:   8    -0.641760093542E+03   -0.20504E-04   -0.20689E-04  8904   0.440E-02    0.115E-01
RMM:   9    -0.641760013720E+03    0.79822E-04   -0.11309E-04  7986   0.341E-02    0.337E-02
RMM:  10    -0.641760023105E+03   -0.93854E-05   -0.66906E-05  6744   0.240E-02
  79 F= -.64176002E+03 E0= -.64167118E+03  d E =-.232914E-02
       N       E                     dE             d eps       ncg     rms          rms(c)
DAV:   1    -0.641680130448E+03    0.79883E-01   -0.25336E+00  9360   0.977E+00    0.573E-01
RMM:   2    -0.641775766099E+03   -0.95636E-01   -0.84101E-01 13076   0.222E+00    0.149E+00
RMM:   3    -0.641763427218E+03    0.12339E-01   -0.76796E-02 10847   0.829E-01    0.852E-01
RMM:   4    -0.641761872904E+03    0.15543E-02   -0.14904E-02 11557   0.360E-01    0.539E-01
RMM:   5    -0.641760868015E+03    0.10049E-02   -0.41171E-03 11200   0.199E-01    0.383E-01
RMM:   6    -0.641760126801E+03    0.74121E-03   -0.16816E-03 10708   0.101E-01    0.200E-01
RMM:   7    -0.641760130898E+03   -0.40968E-05   -0.86248E-04 10485   0.726E-02    0.191E-01
RMM:   8    -0.641760160466E+03   -0.29568E-04   -0.78488E-04 10637   0.808E-02    0.221E-01
RMM:   9    -0.641759882268E+03    0.27820E-03   -0.42782E-04 10018   0.643E-02    0.764E-02
RMM:  10    -0.641759913033E+03   -0.30765E-04   -0.29510E-04 10107   0.416E-02    0.979E-02
RMM:  11    -0.641759869038E+03    0.43995E-04   -0.12599E-04  7164   0.302E-02    0.309E-02
RMM:  12    -0.641759874417E+03   -0.53788E-05   -0.89654E-05  6723   0.219E-02
  80 F= -.64175987E+03 E0= -.64167119E+03  d E =-.218045E-02
       N       E                     dE             d eps       ncg     rms          rms(c)
DAV:   1    -0.641733129512E+03    0.26740E-01   -0.86725E-01  9360   0.572E+00    0.340E-01
RMM:   2    -0.641767253548E+03   -0.34124E-01   -0.29044E-01 13067   0.134E+00    0.973E-01
RMM:   3    -0.641761501584E+03    0.57520E-02   -0.26926E-02 10766   0.498E-01    0.502E-01
RMM:   4    -0.641760968894E+03    0.53269E-03   -0.52005E-03 11384   0.220E-01    0.323E-01
RMM:   5    -0.641760630662E+03    0.33823E-03   -0.13767E-03 10504   0.122E-01    0.233E-01
RMM:   6    -0.641760349088E+03    0.28157E-03   -0.55905E-04 10028   0.632E-02    0.120E-01
RMM:   7    -0.641760330576E+03    0.18512E-04   -0.25227E-04  8983   0.434E-02    0.104E-01
RMM:   8    -0.641760364328E+03   -0.33753E-04   -0.24337E-04  9125   0.508E-02    0.141E-01
RMM:   9    -0.641760242626E+03    0.12170E-03   -0.13717E-04  8325   0.417E-02    0.419E-02
RMM:  10    -0.641760254838E+03   -0.12211E-04   -0.79485E-05  7012   0.267E-02    0.582E-02
RMM:  11    -0.641760239543E+03    0.15295E-04   -0.35197E-05  5994   0.224E-02    0.173E-02
RMM:  12    -0.641760241553E+03   -0.20099E-05   -0.24220E-05  6039   0.153E-02
  81 F= -.64176024E+03 E0= -.64167148E+03  d E =-.254759E-02
       N       E                     dE             d eps       ncg     rms          rms(c)
DAV:   1    -0.641748792600E+03    0.11447E-01   -0.46121E-01  9744   0.412E+00    0.284E-01
RMM:   2    -0.641766697859E+03   -0.17905E-01   -0.14676E-01 12862   0.950E-01    0.764E-01
RMM:   3    -0.641762117693E+03    0.45802E-02   -0.11383E-02 11211   0.353E-01    0.414E-01
RMM:   4    -0.641761456118E+03    0.66158E-03   -0.27350E-03 10961   0.165E-01    0.228E-01
RMM:   5    -0.641761423926E+03    0.32192E-04   -0.85945E-04  9631   0.992E-02    0.218E-01
RMM:   6    -0.641761143899E+03    0.28003E-03   -0.32404E-04  9388   0.549E-02    0.802E-02
RMM:   7    -0.641761172021E+03   -0.28122E-04   -0.18747E-04  8588   0.367E-02    0.109E-01
RMM:   8    -0.641761164319E+03    0.77015E-05   -0.16076E-04  8593   0.443E-02    0.104E-01
RMM:   9    -0.641761100639E+03    0.63680E-04   -0.10201E-04  8068   0.320E-02    0.321E-02
RMM:  10    -0.641761102787E+03   -0.21482E-05   -0.45521E-05  6461   0.216E-02
  82 F= -.64176110E+03 E0= -.64167246E+03  d E =-.861235E-03
       N       E                     dE             d eps       ncg     rms          rms(c)
DAV:   1    -0.641727270226E+03    0.33830E-01   -0.12577E+00  9672   0.683E+00    0.467E-01
RMM:   2    -0.641776510104E+03   -0.49240E-01   -0.40542E-01 12869   0.158E+00    0.126E+00
RMM:   3    -0.641764412382E+03    0.12098E-01   -0.33460E-02 11368   0.580E-01    0.678E-01
RMM:   4    -0.641762640831E+03    0.17716E-02   -0.76111E-03 11377   0.269E-01    0.373E-01
RMM:   5    -0.641762546945E+03    0.93885E-04   -0.25115E-03 10603   0.159E-01    0.352E-01
RMM:   6    -0.641761830111E+03    0.71683E-03   -0.96988E-04 10322   0.861E-02    0.136E-01
RMM:   7    -0.641761914342E+03   -0.84231E-04   -0.57682E-04 10327   0.596E-02    0.183E-01
RMM:   8    -0.641761888619E+03    0.25723E-04   -0.45685E-04 10174   0.710E-02    0.171E-01
RMM:   9    -0.641761725148E+03    0.16347E-03   -0.33045E-04 10653   0.498E-02    0.601E-02
RMM:  10    -0.641761728269E+03   -0.31215E-05   -0.15253E-04  8517   0.326E-02    0.593E-02
RMM:  11    -0.641761717408E+03    0.10861E-04   -0.73875E-05  6872   0.224E-02    0.274E-02
RMM:  12    -0.641761722940E+03   -0.55317E-05   -0.45924E-05  6213   0.213E-02
  83 F= -.64176172E+03 E0= -.64167331E+03  d E =-.148139E-02
       N       E                     dE             d eps       ncg     rms          rms(c)
DAV:   1    -0.641759846004E+03    0.18714E-02   -0.13669E-01  9768   0.213E+00    0.142E-01
RMM:   2    -0.641763022416E+03   -0.31764E-02   -0.32265E-02 13070   0.504E-01    0.274E-01
RMM:   3    -0.641762744764E+03    0.27765E-03   -0.24228E-03 10942   0.175E-01    0.185E-01
RMM:   4    -0.641762829206E+03   -0.84443E-04   -0.77377E-04 10768   0.929E-02    0.207E-01
RMM:   5    -0.641762552769E+03    0.27644E-03   -0.25479E-04  9205   0.547E-02    0.624E-02
RMM:   6    -0.641762606543E+03   -0.53774E-04   -0.17645E-04  8712   0.377E-02    0.114E-01
RMM:   7    -0.641762547175E+03    0.59368E-04   -0.10057E-04  7949   0.329E-02    0.588E-02
RMM:   8    -0.641762529061E+03    0.18114E-04   -0.50313E-05  6315   0.229E-02    0.194E-02
RMM:   9    -0.641762531601E+03   -0.25403E-05   -0.31770E-05  6080   0.180E-02
  84 F= -.64176253E+03 E0= -.64167411E+03  d E =-.808662E-03
       N       E                     dE             d eps       ncg     rms          rms(c)
DAV:   1    -0.641749944199E+03    0.12585E-01   -0.67652E-01  9456   0.473E+00    0.316E-01
RMM:   2    -0.641765388683E+03   -0.15444E-01   -0.15944E-01 13057   0.112E+00    0.572E-01
RMM:   3    -0.641764392772E+03    0.99591E-03   -0.11960E-02 11135   0.384E-01    0.428E-01
RMM:   4    -0.641764572111E+03   -0.17934E-03   -0.35683E-03 11455   0.202E-01    0.437E-01
RMM:   5    -0.641763342794E+03    0.12293E-02   -0.12269E-03 10782   0.116E-01    0.136E-01
RMM:   6    -0.641763578817E+03   -0.23602E-03   -0.82390E-04 10782   0.766E-02    0.243E-01
RMM:   7    -0.641763329322E+03    0.24949E-03   -0.52990E-04 10804   0.690E-02    0.141E-01
RMM:   8    -0.641763222638E+03    0.10668E-03   -0.24689E-04  8648   0.497E-02    0.610E-02
RMM:   9    -0.641763216115E+03    0.65224E-05   -0.16058E-04  8172   0.276E-02    0.382E-02
RMM:  10    -0.641763216772E+03   -0.65663E-06   -0.80020E-05  6685   0.225E-02
  85 F= -.64176322E+03 E0= -.64167478E+03  d E =-.149383E-02
       N       E                     dE             d eps       ncg     rms          rms(c)
DAV:   1    -0.641758688401E+03    0.45277E-02   -0.22450E-01  9432   0.292E+00    0.159E-01
RMM:   2    -0.641765597091E+03   -0.69087E-02   -0.58007E-02 13080   0.639E-01    0.466E-01
RMM:   3    -0.641764120002E+03    0.14771E-02   -0.44012E-03 10898   0.248E-01    0.214E-01
RMM:   4    -0.641764026640E+03    0.93363E-04   -0.13416E-03 11550   0.101E-01    0.131E-01
RMM:   5    -0.641763975000E+03    0.51640E-04   -0.30109E-04  9192   0.590E-02    0.107E-01
RMM:   6    -0.641763910310E+03    0.64690E-04   -0.12700E-04  8073   0.322E-02    0.472E-02
RMM:   7    -0.641763922202E+03   -0.11892E-04   -0.85606E-05  7345   0.276E-02    0.628E-02
RMM:   8    -0.641763921006E+03    0.11959E-05   -0.80312E-05  7476   0.301E-02
  86 F= -.64176392E+03 E0= -.64167547E+03  d E =-.704234E-03
       N       E                     dE             d eps       ncg     rms          rms(c)
DAV:   1    -0.641717783118E+03    0.46139E-01   -0.20122E+00  9408   0.875E+00    0.471E-01
RMM:   2    -0.641777149441E+03   -0.59366E-01   -0.52151E-01 13096   0.190E+00    0.122E+00
RMM:   3    -0.641767082759E+03    0.10067E-01   -0.38619E-02 11156   0.726E-01    0.687E-01
RMM:   4    -0.641765920976E+03    0.11618E-02   -0.11149E-02 11849   0.298E-01    0.394E-01
RMM:   5    -0.641765516631E+03    0.40434E-03   -0.25129E-03 11177   0.166E-01    0.345E-01
RMM:   6    -0.641764883954E+03    0.63268E-03   -0.11581E-03 10733   0.898E-02    0.151E-01
RMM:   7    -0.641764970105E+03   -0.86150E-04   -0.70979E-04 10696   0.651E-02    0.191E-01
RMM:   8    -0.641764943792E+03    0.26312E-04   -0.61355E-04 10485   0.797E-02    0.188E-01
RMM:   9    -0.641764725255E+03    0.21854E-03   -0.37873E-04 10816   0.538E-02    0.489E-02
RMM:  10    -0.641764759087E+03   -0.33832E-04   -0.20244E-04  8710   0.350E-02    0.822E-02
RMM:  11    -0.641764729050E+03    0.30037E-04   -0.96081E-05  6900   0.267E-02    0.252E-02
RMM:  12    -0.641764732391E+03   -0.33410E-05   -0.66191E-05  6621   0.203E-02
  87 F= -.64176473E+03 E0= -.64167619E+03  d E =-.151562E-02
       N       E                     dE             d eps       ncg     rms          rms(c)
DAV:   1    -0.641762553315E+03    0.21757E-02   -0.14682E-01 11280   0.231E+00    0.185E-01
RMM:   2    -0.641767993658E+03   -0.54403E-02   -0.38844E-02 12576   0.541E-01    0.505E-01
RMM:   3    -0.641765702114E+03    0.22915E-02   -0.33419E-03 10909   0.218E-01    0.275E-01
RMM:   4    -0.641765374727E+03    0.32739E-03   -0.10199E-03 10946   0.105E-01    0.129E-01
RMM:   5    -0.641765394538E+03   -0.19811E-04   -0.35699E-04  9723   0.604E-02    0.139E-01
RMM:   6    -0.641765276151E+03    0.11839E-03   -0.14902E-04  8439   0.386E-02    0.531E-02
RMM:   7    -0.641765289670E+03   -0.13519E-04   -0.94206E-05  7582   0.301E-02    0.708E-02
RMM:   8    -0.641765293677E+03   -0.40069E-05   -0.66636E-05  6791   0.316E-02
  88 F= -.64176529E+03 E0= -.64167686E+03  d E =-.561286E-03
       N       E                     dE             d eps       ncg     rms          rms(c)
DAV:   1    -0.641738102079E+03    0.27188E-01   -0.12814E+00 10296   0.691E+00    0.559E-01
RMM:   2    -0.641790799005E+03   -0.52697E-01   -0.37487E-01 12472   0.169E+00    0.157E+00
RMM:   3    -0.641770072019E+03    0.20727E-01   -0.38844E-02 11082   0.656E-01    0.850E-01
RMM:   4    -0.641766873111E+03    0.31989E-02   -0.91208E-03 11471   0.302E-01    0.389E-01
RMM:   5    -0.641767047282E+03   -0.17417E-03   -0.29634E-03 10981   0.174E-01    0.417E-01
RMM:   6    -0.641765987958E+03    0.10593E-02   -0.13150E-03 10884   0.103E-01    0.150E-01
RMM:   7    -0.641766133163E+03   -0.14521E-03   -0.82837E-04 10734   0.770E-02    0.216E-01
RMM:   8    -0.641766144757E+03   -0.11594E-04   -0.56339E-04 10368   0.854E-02    0.228E-01
RMM:   9    -0.641765839641E+03    0.30512E-03   -0.33543E-04 10508   0.584E-02    0.442E-02
RMM:  10    -0.641765856255E+03   -0.16614E-04   -0.18510E-04  9355   0.330E-02    0.546E-02
RMM:  11    -0.641765848824E+03    0.74315E-05   -0.75645E-05  7071   0.228E-02
  89 F= -.64176585E+03 E0= -.64167752E+03  d E =-.111643E-02
       N       E                     dE             d eps       ncg     rms          rms(c)
DAV:   1    -0.641765169898E+03    0.68636E-03   -0.37209E-02 10752   0.116E+00    0.975E-02
RMM:   2    -0.641766686175E+03   -0.15163E-02   -0.10303E-02 12751   0.279E-01    0.293E-01
RMM:   3    -0.641766010304E+03    0.67587E-03   -0.90620E-04 10637   0.114E-01    0.146E-01
RMM:   4    -0.641765909705E+03    0.10060E-03   -0.25872E-04  9814   0.594E-02    0.661E-02
RMM:   5    -0.641765913698E+03   -0.39935E-05   -0.84152E-05  7179   0.330E-02
  90 F= -.64176591E+03 E0= -.64167751E+03  d E =-.118131E-02
       N       E                     dE             d eps       ncg     rms          rms(c)
DAV:   1    -0.641762443706E+03    0.34660E-02   -0.16242E-01  9600   0.245E+00    0.114E-01
RMM:   2    -0.641766722347E+03   -0.42786E-02   -0.40623E-02 12964   0.518E-01    0.287E-01
RMM:   3    -0.641766350092E+03    0.37225E-03   -0.26323E-03 10731   0.181E-01    0.152E-01
RMM:   4    -0.641766405869E+03   -0.55777E-04   -0.76300E-04 10391   0.825E-02    0.142E-01
RMM:   5    -0.641766288636E+03    0.11723E-03   -0.15187E-04  7624   0.468E-02    0.569E-02
RMM:   6    -0.641766274966E+03    0.13669E-04   -0.72294E-05  7314   0.246E-02    0.349E-02
RMM:   7    -0.641766282777E+03   -0.78105E-05   -0.40035E-05  6408   0.225E-02
  91 F= -.64176628E+03 E0= -.64167789E+03  d E =-.369079E-03
       N       E                     dE             d eps       ncg     rms          rms(c)
DAV:   1    -0.641761826897E+03    0.44481E-02   -0.20591E-01  9720   0.276E+00    0.119E-01
RMM:   2    -0.641767262793E+03   -0.54359E-02   -0.50500E-02 12886   0.584E-01    0.335E-01
RMM:   3    -0.641766608922E+03    0.65387E-03   -0.33726E-03 10905   0.201E-01    0.134E-01
RMM:   4    -0.641766707684E+03   -0.98762E-04   -0.98576E-04 11089   0.891E-02    0.138E-01
RMM:   5    -0.641766581209E+03    0.12647E-03   -0.21760E-04  9157   0.434E-02    0.472E-02
RMM:   6    -0.641766585082E+03   -0.38725E-05   -0.87862E-05  7314   0.253E-02
  92 F= -.64176659E+03 E0= -.64167824E+03  d E =-.671384E-03
       N       E                     dE             d eps       ncg     rms          rms(c)
DAV:   1    -0.641747776874E+03    0.18804E-01   -0.82560E-01  9720   0.549E+00    0.227E-01
RMM:   2    -0.641768303717E+03   -0.20527E-01   -0.20008E-01 12894   0.116E+00    0.533E-01
RMM:   3    -0.641767014530E+03    0.12892E-02   -0.13199E-02 11228   0.390E-01    0.303E-01
RMM:   4    -0.641767278457E+03   -0.26393E-03   -0.36064E-03 11960   0.172E-01    0.282E-01
RMM:   5    -0.641766803368E+03    0.47509E-03   -0.84551E-04 10821   0.855E-02    0.940E-02
RMM:   6    -0.641766852544E+03   -0.49176E-04   -0.38360E-04 10458   0.464E-02    0.126E-01
RMM:   7    -0.641766814645E+03    0.37899E-04   -0.32580E-04 10731   0.465E-02    0.983E-02
RMM:   8    -0.641766767147E+03    0.47498E-04   -0.14006E-04  8765   0.350E-02    0.499E-02
RMM:   9    -0.641766769139E+03   -0.19915E-05   -0.85790E-05  7310   0.255E-02
  93 F= -.64176677E+03 E0= -.64167845E+03  d E =-.855440E-03
       N       E                     dE             d eps       ncg     rms          rms(c)
DAV:   1    -0.641764739235E+03    0.20279E-02   -0.12260E-01 11808   0.210E+00    0.204E-01
RMM:   2    -0.641770894193E+03   -0.61550E-02   -0.35978E-02 12153   0.538E-01    0.633E-01
RMM:   3    -0.641767513704E+03    0.33805E-02   -0.39590E-03 10670   0.243E-01    0.270E-01
RMM:   4    -0.641767120194E+03    0.39351E-03   -0.12184E-03 11134   0.969E-02    0.111E-01
RMM:   5    -0.641767169612E+03   -0.49418E-04   -0.29799E-04  9310   0.602E-02    0.155E-01
RMM:   6    -0.641767030872E+03    0.13874E-03   -0.11669E-04  7821   0.382E-02    0.468E-02
RMM:   7    -0.641767047817E+03   -0.16945E-04   -0.90025E-05  7457   0.290E-02    0.731E-02
RMM:   8    -0.641767039720E+03    0.80976E-05   -0.58765E-05  6672   0.306E-02
  94 F= -.64176704E+03 E0= -.64167871E+03  d E =-.270581E-03
       N       E                     dE             d eps       ncg     rms          rms(c)
DAV:   1    -0.641766711870E+03    0.33595E-03   -0.17238E-02 12240   0.793E-01    0.749E-02
RMM:   2    -0.641767595442E+03   -0.88357E-03   -0.50610E-03 11965   0.200E-01    0.254E-01
RMM:   3    -0.641767114191E+03    0.48125E-03   -0.56368E-04  9393   0.956E-02    0.111E-01
RMM:   4    -0.641767053009E+03    0.61183E-04   -0.17071E-04  8659   0.431E-02    0.499E-02
RMM:   5    -0.641767052623E+03    0.38552E-06   -0.39667E-05  5912   0.254E-02
  95 F= -.64176705E+03 E0= -.64167869E+03  d E =-.283485E-03
       N       E                     dE             d eps       ncg     rms          rms(c)
DAV:   1    -0.641766494580E+03    0.55843E-03   -0.86650E-02 12144   0.161E+00    0.219E-01
RMM:   2    -0.641771620484E+03   -0.51259E-02   -0.21073E-02 11498   0.518E-01    0.659E-01
RMM:   3    -0.641767979280E+03    0.36412E-02   -0.37294E-03 10556   0.238E-01    0.315E-01
RMM:   4    -0.641767445962E+03    0.53332E-03   -0.98287E-04 11078   0.996E-02    0.125E-01
RMM:   5    -0.641767468918E+03   -0.22956E-04   -0.33357E-04  9957   0.580E-02    0.143E-01
RMM:   6    -0.641767360693E+03    0.10823E-03   -0.16372E-04  9148   0.419E-02    0.681E-02
RMM:   7    -0.641767344801E+03    0.15892E-04   -0.97308E-05  7685   0.309E-02    0.496E-02
RMM:   8    -0.641767365908E+03   -0.21107E-04   -0.60204E-05  6531   0.276E-02    0.812E-02
RMM:   9    -0.641767331738E+03    0.34170E-04   -0.31366E-05  5745   0.281E-02    0.216E-02
RMM:  10    -0.641767331733E+03    0.52387E-08   -0.18167E-05  5746   0.148E-02
  96 F= -.64176733E+03 E0= -.64167907E+03  d E =-.279109E-03
       N       E                     dE             d eps       ncg     rms          rms(c)
DAV:   1    -0.641767085516E+03    0.24622E-03   -0.31290E-02 12504   0.970E-01    0.137E-01
RMM:   2    -0.641769070446E+03   -0.19849E-02   -0.73921E-03 11263   0.307E-01    0.429E-01
RMM:   3    -0.641767605579E+03    0.14649E-02   -0.13323E-03 10005   0.152E-01    0.201E-01
RMM:   4    -0.641767383343E+03    0.22224E-03   -0.38217E-04 10077   0.677E-02    0.753E-02
RMM:   5    -0.641767394362E+03   -0.11019E-04   -0.11868E-04  7656   0.378E-02    0.879E-02
RMM:   6    -0.641767357089E+03    0.37273E-04   -0.60601E-05  6719   0.275E-02    0.445E-02
RMM:   7    -0.641767349843E+03    0.72462E-05   -0.34589E-05  6259   0.216E-02
  97 F= -.64176735E+03 E0= -.64167915E+03  d E =-.297219E-03
       N       E                     dE             d eps       ncg     rms          rms(c)
DAV:   1    -0.641767002049E+03    0.35504E-03   -0.32465E-02 12432   0.107E+00    0.128E-01
RMM:   2    -0.641769314651E+03   -0.23126E-02   -0.84996E-03 11530   0.311E-01    0.483E-01
RMM:   3    -0.641767710046E+03    0.16046E-02   -0.13978E-03  9915   0.151E-01    0.205E-01
RMM:   4    -0.641767470813E+03    0.23923E-03   -0.41680E-04 10128   0.671E-02    0.631E-02
RMM:   5    -0.641767469293E+03    0.15202E-05   -0.11454E-04  7856   0.344E-02    0.674E-02
RMM:   6    -0.641767451019E+03    0.18274E-04   -0.43810E-05  6073   0.276E-02    0.537E-02
RMM:   7    -0.641767438376E+03    0.12643E-04   -0.28852E-05  5945   0.231E-02    0.267E-02
RMM:   8    -0.641767450048E+03   -0.11671E-04   -0.24267E-05  5644   0.212E-02    0.490E-02
RMM:   9    -0.641767438669E+03    0.11379E-04   -0.16057E-05  5440   0.198E-02    0.158E-02
RMM:  10    -0.641767439402E+03   -0.73328E-06   -0.89363E-06  5236   0.125E-02
  98 F= -.64176744E+03 E0= -.64167925E+03  d E =-.895595E-04
       N       E                     dE             d eps       ncg     rms          rms(c)
DAV:   1    -0.641767377402E+03    0.61267E-04   -0.45715E-03 12384   0.403E-01    0.440E-02
RMM:   2    -0.641767611312E+03   -0.23391E-03   -0.11474E-03 11270   0.111E-01    0.128E-01
RMM:   3    -0.641767465583E+03    0.14573E-03   -0.15369E-04  7730   0.533E-02    0.592E-02
RMM:   4    -0.641767447613E+03    0.17970E-04   -0.45906E-05  6361   0.261E-02    0.237E-02
RMM:   5    -0.641767449452E+03   -0.18394E-05   -0.14204E-05  5323   0.195E-02
  99 F= -.64176745E+03 E0= -.64167927E+03  d E =-.996095E-04
