<?xml version="1.0" encoding="ISO-8859-1"?>
<modeling>
 <generator>
  <i name="program" type="string">vasp </i>
  <i name="version" type="string">5.4.4.18Apr17-6-g9f103f2a35  </i>
  <i name="subversion" type="string">(build Oct 18 2021 20:38:43) complex            parallel </i>
  <i name="platform" type="string">LinuxIFC </i>
  <i name="date" type="string">2024 06 11 </i>
  <i name="time" type="string">17:02:53 </i>
 </generator>
 <incar>
  <i type="string" name="SYSTEM">HECN</i>
  <i type="int" name="ISTART">     0</i>
  <i type="string" name="PREC">normal</i>
  <i type="string" name="ALGO">Fast</i>
  <i type="int" name="ICHARG">     2</i>
  <i type="int" name="NELM">    60</i>
  <i type="int" name="IBRION">     2</i>
  <i name="EDIFF">      0.00001000</i>
  <i name="EDIFFG">     -0.01000000</i>
  <i type="int" name="NSW">   100</i>
  <i type="int" name="ISIF">     3</i>
  <i name="ENCUT">    400.00000000</i>
  <i name="POTIM">      0.50000000</i>
  <i type="logical" name="LREAL"> F  </i>
  <i type="int" name="ISMEAR">     0</i>
  <i name="SIGMA">      0.10000000</i>
  <i type="logical" name="LWAVE"> F  </i>
  <i type="logical" name="LCHARG"> F  </i>
  <v type="int" name="KPOINT_BSE">    -1     0     0     0</v>
  <i type="int" name="NELM">    60</i>
 </incar>
 <structure name="primitive_cell" >
  <crystal>
   <varray name="basis" >
    <v>       8.93249989       0.00000000       0.00000000 </v>
    <v>       0.00575300       9.05559834       0.00000000 </v>
    <v>       0.03210180      -0.01574346       8.93712807 </v>
   </varray>
   <i name="volume">    722.91652451 </i>
   <varray name="rec_basis" >
    <v>       0.11195074      -0.00007112      -0.00040225 </v>
    <v>       0.00000000       0.11042893       0.00019453 </v>
    <v>       0.00000000       0.00000000       0.11189277 </v>
   </varray>
  </crystal>
  <varray name="positions" >
   <v>      -0.00311999      -0.00795003      -0.00075998 </v>
   <v>      -0.25232999      -0.00252000       0.01202000 </v>
   <v>      -0.00162995      -0.25686004       0.00460000 </v>
   <v>      -0.00280000      -0.00228008       0.25899999 </v>
   <v>       0.00281000       0.25024000       0.00130000 </v>
   <v>      -0.01103011       0.00202000      -0.26291001 </v>
   <v>       0.26146999      -0.00015998      -0.00704004 </v>
   <v>      -0.00135002      -0.22426001       0.26102000 </v>
   <v>      -0.25720997      -0.02130006      -0.23549005 </v>
   <v>       0.23780002       0.01082000      -0.25392002 </v>
   <v>      -0.24282000      -0.25897003       0.01100000 </v>
   <v>       0.24762001      -0.25026001      -0.00025994 </v>
   <v>      -0.00485996      -0.25507996      -0.25488003 </v>
   <v>      -0.24281000       0.25603001      -0.00408003 </v>
   <v>       0.25398003      -0.00285005       0.24912000 </v>
   <v>       0.24788999       0.24839000      -0.00342003 </v>
   <v>      -0.00562996       0.23617001       0.26379999 </v>
   <v>      -0.25120996      -0.01212001       0.26967001 </v>
   <v>       0.00201000       0.25541000      -0.26105999 </v>
   <v>       0.24177002      -0.24659003      -0.24981998 </v>
   <v>      -0.24963995      -0.25112000      -0.25243996 </v>
   <v>      -0.24255004       0.24437997      -0.25103001 </v>
   <v>       0.25133999      -0.25041998       0.24910999 </v>
   <v>      -0.24367000      -0.26108997       0.25767000 </v>
   <v>      -0.24686002       0.24616999       0.25492002 </v>
   <v>       0.24982001       0.24942998       0.24825000 </v>
   <v>       0.24900999       0.25315000      -0.25146000 </v>
   <v>      -0.48411003       0.01358000      -0.01924992 </v>
   <v>      -0.00158006      -0.49023002      -0.01386996 </v>
   <v>       0.02362000      -0.00216999       0.49557002 </v>
   <v>      -0.49480995      -0.23869001       0.00855000 </v>
   <v>      -0.49285006      -0.00023001       0.24673000 </v>
   <v>      -0.24160996      -0.49684002       0.00288000 </v>
   <v>      -0.00999997      -0.23784997       0.49746000 </v>
   <v>      -0.00948001       0.48088003       0.24100999 </v>
   <v>       0.24446000      -0.00176004      -0.49712002 </v>
   <v>      -0.26367999       0.00417000      -0.48937000 </v>
   <v>       0.24328000      -0.49927003      -0.00489006 </v>
   <v>      -0.49572003       0.24673000       0.00262000 </v>
   <v>      -0.00796004      -0.49944001      -0.24861998 </v>
   <v>      -0.00195991       0.24229999      -0.49871997 </v>
   <v>      -0.49991002       0.00061000      -0.26528002 </v>
   <v>      -0.26123997      -0.47171998      -0.26185001 </v>
   <v>       0.49950005      -0.24518001      -0.25182996 </v>
   <v>       0.24457999      -0.24951001       0.49983999 </v>
   <v>      -0.24599997      -0.27062001       0.49116997 </v>
   <v>      -0.49520997       0.24631001      -0.25289998 </v>
   <v>       0.24803003      -0.49835000       0.24955001 </v>
   <v>      -0.26448999      -0.48531996       0.26666001 </v>
   <v>      -0.49167000       0.25676999       0.25376001 </v>
   <v>      -0.49620997      -0.26073003       0.25905001 </v>
   <v>      -0.24692999       0.26163001      -0.49466998 </v>
   <v>       0.25272001       0.24823001      -0.49984997 </v>
   <v>       0.25679999       0.49462002      -0.25454998 </v>
   <v>       0.47957999      -0.01691999       0.49717999 </v>
   <v>      -0.49498994       0.49745998      -0.00165997 </v>
   <v>      -0.00572008      -0.49550001       0.49779000 </v>
   <v>      -0.49436004       0.23264998       0.49544997 </v>
   <v>      -0.49424994      -0.25041998       0.49720000 </v>
   <v>      -0.49299998      -0.49666998       0.25878999 </v>
   <v>      -0.49498997      -0.49782002      -0.26087997 </v>
   <v>      -0.25963999      -0.49803000      -0.49932997 </v>
   <v>       0.25841001      -0.49937998      -0.49870999 </v>
   <v>      -0.49461000      -0.47166995       0.49917999 </v>
  </varray>
 </structure>
 <varray name="primitive_index" >
  <v type="int" >        1 </v>
  <v type="int" >       25 </v>
  <v type="int" >       38 </v>
  <v type="int" >       34 </v>
  <v type="int" >       23 </v>
  <v type="int" >       29 </v>
  <v type="int" >       22 </v>
  <v type="int" >       59 </v>
  <v type="int" >       58 </v>
  <v type="int" >       56 </v>
  <v type="int" >        9 </v>
  <v type="int" >       18 </v>
  <v type="int" >       12 </v>
  <v type="int" >       17 </v>
  <v type="int" >        2 </v>
  <v type="int" >       14 </v>
  <v type="int" >        8 </v>
  <v type="int" >       16 </v>
  <v type="int" >       10 </v>
  <v type="int" >       45 </v>
  <v type="int" >       49 </v>
  <v type="int" >       30 </v>
  <v type="int" >       36 </v>
  <v type="int" >       39 </v>
  <v type="int" >       24 </v>
  <v type="int" >       21 </v>
  <v type="int" >       42 </v>
  <v type="int" >       53 </v>
  <v type="int" >       54 </v>
  <v type="int" >       61 </v>
  <v type="int" >       28 </v>
  <v type="int" >       26 </v>
  <v type="int" >       40 </v>
  <v type="int" >       47 </v>
  <v type="int" >       27 </v>
  <v type="int" >       43 </v>
  <v type="int" >       31 </v>
  <v type="int" >       37 </v>
  <v type="int" >       35 </v>
  <v type="int" >       48 </v>
  <v type="int" >       44 </v>
  <v type="int" >       33 </v>
  <v type="int" >       63 </v>
  <v type="int" >        7 </v>
  <v type="int" >       20 </v>
  <v type="int" >       64 </v>
  <v type="int" >        5 </v>
  <v type="int" >        3 </v>
  <v type="int" >       60 </v>
  <v type="int" >       15 </v>
  <v type="int" >       55 </v>
  <v type="int" >       11 </v>
  <v type="int" >       19 </v>
  <v type="int" >       13 </v>
  <v type="int" >       57 </v>
  <v type="int" >        4 </v>
  <v type="int" >        6 </v>
  <v type="int" >       32 </v>
  <v type="int" >       51 </v>
  <v type="int" >       41 </v>
  <v type="int" >       52 </v>
  <v type="int" >       50 </v>
  <v type="int" >       46 </v>
  <v type="int" >       62 </v>
 </varray>
 <kpoints>
  <generation param="Gamma">
   <v type="int" name="divisions">       3        3        3 </v>
   <v name="usershift">      0.00000000       0.00000000       0.00000000 </v>
   <v name="genvec1">      0.33333333      -0.00000000      -0.00000000 </v>
   <v name="genvec2">      0.00000000       0.33333333       0.00000000 </v>
   <v name="genvec3">      0.00000000       0.00000000       0.33333333 </v>
   <v name="shift">      0.00000000       0.00000000       0.00000000 </v>
  </generation>
  <varray name="kpointlist" >
   <v>       0.00000000       0.00000000       0.00000000 </v>
   <v>       0.33333333       0.00000000       0.00000000 </v>
   <v>       0.00000000       0.33333333       0.00000000 </v>
   <v>       0.33333333       0.33333333       0.00000000 </v>
   <v>      -0.33333333       0.33333333       0.00000000 </v>
   <v>       0.00000000       0.00000000       0.33333333 </v>
   <v>       0.33333333       0.00000000       0.33333333 </v>
   <v>      -0.33333333       0.00000000       0.33333333 </v>
   <v>       0.00000000       0.33333333       0.33333333 </v>
   <v>       0.33333333       0.33333333       0.33333333 </v>
   <v>      -0.33333333       0.33333333       0.33333333 </v>
   <v>       0.00000000      -0.33333333       0.33333333 </v>
   <v>       0.33333333      -0.33333333       0.33333333 </v>
   <v>      -0.33333333      -0.33333333       0.33333333 </v>
  </varray>
  <varray name="weights" >
   <v>       0.03703704 </v>
   <v>       0.07407407 </v>
   <v>       0.07407407 </v>
   <v>       0.07407407 </v>
   <v>       0.07407407 </v>
   <v>       0.07407407 </v>
   <v>       0.07407407 </v>
   <v>       0.07407407 </v>
   <v>       0.07407407 </v>
   <v>       0.07407407 </v>
   <v>       0.07407407 </v>
   <v>       0.07407407 </v>
   <v>       0.07407407 </v>
   <v>       0.07407407 </v>
  </varray>
 </kpoints>
 <parameters>
  <separator name="general" >
   <i type="string" name="SYSTEM">HECN</i>
   <i type="logical" name="LCOMPAT"> F  </i>
  </separator>
  <separator name="electronic" >
   <i type="string" name="PREC">normal</i>
   <i name="ENMAX">    400.00000000</i>
   <i name="ENAUG">    644.87300000</i>
   <i name="EDIFF">      0.00001000</i>
   <i type="int" name="IALGO">    68</i>
   <i type="int" name="IWAVPR">    11</i>
   <i type="int" name="NBANDS">   312</i>
   <i name="NELECT">    497.00000000</i>
   <i type="int" name="TURBO">     0</i>
   <i type="int" name="IRESTART">     0</i>
   <i type="int" name="NREBOOT">     0</i>
   <i type="int" name="NMIN">     0</i>
   <i name="EREF">      0.00000000</i>
   <separator name="electronic smearing" >
    <i type="int" name="ISMEAR">     0</i>
    <i name="SIGMA">      0.10000000</i>
    <i name="KSPACING">      0.50000000</i>
    <i type="logical" name="KGAMMA"> T  </i>
   </separator>
   <separator name="electronic projectors" >
    <i type="logical" name="LREAL"> F  </i>
    <v name="ROPT">      0.00000000      0.00000000      0.00000000      0.00000000      0.00000000      0.00000000      0.00000000</v>
    <i type="int" name="LMAXPAW">  -100</i>
    <i type="int" name="LMAXMIX">     2</i>
    <i type="logical" name="NLSPLINE"> F  </i>
   </separator>
   <separator name="electronic startup" >
    <i type="int" name="ISTART">     0</i>
    <i type="int" name="ICHARG">     2</i>
    <i type="int" name="INIWAV">     1</i>
   </separator>
   <separator name="electronic spin" >
    <i type="int" name="ISPIN">     1</i>
    <i type="logical" name="LNONCOLLINEAR"> F  </i>
    <v name="MAGMOM">      1.00000000      1.00000000      1.00000000      1.00000000      1.00000000      1.00000000      1.00000000      1.00000000      1.00000000      1.00000000      1.00000000      1.00000000      1.00000000      1.00000000      1.00000000      1.00000000      1.00000000      1.00000000      1.00000000      1.00000000
      1.00000000      1.00000000      1.00000000      1.00000000      1.00000000      1.00000000      1.00000000      1.00000000      1.00000000      1.00000000      1.00000000      1.00000000      1.00000000      1.00000000      1.00000000      1.00000000      1.00000000      1.00000000      1.00000000      1.00000000
      1.00000000      1.00000000      1.00000000      1.00000000      1.00000000      1.00000000      1.00000000      1.00000000      1.00000000      1.00000000      1.00000000      1.00000000      1.00000000      1.00000000      1.00000000      1.00000000      1.00000000      1.00000000      1.00000000      1.00000000
      1.00000000      1.00000000      1.00000000      1.00000000</v>
    <i name="NUPDOWN">     -1.00000000</i>
    <i type="logical" name="LSORBIT"> F  </i>
    <v name="SAXIS">      0.00000000      0.00000000      1.00000000</v>
    <i type="logical" name="LSPIRAL"> F  </i>
    <v name="QSPIRAL">      0.00000000      0.00000000      0.00000000</v>
    <i type="logical" name="LZEROZ"> F  </i>
   </separator>
   <separator name="electronic exchange-correlation" >
    <i type="logical" name="LASPH"> F  </i>
    <i type="logical" name="LMETAGGA"> F  </i>
   </separator>
   <separator name="electronic convergence" >
    <i type="int" name="NELM">    60</i>
    <i type="int" name="NELMDL">    -5</i>
    <i type="int" name="NELMIN">     2</i>
    <i name="ENINI">    400.00000000</i>
    <separator name="electronic convergence detail" >
     <i type="logical" name="LDIAG"> T  </i>
     <i type="logical" name="LSUBROT"> F  </i>
     <i name="WEIMIN">      0.00100000</i>
     <i name="EBREAK">      0.00000001</i>
     <i name="DEPER">      0.30000000</i>
     <i type="int" name="NRMM">     4</i>
     <i name="TIME">      0.40000000</i>
    </separator>
   </separator>
   <separator name="electronic mixer" >
    <i name="AMIX">      0.40000000</i>
    <i name="BMIX">      1.00000000</i>
    <i name="AMIN">      0.10000000</i>
    <i name="AMIX_MAG">      1.60000000</i>
    <i name="BMIX_MAG">      1.00000000</i>
    <separator name="electronic mixer details" >
     <i type="int" name="IMIX">     4</i>
     <i type="logical" name="MIXFIRST"> F  </i>
     <i type="int" name="MAXMIX">   -45</i>
     <i name="WC">    100.00000000</i>
     <i type="int" name="INIMIX">     1</i>
     <i type="int" name="MIXPRE">     1</i>
     <i type="int" name="MREMOVE">     5</i>
    </separator>
   </separator>
   <separator name="electronic dipolcorrection" >
    <i type="logical" name="LDIPOL"> F  </i>
    <i type="logical" name="LMONO"> F  </i>
    <i type="int" name="IDIPOL">     0</i>
    <i name="EPSILON">      1.00000000</i>
    <v name="DIPOL">   -100.00000000   -100.00000000   -100.00000000</v>
    <i name="EFIELD">      0.00000000</i>
   </separator>
  </separator>
  <separator name="grids" >
   <i type="int" name="NGX">    48</i>
   <i type="int" name="NGY">    48</i>
   <i type="int" name="NGZ">    48</i>
   <i type="int" name="NGXF">    96</i>
   <i type="int" name="NGYF">    96</i>
   <i type="int" name="NGZF">    96</i>
   <i type="logical" name="ADDGRID"> F  </i>
  </separator>
  <separator name="ionic" >
   <i type="int" name="NSW">   100</i>
   <i type="int" name="IBRION">     2</i>
   <i type="int" name="MDALGO">     0</i>
   <i type="int" name="ISIF">     3</i>
   <i name="PSTRESS">      0.00000000</i>
   <i name="EDIFFG">     -0.01000000</i>
   <i type="int" name="NFREE">     1</i>
   <i name="POTIM">      0.50000000</i>
   <i name="SMASS">     -3.00000000</i>
   <i name="SCALEE">      1.00000000</i>
  </separator>
  <separator name="ionic md" >
   <i name="TEBEG">      0.00010000</i>
   <i name="TEEND">      0.00010000</i>
   <i type="int" name="NBLOCK">     1</i>
   <i type="int" name="KBLOCK">   100</i>
   <i type="int" name="NPACO">   256</i>
   <i name="APACO">     16.00000000</i>
  </separator>
  <separator name="symmetry" >
   <i type="int" name="ISYM">     2</i>
   <i name="SYMPREC">      0.00001000</i>
  </separator>
  <separator name="dos" >
   <i type="int" name="LORBIT">     0</i>
   <v name="RWIGS">     -1.00000000     -1.00000000     -1.00000000     -1.00000000     -1.00000000     -1.00000000     -1.00000000</v>
   <i type="int" name="NEDOS">   301</i>
   <i name="EMIN">     10.00000000</i>
   <i name="EMAX">    -10.00000000</i>
   <i name="EFERMI">      0.00000000</i>
  </separator>
  <separator name="writing" >
   <i type="int" name="NWRITE">     2</i>
   <i type="logical" name="LWAVE"> F  </i>
   <i type="logical" name="LDOWNSAMPLE"> F  </i>
   <i type="logical" name="LCHARG"> F  </i>
   <i type="logical" name="LPARD"> F  </i>
   <i type="logical" name="LVTOT"> F  </i>
   <i type="logical" name="LVHAR"> F  </i>
   <i type="logical" name="LELF"> F  </i>
   <i type="logical" name="LOPTICS"> F  </i>
   <v name="STM">      0.00000000      0.00000000      0.00000000      0.00000000      0.00000000      0.00000000      0.00000000</v>
  </separator>
  <separator name="performance" >
   <i type="int" name="NPAR">    24</i>
   <i type="int" name="NSIM">     4</i>
   <i type="int" name="NBLK">    -1</i>
   <i type="logical" name="LPLANE"> T  </i>
   <i type="logical" name="LSCALAPACK"> T  </i>
   <i type="logical" name="LSCAAWARE"> F  </i>
   <i type="logical" name="LSCALU"> F  </i>
   <i type="logical" name="LASYNC"> F  </i>
   <i type="logical" name="LORBITALREAL"> F  </i>
  </separator>
  <separator name="miscellaneous" >
   <i type="int" name="IDIOT">     3</i>
   <i type="int" name="ISPECIAL">     0</i>
   <i type="logical" name="LMUSIC"> F  </i>
   <v name="POMASS">     92.91000000    180.94800000     50.94100000     14.00100000     12.01100000     51.99600000     95.94000000</v>
   <v name="DARWINR">      0.00000000      0.00000000      0.00000000      0.00000000      0.00000000      0.00000000      0.00000000</v>
   <v name="DARWINV">      1.00000000      1.00000000      1.00000000      1.00000000      1.00000000      1.00000000      1.00000000</v>
   <i type="logical" name="LCORR"> T  </i>
  </separator>
  <i type="logical" name="GGA_COMPAT"> T  </i>
  <i type="logical" name="LBERRY"> F  </i>
  <i type="int" name="ICORELEVEL">     0</i>
  <i type="logical" name="LDAU"> F  </i>
  <i type="int" name="I_CONSTRAINED_M">     0</i>
  <separator name="electronic exchange-correlation" >
   <i type="string" name="GGA">--</i>
   <i type="int" name="VOSKOWN">     0</i>
   <i type="logical" name="LHFCALC"> F  </i>
   <i type="string" name="PRECFOCK"></i>
   <i type="logical" name="LSYMGRAD"> F  </i>
   <i type="logical" name="LHFONE"> F  </i>
   <i type="logical" name="LRHFCALC"> F  </i>
   <i type="logical" name="LTHOMAS"> F  </i>
   <i type="logical" name="LMODELHF"> F  </i>
   <i name="ENCUT4O">     -1.00000000</i>
   <i type="int" name="EXXOEP">     0</i>
   <i type="int" name="FOURORBIT">     0</i>
   <i name="AEXX">      0.00000000</i>
   <i name="HFALPHA">      0.00000000</i>
   <i name="MCALPHA">      0.00000000</i>
   <i name="ALDAX">      1.00000000</i>
   <i name="AGGAX">      1.00000000</i>
   <i name="ALDAC">      1.00000000</i>
   <i name="AGGAC">      1.00000000</i>
   <i type="int" name="NKREDX">     1</i>
   <i type="int" name="NKREDY">     1</i>
   <i type="int" name="NKREDZ">     1</i>
   <i type="logical" name="SHIFTRED"> F  </i>
   <i type="logical" name="ODDONLY"> F  </i>
   <i type="logical" name="EVENONLY"> F  </i>
   <i type="int" name="LMAXFOCK">     0</i>
   <i type="int" name="NMAXFOCKAE">     0</i>
   <i type="logical" name="LFOCKAEDFT"> F  </i>
   <i name="HFSCREEN">      0.00000000</i>
   <i name="HFSCREENC">      0.00000000</i>
   <i type="int" name="NBANDSGWLOW">     0</i>
  </separator>
  <separator name="vdW DFT" >
   <i type="logical" name="LUSE_VDW"> F  </i>
   <i name="Zab_VDW">     -0.84910000</i>
   <i name="PARAM1">      0.12340000</i>
   <i name="PARAM2">      1.00000000</i>
   <i name="PARAM3">      0.00000000</i>
  </separator>
  <separator name="model GW" >
   <i type="int" name="MODEL_GW">     0</i>
   <i name="MODEL_EPS0">      6.77734242</i>
   <i name="MODEL_ALPHA">      1.00000000</i>
  </separator>
  <separator name="linear response parameters" >
   <i type="logical" name="LEPSILON"> F  </i>
   <i type="logical" name="LRPA"> F  </i>
   <i type="logical" name="LNABLA"> F  </i>
   <i type="logical" name="LVEL"> F  </i>
   <i type="int" name="KINTER">     0</i>
   <i name="CSHIFT">      0.10000000</i>
   <i name="OMEGAMAX">     -1.00000000</i>
   <i name="DEG_THRESHOLD">      0.00200000</i>
   <i name="RTIME">     -0.10000000</i>
   <i name="WPLASMAI">      0.00000000</i>
   <v name="DFIELD">      0.00000000      0.00000000      0.00000000</v>
   <v name="WPLASMA">      0.00000000      0.00000000      0.00000000      0.00000000      0.00000000      0.00000000      0.00000000      0.00000000      0.00000000</v>
  </separator>
  <separator name="orbital magnetization" >
   <i type="logical" name="NUCIND"> F  </i>
   <v name="MAGPOS">      0.00000000      0.00000000      0.00000000</v>
   <i type="logical" name="LNICSALL"> T  </i>
   <i type="logical" name="ORBITALMAG"> F  </i>
   <i type="logical" name="LMAGBLOCH"> F  </i>
   <i type="logical" name="LCHIMAG"> F  </i>
   <i type="logical" name="LGAUGE"> T  </i>
   <i type="int" name="MAGATOM">     0</i>
   <v name="MAGDIPOL">      0.00000000      0.00000000      0.00000000</v>
   <v name="AVECCONST">      0.00000000      0.00000000      0.00000000</v>
  </separator>
  <separator name="response functions" >
   <i type="logical" name="LADDER"> F  </i>
   <i type="logical" name="LRPAFORCE"> F  </i>
   <i type="logical" name="LFXC"> F  </i>
   <i type="logical" name="LHARTREE"> T  </i>
   <i type="int" name="IBSE">     0</i>
   <v type="int" name="KPOINT">    -1     0     0     0</v>
   <i type="logical" name="LTCTE"> F  </i>
   <i type="logical" name="LTETE"> F  </i>
   <i type="logical" name="LTRIPLET"> F  </i>
   <i type="logical" name="LFXCEPS"> F  </i>
   <i type="logical" name="LFXHEG"> F  </i>
   <i type="int" name="NATURALO">     2</i>
   <i type="logical" name="L2ORDER"> F  </i>
   <i type="logical" name="LMP2LT"> F  </i>
   <i type="logical" name="LUSEW"> F  </i>
   <i name="ENCUTGW">     -2.00000000</i>
   <i name="ENCUTGWSOFT">     -2.00000000</i>
   <i name="ENCUTLF">     -1.00000000</i>
   <i type="int" name="LMAXMP2">    -1</i>
   <i name="SCISSOR">      0.00000000</i>
   <i type="int" name="NOMEGA">     0</i>
   <i type="int" name="NOMEGAR">     0</i>
   <i type="int" name="NBANDSGW">    -1</i>
   <i type="int" name="NBANDSO">    -1</i>
   <i type="int" name="NBANDSV">    -1</i>
   <i type="int" name="NELM">    60</i>
   <i type="int" name="NELMHF">     1</i>
   <i type="int" name="DIM">     3</i>
   <i type="int" name="ANTIRES">     0</i>
   <i name="OMEGAMAX">    -30.00000000</i>
   <i name="OMEGAMIN">    -30.00000000</i>
   <i name="OMEGATL">   -200.00000000</i>
   <i type="int" name="OMEGAGRID">   140</i>
   <i name="CSHIFT">     -0.10000000</i>
   <i type="logical" name="SELFENERGY"> F  </i>
   <i type="logical" name="LSPECTRAL"> F  </i>
   <i type="logical" name="LSPECTRALGW"> F  </i>
   <i type="logical" name="LSINGLES"> F  </i>
   <i type="logical" name="LFERMIGW"> F  </i>
   <i type="logical" name="ODDONLYGW"> F  </i>
   <i type="logical" name="EVENONLYGW"> F  </i>
   <i type="int" name="NKREDLFX">     1</i>
   <i type="int" name="NKREDLFY">     1</i>
   <i type="int" name="NKREDLFZ">     1</i>
   <i type="int" name="MAXMEM">  2800</i>
   <i type="int" name="TELESCOPE">     0</i>
   <i type="int" name="TAUPAR">     1</i>
   <i type="int" name="OMEGAPAR">    -1</i>
   <i name="LAMBDA">      1.00000000</i>
  </separator>
  <separator name="External order field" >
   <i name="OFIELD_KAPPA">      0.00000000</i>
   <v name="OFIELD_K">      0.00000000      0.00000000      0.00000000</v>
   <i name="OFIELD_Q6_NEAR">      0.00000000</i>
   <i name="OFIELD_Q6_FAR">      0.00000000</i>
   <i name="OFIELD_A">      0.00000000</i>
  </separator>
 </parameters>
 <atominfo>
  <atoms>      64 </atoms>
  <types>       7 </types>
  <array name="atoms" >
   <dimension dim="1">ion</dimension>
   <field type="string">element</field>
   <field type="int">atomtype</field>
   <set>
    <rc><c>Nb</c><c>   1</c></rc>
    <rc><c>Nb</c><c>   1</c></rc>
    <rc><c>Nb</c><c>   1</c></rc>
    <rc><c>Nb</c><c>   1</c></rc>
    <rc><c>Nb</c><c>   1</c></rc>
    <rc><c>Nb</c><c>   1</c></rc>
    <rc><c>Nb</c><c>   1</c></rc>
    <rc><c>Ta</c><c>   2</c></rc>
    <rc><c>Ta</c><c>   2</c></rc>
    <rc><c>Ta</c><c>   2</c></rc>
    <rc><c>Ta</c><c>   2</c></rc>
    <rc><c>Ta</c><c>   2</c></rc>
    <rc><c>Ta</c><c>   2</c></rc>
    <rc><c>V </c><c>   3</c></rc>
    <rc><c>V </c><c>   3</c></rc>
    <rc><c>V </c><c>   3</c></rc>
    <rc><c>V </c><c>   3</c></rc>
    <rc><c>V </c><c>   3</c></rc>
    <rc><c>V </c><c>   3</c></rc>
    <rc><c>V </c><c>   3</c></rc>
    <rc><c>N </c><c>   4</c></rc>
    <rc><c>N </c><c>   4</c></rc>
    <rc><c>N </c><c>   4</c></rc>
    <rc><c>N </c><c>   4</c></rc>
    <rc><c>N </c><c>   4</c></rc>
    <rc><c>N </c><c>   4</c></rc>
    <rc><c>N </c><c>   4</c></rc>
    <rc><c>N </c><c>   4</c></rc>
    <rc><c>N </c><c>   4</c></rc>
    <rc><c>N </c><c>   4</c></rc>
    <rc><c>N </c><c>   4</c></rc>
    <rc><c>N </c><c>   4</c></rc>
    <rc><c>N </c><c>   4</c></rc>
    <rc><c>C </c><c>   5</c></rc>
    <rc><c>C </c><c>   5</c></rc>
    <rc><c>C </c><c>   5</c></rc>
    <rc><c>C </c><c>   5</c></rc>
    <rc><c>C </c><c>   5</c></rc>
    <rc><c>C </c><c>   5</c></rc>
    <rc><c>C </c><c>   5</c></rc>
    <rc><c>C </c><c>   5</c></rc>
    <rc><c>C </c><c>   5</c></rc>
    <rc><c>C </c><c>   5</c></rc>
    <rc><c>C </c><c>   5</c></rc>
    <rc><c>C </c><c>   5</c></rc>
    <rc><c>C </c><c>   5</c></rc>
    <rc><c>C </c><c>   5</c></rc>
    <rc><c>C </c><c>   5</c></rc>
    <rc><c>C </c><c>   5</c></rc>
    <rc><c>C </c><c>   5</c></rc>
    <rc><c>C </c><c>   5</c></rc>
    <rc><c>C </c><c>   5</c></rc>
    <rc><c>Cr</c><c>   6</c></rc>
    <rc><c>Cr</c><c>   6</c></rc>
    <rc><c>Cr</c><c>   6</c></rc>
    <rc><c>Cr</c><c>   6</c></rc>
    <rc><c>Cr</c><c>   6</c></rc>
    <rc><c>Cr</c><c>   6</c></rc>
    <rc><c>Mo</c><c>   7</c></rc>
    <rc><c>Mo</c><c>   7</c></rc>
    <rc><c>Mo</c><c>   7</c></rc>
    <rc><c>Mo</c><c>   7</c></rc>
    <rc><c>Mo</c><c>   7</c></rc>
    <rc><c>Mo</c><c>   7</c></rc>
   </set>
  </array>
  <array name="atomtypes" >
   <dimension dim="1">type</dimension>
   <field type="int">atomspertype</field>
   <field type="string">element</field>
   <field>mass</field>
   <field>valence</field>
   <field type="string">pseudopotential</field>
   <set>
    <rc><c>   7</c><c>Nb</c><c>     92.91000000</c><c>     13.00000000</c><c> PAW_PBE Nb_sv 17Jan2003                </c></rc>
    <rc><c>   6</c><c>Ta</c><c>    180.94800000</c><c>     11.00000000</c><c> PAW_PBE Ta_pv 07Sep2000                </c></rc>
    <rc><c>   7</c><c>V </c><c>     50.94100000</c><c>     13.00000000</c><c> PAW_PBE V_sv 07Sep2000                 </c></rc>
    <rc><c>  13</c><c>N </c><c>     14.00100000</c><c>      5.00000000</c><c> PAW_PBE N 08Apr2002                    </c></rc>
    <rc><c>  19</c><c>C </c><c>     12.01100000</c><c>      4.00000000</c><c> PAW_PBE C 08Apr2002                    </c></rc>
    <rc><c>   6</c><c>Cr</c><c>     51.99600000</c><c>     12.00000000</c><c> PAW_PBE Cr_pv 07Sep2000                </c></rc>
    <rc><c>   6</c><c>Mo</c><c>     95.94000000</c><c>      6.00000000</c><c> PAW_PBE Mo 08Apr2002                   </c></rc>
   </set>
  </array>
 </atominfo>
 <structure name="initialpos" >
  <crystal>
   <varray name="basis" >
    <v>       8.93249989       0.00000000       0.00000000 </v>
    <v>       0.00575300       9.05559834       0.00000000 </v>
    <v>       0.03210180      -0.01574346       8.93712807 </v>
   </varray>
   <i name="volume">    722.91652451 </i>
   <varray name="rec_basis" >
    <v>       0.11195074      -0.00007112      -0.00040225 </v>
    <v>       0.00000000       0.11042893       0.00019453 </v>
    <v>       0.00000000       0.00000000       0.11189277 </v>
   </varray>
  </crystal>
  <varray name="positions" >
   <v>       0.99688001       0.99204997       0.99924002 </v>
   <v>       0.25398003       0.99714995       0.24912000 </v>
   <v>       0.24803003       0.50165000       0.24955001 </v>
   <v>       0.50501006       0.49745998       0.99834003 </v>
   <v>       0.50479003       0.24631001       0.74710002 </v>
   <v>       0.99427992       0.50449999       0.49779000 </v>
   <v>       0.49950005       0.75481999       0.74817004 </v>
   <v>       0.99437004       0.23617001       0.26379999 </v>
   <v>       0.75718000       0.74102998       0.01100000 </v>
   <v>       0.00201000       0.25541000       0.73894001 </v>
   <v>       0.75307001       0.26163001       0.50533002 </v>
   <v>       0.99514004       0.74492004       0.74511997 </v>
   <v>       0.25679999       0.49462002       0.74545002 </v>
   <v>       0.24788999       0.24839000       0.99657997 </v>
   <v>       0.50833000       0.25676999       0.25376001 </v>
   <v>       0.74879004       0.98787999       0.26967001 </v>
   <v>       0.75719000       0.25603001       0.99591997 </v>
   <v>       0.24762001       0.74973999       0.99974006 </v>
   <v>       0.25272001       0.24823001       0.50015003 </v>
   <v>       0.24457999       0.75048999       0.49983999 </v>
   <v>       0.24982001       0.24942998       0.24825000 </v>
   <v>       0.26146999       0.99984002       0.99295996 </v>
   <v>       0.00281000       0.25024000       0.00130000 </v>
   <v>       0.75313998       0.24617000       0.25492002 </v>
   <v>       0.74767001       0.99748000       0.01202000 </v>
   <v>       0.50714994       0.99977000       0.24673000 </v>
   <v>       0.99051999       0.48088002       0.24100998 </v>
   <v>       0.50519005       0.76130999       0.00855000 </v>
   <v>       0.98896989       0.00202000       0.73708999 </v>
   <v>       0.75744996       0.24437997       0.74896999 </v>
   <v>       0.73632001       0.00417000       0.51063000 </v>
   <v>       0.50563996       0.23264999       0.49544997 </v>
   <v>       0.50008998       0.00061000       0.73471998 </v>
   <v>       0.99720000       0.99771992       0.25899999 </v>
   <v>       0.50427997       0.24673000       0.00262000 </v>
   <v>       0.25133999       0.74958002       0.24910999 </v>
   <v>       0.24328000       0.50072997       0.99510994 </v>
   <v>       0.99837005       0.74313996       0.00460000 </v>
   <v>       0.75633000       0.73891003       0.25767000 </v>
   <v>       0.75839004       0.50315998       0.00288000 </v>
   <v>       0.50700002       0.50333002       0.25878999 </v>
   <v>       0.24900999       0.25315000       0.74854000 </v>
   <v>       0.24446000       0.99823996       0.50287998 </v>
   <v>       0.99804009       0.24229999       0.50128003 </v>
   <v>       0.24177002       0.75340997       0.75018002 </v>
   <v>       0.25841001       0.50062002       0.50129001 </v>
   <v>       0.99000004       0.76215003       0.49746000 </v>
   <v>       0.99203996       0.50055999       0.75138002 </v>
   <v>       0.75036005       0.74888000       0.74756004 </v>
   <v>       0.74036002       0.50197000       0.50067003 </v>
   <v>       0.50575006       0.74958002       0.49720000 </v>
   <v>       0.50501003       0.50217998       0.73912003 </v>
   <v>       0.51588997       0.01358000       0.98075008 </v>
   <v>       0.99841994       0.50976998       0.98613004 </v>
   <v>       0.50379003       0.73926997       0.25905001 </v>
   <v>       0.23780002       0.01082000       0.74607998 </v>
   <v>       0.47957999       0.98308000       0.49717999 </v>
   <v>       0.74279003       0.97869994       0.76450995 </v>
   <v>       0.99864998       0.77573999       0.26102000 </v>
   <v>       0.73551001       0.51468004       0.26666001 </v>
   <v>       0.02362000       0.99783001       0.49557002 </v>
   <v>       0.50539000       0.52833005       0.49917999 </v>
   <v>       0.73876003       0.52828003       0.73814999 </v>
   <v>       0.75400003       0.72937999       0.49116997 </v>
  </varray>
 </structure>
 <calculation>
  <scstep>
   <time name="dav">   21.03   21.09</time>
   <time name="total">   21.06   21.13</time>
   <energy>
    <i name="alphaZ">   3567.44130737 </i>
    <i name="ewald"> -39605.27724035 </i>
    <i name="hartreedc">  -9869.25342609 </i>
    <i name="XCdc">   1518.76019366 </i>
    <i name="pawpsdc">  31010.79301600 </i>
    <i name="pawaedc"> -30786.43208759 </i>
    <i name="eentropy">     -0.08078752 </i>
    <i name="bandstr">   2597.56056084 </i>
    <i name="atom">  48244.43136693 </i>
    <i name="e_fr_energy">   6677.94290326 </i>
    <i name="e_wo_entrp">   6678.02369078 </i>
    <i name="e_0_energy">   6677.98329702 </i>
   </energy>
  </scstep>
  <scstep>
   <time name="dav">   21.44   21.48</time>
   <time name="total">   21.44   21.48</time>
   <energy>
    <i name="e_fr_energy">    336.29184928 </i>
    <i name="e_wo_entrp">    336.43442739 </i>
    <i name="e_0_energy">    336.36313834 </i>
   </energy>
  </scstep>
  <scstep>
   <time name="dav">   30.69   30.73</time>
   <time name="total">   30.70   30.73</time>
   <energy>
    <i name="e_fr_energy">   -650.33088239 </i>
    <i name="e_wo_entrp">   -650.17567094 </i>
    <i name="e_0_energy">   -650.25327666 </i>
   </energy>
  </scstep>
  <scstep>
   <time name="dav">   32.11   32.13</time>
   <time name="total">   32.11   32.13</time>
   <energy>
    <i name="e_fr_energy">   -767.19487155 </i>
    <i name="e_wo_entrp">   -767.04199488 </i>
    <i name="e_0_energy">   -767.11843322 </i>
   </energy>
  </scstep>
  <scstep>
   <time name="dav">   37.84   37.86</time>
   <time name="total">   38.09   38.11</time>
   <energy>
    <i name="e_fr_energy">   -783.72426015 </i>
    <i name="e_wo_entrp">   -783.55767271 </i>
    <i name="e_0_energy">   -783.64096643 </i>
   </energy>
  </scstep>
  <scstep>
   <time name="diag">    1.75    1.75</time>
   <time name="diis">   18.38   18.41</time>
   <time name="orth">    0.42    0.42</time>
   <time name="total">   20.82   20.86</time>
   <energy>
    <i name="e_fr_energy">   -951.88278396 </i>
    <i name="e_wo_entrp">   -951.69342789 </i>
    <i name="e_0_energy">   -951.78810592 </i>
   </energy>
  </scstep>
  <scstep>
   <time name="diag">    1.75    1.75</time>
   <time name="diis">   19.49   19.53</time>
   <time name="orth">    0.42    0.42</time>
   <time name="total">   21.95   21.99</time>
   <energy>
    <i name="e_fr_energy">   -646.46233045 </i>
    <i name="e_wo_entrp">   -646.23924047 </i>
    <i name="e_0_energy">   -646.35078546 </i>
   </energy>
  </scstep>
  <scstep>
   <time name="diag">    1.81    1.82</time>
   <time name="diis">   22.27   22.32</time>
   <time name="orth">    0.42    0.42</time>
   <time name="total">   24.78   24.85</time>
   <energy>
    <i name="e_fr_energy">   -659.80246630 </i>
    <i name="e_wo_entrp">   -659.63115025 </i>
    <i name="e_0_energy">   -659.71680827 </i>
   </energy>
  </scstep>
  <scstep>
   <time name="diag">    1.77    1.77</time>
   <time name="diis">   20.49   20.52</time>
   <time name="orth">    0.42    0.44</time>
   <time name="total">   22.95   23.01</time>
   <energy>
    <i name="e_fr_energy">   -643.62853308 </i>
    <i name="e_wo_entrp">   -643.41342679 </i>
    <i name="e_0_energy">   -643.52097994 </i>
   </energy>
  </scstep>
  <scstep>
   <time name="diag">    1.78    1.79</time>
   <time name="diis">   21.74   21.77</time>
   <time name="orth">    0.42    0.42</time>
   <time name="total">   24.22   24.27</time>
   <energy>
    <i name="e_fr_energy">   -633.60726367 </i>
    <i name="e_wo_entrp">   -633.35996552 </i>
    <i name="e_0_energy">   -633.48361459 </i>
   </energy>
  </scstep>
  <scstep>
   <time name="diag">    1.77    1.77</time>
   <time name="diis">   21.04   21.06</time>
   <time name="orth">    0.42    0.42</time>
   <time name="total">   23.51   23.53</time>
   <energy>
    <i name="e_fr_energy">   -633.37077862 </i>
    <i name="e_wo_entrp">   -633.10908078 </i>
    <i name="e_0_energy">   -633.23992970 </i>
   </energy>
  </scstep>
  <scstep>
   <time name="diag">    1.76    1.76</time>
   <time name="diis">   19.93   19.96</time>
   <time name="orth">    0.42    0.42</time>
   <time name="total">   22.39   22.42</time>
   <energy>
    <i name="e_fr_energy">   -632.16067231 </i>
    <i name="e_wo_entrp">   -631.91595082 </i>
    <i name="e_0_energy">   -632.03831156 </i>
   </energy>
  </scstep>
  <scstep>
   <time name="diag">    1.76    1.76</time>
   <time name="diis">   20.51   20.58</time>
   <time name="orth">    0.42    0.42</time>
   <time name="total">   22.97   23.04</time>
   <energy>
    <i name="e_fr_energy">   -631.52988818 </i>
    <i name="e_wo_entrp">   -631.24647900 </i>
    <i name="e_0_energy">   -631.38818359 </i>
   </energy>
  </scstep>
  <scstep>
   <time name="diag">    1.76    1.76</time>
   <time name="diis">   21.14   21.16</time>
   <time name="orth">    0.41    0.41</time>
   <time name="total">   23.60   23.62</time>
   <energy>
    <i name="e_fr_energy">   -632.27268968 </i>
    <i name="e_wo_entrp">   -632.00055822 </i>
    <i name="e_0_energy">   -632.13662395 </i>
   </energy>
  </scstep>
  <scstep>
   <time name="diag">    1.76    1.76</time>
   <time name="diis">   18.93   19.00</time>
   <time name="orth">    0.42    0.42</time>
   <time name="total">   21.40   21.48</time>
   <energy>
    <i name="e_fr_energy">   -631.47300106 </i>
    <i name="e_wo_entrp">   -631.20572113 </i>
    <i name="e_0_energy">   -631.33936109 </i>
   </energy>
  </scstep>
  <scstep>
   <time name="diag">    1.76    1.76</time>
   <time name="diis">   19.45   19.49</time>
   <time name="orth">    0.42    0.42</time>
   <time name="total">   21.91   21.96</time>
   <energy>
    <i name="e_fr_energy">   -631.21029948 </i>
    <i name="e_wo_entrp">   -630.92925775 </i>
    <i name="e_0_energy">   -631.06977862 </i>
   </energy>
  </scstep>
  <scstep>
   <time name="diag">    1.76    1.76</time>
   <time name="diis">   19.46   19.47</time>
   <time name="orth">    0.41    0.43</time>
   <time name="total">   21.92   21.96</time>
   <energy>
    <i name="e_fr_energy">   -630.93709070 </i>
    <i name="e_wo_entrp">   -630.66038824 </i>
    <i name="e_0_energy">   -630.79873947 </i>
   </energy>
  </scstep>
  <scstep>
   <time name="diag">    1.76    1.76</time>
   <time name="diis">   20.37   20.52</time>
   <time name="orth">    0.42    0.42</time>
   <time name="total">   22.84   22.99</time>
   <energy>
    <i name="e_fr_energy">   -630.68484482 </i>
    <i name="e_wo_entrp">   -630.40386755 </i>
    <i name="e_0_energy">   -630.54435618 </i>
   </energy>
  </scstep>
  <scstep>
   <time name="diag">    1.77    1.77</time>
   <time name="diis">   21.48   21.51</time>
   <time name="orth">    0.42    0.42</time>
   <time name="total">   23.95   23.99</time>
   <energy>
    <i name="e_fr_energy">   -630.62985037 </i>
    <i name="e_wo_entrp">   -630.34844543 </i>
    <i name="e_0_energy">   -630.48914790 </i>
   </energy>
  </scstep>
  <scstep>
   <time name="diag">    1.75    1.75</time>
   <time name="diis">   20.86   20.91</time>
   <time name="orth">    0.42    0.42</time>
   <time name="total">   23.33   23.38</time>
   <energy>
    <i name="e_fr_energy">   -630.59551498 </i>
    <i name="e_wo_entrp">   -630.31030567 </i>
    <i name="e_0_energy">   -630.45291032 </i>
   </energy>
  </scstep>
  <scstep>
   <time name="diag">    1.76    1.76</time>
   <time name="diis">   20.97   21.04</time>
   <time name="orth">    0.41    0.41</time>
   <time name="total">   23.44   23.52</time>
   <energy>
    <i name="e_fr_energy">   -630.59252370 </i>
    <i name="e_wo_entrp">   -630.31141483 </i>
    <i name="e_0_energy">   -630.45196926 </i>
   </energy>
  </scstep>
  <scstep>
   <time name="diag">    1.75    1.75</time>
   <time name="diis">   19.93   19.97</time>
   <time name="orth">    0.41    0.41</time>
   <time name="total">   22.38   22.43</time>
   <energy>
    <i name="e_fr_energy">   -630.58292719 </i>
    <i name="e_wo_entrp">   -630.30099508 </i>
    <i name="e_0_energy">   -630.44196113 </i>
   </energy>
  </scstep>
  <scstep>
   <time name="diag">    1.77    1.77</time>
   <time name="diis">   20.26   20.32</time>
   <time name="orth">    0.42    0.42</time>
   <time name="total">   22.74   22.80</time>
   <energy>
    <i name="e_fr_energy">   -630.59132439 </i>
    <i name="e_wo_entrp">   -630.30835283 </i>
    <i name="e_0_energy">   -630.44983861 </i>
   </energy>
  </scstep>
  <scstep>
   <time name="diag">    1.76    1.76</time>
   <time name="diis">   19.45   19.54</time>
   <time name="orth">    0.42    0.42</time>
   <time name="total">   21.93   22.01</time>
   <energy>
    <i name="e_fr_energy">   -630.58253880 </i>
    <i name="e_wo_entrp">   -630.29879844 </i>
    <i name="e_0_energy">   -630.44066862 </i>
   </energy>
  </scstep>
  <scstep>
   <time name="diag">    1.76    1.76</time>
   <time name="diis">   19.89   19.95</time>
   <time name="orth">    0.42    0.42</time>
   <time name="total">   22.37   22.44</time>
   <energy>
    <i name="e_fr_energy">   -630.58097414 </i>
    <i name="e_wo_entrp">   -630.29878301 </i>
    <i name="e_0_energy">   -630.43987858 </i>
   </energy>
  </scstep>
  <scstep>
   <time name="diag">    1.77    1.77</time>
   <time name="diis">   20.22   20.23</time>
   <time name="orth">    0.42    0.42</time>
   <time name="total">   22.70   22.72</time>
   <energy>
    <i name="e_fr_energy">   -630.57841801 </i>
    <i name="e_wo_entrp">   -630.29560341 </i>
    <i name="e_0_energy">   -630.43701071 </i>
   </energy>
  </scstep>
  <scstep>
   <time name="diag">    1.75    1.75</time>
   <time name="diis">   20.66   20.68</time>
   <time name="orth">    0.41    0.41</time>
   <time name="total">   23.12   23.14</time>
   <energy>
    <i name="e_fr_energy">   -630.57920128 </i>
    <i name="e_wo_entrp">   -630.29559462 </i>
    <i name="e_0_energy">   -630.43739795 </i>
   </energy>
  </scstep>
  <scstep>
   <time name="diag">    1.76    1.76</time>
   <time name="diis">   19.98   20.03</time>
   <time name="orth">    0.42    0.42</time>
   <time name="total">   22.45   22.51</time>
   <energy>
    <i name="e_fr_energy">   -630.57915475 </i>
    <i name="e_wo_entrp">   -630.29609453 </i>
    <i name="e_0_energy">   -630.43762464 </i>
   </energy>
  </scstep>
  <scstep>
   <time name="diag">    1.77    1.78</time>
   <time name="diis">   19.43   19.53</time>
   <time name="orth">    0.42    0.42</time>
   <time name="total">   21.92   22.02</time>
   <energy>
    <i name="e_fr_energy">   -630.57945472 </i>
    <i name="e_wo_entrp">   -630.29625330 </i>
    <i name="e_0_energy">   -630.43785401 </i>
   </energy>
  </scstep>
  <scstep>
   <time name="diag">    1.75    1.76</time>
   <time name="diis">   15.77   15.79</time>
   <time name="orth">    0.42    0.42</time>
   <time name="total">   18.23   18.26</time>
   <energy>
    <i name="e_fr_energy">   -630.57974811 </i>
    <i name="e_wo_entrp">   -630.29654552 </i>
    <i name="e_0_energy">   -630.43814682 </i>
   </energy>
  </scstep>
  <scstep>
   <time name="diag">    1.75    1.75</time>
   <time name="diis">   14.26   14.27</time>
   <time name="orth">    0.42    0.42</time>
   <time name="total">   16.73   16.74</time>
   <energy>
    <i name="e_fr_energy">   -630.57988676 </i>
    <i name="e_wo_entrp">   -630.29664222 </i>
    <i name="e_0_energy">   -630.43826449 </i>
   </energy>
  </scstep>
  <scstep>
   <time name="diag">    1.79    1.79</time>
   <time name="diis">   12.68   12.69</time>
   <time name="orth">    0.42    0.42</time>
   <time name="total">   15.18   15.20</time>
   <energy>
    <i name="e_fr_energy">   -630.58008026 </i>
    <i name="e_wo_entrp">   -630.29682804 </i>
    <i name="e_0_energy">   -630.43845415 </i>
   </energy>
  </scstep>
  <scstep>
   <time name="diag">    1.78    1.78</time>
   <time name="diis">   12.12   12.14</time>
   <time name="orth">    0.42    0.42</time>
   <time name="total">   14.61   14.64</time>
   <energy>
    <i name="e_fr_energy">   -630.58012799 </i>
    <i name="e_wo_entrp">   -630.29686908 </i>
    <i name="e_0_energy">   -630.43849853 </i>
   </energy>
  </scstep>
  <scstep>
   <time name="diag">    1.76    1.76</time>
   <time name="diis">   11.74   11.80</time>
   <time name="orth">    0.42    0.42</time>
   <time name="total">   14.22   14.28</time>
   <energy>
    <i name="e_fr_energy">   -630.58016940 </i>
    <i name="e_wo_entrp">   -630.29691055 </i>
    <i name="e_0_energy">   -630.43853997 </i>
   </energy>
  </scstep>
  <scstep>
   <time name="diag">    1.75    1.76</time>
   <time name="diis">   11.37   11.45</time>
   <time name="orth">    0.42    0.42</time>
   <time name="total">   13.84   13.93</time>
   <energy>
    <i name="e_fr_energy">   -630.58018507 </i>
    <i name="e_wo_entrp">   -630.29692557 </i>
    <i name="e_0_energy">   -630.43855532 </i>
   </energy>
  </scstep>
  <scstep>
   <time name="diag">    1.78    1.81</time>
   <time name="diis">   11.06   11.10</time>
   <time name="orth">    0.42    0.42</time>
   <time name="total">   13.55   13.62</time>
   <energy>
    <i name="e_fr_energy">   -630.58019985 </i>
    <i name="e_wo_entrp">   -630.29693616 </i>
    <i name="e_0_energy">   -630.43856800 </i>
   </energy>
  </scstep>
  <scstep>
   <time name="diag">    1.76    1.76</time>
   <time name="diis">   10.79   10.82</time>
   <time name="orth">    0.42    0.42</time>
   <time name="total">   13.00   13.03</time>
   <energy>
    <i name="alphaZ">   3567.44130737 </i>
    <i name="ewald"> -39605.27724035 </i>
    <i name="hartreedc">  -9253.73289830 </i>
    <i name="XCdc">   1506.53754458 </i>
    <i name="pawpsdc">  31423.06561245 </i>
    <i name="pawaedc"> -31247.70314918 </i>
    <i name="eentropy">     -0.28326391 </i>
    <i name="bandstr">  -5265.05948498 </i>
    <i name="atom">  48244.43136693 </i>
    <i name="e_fr_energy">   -630.58020538 </i>
    <i name="e_wo_entrp">   -630.29694147 </i>
    <i name="e_0_energy">   -630.43857342 </i>
   </energy>
  </scstep>
  <structure>
   <crystal>
    <varray name="basis" >
     <v>       8.93249989       0.00000000       0.00000000 </v>
     <v>       0.00575300       9.05559834       0.00000000 </v>
     <v>       0.03210180      -0.01574346       8.93712807 </v>
    </varray>
    <i name="volume">    722.91652451 </i>
    <varray name="rec_basis" >
     <v>       0.11195074      -0.00007112      -0.00040225 </v>
     <v>       0.00000000       0.11042893       0.00019453 </v>
     <v>       0.00000000       0.00000000       0.11189277 </v>
    </varray>
   </crystal>
   <varray name="positions" >
    <v>       0.99688001       0.99204997       0.99924002 </v>
    <v>       0.25398003       0.99714995       0.24912000 </v>
    <v>       0.24803003       0.50165000       0.24955001 </v>
    <v>       0.50501006       0.49745998       0.99834003 </v>
    <v>       0.50479003       0.24631001       0.74710002 </v>
    <v>       0.99427992       0.50449999       0.49779000 </v>
    <v>       0.49950005       0.75481999       0.74817004 </v>
    <v>       0.99437004       0.23617001       0.26379999 </v>
    <v>       0.75718000       0.74102998       0.01100000 </v>
    <v>       0.00201000       0.25541000       0.73894001 </v>
    <v>       0.75307001       0.26163001       0.50533002 </v>
    <v>       0.99514004       0.74492004       0.74511997 </v>
    <v>       0.25679999       0.49462002       0.74545002 </v>
    <v>       0.24788999       0.24839000       0.99657997 </v>
    <v>       0.50833000       0.25676999       0.25376001 </v>
    <v>       0.74879004       0.98787999       0.26967001 </v>
    <v>       0.75719000       0.25603001       0.99591997 </v>
    <v>       0.24762001       0.74973999       0.99974006 </v>
    <v>       0.25272001       0.24823001       0.50015003 </v>
    <v>       0.24457999       0.75048999       0.49983999 </v>
    <v>       0.24982001       0.24942998       0.24825000 </v>
    <v>       0.26146999       0.99984002       0.99295996 </v>
    <v>       0.00281000       0.25024000       0.00130000 </v>
    <v>       0.75313998       0.24617000       0.25492002 </v>
    <v>       0.74767001       0.99748000       0.01202000 </v>
    <v>       0.50714994       0.99977000       0.24673000 </v>
    <v>       0.99051999       0.48088002       0.24100998 </v>
    <v>       0.50519005       0.76130999       0.00855000 </v>
    <v>       0.98896989       0.00202000       0.73708999 </v>
    <v>       0.75744996       0.24437997       0.74896999 </v>
    <v>       0.73632001       0.00417000       0.51063000 </v>
    <v>       0.50563996       0.23264999       0.49544997 </v>
    <v>       0.50008998       0.00061000       0.73471998 </v>
    <v>       0.99720000       0.99771992       0.25899999 </v>
    <v>       0.50427997       0.24673000       0.00262000 </v>
    <v>       0.25133999       0.74958002       0.24910999 </v>
    <v>       0.24328000       0.50072997       0.99510994 </v>
    <v>       0.99837005       0.74313996       0.00460000 </v>
    <v>       0.75633000       0.73891003       0.25767000 </v>
    <v>       0.75839004       0.50315998       0.00288000 </v>
    <v>       0.50700002       0.50333002       0.25878999 </v>
    <v>       0.24900999       0.25315000       0.74854000 </v>
    <v>       0.24446000       0.99823996       0.50287998 </v>
    <v>       0.99804009       0.24229999       0.50128003 </v>
    <v>       0.24177002       0.75340997       0.75018002 </v>
    <v>       0.25841001       0.50062002       0.50129001 </v>
    <v>       0.99000004       0.76215003       0.49746000 </v>
    <v>       0.99203996       0.50055999       0.75138002 </v>
    <v>       0.75036005       0.74888000       0.74756004 </v>
    <v>       0.74036002       0.50197000       0.50067003 </v>
    <v>       0.50575006       0.74958002       0.49720000 </v>
    <v>       0.50501003       0.50217998       0.73912003 </v>
    <v>       0.51588997       0.01358000       0.98075008 </v>
    <v>       0.99841994       0.50976998       0.98613004 </v>
    <v>       0.50379003       0.73926997       0.25905001 </v>
    <v>       0.23780002       0.01082000       0.74607998 </v>
    <v>       0.47957999       0.98308000       0.49717999 </v>
    <v>       0.74279003       0.97869994       0.76450995 </v>
    <v>       0.99864998       0.77573999       0.26102000 </v>
    <v>       0.73551001       0.51468004       0.26666001 </v>
    <v>       0.02362000       0.99783001       0.49557002 </v>
    <v>       0.50539000       0.52833005       0.49917999 </v>
    <v>       0.73876003       0.52828003       0.73814999 </v>
    <v>       0.75400003       0.72937999       0.49116997 </v>
   </varray>
  </structure>
  <varray name="forces" >
   <v>       0.24839420       0.32632510      -0.12168671 </v>
   <v>       1.01503940      -0.36469709      -0.47942286 </v>
   <v>       0.71403372       0.31415188      -0.35285407 </v>
   <v>      -0.19546395      -0.96712339       0.28342966 </v>
   <v>      -0.66929590      -0.85859186       0.65062288 </v>
   <v>       0.60161840      -0.27778591       0.50020041 </v>
   <v>      -0.77478676       1.09717449       0.19983842 </v>
   <v>       0.04522529       0.10249268      -1.01485760 </v>
   <v>      -0.68367786       0.77515763       0.07986732 </v>
   <v>       0.39217287      -0.48117633       0.96562885 </v>
   <v>      -1.15164862      -1.33465755      -0.34693638 </v>
   <v>       1.31999462       0.57677438       0.41243024 </v>
   <v>      -0.28256643       0.42127034       0.48992687 </v>
   <v>       0.40738615       0.20174012      -0.49378033 </v>
   <v>       0.24639111      -0.31776007      -0.44710808 </v>
   <v>      -0.73029106      -0.22180018       0.44365985 </v>
   <v>      -0.71273815       0.43814136      -0.32021566 </v>
   <v>      -0.69238639      -0.23880345      -0.00337946 </v>
   <v>      -0.17244280       0.14124211       0.38503848 </v>
   <v>       0.03486444      -0.11573596      -0.15781548 </v>
   <v>      -0.01796176      -0.07346822       0.07581369 </v>
   <v>      -0.28593703      -0.00924697       0.00968542 </v>
   <v>      -0.06328446      -0.46312089       0.00126545 </v>
   <v>      -0.27408500      -0.35334086      -0.11599445 </v>
   <v>      -0.07607859       0.06677142      -0.58763008 </v>
   <v>      -0.02009173       0.06924675       0.43579870 </v>
   <v>       0.98108058      -0.17993961       0.63582697 </v>
   <v>      -0.15778615      -0.41423973      -0.40373287 </v>
   <v>       0.00901207       0.04944373       1.24339159 </v>
   <v>      -0.36269469      -0.10289814       0.34019144 </v>
   <v>      -0.09920458       0.33160098      -0.95242528 </v>
   <v>      -0.32555268      -0.09945445      -0.13900207 </v>
   <v>       0.33924899       0.01513293       0.72067759 </v>
   <v>      -0.30300911       0.73706535      -1.21590658 </v>
   <v>       0.10899619      -0.11099593       0.14143852 </v>
   <v>       0.32788722      -0.01839606       0.02457814 </v>
   <v>       0.29002671      -0.02375084       0.37873163 </v>
   <v>       0.90751807      -0.01996508      -0.23304517 </v>
   <v>      -0.63627960       1.45856850      -0.95962106 </v>
   <v>      -0.17508227      -1.02084702      -0.01566055 </v>
   <v>      -1.46043641      -0.23739356      -1.01286962 </v>
   <v>       0.32841485      -0.77339381       0.01330786 </v>
   <v>       1.94175791      -0.24080144       0.42263460 </v>
   <v>       0.53256798       0.79537434      -0.11482691 </v>
   <v>       0.58419411       0.12539229       0.01423444 </v>
   <v>      -0.73766312       0.00873487      -0.57088524 </v>
   <v>       1.38322495      -0.84480268       0.60247612 </v>
   <v>       0.61286699       0.01669667      -0.04239554 </v>
   <v>      -0.45821872       1.79602933       0.52348201 </v>
   <v>       1.32072064      -0.98374161       0.25786249 </v>
   <v>      -1.04822852       1.58040131      -0.42650365 </v>
   <v>      -1.00022091      -0.30530527       1.22877748 </v>
   <v>       0.51219341       0.99335164      -0.44100277 </v>
   <v>       0.26255838       0.66959529      -0.51402228 </v>
   <v>      -0.03064026      -0.18634553       0.23724733 </v>
   <v>       0.01425258       0.38585043       0.41394115 </v>
   <v>      -0.20444654      -0.05353739      -0.35401745 </v>
   <v>      -0.68870939      -0.74058403       0.41912797 </v>
   <v>       0.38967540       0.01059044      -0.43642800 </v>
   <v>      -0.39442559      -0.82264204      -1.39966495 </v>
   <v>      -0.16020789       0.28649885       0.16706093 </v>
   <v>      -1.14102087      -0.49815352      -0.37447755 </v>
   <v>       0.39694377      -1.52884173       1.31290700 </v>
   <v>      -0.08169719       1.49252297       0.01706720 </v>
  </varray>
  <varray name="stress" >
   <v>    -253.47424163       6.31847744      -2.23103936 </v>
   <v>       6.31847914    -256.50420739       0.75019925 </v>
   <v>      -2.23103787       0.75019975    -246.01280438 </v>
  </varray>
  <energy>
   <i name="e_fr_energy">   -630.58020538 </i>
   <i name="e_wo_entrp">   -630.43857342 </i>
   <i name="e_0_energy">     -0.28326391 </i>
  </energy>
  <time name="totalsc">  852.52  854.45</time>
 </calculation>
 <calculation>
  <scstep>
   <time name="dav">   27.77   27.83</time>
   <time name="total">   28.06   28.13</time>
   <energy>
    <i name="alphaZ">   4667.74792176 </i>
    <i name="ewald"> -43050.48586306 </i>
    <i name="hartreedc"> -10381.50772898 </i>
    <i name="XCdc">   1688.10377219 </i>
    <i name="pawpsdc">  31423.06345950 </i>
    <i name="pawaedc"> -31247.69693706 </i>
    <i name="eentropy">     -0.10773644 </i>
    <i name="bandstr">  -2243.74605112 </i>
    <i name="atom">  48244.43136693 </i>
    <i name="e_fr_energy">   -900.19779628 </i>
    <i name="e_wo_entrp">   -900.09005984 </i>
    <i name="e_0_energy">   -900.14392806 </i>
   </energy>
  </scstep>
  <scstep>
   <time name="diag">    1.75    1.75</time>
   <time name="diis">   16.25   16.31</time>
   <time name="orth">    0.42    0.42</time>
   <time name="total">   18.70   18.76</time>
   <energy>
    <i name="e_fr_energy">   -925.81260852 </i>
    <i name="e_wo_entrp">   -925.69386983 </i>
    <i name="e_0_energy">   -925.75323917 </i>
   </energy>
  </scstep>
  <scstep>
   <time name="diag">    1.75    1.75</time>
   <time name="diis">   18.07   18.17</time>
   <time name="orth">    0.42    0.42</time>
   <time name="total">   20.51   20.62</time>
   <energy>
    <i name="e_fr_energy">   -678.69683792 </i>
    <i name="e_wo_entrp">   -678.55961646 </i>
    <i name="e_0_energy">   -678.62822719 </i>
   </energy>
  </scstep>
  <scstep>
   <time name="diag">    1.75    1.75</time>
   <time name="diis">   18.31   18.35</time>
   <time name="orth">    0.42    0.42</time>
   <time name="total">   20.75   20.80</time>
   <energy>
    <i name="e_fr_energy">   -650.11600722 </i>
    <i name="e_wo_entrp">   -649.95837364 </i>
    <i name="e_0_energy">   -650.03719043 </i>
   </energy>
  </scstep>
  <scstep>
   <time name="diag">    1.76    1.76</time>
   <time name="diis">   17.88   17.91</time>
   <time name="orth">    0.42    0.42</time>
   <time name="total">   20.33   20.36</time>
   <energy>
    <i name="e_fr_energy">   -640.68199027 </i>
    <i name="e_wo_entrp">   -640.53888910 </i>
    <i name="e_0_energy">   -640.61043968 </i>
   </energy>
  </scstep>
  <scstep>
   <time name="diag">    1.76    1.76</time>
   <time name="diis">   17.76   17.79</time>
   <time name="orth">    0.42    0.42</time>
   <time name="total">   20.21   20.24</time>
   <energy>
    <i name="e_fr_energy">   -621.06202867 </i>
    <i name="e_wo_entrp">   -620.89335381 </i>
    <i name="e_0_energy">   -620.97769124 </i>
   </energy>
  </scstep>
  <scstep>
   <time name="diag">    1.76    1.76</time>
   <time name="diis">   19.73   19.76</time>
   <time name="orth">    0.42    0.42</time>
   <time name="total">   22.18   22.21</time>
   <energy>
    <i name="e_fr_energy">   -621.57757133 </i>
    <i name="e_wo_entrp">   -621.39837430 </i>
    <i name="e_0_energy">   -621.48797281 </i>
   </energy>
  </scstep>
  <scstep>
   <time name="diag">    1.75    1.75</time>
   <time name="diis">   19.60   19.62</time>
   <time name="orth">    0.42    0.42</time>
   <time name="total">   22.04   22.07</time>
   <energy>
    <i name="e_fr_energy">   -619.34455682 </i>
    <i name="e_wo_entrp">   -619.16629394 </i>
    <i name="e_0_energy">   -619.25542538 </i>
   </energy>
  </scstep>
  <scstep>
   <time name="diag">    1.75    1.75</time>
   <time name="diis">   21.53   21.68</time>
   <time name="orth">    0.42    0.42</time>
   <time name="total">   23.97   24.13</time>
   <energy>
    <i name="e_fr_energy">   -619.17830858 </i>
    <i name="e_wo_entrp">   -619.00722921 </i>
    <i name="e_0_energy">   -619.09276890 </i>
   </energy>
  </scstep>
  <scstep>
   <time name="diag">    1.76    1.76</time>
   <time name="diis">   21.92   22.00</time>
   <time name="orth">    0.41    0.41</time>
   <time name="total">   24.38   24.48</time>
   <energy>
    <i name="e_fr_energy">   -619.19042692 </i>
    <i name="e_wo_entrp">   -619.00689041 </i>
    <i name="e_0_energy">   -619.09865866 </i>
   </energy>
  </scstep>
  <scstep>
   <time name="diag">    1.76    1.76</time>
   <time name="diis">   22.93   22.96</time>
   <time name="orth">    0.41    0.41</time>
   <time name="total">   25.38   25.41</time>
   <energy>
    <i name="e_fr_energy">   -619.19713770 </i>
    <i name="e_wo_entrp">   -619.01427663 </i>
    <i name="e_0_energy">   -619.10570716 </i>
   </energy>
  </scstep>
  <scstep>
   <time name="diag">    1.77    1.77</time>
   <time name="diis">   19.94   19.97</time>
   <time name="orth">    0.42    0.42</time>
   <time name="total">   22.41   22.44</time>
   <energy>
    <i name="e_fr_energy">   -619.28138069 </i>
    <i name="e_wo_entrp">   -619.09837225 </i>
    <i name="e_0_energy">   -619.18987647 </i>
   </energy>
  </scstep>
  <scstep>
   <time name="diag">    1.75    1.75</time>
   <time name="diis">   21.55   21.64</time>
   <time name="orth">    0.42    0.42</time>
   <time name="total">   24.00   24.09</time>
   <energy>
    <i name="e_fr_energy">   -619.20866149 </i>
    <i name="e_wo_entrp">   -619.02683033 </i>
    <i name="e_0_energy">   -619.11774591 </i>
   </energy>
  </scstep>
  <scstep>
   <time name="diag">    1.76    1.76</time>
   <time name="diis">   22.70   22.74</time>
   <time name="orth">    0.42    0.42</time>
   <time name="total">   25.16   25.20</time>
   <energy>
    <i name="e_fr_energy">   -619.32187996 </i>
    <i name="e_wo_entrp">   -619.14153475 </i>
    <i name="e_0_energy">   -619.23170735 </i>
   </energy>
  </scstep>
  <scstep>
   <time name="diag">    1.76    1.76</time>
   <time name="diis">   21.62   21.70</time>
   <time name="orth">    0.42    0.42</time>
   <time name="total">   24.07   24.15</time>
   <energy>
    <i name="e_fr_energy">   -619.27980901 </i>
    <i name="e_wo_entrp">   -619.09687813 </i>
    <i name="e_0_energy">   -619.18834357 </i>
   </energy>
  </scstep>
  <scstep>
   <time name="diag">    1.75    1.75</time>
   <time name="diis">   22.68   22.76</time>
   <time name="orth">    0.42    0.42</time>
   <time name="total">   25.13   25.21</time>
   <energy>
    <i name="e_fr_energy">   -619.29710675 </i>
    <i name="e_wo_entrp">   -619.11620382 </i>
    <i name="e_0_energy">   -619.20665529 </i>
   </energy>
  </scstep>
  <scstep>
   <time name="diag">    1.75    1.75</time>
   <time name="diis">   22.67   22.69</time>
   <time name="orth">    0.42    0.42</time>
   <time name="total">   25.11   25.14</time>
   <energy>
    <i name="e_fr_energy">   -619.28505011 </i>
    <i name="e_wo_entrp">   -619.10183917 </i>
    <i name="e_0_energy">   -619.19344464 </i>
   </energy>
  </scstep>
  <scstep>
   <time name="diag">    1.76    1.76</time>
   <time name="diis">   22.87   22.90</time>
   <time name="orth">    0.41    0.41</time>
   <time name="total">   25.33   25.36</time>
   <energy>
    <i name="e_fr_energy">   -619.29064495 </i>
    <i name="e_wo_entrp">   -619.10793781 </i>
    <i name="e_0_energy">   -619.19929138 </i>
   </energy>
  </scstep>
  <scstep>
   <time name="diag">    1.76    1.76</time>
   <time name="diis">   23.50   23.52</time>
   <time name="orth">    0.42    0.42</time>
   <time name="total">   25.96   25.98</time>
   <energy>
    <i name="e_fr_energy">   -619.29118970 </i>
    <i name="e_wo_entrp">   -619.10851111 </i>
    <i name="e_0_energy">   -619.19985041 </i>
   </energy>
  </scstep>
  <scstep>
   <time name="diag">    1.77    1.77</time>
   <time name="diis">   23.08   23.12</time>
   <time name="orth">    0.42    0.42</time>
   <time name="total">   25.54   25.59</time>
   <energy>
    <i name="e_fr_energy">   -619.28974346 </i>
    <i name="e_wo_entrp">   -619.10693780 </i>
    <i name="e_0_energy">   -619.19834063 </i>
   </energy>
  </scstep>
  <scstep>
   <time name="diag">    1.75    1.75</time>
   <time name="diis">   22.26   22.28</time>
   <time name="orth">    0.42    0.42</time>
   <time name="total">   24.70   24.73</time>
   <energy>
    <i name="e_fr_energy">   -619.28988841 </i>
    <i name="e_wo_entrp">   -619.10722011 </i>
    <i name="e_0_energy">   -619.19855426 </i>
   </energy>
  </scstep>
  <scstep>
   <time name="diag">    1.75    1.75</time>
   <time name="diis">   23.65   23.66</time>
   <time name="orth">    0.42    0.42</time>
   <time name="total">   26.11   26.12</time>
   <energy>
    <i name="e_fr_energy">   -619.29015164 </i>
    <i name="e_wo_entrp">   -619.10743734 </i>
    <i name="e_0_energy">   -619.19879449 </i>
   </energy>
  </scstep>
  <scstep>
   <time name="diag">    1.78    1.78</time>
   <time name="diis">   22.64   22.69</time>
   <time name="orth">    0.42    0.42</time>
   <time name="total">   25.11   25.18</time>
   <energy>
    <i name="e_fr_energy">   -619.29061114 </i>
    <i name="e_wo_entrp">   -619.10788496 </i>
    <i name="e_0_energy">   -619.19924805 </i>
   </energy>
  </scstep>
  <scstep>
   <time name="diag">    1.76    1.76</time>
   <time name="diis">   21.66   21.67</time>
   <time name="orth">    0.41    0.41</time>
   <time name="total">   24.11   24.12</time>
   <energy>
    <i name="e_fr_energy">   -619.29102944 </i>
    <i name="e_wo_entrp">   -619.10826530 </i>
    <i name="e_0_energy">   -619.19964737 </i>
   </energy>
  </scstep>
  <scstep>
   <time name="diag">    1.74    1.74</time>
   <time name="diis">   20.72   20.74</time>
   <time name="orth">    0.41    0.41</time>
   <time name="total">   23.16   23.18</time>
   <energy>
    <i name="e_fr_energy">   -619.29130981 </i>
    <i name="e_wo_entrp">   -619.10855196 </i>
    <i name="e_0_energy">   -619.19993089 </i>
   </energy>
  </scstep>
  <scstep>
   <time name="diag">    1.75    1.75</time>
   <time name="diis">   20.04   20.13</time>
   <time name="orth">    0.42    0.42</time>
   <time name="total">   22.50   22.58</time>
   <energy>
    <i name="e_fr_energy">   -619.29143135 </i>
    <i name="e_wo_entrp">   -619.10867799 </i>
    <i name="e_0_energy">   -619.20005467 </i>
   </energy>
  </scstep>
  <scstep>
   <time name="diag">    1.75    1.75</time>
   <time name="diis">   18.72   18.77</time>
   <time name="orth">    0.42    0.42</time>
   <time name="total">   21.17   21.22</time>
   <energy>
    <i name="e_fr_energy">   -619.29153475 </i>
    <i name="e_wo_entrp">   -619.10877900 </i>
    <i name="e_0_energy">   -619.20015688 </i>
   </energy>
  </scstep>
  <scstep>
   <time name="diag">    1.76    1.76</time>
   <time name="diis">   17.56   17.63</time>
   <time name="orth">    0.42    0.42</time>
   <time name="total">   20.00   20.09</time>
   <energy>
    <i name="e_fr_energy">   -619.29160290 </i>
    <i name="e_wo_entrp">   -619.10884698 </i>
    <i name="e_0_energy">   -619.20022494 </i>
   </energy>
  </scstep>
  <scstep>
   <time name="diag">    1.76    1.76</time>
   <time name="diis">   17.24   17.28</time>
   <time name="orth">    0.42    0.42</time>
   <time name="total">   19.70   19.74</time>
   <energy>
    <i name="e_fr_energy">   -619.29165522 </i>
    <i name="e_wo_entrp">   -619.10889728 </i>
    <i name="e_0_energy">   -619.20027625 </i>
   </energy>
  </scstep>
  <scstep>
   <time name="diag">    1.75    1.76</time>
   <time name="diis">   16.83   16.89</time>
   <time name="orth">    0.42    0.42</time>
   <time name="total">   19.28   19.35</time>
   <energy>
    <i name="e_fr_energy">   -619.29168015 </i>
    <i name="e_wo_entrp">   -619.10892253 </i>
    <i name="e_0_energy">   -619.20030134 </i>
   </energy>
  </scstep>
  <scstep>
   <time name="diag">    1.77    1.77</time>
   <time name="diis">   17.13   17.22</time>
   <time name="orth">    0.42    0.42</time>
   <time name="total">   19.60   19.69</time>
   <energy>
    <i name="e_fr_energy">   -619.29170111 </i>
    <i name="e_wo_entrp">   -619.10894413 </i>
    <i name="e_0_energy">   -619.20032262 </i>
   </energy>
  </scstep>
  <scstep>
   <time name="diag">    1.78    1.79</time>
   <time name="diis">   16.88   16.91</time>
   <time name="orth">    0.42    0.42</time>
   <time name="total">   19.36   19.39</time>
   <energy>
    <i name="e_fr_energy">   -619.29171231 </i>
    <i name="e_wo_entrp">   -619.10895569 </i>
    <i name="e_0_energy">   -619.20033400 </i>
   </energy>
  </scstep>
  <scstep>
   <time name="diag">    1.76    1.76</time>
   <time name="diis">   15.14   15.15</time>
   <time name="orth">    0.42    0.42</time>
   <time name="total">   17.35   17.36</time>
   <energy>
    <i name="alphaZ">   4667.74792176 </i>
    <i name="ewald"> -43050.48586306 </i>
    <i name="hartreedc">  -8334.82337752 </i>
    <i name="XCdc">   1577.69585482 </i>
    <i name="pawpsdc">  34480.86761776 </i>
    <i name="pawaedc"> -34314.94213479 </i>
    <i name="eentropy">     -0.18275663 </i>
    <i name="bandstr">  -3889.60035003 </i>
    <i name="atom">  48244.43136693 </i>
    <i name="e_fr_energy">   -619.29172076 </i>
    <i name="e_wo_entrp">   -619.10896413 </i>
    <i name="e_0_energy">   -619.20034244 </i>
   </energy>
  </scstep>
  <structure>
   <crystal>
    <varray name="basis" >
     <v>       8.16242025       0.01919615      -0.00677812 </v>
     <v>       0.02471773       8.26558643       0.00230622 </v>
     <v>       0.02251882      -0.01202063       8.18930138 </v>
    </varray>
    <i name="volume">    552.50675798 </i>
    <varray name="rec_basis" >
     <v>       0.12251326      -0.00036627      -0.00033742 </v>
     <v>      -0.00028438       0.12098435       0.00017837 </v>
     <v>       0.00010148      -0.00003437       0.12211021 </v>
    </varray>
   </crystal>
   <varray name="positions" >
    <v>       0.99822278       0.99378728       0.99858315 </v>
    <v>       0.25947261       0.99520257       0.24653207 </v>
    <v>       0.25189215       0.50332030       0.24764530 </v>
    <v>       0.50395222       0.49231040       0.99986998 </v>
    <v>       0.50116562       0.24174207       0.75061208 </v>
    <v>       0.99752039       0.50302481       0.50049008 </v>
    <v>       0.49530794       0.76066694       0.74924877 </v>
    <v>       0.99463363       0.23670651       0.25832178 </v>
    <v>       0.75348338       0.74516029       0.01143112 </v>
    <v>       0.00411096       0.25285565       0.74415248 </v>
    <v>       0.74686150       0.25451652       0.50345726 </v>
    <v>       0.00225909       0.74799661       0.74734627 </v>
    <v>       0.25526296       0.49686889       0.74809465 </v>
    <v>       0.25009909       0.24946011       0.99391454 </v>
    <v>       0.50967048       0.25507297       0.25134652 </v>
    <v>       0.74483803       0.98670254       0.27206489 </v>
    <v>       0.75334535       0.25836115       0.99419145 </v>
    <v>       0.24388145       0.74846776       0.99972181 </v>
    <v>       0.25178072       0.24898607       0.50222847 </v>
    <v>       0.24477175       0.74987194       0.49898810 </v>
    <v>       0.24972179       0.24903930       0.24865924 </v>
    <v>       0.25992554       0.99979085       0.99301224 </v>
    <v>       0.00246978       0.24777279       0.00130683 </v>
    <v>       0.75166317       0.24428652       0.25429388 </v>
    <v>       0.74727030       0.99783020       0.00884797 </v>
    <v>       0.50703273       0.00014299       0.24908244 </v>
    <v>       0.99580689       0.47992738       0.24444218 </v>
    <v>       0.50434714       0.75909939       0.00637065 </v>
    <v>       0.98899426       0.00229507       0.74380183 </v>
    <v>       0.75548487       0.24383499       0.75080634 </v>
    <v>       0.73580157       0.00592763       0.50548881 </v>
    <v>       0.50388475       0.23211885       0.49469964 </v>
    <v>       0.50190816       0.00069738       0.73861020 </v>
    <v>       0.99558457       0.00163514       0.25243652 </v>
    <v>       0.50486627       0.24614001       0.00338349 </v>
    <v>       0.25311043       0.74948224       0.24924266 </v>
    <v>       0.24483911       0.50060700       0.99715434 </v>
    <v>       0.00327596       0.74303141       0.00334202 </v>
    <v>       0.75290720       0.74667138       0.25248996 </v>
    <v>       0.75744826       0.49772138       0.00279546 </v>
    <v>       0.49913296       0.50205582       0.25332251 </v>
    <v>       0.25078609       0.24902996       0.74861184 </v>
    <v>       0.25493967       0.99696108       0.50516136 </v>
    <v>       0.00091588       0.24653618       0.50066019 </v>
    <v>       0.24492443       0.75407812       0.75025686 </v>
    <v>       0.25443708       0.50066119       0.49820837 </v>
    <v>       0.99746176       0.75765509       0.50071217 </v>
    <v>       0.99535070       0.50064854       0.75115117 </v>
    <v>       0.74786899       0.75845305       0.75038580 </v>
    <v>       0.74749134       0.49673165       0.50206197 </v>
    <v>       0.50009164       0.75799542       0.49489773 </v>
    <v>       0.49958524       0.50056504       0.74575298 </v>
    <v>       0.51866137       0.01886783       0.97836954 </v>
    <v>       0.99984564       0.51333235       0.98335534 </v>
    <v>       0.50362058       0.73827946       0.26033067 </v>
    <v>       0.23786764       0.01287946       0.74831444 </v>
    <v>       0.47848287       0.98279147       0.49526901 </v>
    <v>       0.73906485       0.97475849       0.76677241 </v>
    <v>       0.00076297       0.77579232       0.25866416 </v>
    <v>       0.73340978       0.51028437       0.25910461 </v>
    <v>       0.02275052       0.99935787       0.49647181 </v>
    <v>       0.49923655       0.52567268       0.49715856 </v>
    <v>       0.74088362       0.52014762       0.74523707 </v>
    <v>       0.75355335       0.73733139       0.49126210 </v>
   </varray>
  </structure>
  <varray name="forces" >
   <v>       0.97446566       0.92190731      -0.75981322 </v>
   <v>       0.81117803       0.64800767      -0.61669829 </v>
   <v>      -0.51239466      -0.40292563      -0.47529113 </v>
   <v>      -0.80007317       0.16147069       0.30839317 </v>
   <v>      -0.16481767      -0.08547683       0.10989955 </v>
   <v>       1.26997743      -0.56471086      -0.06476879 </v>
   <v>      -0.91943144       0.14034886       0.63126978 </v>
   <v>       0.89208376       1.10601666      -2.31550242 </v>
   <v>      -0.59814735       1.13741852      -1.41278443 </v>
   <v>      -0.17153385      -0.91686049       2.15462160 </v>
   <v>      -0.17919218      -1.64853935      -0.09004066 </v>
   <v>      -0.14083888       1.15120695       1.19471233 </v>
   <v>      -1.41216845       0.47101657       0.41784428 </v>
   <v>       0.57904618       0.10665097       0.02280503 </v>
   <v>      -0.39263249      -0.78554008      -0.64157883 </v>
   <v>      -0.66020738       0.74987359      -0.74878769 </v>
   <v>      -0.48532478      -0.50926327       0.22443120 </v>
   <v>       0.40068029      -0.00152258       0.21872197 </v>
   <v>       0.29256476       0.04701736      -0.11473622 </v>
   <v>       0.55795643      -0.22986144      -0.18745518 </v>
   <v>       1.21101542      -0.05954365      -0.05959816 </v>
   <v>       0.91682806      -0.17163075      -0.69298074 </v>
   <v>      -0.05255196       0.97331069       0.11365149 </v>
   <v>      -1.80954015      -0.62385465      -1.98154057 </v>
   <v>      -0.44758749       1.28180827       0.10241913 </v>
   <v>       0.77584513      -0.09749939      -0.39069671 </v>
   <v>       0.26409370       2.13277051      -0.72983481 </v>
   <v>      -1.71602222       0.47932132       0.37516051 </v>
   <v>      -0.45341913      -0.03011163       0.63120741 </v>
   <v>      -0.67675634      -0.30362360       1.39389150 </v>
   <v>       0.38341407      -0.82892565       0.67545317 </v>
   <v>      -2.10791623       0.41179246      -0.47731420 </v>
   <v>      -0.41682005       0.21442224       0.33381739 </v>
   <v>      -0.54063620       0.39950901      -0.96263651 </v>
   <v>      -0.31747410      -0.61642472       1.17543990 </v>
   <v>       1.31410947      -0.13028705      -0.18143927 </v>
   <v>      -0.50792799      -0.18158949       0.45800536 </v>
   <v>       0.98619449      -0.43836062       0.45756284 </v>
   <v>      -1.38828051       1.62279308      -0.12185024 </v>
   <v>       1.01561124      -1.59225146       0.24453617 </v>
   <v>      -1.56257400      -0.49094466      -0.83919261 </v>
   <v>       0.70893011      -1.08903229       0.05656125 </v>
   <v>       1.73714286       0.12794529       0.98957188 </v>
   <v>       1.09044605       0.86056336       0.04978917 </v>
   <v>       1.17591769       1.16757026       0.10335361 </v>
   <v>      -0.85121558      -0.29450930      -0.33557574 </v>
   <v>       1.65298879      -0.93889674       0.22463103 </v>
   <v>       0.42357082      -0.00424048       0.48139547 </v>
   <v>       0.06721099       0.12658802      -0.21268483 </v>
   <v>       0.17912274       0.11023250      -0.02378816 </v>
   <v>      -1.29297922       1.62836656      -0.47768081 </v>
   <v>      -0.11175975      -0.21961119       0.44152512 </v>
   <v>      -0.43166049      -0.31645150       0.41745055 </v>
   <v>       0.47845315      -0.78478798       0.49991834 </v>
   <v>      -0.56115509       1.02581914      -0.80422091 </v>
   <v>       0.25940224      -0.58153019       0.94435733 </v>
   <v>       1.22399875       1.16866997      -0.93222551 </v>
   <v>      -0.43462399       2.07922269       0.40137055 </v>
   <v>       0.80813627      -3.67320085      -1.59665961 </v>
   <v>       1.53850147      -2.41578334      -2.09054503 </v>
   <v>      -2.10661017       1.14763762       0.72104132 </v>
   <v>      -0.26021790      -2.89530403       0.08072477 </v>
   <v>       1.21667447      -2.15311074       2.35123529 </v>
   <v>      -0.72106962       2.47692837       1.33115183 </v>
  </varray>
  <varray name="stress" >
   <v>     779.29030446       0.77498081       4.99045357 </v>
   <v>       0.77498117     722.41058697       0.00206041 </v>
   <v>       4.99045471       0.00206081     760.34768578 </v>
  </varray>
  <energy>
   <i name="e_fr_energy">   -619.29172076 </i>
   <i name="e_wo_entrp">   -619.20034244 </i>
   <i name="e_0_energy">     -0.18275663 </i>
  </energy>
  <time name="totalsc">  795.00  796.84</time>
 </calculation>
 <calculation>
  <scstep>
   <time name="dav">   27.50   27.52</time>
   <time name="total">   27.78   27.81</time>
   <energy>
    <i name="alphaZ">   3964.29268899 </i>
    <i name="ewald"> -40945.77199098 </i>
    <i name="hartreedc">  -7717.87724184 </i>
    <i name="XCdc">   1472.11365581 </i>
    <i name="pawpsdc">  34480.84010550 </i>
    <i name="pawaedc"> -34314.92697301 </i>
    <i name="eentropy">     -0.19183472 </i>
    <i name="bandstr">  -5975.00665668 </i>
    <i name="atom">  48244.43136693 </i>
    <i name="e_fr_energy">   -792.09687999 </i>
    <i name="e_wo_entrp">   -791.90504527 </i>
    <i name="e_0_energy">   -792.00096263 </i>
   </energy>
  </scstep>
  <scstep>
   <time name="diag">    1.74    1.74</time>
   <time name="diis">   19.64   19.72</time>
   <time name="orth">    0.42    0.42</time>
   <time name="total">   22.07   22.15</time>
   <energy>
    <i name="e_fr_energy">  -1329.13681778 </i>
    <i name="e_wo_entrp">  -1329.07417709 </i>
    <i name="e_0_energy">  -1329.10549743 </i>
   </energy>
  </scstep>
  <scstep>
   <time name="diag">    1.76    1.76</time>
   <time name="diis">   19.86   19.89</time>
   <time name="orth">    0.42    0.42</time>
   <time name="total">   22.31   22.34</time>
   <energy>
    <i name="e_fr_energy">   -754.55562410 </i>
    <i name="e_wo_entrp">   -754.43041747 </i>
    <i name="e_0_energy">   -754.49302078 </i>
   </energy>
  </scstep>
  <scstep>
   <time name="diag">    1.75    1.75</time>
   <time name="diis">   16.78   16.83</time>
   <time name="orth">    0.42    0.42</time>
   <time name="total">   19.23   19.27</time>
   <energy>
    <i name="e_fr_energy">   -690.13762193 </i>
    <i name="e_wo_entrp">   -689.98553064 </i>
    <i name="e_0_energy">   -690.06157628 </i>
   </energy>
  </scstep>
  <scstep>
   <time name="diag">    1.79    1.79</time>
   <time name="diis">   18.74   18.75</time>
   <time name="orth">    0.42    0.42</time>
   <time name="total">   21.23   21.25</time>
   <energy>
    <i name="e_fr_energy">   -654.88455179 </i>
    <i name="e_wo_entrp">   -654.61923041 </i>
    <i name="e_0_energy">   -654.75189110 </i>
   </energy>
  </scstep>
  <scstep>
   <time name="diag">    1.76    1.76</time>
   <time name="diis">   18.73   18.74</time>
   <time name="orth">    0.42    0.42</time>
[...]
      </set>
     </set>
    </set>
   </array>
  </eigenvalues>
  <separator name="orbital magnetization" >
   <v name="MAGDIPOLOUT">      0.00000000      0.00000000      0.00000000</v>
  </separator>
  <dos>
   <i name="efermi">      9.37823053 </i>
   <total>
    <array>
     <dimension dim="1">gridpoints</dimension>
     <dimension dim="2">spin</dimension>
     <field>energy</field>
     <field>total</field>
     <field>integrated</field>
     <set>
      <set comment="spin 1">
       <r>   -59.1087     0.0000     0.0000 </r>
       <r>   -58.8606     0.0000     0.0000 </r>
       <r>   -58.6126     0.0000     0.0000 </r>
       <r>   -58.3646     0.0000     0.0000 </r>
       <r>   -58.1166     0.0000     0.0000 </r>
       <r>   -57.8686     0.0000     0.0000 </r>
       <r>   -57.6206     0.0000     0.0000 </r>
       <r>   -57.3726     0.0000     0.0000 </r>
       <r>   -57.1246     0.0000     0.0000 </r>
       <r>   -56.8765     0.0000     0.0000 </r>
       <r>   -56.6285     0.0000     0.0000 </r>
       <r>   -56.3805     0.0000     0.0000 </r>
       <r>   -56.1325     0.0000     0.0000 </r>
       <r>   -55.8845     0.1068     0.0265 </r>
       <r>   -55.6365    15.9553     3.9836 </r>
       <r>   -55.3885    38.4720    13.5251 </r>
       <r>   -55.1405     1.9149    14.0000 </r>
       <r>   -54.8925     0.0000    14.0000 </r>
       <r>   -54.6444     0.0000    14.0000 </r>
       <r>   -54.3964     0.0000    14.0000 </r>
       <r>   -54.1484     0.0000    14.0000 </r>
       <r>   -53.9004     0.0000    14.0000 </r>
       <r>   -53.6524     0.0000    14.0000 </r>
       <r>   -53.4044     0.0000    14.0000 </r>
       <r>   -53.1564     0.0000    14.0000 </r>
       <r>   -52.9084     0.0000    14.0000 </r>
       <r>   -52.6603     0.0000    14.0000 </r>
       <r>   -52.4123     0.0000    14.0000 </r>
       <r>   -52.1643     0.0000    14.0000 </r>
       <r>   -51.9163     0.0000    14.0000 </r>
       <r>   -51.6683     0.0000    14.0000 </r>
       <r>   -51.4203     0.0000    14.0000 </r>
       <r>   -51.1723     0.0000    14.0000 </r>
       <r>   -50.9243     0.0000    14.0000 </r>
       <r>   -50.6763     0.0000    14.0000 </r>
       <r>   -50.4282     0.0000    14.0000 </r>
       <r>   -50.1802     0.0000    14.0000 </r>
       <r>   -49.9322     0.0000    14.0000 </r>
       <r>   -49.6842     0.0000    14.0000 </r>
       <r>   -49.4362     0.0000    14.0000 </r>
       <r>   -49.1882     0.0000    14.0000 </r>
       <r>   -48.9402     0.0000    14.0000 </r>
       <r>   -48.6922     0.0000    14.0000 </r>
       <r>   -48.4441     0.0000    14.0000 </r>
       <r>   -48.1961     0.0000    14.0000 </r>
       <r>   -47.9481     0.0000    14.0000 </r>
       <r>   -47.7001     0.0000    14.0000 </r>
       <r>   -47.4521     0.0000    14.0000 </r>
       <r>   -47.2041     0.0000    14.0000 </r>
       <r>   -46.9561     0.0000    14.0000 </r>
       <r>   -46.7081     0.3599    14.0893 </r>
       <r>   -46.4601    27.5555    20.9233 </r>
       <r>   -46.2120    28.4445    27.9779 </r>
       <r>   -45.9640     0.0891    28.0000 </r>
       <r>   -45.7160     0.0000    28.0000 </r>
       <r>   -45.4680     0.0000    28.0000 </r>
       <r>   -45.2200     0.0000    28.0000 </r>
       <r>   -44.9720     0.0000    28.0000 </r>
       <r>   -44.7240     0.0000    28.0000 </r>
       <r>   -44.4760     0.0000    28.0000 </r>
       <r>   -44.2279     0.0000    28.0000 </r>
       <r>   -43.9799     0.0000    28.0000 </r>
       <r>   -43.7319     0.0000    28.0000 </r>
       <r>   -43.4839     0.0000    28.0000 </r>
       <r>   -43.2359     0.0000    28.0000 </r>
       <r>   -42.9879     0.0000    28.0000 </r>
       <r>   -42.7399     0.0000    28.0000 </r>
       <r>   -42.4919     0.0000    28.0000 </r>
       <r>   -42.2439     0.0000    28.0000 </r>
       <r>   -41.9958     0.0000    28.0000 </r>
       <r>   -41.7478     0.0000    28.0000 </r>
       <r>   -41.4998     0.0000    28.0000 </r>
       <r>   -41.2518     0.0000    28.0000 </r>
       <r>   -41.0038     0.0000    28.0000 </r>
       <r>   -40.7558     0.0000    28.0000 </r>
       <r>   -40.5078     0.0000    28.0000 </r>
       <r>   -40.2598     0.0000    28.0000 </r>
       <r>   -40.0117     0.0000    28.0000 </r>
       <r>   -39.7637     0.0000    28.0000 </r>
       <r>   -39.5157     0.0000    28.0000 </r>
       <r>   -39.2677     0.0000    28.0000 </r>
       <r>   -39.0197     0.0000    28.0000 </r>
       <r>   -38.7717     0.0000    28.0000 </r>
       <r>   -38.5237     0.0000    28.0000 </r>
       <r>   -38.2757     0.0000    28.0000 </r>
       <r>   -38.0277     0.0000    28.0000 </r>
       <r>   -37.7796     0.0000    28.0000 </r>
       <r>   -37.5316     0.0000    28.0000 </r>
       <r>   -37.2836     0.0000    28.0000 </r>
       <r>   -37.0356     0.0000    28.0000 </r>
       <r>   -36.7876     0.0000    28.0000 </r>
       <r>   -36.5396     0.0000    28.0000 </r>
       <r>   -36.2916     0.0000    28.0000 </r>
       <r>   -36.0436     0.0000    28.0000 </r>
       <r>   -35.7955     0.0000    28.0000 </r>
       <r>   -35.5475     0.0000    28.0000 </r>
       <r>   -35.2995     0.0000    28.0000 </r>
       <r>   -35.0515     0.0000    28.0000 </r>
       <r>   -34.8035     0.0008    28.0002 </r>
       <r>   -34.5555     3.3747    28.8372 </r>
       <r>   -34.3075    38.0023    38.2622 </r>
       <r>   -34.0595    93.5858    61.4726 </r>
       <r>   -33.8115    10.1883    63.9994 </r>
       <r>   -33.5634     0.0025    64.0000 </r>
       <r>   -33.3154     0.0000    64.0000 </r>
       <r>   -33.0674     0.0000    64.0000 </r>
       <r>   -32.8194     0.0000    64.0000 </r>
       <r>   -32.5714     0.0000    64.0000 </r>
       <r>   -32.3234     0.0000    64.0000 </r>
       <r>   -32.0754     0.0000    64.0000 </r>
       <r>   -31.8274     0.0000    64.0000 </r>
       <r>   -31.5793     0.0000    64.0000 </r>
       <r>   -31.3313     0.0000    64.0000 </r>
       <r>   -31.0833     0.0000    64.0000 </r>
       <r>   -30.8353     0.0000    64.0000 </r>
       <r>   -30.5873     0.0000    64.0000 </r>
       <r>   -30.3393     0.0000    64.0000 </r>
       <r>   -30.0913     0.0000    64.0000 </r>
       <r>   -29.8433     2.1454    64.5321 </r>
       <r>   -29.5953    50.8188    77.1357 </r>
       <r>   -29.3472   108.6918   104.0926 </r>
       <r>   -29.0992     7.6907   105.9999 </r>
       <r>   -28.8512     0.0002   106.0000 </r>
       <r>   -28.6032     0.0000   106.0000 </r>
       <r>   -28.3552     0.0000   106.0000 </r>
       <r>   -28.1072     0.0000   106.0000 </r>
       <r>   -27.8592     0.0000   106.0000 </r>
       <r>   -27.6112     0.0000   106.0000 </r>
       <r>   -27.3631     0.0000   106.0000 </r>
       <r>   -27.1151     0.0000   106.0000 </r>
       <r>   -26.8671     0.0000   106.0000 </r>
       <r>   -26.6191     0.0582   106.0144 </r>
       <r>   -26.3711    12.9281   109.2208 </r>
       <r>   -26.1231    39.0110   118.8960 </r>
       <r>   -25.8751    46.4638   130.4195 </r>
       <r>   -25.6271    32.8188   138.5590 </r>
       <r>   -25.3791    13.8371   141.9907 </r>
       <r>   -25.1310     0.0374   142.0000 </r>
       <r>   -24.8830     0.0000   142.0000 </r>
       <r>   -24.6350     0.0000   142.0000 </r>
       <r>   -24.3870     0.0000   142.0000 </r>
       <r>   -24.1390     0.0000   142.0000 </r>
       <r>   -23.8910     0.0000   142.0000 </r>
       <r>   -23.6430     0.0000   142.0000 </r>
       <r>   -23.3950     0.0000   142.0000 </r>
       <r>   -23.1469     0.0024   142.0006 </r>
       <r>   -22.8989     6.5234   143.6185 </r>
       <r>   -22.6509    76.9346   162.6992 </r>
       <r>   -22.4029    77.5890   181.9421 </r>
       <r>   -22.1549     8.2867   183.9973 </r>
       <r>   -21.9069     0.0108   184.0000 </r>
       <r>   -21.6589     0.0000   184.0000 </r>
       <r>   -21.4109     0.0000   184.0000 </r>
       <r>   -21.1629     0.0000   184.0000 </r>
       <r>   -20.9148     0.0000   184.0000 </r>
       <r>   -20.6668     0.0000   184.0000 </r>
       <r>   -20.4188     0.0000   184.0000 </r>
       <r>   -20.1708     0.0000   184.0000 </r>
       <r>   -19.9228     0.0000   184.0000 </r>
       <r>   -19.6748     0.0000   184.0000 </r>
       <r>   -19.4268     0.0000   184.0000 </r>
       <r>   -19.1788     0.0000   184.0000 </r>
       <r>   -18.9307     0.0000   184.0000 </r>
       <r>   -18.6827     0.0000   184.0000 </r>
       <r>   -18.4347     0.0000   184.0000 </r>
       <r>   -18.1867     0.0000   184.0000 </r>
       <r>   -17.9387     0.0000   184.0000 </r>
       <r>   -17.6907     0.0000   184.0000 </r>
       <r>   -17.4427     0.0000   184.0000 </r>
       <r>   -17.1947     0.0000   184.0000 </r>
       <r>   -16.9467     0.0000   184.0000 </r>
       <r>   -16.6986     0.0000   184.0000 </r>
       <r>   -16.4506     0.0000   184.0000 </r>
       <r>   -16.2026     0.0000   184.0000 </r>
       <r>   -15.9546     0.0000   184.0000 </r>
       <r>   -15.7066     0.0000   184.0000 </r>
       <r>   -15.4586     0.0000   184.0000 </r>
       <r>   -15.2106     0.0000   184.0000 </r>
       <r>   -14.9626     0.0000   184.0000 </r>
       <r>   -14.7145     0.0000   184.0000 </r>
       <r>   -14.4665     0.0000   184.0000 </r>
       <r>   -14.2185     0.0000   184.0000 </r>
       <r>   -13.9705     0.0000   184.0000 </r>
       <r>   -13.7225     0.0000   184.0000 </r>
       <r>   -13.4745     0.0000   184.0000 </r>
       <r>   -13.2265     0.0000   184.0000 </r>
       <r>   -12.9785     0.0000   184.0000 </r>
       <r>   -12.7305     0.0000   184.0000 </r>
       <r>   -12.4824     0.0000   184.0000 </r>
       <r>   -12.2344     0.0000   184.0000 </r>
       <r>   -11.9864     0.0000   184.0000 </r>
       <r>   -11.7384     0.0000   184.0000 </r>
       <r>   -11.4904     0.0000   184.0000 </r>
       <r>   -11.2424     0.0000   184.0000 </r>
       <r>   -10.9944     0.0000   184.0000 </r>
       <r>   -10.7464     0.0000   184.0000 </r>
       <r>   -10.4983     0.0000   184.0000 </r>
       <r>   -10.2503     0.0000   184.0000 </r>
       <r>   -10.0023     0.0000   184.0000 </r>
       <r>    -9.7543     0.0000   184.0000 </r>
       <r>    -9.5063     0.0000   184.0000 </r>
       <r>    -9.2583     0.0000   184.0000 </r>
       <r>    -9.0103     0.0000   184.0000 </r>
       <r>    -8.7623     0.0000   184.0000 </r>
       <r>    -8.5143     0.0000   184.0000 </r>
       <r>    -8.2662     0.0000   184.0000 </r>
       <r>    -8.0182     0.0000   184.0000 </r>
       <r>    -7.7702     0.0000   184.0000 </r>
       <r>    -7.5222     0.0001   184.0000 </r>
       <r>    -7.2742     0.5252   184.1303 </r>
       <r>    -7.0262     5.8794   185.5885 </r>
       <r>    -6.7782     4.4109   186.6824 </r>
       <r>    -6.5302     9.7244   189.0942 </r>
       <r>    -6.2821    19.4764   193.9246 </r>
       <r>    -6.0341    22.3853   199.4764 </r>
       <r>    -5.7861    14.4193   203.0525 </r>
       <r>    -5.5381    20.3258   208.0936 </r>
       <r>    -5.2901     7.6687   209.9955 </r>
       <r>    -5.0421     0.0181   210.0000 </r>
       <r>    -4.7941     0.0000   210.0000 </r>
       <r>    -4.5461     0.0000   210.0000 </r>
       <r>    -4.2981     0.0000   210.0000 </r>
       <r>    -4.0500     0.0005   210.0001 </r>
       <r>    -3.8020     0.8071   210.2003 </r>
       <r>    -3.5540     6.0891   211.7105 </r>
       <r>    -3.3060     2.3059   212.2824 </r>
       <r>    -3.0580     9.3043   214.5899 </r>
       <r>    -2.8100    12.4859   217.6866 </r>
       <r>    -2.5620    21.6612   223.0588 </r>
       <r>    -2.3140    25.0754   229.2778 </r>
       <r>    -2.0659    24.8563   235.4425 </r>
       <r>    -1.8179    25.4272   241.7487 </r>
       <r>    -1.5699    16.9533   245.9533 </r>
       <r>    -1.3219     7.2572   247.7532 </r>
       <r>    -1.0739     0.9931   247.9995 </r>
       <r>    -0.8259     0.0020   248.0000 </r>
       <r>    -0.5779     0.0000   248.0000 </r>
       <r>    -0.3299     0.0000   248.0000 </r>
       <r>    -0.0819     0.0000   248.0000 </r>
       <r>     0.1662     0.0000   248.0000 </r>
       <r>     0.4142     0.0000   248.0000 </r>
       <r>     0.6622     0.0000   248.0000 </r>
       <r>     0.9102     0.0380   248.0094 </r>
       <r>     1.1582     0.8711   248.2254 </r>
       <r>     1.4062     4.4659   249.3330 </r>
       <r>     1.6542     9.7731   251.7569 </r>
       <r>     1.9022    11.5926   254.6320 </r>
       <r>     2.1503    17.7588   259.0364 </r>
       <r>     2.3983    25.5857   265.3819 </r>
       <r>     2.6463    30.7024   272.9965 </r>
       <r>     2.8943    27.4377   279.8013 </r>
       <r>     3.1423    35.2269   288.5380 </r>
       <r>     3.3903    29.9122   295.9566 </r>
       <r>     3.6383    40.7434   306.0614 </r>
       <r>     3.8863    52.2594   319.0224 </r>
       <r>     4.1343    56.8893   333.1316 </r>
       <r>     4.3824    63.6656   348.9214 </r>
       <r>     4.6304    64.0467   364.8058 </r>
       <r>     4.8784    62.7454   380.3673 </r>
       <r>     5.1264    56.6782   394.4242 </r>
       <r>     5.3744    46.1569   405.8717 </r>
       <r>     5.6224    32.4832   413.9279 </r>
       <r>     5.8704    31.3004   421.6907 </r>
       <r>     6.1184    28.3379   428.7189 </r>
       <r>     6.3665    20.1909   433.7265 </r>
       <r>     6.6145    15.4765   437.5648 </r>
       <r>     6.8625     7.2866   439.3720 </r>
       <r>     7.1105     8.0857   441.3773 </r>
       <r>     7.3585    14.3819   444.9442 </r>
       <r>     7.6065    21.0870   450.1740 </r>
       <r>     7.8545    21.0564   455.3962 </r>
       <r>     8.1025    18.7536   460.0474 </r>
       <r>     8.3505    21.6802   465.4243 </r>
       <r>     8.5986    29.6063   472.7670 </r>
       <r>     8.8466    31.9479   480.6905 </r>
       <r>     9.0946    29.5930   488.0299 </r>
       <r>     9.3426    31.2049   495.7691 </r>
       <r>     9.5906    37.4716   505.0624 </r>
       <r>     9.8386    46.1080   516.4978 </r>
       <r>    10.0866    52.6024   529.5438 </r>
       <r>    10.3346    56.3453   543.5181 </r>
       <r>    10.5827    56.5251   557.5370 </r>
       <r>    10.8307    54.4429   571.0395 </r>
       <r>    11.0787    54.5903   584.5785 </r>
       <r>    11.3267    51.5160   597.3551 </r>
       <r>    11.5747    51.9989   610.2514 </r>
       <r>    11.8227    45.7857   621.6068 </r>
       <r>    12.0707     9.6204   623.9928 </r>
       <r>    12.3187     0.0291   624.0000 </r>
       <r>    12.5667     0.0000   624.0000 </r>
       <r>    12.8148     0.0000   624.0000 </r>
       <r>    13.0628     0.0000   624.0000 </r>
       <r>    13.3108     0.0000   624.0000 </r>
       <r>    13.5588     0.0000   624.0000 </r>
       <r>    13.8068     0.0000   624.0000 </r>
       <r>    14.0548     0.0000   624.0000 </r>
       <r>    14.3028     0.0000   624.0000 </r>
       <r>    14.5508     0.0000   624.0000 </r>
       <r>    14.7989     0.0000   624.0000 </r>
       <r>    15.0469     0.0000   624.0000 </r>
       <r>    15.2949     0.0000   624.0000 </r>
      </set>
     </set>
    </array>
   </total>
  </dos>
 </calculation>
 <structure name="finalpos" >
  <crystal>
   <varray name="basis" >
    <v>       8.65816978       0.00995127       0.00360499 </v>
    <v>       0.01578683       8.62894801       0.01228204 </v>
    <v>       0.03467981      -0.00267392       8.69879347 </v>
   </varray>
   <i name="volume">    649.89250490 </i>
   <varray name="rec_basis" >
    <v>       0.11549828      -0.00021065      -0.00046053 </v>
    <v>      -0.00013321       0.11588917       0.00003615 </v>
    <v>      -0.00004768      -0.00016354       0.11495861 </v>
   </varray>
  </crystal>
  <varray name="positions" >
   <v>       0.01378033       0.99528071       0.99705074 </v>
   <v>       0.26018618       0.99744337       0.24197643 </v>
   <v>       0.25593576       0.49881235       0.25101724 </v>
   <v>       0.50239182       0.49285561       0.00105386 </v>
   <v>       0.50096142       0.24145816       0.75576672 </v>
   <v>      -0.00089357       0.50114898       0.50831998 </v>
   <v>       0.49929414       0.76019096       0.74198726 </v>
   <v>       0.98993397       0.24510570       0.24557110 </v>
   <v>       0.75117651       0.75236091       0.00229474 </v>
   <v>       0.00469165       0.24621933       0.75221563 </v>
   <v>       0.74914210       0.24592010       0.50266703 </v>
   <v>       0.00389805       0.75685876       0.74731441 </v>
   <v>       0.25367204       0.50282939       0.74846855 </v>
   <v>       0.25916899       0.25575775       0.98562492 </v>
   <v>       0.51780797       0.23073104       0.25902300 </v>
   <v>       0.73205144       0.98736637       0.27111897 </v>
   <v>       0.73445579       0.23809160       0.98934633 </v>
   <v>       0.24072382       0.73940084       0.00767341 </v>
   <v>       0.24665835       0.25042839       0.51383258 </v>
   <v>       0.25447483       0.74516651       0.49114781 </v>
   <v>       0.24748793       0.24683499       0.24591099 </v>
   <v>       0.26743551       0.99765981       0.99614994 </v>
   <v>      -0.00048109       0.25194003       0.00032183 </v>
   <v>       0.74567446       0.23853571       0.24824655 </v>
   <v>       0.74999089       0.00250846       0.00646752 </v>
   <v>       0.50554623      -0.00830226       0.24348133 </v>
   <v>       0.00118736       0.49343713       0.25111411 </v>
   <v>       0.50040528       0.75509957      -0.00196836 </v>
   <v>       0.99401009       0.00300477       0.74388788 </v>
   <v>       0.75368956       0.23610821       0.75129740 </v>
   <v>       0.74186254       0.00299657       0.49573621 </v>
   <v>       0.49623537       0.24912795       0.49367024 </v>
   <v>       0.49357337       0.00185963       0.74726612 </v>
   <v>       0.99323596       0.00104223       0.24564801 </v>
   <v>       0.49718992       0.24136619       0.00954034 </v>
   <v>       0.26413018       0.74761462       0.24706159 </v>
   <v>       0.24320601       0.49793852       0.99894309 </v>
   <v>       0.00422467       0.74321783       0.00145841 </v>
   <v>       0.74624910       0.75427831       0.25086940 </v>
   <v>       0.76278526       0.48977857       0.00904294 </v>
   <v>       0.49825739       0.49573383       0.24951604 </v>
   <v>       0.25183928       0.24267868       0.74953722 </v>
   <v>       0.25824681       0.00176013       0.50499957 </v>
   <v>       0.00356510       0.24967454       0.49838174 </v>
   <v>       0.25010977       0.75998640       0.74944208 </v>
   <v>       0.25275274       0.49804897       0.49968436 </v>
   <v>       0.00514417       0.75438689       0.49704747 </v>
   <v>       0.00062400       0.50242098       0.75264914 </v>
   <v>       0.75120584       0.76402350       0.74771128 </v>
   <v>       0.74826038       0.49615698       0.50451086 </v>
   <v>       0.49586039       0.77023111       0.49292634 </v>
   <v>       0.50185854       0.50168015       0.74735990 </v>
   <v>       0.51915683       0.01554018       0.98221893 </v>
   <v>      -0.00052656       0.51666255       0.97356636 </v>
   <v>       0.49982779       0.73821119       0.27621052 </v>
   <v>       0.23164652       0.00122258       0.77592894 </v>
   <v>       0.47382726       0.01811248       0.47569239 </v>
   <v>       0.71916336       0.99330777       0.78294139 </v>
   <v>       0.01139980       0.76463925       0.25078858 </v>
   <v>       0.73163401       0.51557099       0.25135052 </v>
   <v>       0.02474923       0.00236866       0.48665222 </v>
   <v>       0.50062769       0.51731112       0.49304225 </v>
   <v>       0.74861298       0.50914659       0.76279098 </v>
   <v>       0.74500687       0.74165056       0.49743477 </v>
  </varray>
 </structure>
</modeling>
