  64  64   0   0
  0.1090151E+02  0.8860332E-09  0.8883767E-09  0.8863852E-09  0.5000000E-15
  1.000000000000000E-004
  CAR 
 HECN                                    
     12.60844921    -33.40690388  301      7.68860871      1.00000000
    -33.407  0.0000E+00  0.0000E+00
    -33.254  0.0000E+00  0.0000E+00
    -33.100  0.0000E+00  0.0000E+00
    -32.947  0.0000E+00  0.0000E+00
    -32.793  0.0000E+00  0.0000E+00
    -32.640  0.0000E+00  0.0000E+00
    -32.487  0.0000E+00  0.0000E+00
    -32.333  0.0000E+00  0.0000E+00
    -32.180  0.0000E+00  0.0000E+00
    -32.026  0.0000E+00  0.0000E+00
    -31.873  0.1973E-15  0.3026E-16
    -31.720  0.6982E-09  0.1071E-09
    -31.566  0.2571E-04  0.3943E-05
    -31.413  0.1290E-01  0.1982E-02
    -31.260  0.2684E+00  0.4314E-01
    -31.106  0.1135E+01  0.2172E+00
    -30.953  0.8344E+00  0.3452E+00
    -30.799  0.9574E-01  0.3599E+00
    -30.646  0.8331E-03  0.3600E+00
    -30.493  0.1619E-06  0.3600E+00
    -30.339  0.3793E-12  0.3600E+00
    -30.186  0.0000E+00  0.3600E+00
    -30.032  0.0000E+00  0.3600E+00
    -29.879  0.0000E+00  0.3600E+00
    -29.726  0.0000E+00  0.3600E+00
    -29.572  0.0000E+00  0.3600E+00
    -29.419  0.0000E+00  0.3600E+00
    -29.266  0.0000E+00  0.3600E+00
    -29.112  0.0000E+00  0.3600E+00
    -28.959  0.0000E+00  0.3600E+00
    -28.805  0.0000E+00  0.3600E+00
    -28.652  0.0000E+00  0.3600E+00
    -28.499  0.0000E+00  0.3600E+00
    -28.345  0.0000E+00  0.3600E+00
    -28.192  0.7301E-13  0.3600E+00
    -28.038  0.5143E-07  0.3600E+00
    -27.885  0.4157E-03  0.3601E+00
    -27.732  0.5636E-01  0.3687E+00
    -27.578  0.3873E+00  0.4281E+00
    -27.425  0.6802E+00  0.5324E+00
    -27.272  0.7787E+00  0.6519E+00
    -27.118  0.4249E+00  0.7170E+00
    -26.965  0.1922E-01  0.7200E+00
    -26.811  0.2336E-04  0.7200E+00
    -26.658  0.2074E-02  0.7203E+00
    -26.505  0.1081E+00  0.7369E+00
    -26.351  0.5130E+00  0.8156E+00
    -26.198  0.6124E+00  0.9095E+00
    -26.044  0.5644E+00  0.9961E+00
    -25.891  0.6224E+00  0.1092E+01
    -25.738  0.2967E+00  0.1137E+01
    -25.584  0.1896E-01  0.1140E+01
    -25.431  0.2970E-04  0.1140E+01
    -25.278  0.5896E-09  0.1140E+01
    -25.124  0.4739E-09  0.1140E+01
    -24.971  0.1962E-04  0.1140E+01
    -24.817  0.1024E-01  0.1142E+01
    -24.664  0.1573E+00  0.1166E+01
    -24.511  0.4358E+00  0.1233E+01
    -24.357  0.5377E+00  0.1315E+01
    -24.204  0.5629E+00  0.1401E+01
    -24.050  0.5241E+00  0.1482E+01
    -23.897  0.1173E+00  0.1500E+01
    -23.744  0.1763E-02  0.1500E+01
    -23.590  0.4877E-06  0.1500E+01
    -23.437  0.1595E-11  0.1500E+01
    -23.284  0.0000E+00  0.1500E+01
    -23.130  0.0000E+00  0.1500E+01
    -22.977  0.0000E+00  0.1500E+01
    -22.823  0.0000E+00  0.1500E+01
    -22.670  0.0000E+00  0.1500E+01
    -22.517  0.0000E+00  0.1500E+01
    -22.363  0.0000E+00  0.1500E+01
    -22.210  0.0000E+00  0.1500E+01
    -22.056  0.0000E+00  0.1500E+01
    -21.903  0.0000E+00  0.1500E+01
    -21.750  0.0000E+00  0.1500E+01
    -21.596  0.0000E+00  0.1500E+01
    -21.443  0.0000E+00  0.1500E+01
    -21.290  0.0000E+00  0.1500E+01
    -21.136  0.0000E+00  0.1500E+01
    -20.983  0.0000E+00  0.1500E+01
    -20.829  0.0000E+00  0.1500E+01
    -20.676  0.0000E+00  0.1500E+01
    -20.523  0.0000E+00  0.1500E+01
    -20.369  0.0000E+00  0.1500E+01
    -20.216  0.0000E+00  0.1500E+01
    -20.062  0.0000E+00  0.1500E+01
    -19.909  0.0000E+00  0.1500E+01
    -19.756  0.0000E+00  0.1500E+01
    -19.602  0.0000E+00  0.1500E+01
    -19.449  0.0000E+00  0.1500E+01
    -19.296  0.0000E+00  0.1500E+01
    -19.142  0.0000E+00  0.1500E+01
    -18.989  0.0000E+00  0.1500E+01
    -18.835  0.0000E+00  0.1500E+01
    -18.682  0.0000E+00  0.1500E+01
    -18.529  0.0000E+00  0.1500E+01
    -18.375  0.0000E+00  0.1500E+01
    -18.222  0.0000E+00  0.1500E+01
    -18.068  0.0000E+00  0.1500E+01
    -17.915  0.0000E+00  0.1500E+01
    -17.762  0.0000E+00  0.1500E+01
    -17.608  0.0000E+00  0.1500E+01
    -17.455  0.0000E+00  0.1500E+01
    -17.302  0.0000E+00  0.1500E+01
    -17.148  0.0000E+00  0.1500E+01
    -16.995  0.0000E+00  0.1500E+01
    -16.841  0.0000E+00  0.1500E+01
    -16.688  0.0000E+00  0.1500E+01
    -16.535  0.0000E+00  0.1500E+01
    -16.381  0.0000E+00  0.1500E+01
    -16.228  0.0000E+00  0.1500E+01
    -16.074  0.0000E+00  0.1500E+01
    -15.921  0.0000E+00  0.1500E+01
    -15.768  0.0000E+00  0.1500E+01
    -15.614  0.0000E+00  0.1500E+01
    -15.461  0.0000E+00  0.1500E+01
    -15.308  0.0000E+00  0.1500E+01
    -15.154  0.0000E+00  0.1500E+01
    -15.001  0.0000E+00  0.1500E+01
    -14.847  0.0000E+00  0.1500E+01
    -14.694  0.0000E+00  0.1500E+01
    -14.541  0.0000E+00  0.1500E+01
    -14.387  0.0000E+00  0.1500E+01
    -14.234  0.0000E+00  0.1500E+01
    -14.080  0.0000E+00  0.1500E+01
    -13.927  0.0000E+00  0.1500E+01
    -13.774  0.0000E+00  0.1500E+01
    -13.620  0.0000E+00  0.1500E+01
    -13.467  0.0000E+00  0.1500E+01
    -13.314  0.0000E+00  0.1500E+01
    -13.160  0.0000E+00  0.1500E+01
    -13.007  0.0000E+00  0.1500E+01
    -12.853  0.0000E+00  0.1500E+01
    -12.700  0.0000E+00  0.1500E+01
    -12.547  0.0000E+00  0.1500E+01
    -12.393  0.0000E+00  0.1500E+01
    -12.240  0.0000E+00  0.1500E+01
    -12.086  0.0000E+00  0.1500E+01
    -11.933  0.0000E+00  0.1500E+01
    -11.780  0.0000E+00  0.1500E+01
    -11.626  0.0000E+00  0.1500E+01
    -11.473  0.0000E+00  0.1500E+01
    -11.320  0.0000E+00  0.1500E+01
    -11.166  0.0000E+00  0.1500E+01
    -11.013  0.0000E+00  0.1500E+01
    -10.859  0.0000E+00  0.1500E+01
    -10.706  0.0000E+00  0.1500E+01
    -10.553  0.0000E+00  0.1500E+01
    -10.399  0.0000E+00  0.1500E+01
    -10.246  0.0000E+00  0.1500E+01
    -10.092  0.0000E+00  0.1500E+01
     -9.939  0.0000E+00  0.1500E+01
     -9.786  0.0000E+00  0.1500E+01
     -9.632  0.0000E+00  0.1500E+01
     -9.479  0.0000E+00  0.1500E+01
     -9.326  0.0000E+00  0.1500E+01
     -9.172  0.0000E+00  0.1500E+01
     -9.019  0.5136E-15  0.1500E+01
     -8.865  0.6266E-09  0.1500E+01
     -8.712  0.9161E-05  0.1500E+01
     -8.559  0.2378E-02  0.1500E+01
     -8.405  0.3087E-01  0.1505E+01
     -8.252  0.7084E-01  0.1516E+01
     -8.098  0.7605E-01  0.1528E+01
     -7.945  0.9082E-01  0.1542E+01
     -7.792  0.1344E+00  0.1562E+01
     -7.638  0.1204E+00  0.1581E+01
     -7.485  0.1775E+00  0.1608E+01
     -7.332  0.2459E+00  0.1646E+01
     -7.178  0.3065E+00  0.1693E+01
     -7.025  0.2692E+00  0.1734E+01
     -6.871  0.4874E-01  0.1741E+01
     -6.718  0.8924E-01  0.1755E+01
     -6.565  0.3207E-01  0.1760E+01
     -6.411  0.2956E-03  0.1760E+01
     -6.258  0.3798E-07  0.1760E+01
     -6.104  0.5423E-13  0.1760E+01
     -5.951  0.0000E+00  0.1760E+01
     -5.798  0.0000E+00  0.1760E+01
     -5.644  0.0000E+00  0.1760E+01
     -5.491  0.1117E-13  0.1760E+01
     -5.338  0.6184E-08  0.1760E+01
     -5.184  0.3827E-04  0.1760E+01
     -5.031  0.4240E-02  0.1761E+01
     -4.877  0.3655E-01  0.1766E+01
     -4.724  0.6454E-01  0.1776E+01
     -4.571  0.2486E-01  0.1780E+01
     -4.417  0.2902E-01  0.1784E+01
     -4.264  0.1090E+00  0.1801E+01
     -4.110  0.8960E-01  0.1815E+01
     -3.957  0.8533E-01  0.1828E+01
     -3.804  0.1397E+00  0.1849E+01
     -3.650  0.1973E+00  0.1880E+01
     -3.497  0.2444E+00  0.1917E+01
     -3.344  0.2685E+00  0.1958E+01
     -3.190  0.2726E+00  0.2000E+01
     -3.037  0.2217E+00  0.2034E+01
     -2.883  0.2450E+00  0.2072E+01
     -2.730  0.1948E+00  0.2102E+01
     -2.577  0.1522E+00  0.2125E+01
     -2.423  0.7489E-01  0.2136E+01
     -2.270  0.2220E-01  0.2140E+01
     -2.116  0.9630E-03  0.2140E+01
     -1.963  0.1903E-05  0.2140E+01
     -1.810  0.6963E-10  0.2140E+01
     -1.656  0.2788E-16  0.2140E+01
     -1.503  0.0000E+00  0.2140E+01
     -1.350  0.0000E+00  0.2140E+01
     -1.196  0.0000E+00  0.2140E+01
     -1.043  0.0000E+00  0.2140E+01
     -0.889  0.0000E+00  0.2140E+01
     -0.736  0.0000E+00  0.2140E+01
     -0.583  0.8042E-18  0.2140E+01
     -0.429  0.6413E-11  0.2140E+01
     -0.276  0.4716E-06  0.2140E+01
     -0.122  0.4190E-03  0.2140E+01
      0.031  0.8119E-02  0.2141E+01
      0.184  0.1393E-01  0.2143E+01
      0.338  0.5960E-01  0.2153E+01
      0.491  0.1123E+00  0.2170E+01
      0.644  0.8714E-01  0.2183E+01
      0.798  0.1505E+00  0.2206E+01
      0.951  0.1412E+00  0.2228E+01
      1.105  0.1949E+00  0.2258E+01
      1.258  0.2525E+00  0.2297E+01
      1.411  0.2960E+00  0.2342E+01
      1.565  0.2883E+00  0.2386E+01
      1.718  0.2757E+00  0.2428E+01
      1.872  0.2837E+00  0.2472E+01
      2.025  0.3582E+00  0.2527E+01
      2.178  0.3628E+00  0.2583E+01
      2.332  0.3837E+00  0.2641E+01
      2.485  0.3810E+00  0.2700E+01
      2.638  0.4444E+00  0.2768E+01
      2.792  0.5225E+00  0.2848E+01
      2.945  0.5631E+00  0.2935E+01
      3.099  0.5788E+00  0.3023E+01
      3.252  0.5614E+00  0.3109E+01
      3.405  0.5885E+00  0.3200E+01
      3.559  0.6386E+00  0.3298E+01
      3.712  0.6245E+00  0.3393E+01
      3.866  0.5711E+00  0.3481E+01
      4.019  0.5426E+00  0.3564E+01
      4.172  0.4785E+00  0.3638E+01
      4.326  0.4320E+00  0.3704E+01
      4.479  0.4034E+00  0.3766E+01
      4.632  0.3429E+00  0.3818E+01
      4.786  0.3072E+00  0.3866E+01
      4.939  0.3248E+00  0.3915E+01
      5.093  0.2493E+00  0.3954E+01
      5.246  0.1971E+00  0.3984E+01
      5.399  0.1662E+00  0.4009E+01
      5.553  0.1559E+00  0.4033E+01
      5.706  0.1183E+00  0.4051E+01
      5.860  0.3702E-01  0.4057E+01
      6.013  0.4718E-01  0.4064E+01
      6.166  0.1228E+00  0.4083E+01
      6.320  0.1486E+00  0.4106E+01
      6.473  0.1746E+00  0.4133E+01
      6.626  0.1663E+00  0.4158E+01
      6.780  0.1794E+00  0.4186E+01
      6.933  0.1757E+00  0.4213E+01
      7.087  0.1690E+00  0.4239E+01
      7.240  0.1611E+00  0.4263E+01
      7.393  0.2023E+00  0.4294E+01
      7.547  0.2615E+00  0.4334E+01
      7.700  0.2507E+00  0.4373E+01
      7.854  0.2478E+00  0.4411E+01
      8.007  0.2711E+00  0.4452E+01
      8.160  0.3205E+00  0.4502E+01
      8.314  0.3492E+00  0.4555E+01
      8.467  0.3972E+00  0.4616E+01
      8.620  0.4649E+00  0.4687E+01
      8.774  0.4968E+00  0.4764E+01
      8.927  0.5147E+00  0.4843E+01
      9.081  0.5323E+00  0.4924E+01
      9.234  0.5499E+00  0.5009E+01
      9.387  0.5432E+00  0.5092E+01
      9.541  0.5582E+00  0.5178E+01
      9.694  0.5391E+00  0.5260E+01
      9.848  0.5216E+00  0.5340E+01
     10.001  0.5182E+00  0.5420E+01
     10.154  0.4945E+00  0.5496E+01
     10.308  0.4021E+00  0.5557E+01
     10.461  0.2145E+00  0.5590E+01
     10.614  0.6171E-01  0.5600E+01
     10.768  0.2757E-02  0.5600E+01
     10.921  0.3651E-05  0.5600E+01
     11.075  0.7452E-10  0.5600E+01
     11.228  0.1716E-16  0.5600E+01
     11.381  0.0000E+00  0.5600E+01
     11.535  0.0000E+00  0.5600E+01
     11.688  0.0000E+00  0.5600E+01
     11.842  0.0000E+00  0.5600E+01
     11.995  0.0000E+00  0.5600E+01
     12.148  0.0000E+00  0.5600E+01
     12.302  0.0000E+00  0.5600E+01
     12.455  0.0000E+00  0.5600E+01
     12.608  0.0000E+00  0.5600E+01
