<?xml version="1.0" encoding="ISO-8859-1"?>
<modeling>
 <generator>
  <i name="program" type="string">vasp </i>
  <i name="version" type="string">6.4.3  </i>
  <i name="subversion" type="string">19Mar24 (build Sep 18 2024 11:30:23) complex                          parallel </i>
  <i name="platform" type="string">LinuxIFC </i>
  <i name="date" type="string">2026 07 07 </i>
  <i name="time" type="string">23:54:26 </i>
 </generator>
 <incar>
  <i type="string" name="SYSTEM">HECN</i>
  <i type="int" name="ISTART">     0</i>
  <i type="string" name="PREC">Normal</i>
  <i type="string" name="ALGO">Fast</i>
  <i type="int" name="ICHARG">     2</i>
  <i type="int" name="NELM">    60</i>
  <i type="int" name="IBRION">     2</i>
  <i name="EDIFF">      0.00001000</i>
  <i name="EDIFFG">     -0.01000000</i>
  <i type="int" name="NSW">   100</i>
  <i type="int" name="ISIF">     3</i>
  <i name="ENCUT">    400.00000000</i>
  <i name="POTIM">      0.50000000</i>
  <i type="logical" name="LREAL"> F  </i>
  <i type="int" name="ISMEAR">     0</i>
  <i name="SIGMA">      0.10000000</i>
  <i type="logical" name="LWAVE"> F  </i>
  <i type="logical" name="LCHARG"> F  </i>
 </incar>
 <primitive_cell>
  <structure name="primitive_cell" >
   <crystal>
    <varray name="basis" >
     <v>       8.86032795       0.00242070      -0.00816336 </v>
     <v>       0.00821002       8.88376071      -0.00666293 </v>
     <v>       0.02368982      -0.02186774       8.86379357 </v>
    </varray>
    <i name="volume">    697.69633094 </i>
    <varray name="rec_basis" >
     <v>       0.11286239      -0.00010453      -0.00030190 </v>
     <v>      -0.00003050       0.11256518       0.00027779 </v>
     <v>       0.00010392       0.00008452       0.11281844 </v>
    </varray>
   </crystal>
   <varray name="positions" >
    <v>       0.99546940       0.00622080       0.99657209 </v>
    <v>       0.25176663       0.00545661       0.24939327 </v>
    <v>       0.24838509       0.49361958       0.24818623 </v>
    <v>       0.49765338       0.49948035       0.99897375 </v>
    <v>       0.50149879       0.24643548       0.74605318 </v>
    <v>       0.00337405       0.50068444       0.50093119 </v>
    <v>       0.49449348       0.75226813       0.75464209 </v>
    <v>       0.98151682       0.23120048       0.26995416 </v>
    <v>       0.77035329       0.73548432       0.99855156 </v>
    <v>       0.00744819       0.26866731       0.73821038 </v>
    <v>       0.76401642       0.25937762       0.49406047 </v>
    <v>       0.00033151       0.72744470       0.75565204 </v>
    <v>       0.24757150       0.49060194       0.74973613 </v>
    <v>       0.24585583       0.25216369       0.99344337 </v>
    <v>       0.51652833       0.25002999       0.25146164 </v>
    <v>       0.75000485       0.00112483       0.24541791 </v>
    <v>       0.75483024       0.25850511       0.99951573 </v>
    <v>       0.23521611       0.74534742       0.99427432 </v>
    <v>       0.24390204       0.25102262       0.50262225 </v>
    <v>       0.24614305       0.75004768       0.50344448 </v>
    <v>       0.24499652       0.24890555       0.24904918 </v>
    <v>       0.25393380       0.00211975       0.99482414 </v>
    <v>       0.00123743       0.25365638       0.00076408 </v>
    <v>       0.75319080       0.24788323       0.25277313 </v>
    <v>       0.74840652       0.00242558       0.00643598 </v>
    <v>       0.50795463       0.00574341       0.25228680 </v>
    <v>       0.99347130       0.49550482       0.24573640 </v>
    <v>       0.49736631       0.75611949       0.00413320 </v>
    <v>       0.99748412       0.00713248       0.74570262 </v>
    <v>       0.76235471       0.24957873       0.75070729 </v>
    <v>       0.74880257       0.00290352       0.50107136 </v>
    <v>       0.50284895       0.24930019       0.49322603 </v>
    <v>       0.50053249       0.99962249       0.75060815 </v>
    <v>       0.99234957       0.00418202       0.25569597 </v>
    <v>       0.50206217       0.24600772       0.00486486 </v>
    <v>       0.24764249       0.74979870       0.24669825 </v>
    <v>       0.24471536       0.49830281       0.99135743 </v>
    <v>       0.99805561       0.74625630       0.99704886 </v>
    <v>       0.75077023       0.75136841       0.24631352 </v>
    <v>       0.75506542       0.50109087       0.00080849 </v>
    <v>       0.50541225       0.49601186       0.25382221 </v>
    <v>       0.24143002       0.25354494       0.74807638 </v>
    <v>       0.24759947       0.00085335       0.50168330 </v>
    <v>       0.99892077       0.24744577       0.50293956 </v>
    <v>       0.23633992       0.74925845       0.75042344 </v>
    <v>       0.25450119       0.49779420       0.50624847 </v>
    <v>       0.99876368       0.75582063       0.50516571 </v>
    <v>       0.00309510       0.49916095       0.75130154 </v>
    <v>       0.75846340       0.75063846       0.75530775 </v>
    <v>       0.74723976       0.49475666       0.49916624 </v>
    <v>       0.49836716       0.74875846       0.49809108 </v>
    <v>       0.50031592       0.49861003       0.74453860 </v>
    <v>       0.50970491       0.00827794       0.00477818 </v>
    <v>       0.00185002       0.49661024       0.99429127 </v>
    <v>       0.49753682       0.75077780       0.24856661 </v>
    <v>       0.24635412       0.00502863       0.74547249 </v>
    <v>       0.49098278       0.99357560       0.49542593 </v>
    <v>       0.75102190       0.99252825       0.75886407 </v>
    <v>       0.00036737       0.76168736       0.24914911 </v>
    <v>       0.74941934       0.50133196       0.25050443 </v>
    <v>       0.00310217       0.00221999       0.50315389 </v>
    <v>       0.49646533       0.50225594       0.50046256 </v>
    <v>       0.75182056       0.50191807       0.74962417 </v>
    <v>       0.75132641       0.74804865       0.50174120 </v>
   </varray>
  </structure>
  <varray name="primitive_index" >
   <v type="int" >        1 </v>
   <v type="int" >        2 </v>
   <v type="int" >        3 </v>
   <v type="int" >        4 </v>
   <v type="int" >        5 </v>
   <v type="int" >        6 </v>
   <v type="int" >        7 </v>
   <v type="int" >        8 </v>
   <v type="int" >        9 </v>
   <v type="int" >       10 </v>
   <v type="int" >       11 </v>
   <v type="int" >       12 </v>
   <v type="int" >       13 </v>
   <v type="int" >       14 </v>
   <v type="int" >       15 </v>
   <v type="int" >       16 </v>
   <v type="int" >       17 </v>
   <v type="int" >       18 </v>
   <v type="int" >       19 </v>
   <v type="int" >       20 </v>
   <v type="int" >       21 </v>
   <v type="int" >       22 </v>
   <v type="int" >       23 </v>
   <v type="int" >       24 </v>
   <v type="int" >       25 </v>
   <v type="int" >       26 </v>
   <v type="int" >       27 </v>
   <v type="int" >       28 </v>
   <v type="int" >       29 </v>
   <v type="int" >       30 </v>
   <v type="int" >       31 </v>
   <v type="int" >       32 </v>
   <v type="int" >       33 </v>
   <v type="int" >       34 </v>
   <v type="int" >       35 </v>
   <v type="int" >       36 </v>
   <v type="int" >       37 </v>
   <v type="int" >       38 </v>
   <v type="int" >       39 </v>
   <v type="int" >       40 </v>
   <v type="int" >       41 </v>
   <v type="int" >       42 </v>
   <v type="int" >       43 </v>
   <v type="int" >       44 </v>
   <v type="int" >       45 </v>
   <v type="int" >       46 </v>
   <v type="int" >       47 </v>
   <v type="int" >       48 </v>
   <v type="int" >       49 </v>
   <v type="int" >       50 </v>
   <v type="int" >       51 </v>
   <v type="int" >       52 </v>
   <v type="int" >       53 </v>
   <v type="int" >       54 </v>
   <v type="int" >       55 </v>
   <v type="int" >       56 </v>
   <v type="int" >       57 </v>
   <v type="int" >       58 </v>
   <v type="int" >       59 </v>
   <v type="int" >       60 </v>
   <v type="int" >       61 </v>
   <v type="int" >       62 </v>
   <v type="int" >       63 </v>
   <v type="int" >       64 </v>
  </varray>
 </primitive_cell>
 <kpoints>
  <generation param="Gamma">
   <v type="int" name="divisions">       3        3        3 </v>
   <v name="usershift">      0.00000000       0.00000000       0.00000000 </v>
   <v name="genvec1">      0.33333333       0.00000000       0.00000000 </v>
   <v name="genvec2">      0.00000000       0.33333333      -0.00000000 </v>
   <v name="genvec3">      0.00000000       0.00000000       0.33333333 </v>
   <v name="shift">      0.00000000       0.00000000       0.00000000 </v>
  </generation>
  <varray name="kpointlist" >
   <v>       0.00000000       0.00000000       0.00000000 </v>
   <v>       0.33333333       0.00000000       0.00000000 </v>
   <v>      -0.00000000       0.33333333      -0.00000000 </v>
   <v>       0.33333333       0.33333333       0.00000000 </v>
   <v>      -0.33333333       0.33333333       0.00000000 </v>
   <v>       0.00000000       0.00000000       0.33333333 </v>
   <v>       0.33333333       0.00000000       0.33333333 </v>
   <v>      -0.33333333       0.00000000       0.33333333 </v>
   <v>       0.00000000       0.33333333       0.33333333 </v>
   <v>       0.33333333       0.33333333       0.33333333 </v>
   <v>      -0.33333333       0.33333333       0.33333333 </v>
   <v>      -0.00000000      -0.33333333       0.33333333 </v>
   <v>       0.33333333      -0.33333333       0.33333333 </v>
   <v>      -0.33333333      -0.33333333       0.33333333 </v>
  </varray>
  <varray name="weights" >
   <v>       0.03703704 </v>
   <v>       0.07407407 </v>
   <v>       0.07407407 </v>
   <v>       0.07407407 </v>
   <v>       0.07407407 </v>
   <v>       0.07407407 </v>
   <v>       0.07407407 </v>
   <v>       0.07407407 </v>
   <v>       0.07407407 </v>
   <v>       0.07407407 </v>
   <v>       0.07407407 </v>
   <v>       0.07407407 </v>
   <v>       0.07407407 </v>
   <v>       0.07407407 </v>
  </varray>
 </kpoints>
 <parameters>
  <separator name="general" >
   <i type="string" name="SYSTEM">HECN</i>
   <i type="logical" name="LCOMPAT"> F  </i>
  </separator>
  <separator name="electronic" >
   <i type="string" name="PREC">normal</i>
   <i name="ENMAX">    400.00000000</i>
   <i name="ENAUG">    644.87300000</i>
   <i name="EDIFF">      0.00001000</i>
   <i type="int" name="IALGO">    68</i>
   <i type="int" name="IWAVPR">    11</i>
   <i type="int" name="NBANDS">   280</i>
   <i type="int" name="NBANDSLOW">    -1</i>
   <i type="int" name="NBANDSHIGH">    -1</i>
   <i name="NELECT">    437.00000000</i>
   <i type="int" name="TURBO">     0</i>
   <i type="int" name="IRESTART">     0</i>
   <i type="int" name="NREBOOT">     0</i>
   <i type="int" name="NMIN">     0</i>
   <i name="EREF">      0.00000000</i>
   <separator name="electronic smearing" >
    <i type="int" name="ISMEAR">     0</i>
    <i name="SIGMA">      0.10000000</i>
    <i name="KSPACING">      0.50000000</i>
    <i type="logical" name="KGAMMA"> T  </i>
    <i type="logical" name="KBLOWUP"> T  </i>
   </separator>
   <separator name="electronic projectors" >
    <i type="logical" name="LREAL"> F  </i>
    <v name="ROPT">      0.00000000      0.00000000      0.00000000      0.00000000      0.00000000      0.00000000      0.00000000</v>
    <i type="int" name="LMAXPAW">  -100</i>
    <i type="int" name="LMAXMIX">     2</i>
    <i type="logical" name="NLSPLINE"> F  </i>
   </separator>
   <separator name="electronic startup" >
    <i type="int" name="ISTART">     0</i>
    <i type="int" name="ICHARG">     2</i>
    <i type="int" name="INIWAV">     1</i>
   </separator>
   <separator name="electronic spin" >
    <i type="int" name="ISPIN">     1</i>
    <i type="logical" name="LNONCOLLINEAR"> F  </i>
    <v name="MAGMOM">      1.00000000      1.00000000      1.00000000      1.00000000      1.00000000      1.00000000      1.00000000      1.00000000      1.00000000      1.00000000      1.00000000      1.00000000      1.00000000      1.00000000      1.00000000      1.00000000      1.00000000      1.00000000      1.00000000      1.00000000
      1.00000000      1.00000000      1.00000000      1.00000000      1.00000000      1.00000000      1.00000000      1.00000000      1.00000000      1.00000000      1.00000000      1.00000000      1.00000000      1.00000000      1.00000000      1.00000000      1.00000000      1.00000000      1.00000000      1.00000000
      1.00000000      1.00000000      1.00000000      1.00000000      1.00000000      1.00000000      1.00000000      1.00000000      1.00000000      1.00000000      1.00000000      1.00000000      1.00000000      1.00000000      1.00000000      1.00000000      1.00000000      1.00000000      1.00000000      1.00000000
      1.00000000      1.00000000      1.00000000      1.00000000</v>
    <i name="NUPDOWN">     -1.00000000</i>
    <i type="logical" name="LSORBIT"> F  </i>
    <v name="SAXIS">      0.00000000      0.00000000      1.00000000</v>
    <i type="logical" name="LSPIRAL"> F  </i>
    <v name="QSPIRAL">      0.00000000      0.00000000      0.00000000</v>
    <i type="logical" name="LZEROZ"> F  </i>
   </separator>
   <separator name="electronic exchange-correlation" >
    <i type="logical" name="LASPH"> F  </i>
   </separator>
   <separator name="electronic convergence" >
    <i type="int" name="NELM">    60</i>
    <i type="int" name="NELMDL">    -5</i>
    <i type="int" name="NELMIN">     2</i>
    <i name="ENINI">    400.00000000</i>
    <separator name="electronic convergence detail" >
     <i type="logical" name="LDIAG"> T  </i>
     <i type="logical" name="LSUBROT"> F  </i>
     <i name="WEIMIN">      0.00100000</i>
     <i name="EBREAK">      0.00000001</i>
     <i name="DEPER">      0.30000000</i>
     <i type="int" name="NRMM">     4</i>
     <i name="TIME">      0.40000000</i>
    </separator>
   </separator>
   <separator name="electronic mixer" >
    <i name="AMIX">      0.40000000</i>
    <i name="BMIX">      1.00000000</i>
    <i name="AMIN">      0.10000000</i>
    <i name="AMIX_MAG">      1.60000000</i>
    <i name="BMIX_MAG">      1.00000000</i>
    <separator name="electronic mixer details" >
     <i type="int" name="IMIX">     4</i>
     <i type="logical" name="MIXFIRST"> F  </i>
     <i type="int" name="MAXMIX">   -45</i>
     <i name="WC">    100.00000000</i>
     <i type="int" name="INIMIX">     1</i>
     <i type="int" name="MIXPRE">     1</i>
     <i type="int" name="MREMOVE">     5</i>
    </separator>
   </separator>
   <separator name="electronic dipolcorrection" >
    <i type="logical" name="LDIPOL"> F  </i>
    <i type="logical" name="LMONO"> F  </i>
    <i type="int" name="IDIPOL">     0</i>
    <i name="EPSILON">      1.00000000</i>
    <v name="DIPOL">   -100.00000000   -100.00000000   -100.00000000</v>
    <i name="EFIELD">      0.00000000</i>
    <i type="logical" name="LVACPOTAV"> F  </i>
   </separator>
  </separator>
  <separator name="grids" >
   <i type="int" name="NGX">    48</i>
   <i type="int" name="NGY">    48</i>
   <i type="int" name="NGZ">    48</i>
   <i type="int" name="NGXF">    96</i>
   <i type="int" name="NGYF">    96</i>
   <i type="int" name="NGZF">    96</i>
   <i type="logical" name="ADDGRID"> F  </i>
  </separator>
  <separator name="ionic" >
   <i type="int" name="NSW">   100</i>
   <i type="int" name="IBRION">     2</i>
   <i type="int" name="MDALGO">     0</i>
   <i type="int" name="ISIF">     3</i>
   <i name="PSTRESS">      0.00000000</i>
   <i name="EDIFFG">     -0.01000000</i>
   <i type="int" name="NFREE">     1</i>
   <i name="POTIM">      0.50000000</i>
   <i name="SMASS">     -3.00000000</i>
   <i name="SCALEE">      1.00000000</i>
  </separator>
  <separator name="ionic md" >
   <i name="TEBEG">      0.00010000</i>
   <i name="TEEND">      0.00010000</i>
   <i type="int" name="NBLOCK">     1</i>
   <i type="int" name="KBLOCK">   100</i>
   <i type="int" name="NPACO">   256</i>
   <i name="APACO">     10.00000000</i>
  </separator>
  <separator name="symmetry" >
   <i type="int" name="ISYM">     2</i>
   <i name="SYMPREC">      0.00001000</i>
  </separator>
  <separator name="dos" >
   <i type="int" name="LORBIT">     0</i>
   <v name="RWIGS">     -1.00000000     -1.00000000     -1.00000000     -1.00000000     -1.00000000     -1.00000000     -1.00000000</v>
   <i type="int" name="NEDOS">   301</i>
   <i name="EMIN">     10.00000000</i>
   <i name="EMAX">    -10.00000000</i>
   <i name="EFERMI">      0.00000000</i>
  </separator>
  <separator name="writing" >
   <i type="int" name="NWRITE">     2</i>
   <i type="logical" name="LWAVE"> F  </i>
   <i type="logical" name="LDOWNSAMPLE"> F  </i>
   <i type="logical" name="LCHARG"> F  </i>
   <i type="logical" name="LPARD"> F  </i>
   <i type="logical" name="LVTOT"> F  </i>
   <i type="logical" name="LVHAR"> F  </i>
   <i type="logical" name="LELF"> F  </i>
   <i type="logical" name="LOPTICS"> F  </i>
   <v name="STM">      0.00000000      0.00000000      0.00000000      0.00000000      0.00000000      0.00000000      0.00000000</v>
  </separator>
  <separator name="performance" >
   <i type="int" name="NPAR">    28</i>
   <i type="int" name="NSIM">     4</i>
   <i type="int" name="NBLK">    -1</i>
   <i type="logical" name="LPLANE"> T  </i>
   <i type="logical" name="LSCALAPACK"> T  </i>
   <i type="logical" name="LSCAAWARE"> F  </i>
   <i type="logical" name="LSCALU"> F  </i>
   <i type="logical" name="LASYNC"> F  </i>
   <i type="logical" name="LORBITALREAL"> F  </i>
  </separator>
  <separator name="miscellaneous" >
   <i type="int" name="IDIOT">     3</i>
   <i type="int" name="PHON_NSTRUCT">    -1</i>
   <i type="logical" name="LMUSIC"> F  </i>
   <v name="POMASS">     91.22400000     50.94100000     47.88000000     14.00100000     12.01100000     92.00000000    180.94800000</v>
   <v name="DARWINR">      0.00000000      0.00000000      0.00000000      0.00000000      0.00000000      0.00000000      0.00000000</v>
   <v name="DARWINV">      1.00000000      1.00000000      1.00000000      1.00000000      1.00000000      1.00000000      1.00000000</v>
   <i type="logical" name="LCORR"> T  </i>
  </separator>
  <i type="logical" name="GGA_COMPAT"> T  </i>
  <i type="logical" name="LBERRY"> F  </i>
  <i type="int" name="ICORELEVEL">     0</i>
  <i type="logical" name="LDAU"> F  </i>
  <i type="int" name="I_CONSTRAINED_M">     0</i>
  <separator name="electronic exchange-correlation" >
   <i type="string" name="GGA    ">PE</i>
   <i type="string" name="XC_C">1</i>
   <i type="int" name="VOSKOWN">     0</i>
   <i type="logical" name="LHFCALC"> F  </i>
   <i type="string" name="PRECFOCK"></i>
   <i type="logical" name="LSYMGRAD"> F  </i>
   <i type="logical" name="LHFONE"> F  </i>
   <i type="logical" name="LRHFCALC"> F  </i>
   <i type="logical" name="LTHOMAS"> F  </i>
   <i type="logical" name="LMODELHF"> F  </i>
   <i type="logical" name="LFOCKACE"> F  </i>
   <i name="ENCUT4O">     -1.00000000</i>
   <i type="int" name="EXXOEP">     0</i>
   <i type="int" name="FOURORBIT">     0</i>
   <i name="AEXX">      0.00000000</i>
   <i name="HFALPHA">      0.00000000</i>
   <i name="MCALPHA">      0.00000000</i>
   <i name="ALDAX">      1.00000000</i>
   <i name="AGGAX">      1.00000000</i>
   <i name="AMGGAX">      1.00000000</i>
   <i name="ALDAC">      1.00000000</i>
   <i name="AGGAC">      1.00000000</i>
   <i name="AMGGAC">      1.00000000</i>
   <i type="int" name="NKREDX">     1</i>
   <i type="int" name="NKREDY">     1</i>
   <i type="int" name="NKREDZ">     1</i>
   <i type="logical" name="SHIFTRED"> F  </i>
   <i type="logical" name="ODDONLY"> F  </i>
   <i type="logical" name="EVENONLY"> F  </i>
   <i type="int" name="LMAXFOCK">     0</i>
   <i type="int" name="NMAXFOCKAE">     0</i>
   <i type="logical" name="LFOCKAEDFT"> F  </i>
   <i name="HFSCREEN">      0.00000000</i>
   <i name="HFSCREENC">      0.00000000</i>
   <i type="int" name="NBANDSGWLOW">     0</i>
  </separator>
  <separator name="vdW DFT" >
   <i type="logical" name="LUSE_VDW"> F  </i>
   <i type="int" name="IVDW_NL">    -1</i>
   <i type="logical" name="LSPIN_VDW"> F  </i>
   <i name="ZAB_VDW">     -0.84910000</i>
   <i name="GAMMA_VDW">      1.39626340</i>
   <i name="ALPHA_VDW">      0.00000000</i>
   <i name="PARAM1">      0.12340000</i>
   <i name="PARAM2">      1.00000000</i>
   <i name="BPARAM">      6.30000000</i>
   <i name="CPARAM">      0.00930000</i>
  </separator>
  <separator name="model GW" >
   <i type="int" name="MODEL_GW">     0</i>
   <i name="MODEL_EPS0">      6.54090310</i>
   <i name="MODEL_ALPHA">      1.00000000</i>
  </separator>
  <separator name="linear response parameters" >
   <i type="logical" name="LEPSILON"> F  </i>
   <i type="logical" name="LRPA"> F  </i>
   <i type="logical" name="LNABLA"> F  </i>
   <i type="logical" name="LVEL"> F  </i>
   <i name="CSHIFT">      0.10000000</i>
   <i name="OMEGAMAX">     -1.00000000</i>
   <i name="DEG_THRESHOLD">      0.00200000</i>
   <i name="RTIME">     -0.10000000</i>
   <i name="WPLASMAI">      0.00000000</i>
   <v name="DFIELD">      0.00000000      0.00000000      0.00000000</v>
   <v name="WPLASMA">      0.00000000      0.00000000      0.00000000      0.00000000      0.00000000      0.00000000      0.00000000      0.00000000      0.00000000</v>
  </separator>
  <separator name="orbital magnetization" >
   <i type="logical" name="NUCIND"> F  </i>
   <v name="MAGPOS">      0.00000000      0.00000000      0.00000000</v>
   <i type="logical" name="LNICSALL"> T  </i>
   <i type="logical" name="ORBITALMAG"> F  </i>
   <i type="logical" name="LMAGBLOCH"> F  </i>
   <i type="logical" name="LCHIMAG"> F  </i>
   <i type="logical" name="LGAUGE"> T  </i>
   <i type="int" name="MAGATOM">     0</i>
   <v name="MAGDIPOL">      0.00000000      0.00000000      0.00000000</v>
   <v name="AVECCONST">      0.00000000      0.00000000      0.00000000</v>
  </separator>
  <separator name="response functions" >
   <i type="logical" name="LALL_IN_ONE"> F  </i>
   <i type="int" name="IALL_IN_ONE">    -1</i>
   <i type="int" name="NBANDS_WAVE">    -1</i>
   <i type="logical" name="LFINITE_TEMPERATURE"> F  </i>
   <i type="logical" name="LADDER"> F  </i>
   <i type="logical" name="LRPAFORCE"> F  </i>
   <i type="logical" name="LFXC"> F  </i>
   <i type="logical" name="LHARTREE"> T  </i>
   <i type="int" name="IBSE">     0</i>
   <v type="int" name="KPOINT">    -1     0     0     0</v>
   <i type="logical" name="LTCTC"> F  </i>
   <i type="logical" name="LTCTE"> F  </i>
   <i type="logical" name="LTETE"> F  </i>
   <i type="logical" name="LTRIPLET"> F  </i>
   <i type="logical" name="LFXCEPS"> F  </i>
   <i type="logical" name="LFXHEG"> F  </i>
   <i type="int" name="NATURALO">     2</i>
   <i type="logical" name="LHOLEGF"> F  </i>
   <i type="logical" name="L2ORDER"> F  </i>
   <i type="logical" name="LDMP1"> F  </i>
   <i type="logical" name="LMP2LT"> F  </i>
   <i type="logical" name="LSMP2LT"> F  </i>
   <i type="logical" name="LGWLF"> F  </i>
   <i name="ENCUTGW">     -1.60000002</i>
   <i name="ENCUTGWSOFT">     -1.60000002</i>
   <i name="ENCUTLF">     -1.00000000</i>
   <i type="logical" name="ESF_SPLINES"> F  </i>
   <i name="ESF_CONV">      0.01000000</i>
   <i type="int" name="ESF_NINTER">    15</i>
   <i type="int" name="LMAXMP2">    -1</i>
   <i name="SCISSOR">      0.00000000</i>
   <i type="int" name="NOMEGA">     0</i>
   <i type="int" name="NOMEGAR">     0</i>
   <i type="int" name="NBANDSGW">    -1</i>
   <i type="int" name="NBANDSO">    -1</i>
   <i type="int" name="NBANDSV">    -1</i>
   <i type="int" name="NELMGW">     1</i>
   <i type="int" name="NELMHF">     1</i>
   <i type="int" name="DIM">     3</i>
   <i type="int" name="IESPILON">     4</i>
   <i type="int" name="ANTIRES">     0</i>
   <i name="OMEGAMAX">    -30.00000000</i>
   <i name="OMEGAMIN">    -30.00000000</i>
   <i name="OMEGATL">   -200.00000000</i>
   <i type="int" name="OMEGAGRID">     0</i>
   <i name="CSHIFT">     -0.10000000</i>
   <i type="logical" name="LSELFENERGY"> F  </i>
   <i type="logical" name="LSPECTRAL"> F  </i>
   <i type="logical" name="LSPECTRALGW"> F  </i>
   <i type="logical" name="LSINGLES"> F  </i>
   <i type="logical" name="LFERMIGW"> F  </i>
   <i type="logical" name="ODDONLYGW"> F  </i>
   <i type="logical" name="EVENONLYGW"> F  </i>
   <i type="int" name="NKREDLFX">     1</i>
   <i type="int" name="NKREDLFY">     1</i>
   <i type="int" name="NKREDLFZ">     1</i>
   <i type="int" name="MAXMEM">  2800</i>
   <i type="int" name="TELESCOPE">     0</i>
   <i type="int" name="NTAUPAR">    -1</i>
   <i type="int" name="NOMEGAPAR">    -1</i>
   <i name="DAMP_NEWTON">      0.80000001</i>
   <i name="LAMBDA">      1.00000000</i>
  </separator>
  <separator name="External order field" >
   <i name="OFIELD_KAPPA">      0.00000000</i>
   <v name="OFIELD_K">      0.00000000      0.00000000      0.00000000</v>
   <i name="OFIELD_Q6_NEAR">      0.00000000</i>
   <i name="OFIELD_Q6_FAR">      0.00000000</i>
   <i name="OFIELD_A">      0.00000000</i>
  </separator>
  <separator name="optional k-points parameters" >
   <i type="int" name="KPOINTS_OPT_MODE">     1</i>
   <i type="logical" name="LKPOINTS_OPT"> F  </i>
  </separator>
  <separator name="solvation model" >
   <i type="logical" name="LSOL"> F  </i>
  </separator>
 </parameters>
 <atominfo>
  <atoms>      64 </atoms>
  <types>       7 </types>
  <array name="atoms" >
   <dimension dim="1">ion</dimension>
   <field type="string">element</field>
   <field type="int">atomtype</field>
   <set>
    <rc><c>Zr</c><c>   1</c></rc>
    <rc><c>Zr</c><c>   1</c></rc>
    <rc><c>Zr</c><c>   1</c></rc>
    <rc><c>Zr</c><c>   1</c></rc>
    <rc><c>Zr</c><c>   1</c></rc>
    <rc><c>Zr</c><c>   1</c></rc>
    <rc><c>Zr</c><c>   1</c></rc>
    <rc><c>V </c><c>   2</c></rc>
    <rc><c>V </c><c>   2</c></rc>
    <rc><c>V </c><c>   2</c></rc>
    <rc><c>V </c><c>   2</c></rc>
    <rc><c>V </c><c>   2</c></rc>
    <rc><c>V </c><c>   2</c></rc>
    <rc><c>Ti</c><c>   3</c></rc>
    <rc><c>Ti</c><c>   3</c></rc>
    <rc><c>Ti</c><c>   3</c></rc>
    <rc><c>Ti</c><c>   3</c></rc>
    <rc><c>Ti</c><c>   3</c></rc>
    <rc><c>Ti</c><c>   3</c></rc>
    <rc><c>Ti</c><c>   3</c></rc>
    <rc><c>N </c><c>   4</c></rc>
    <rc><c>N </c><c>   4</c></rc>
    <rc><c>N </c><c>   4</c></rc>
    <rc><c>N </c><c>   4</c></rc>
    <rc><c>N </c><c>   4</c></rc>
    <rc><c>N </c><c>   4</c></rc>
    <rc><c>N </c><c>   4</c></rc>
    <rc><c>N </c><c>   4</c></rc>
    <rc><c>N </c><c>   4</c></rc>
    <rc><c>N </c><c>   4</c></rc>
    <rc><c>N </c><c>   4</c></rc>
    <rc><c>N </c><c>   4</c></rc>
    <rc><c>N </c><c>   4</c></rc>
    <rc><c>C </c><c>   5</c></rc>
    <rc><c>C </c><c>   5</c></rc>
    <rc><c>C </c><c>   5</c></rc>
    <rc><c>C </c><c>   5</c></rc>
    <rc><c>C </c><c>   5</c></rc>
    <rc><c>C </c><c>   5</c></rc>
    <rc><c>C </c><c>   5</c></rc>
    <rc><c>C </c><c>   5</c></rc>
    <rc><c>C </c><c>   5</c></rc>
    <rc><c>C </c><c>   5</c></rc>
    <rc><c>C </c><c>   5</c></rc>
    <rc><c>C </c><c>   5</c></rc>
    <rc><c>C </c><c>   5</c></rc>
    <rc><c>C </c><c>   5</c></rc>
    <rc><c>C </c><c>   5</c></rc>
    <rc><c>C </c><c>   5</c></rc>
    <rc><c>C </c><c>   5</c></rc>
    <rc><c>C </c><c>   5</c></rc>
    <rc><c>C </c><c>   5</c></rc>
    <rc><c>Nb</c><c>   6</c></rc>
    <rc><c>Nb</c><c>   6</c></rc>
    <rc><c>Nb</c><c>   6</c></rc>
    <rc><c>Nb</c><c>   6</c></rc>
    <rc><c>Nb</c><c>   6</c></rc>
    <rc><c>Nb</c><c>   6</c></rc>
    <rc><c>Ta</c><c>   7</c></rc>
    <rc><c>Ta</c><c>   7</c></rc>
    <rc><c>Ta</c><c>   7</c></rc>
    <rc><c>Ta</c><c>   7</c></rc>
    <rc><c>Ta</c><c>   7</c></rc>
    <rc><c>Ta</c><c>   7</c></rc>
   </set>
  </array>
  <array name="atomtypes" >
   <dimension dim="1">type</dimension>
   <field type="int">atomspertype</field>
   <field type="string">element</field>
   <field>mass</field>
   <field>valence</field>
   <field type="string">pseudopotential</field>
   <set>
    <rc><c>   7</c><c>Zr</c><c>     91.22400000</c><c>      4.00000000</c><c> PAW_PBE Zr 08Apr2002                   </c></rc>
    <rc><c>   6</c><c>V </c><c>     50.94100000</c><c>     11.00000000</c><c> PAW_PBE V_pv 07Sep2000                 </c></rc>
    <rc><c>   7</c><c>Ti</c><c>     47.88000000</c><c>     10.00000000</c><c> PAW_PBE Ti_pv 07Sep2000                </c></rc>
    <rc><c>  13</c><c>N </c><c>     14.00100000</c><c>      5.00000000</c><c> PAW_PBE N 08Apr2002                    </c></rc>
    <rc><c>  19</c><c>C </c><c>     12.01100000</c><c>      4.00000000</c><c> PAW_PBE C 08Apr2002                    </c></rc>
    <rc><c>   6</c><c>Nb</c><c>     92.00000000</c><c>     11.00000000</c><c> PAW_PBE Nb_pv 08Apr2002                </c></rc>
    <rc><c>   6</c><c>Ta</c><c>    180.94800000</c><c>     11.00000000</c><c>  PAW_PBE Ta_pv 07Sep2000               </c></rc>
   </set>
  </array>
 </atominfo>
 <structure name="initialpos" >
  <crystal>
   <varray name="basis" >
    <v>       8.86032795       0.00242070      -0.00816336 </v>
    <v>       0.00821002       8.88376071      -0.00666293 </v>
    <v>       0.02368982      -0.02186774       8.86379357 </v>
   </varray>
   <i name="volume">    697.69633094 </i>
   <varray name="rec_basis" >
    <v>       0.11286239      -0.00010453      -0.00030190 </v>
    <v>      -0.00003050       0.11256518       0.00027779 </v>
    <v>       0.00010392       0.00008452       0.11281844 </v>
   </varray>
  </crystal>
  <varray name="positions" >
   <v>       0.99546940       0.00622080       0.99657209 </v>
   <v>       0.25176663       0.00545661       0.24939327 </v>
   <v>       0.24838509       0.49361958       0.24818623 </v>
   <v>       0.49765338       0.49948035       0.99897375 </v>
   <v>       0.50149879       0.24643548       0.74605318 </v>
   <v>       0.00337405       0.50068444       0.50093119 </v>
   <v>       0.49449348       0.75226813       0.75464209 </v>
   <v>       0.98151682       0.23120048       0.26995416 </v>
   <v>       0.77035329       0.73548432       0.99855156 </v>
   <v>       0.00744819       0.26866731       0.73821038 </v>
   <v>       0.76401642       0.25937762       0.49406047 </v>
   <v>       0.00033151       0.72744470       0.75565204 </v>
   <v>       0.24757150       0.49060194       0.74973613 </v>
   <v>       0.24585583       0.25216369       0.99344337 </v>
   <v>       0.51652833       0.25002999       0.25146164 </v>
   <v>       0.75000485       0.00112483       0.24541791 </v>
   <v>       0.75483024       0.25850511       0.99951573 </v>
   <v>       0.23521611       0.74534742       0.99427432 </v>
   <v>       0.24390204       0.25102262       0.50262225 </v>
   <v>       0.24614305       0.75004768       0.50344448 </v>
   <v>       0.24499652       0.24890555       0.24904918 </v>
   <v>       0.25393380       0.00211975       0.99482414 </v>
   <v>       0.00123743       0.25365638       0.00076408 </v>
   <v>       0.75319080       0.24788323       0.25277313 </v>
   <v>       0.74840652       0.00242558       0.00643598 </v>
   <v>       0.50795463       0.00574341       0.25228680 </v>
   <v>       0.99347130       0.49550482       0.24573640 </v>
   <v>       0.49736631       0.75611949       0.00413320 </v>
   <v>       0.99748412       0.00713248       0.74570262 </v>
   <v>       0.76235471       0.24957873       0.75070729 </v>
   <v>       0.74880257       0.00290352       0.50107136 </v>
   <v>       0.50284895       0.24930019       0.49322603 </v>
   <v>       0.50053249       0.99962249       0.75060815 </v>
   <v>       0.99234957       0.00418202       0.25569597 </v>
   <v>       0.50206217       0.24600772       0.00486486 </v>
   <v>       0.24764249       0.74979870       0.24669825 </v>
   <v>       0.24471536       0.49830281       0.99135743 </v>
   <v>       0.99805561       0.74625630       0.99704886 </v>
   <v>       0.75077023       0.75136841       0.24631352 </v>
   <v>       0.75506542       0.50109087       0.00080849 </v>
   <v>       0.50541225       0.49601186       0.25382221 </v>
   <v>       0.24143002       0.25354494       0.74807638 </v>
   <v>       0.24759947       0.00085335       0.50168330 </v>
   <v>       0.99892077       0.24744577       0.50293956 </v>
   <v>       0.23633992       0.74925845       0.75042344 </v>
   <v>       0.25450119       0.49779420       0.50624847 </v>
   <v>       0.99876368       0.75582063       0.50516571 </v>
   <v>       0.00309510       0.49916095       0.75130154 </v>
   <v>       0.75846340       0.75063846       0.75530775 </v>
   <v>       0.74723976       0.49475666       0.49916624 </v>
   <v>       0.49836716       0.74875846       0.49809108 </v>
   <v>       0.50031592       0.49861003       0.74453860 </v>
   <v>       0.50970491       0.00827794       0.00477818 </v>
   <v>       0.00185002       0.49661024       0.99429127 </v>
   <v>       0.49753682       0.75077780       0.24856661 </v>
   <v>       0.24635412       0.00502863       0.74547249 </v>
   <v>       0.49098278       0.99357560       0.49542593 </v>
   <v>       0.75102190       0.99252825       0.75886407 </v>
   <v>       0.00036737       0.76168736       0.24914911 </v>
   <v>       0.74941934       0.50133196       0.25050443 </v>
   <v>       0.00310217       0.00221999       0.50315389 </v>
   <v>       0.49646533       0.50225594       0.50046256 </v>
   <v>       0.75182056       0.50191807       0.74962417 </v>
   <v>       0.75132641       0.74804865       0.50174120 </v>
  </varray>
 </structure>
 <calculation>
  <scstep>
   <time name="dav">   17.00   17.34</time>
   <time name="total">   17.03   17.39</time>
   <energy>
    <i name="alphaZ">   3295.07913865 </i>
    <i name="ewald"> -30018.68913440 </i>
    <i name="hartreedc">  -6764.70687908 </i>
    <i name="XCdc">    563.01508481 </i>
    <i name="pawpsdc">  22076.60662688 </i>
    <i name="pawaedc"> -21048.21630571 </i>
    <i name="eentropy">     -0.10372424 </i>
    <i name="bandstr">   2504.83317034 </i>
    <i name="atom">  34538.15459128 </i>
    <i name="e_fr_energy">   5145.97256851 </i>
    <i name="e_wo_entrp">   5146.07629275 </i>
    <i name="e_0_energy">   5146.02443063 </i>
   </energy>
  </scstep>
  <scstep>
   <time name="dav">   16.51   17.22</time>
   <time name="total">   16.51   17.22</time>
   <energy>
    <i name="e_fr_energy">    143.13565138 </i>
    <i name="e_wo_entrp">    143.26319327 </i>
    <i name="e_0_energy">    143.19942232 </i>
   </energy>
  </scstep>
  <scstep>
   <time name="dav">   24.02   24.60</time>
   <time name="total">   24.02   24.60</time>
   <energy>
    <i name="e_fr_energy">   -716.27722721 </i>
    <i name="e_wo_entrp">   -716.20054962 </i>
    <i name="e_0_energy">   -716.23888842 </i>
   </energy>
  </scstep>
  <scstep>
   <time name="dav">   23.71   24.09</time>
   <time name="total">   23.71   24.09</time>
   <energy>
    <i name="e_fr_energy">   -788.54339264 </i>
    <i name="e_wo_entrp">   -788.47144834 </i>
    <i name="e_0_energy">   -788.50742049 </i>
   </energy>
  </scstep>
  <scstep>
   <time name="dav">   23.89   24.16</time>
   <time name="total">   24.04   24.32</time>
   <energy>
    <i name="e_fr_energy">   -792.19716995 </i>
    <i name="e_wo_entrp">   -792.11924043 </i>
    <i name="e_0_energy">   -792.15820519 </i>
   </energy>
  </scstep>
  <scstep>
   <time name="diag">    1.17    1.18</time>
   <time name="diis">   14.45   14.55</time>
   <time name="orth">    0.28    0.28</time>
   <time name="total">   16.08   16.19</time>
   <energy>
    <i name="e_fr_energy">   -688.18502000 </i>
    <i name="e_wo_entrp">   -688.07638747 </i>
    <i name="e_0_energy">   -688.13070373 </i>
   </energy>
  </scstep>
  <scstep>
   <time name="diag">    1.21    1.21</time>
   <time name="diis">   12.63   12.70</time>
   <time name="orth">    0.28    0.28</time>
   <time name="total">   14.29   14.37</time>
   <energy>
    <i name="e_fr_energy">   -657.52631078 </i>
    <i name="e_wo_entrp">   -657.41371381 </i>
    <i name="e_0_energy">   -657.47001230 </i>
   </energy>
  </scstep>
  <scstep>
   <time name="diag">    1.18    1.19</time>
   <time name="diis">   13.74   13.89</time>
   <time name="orth">    0.28    0.28</time>
   <time name="total">   15.38   15.53</time>
   <energy>
    <i name="e_fr_energy">   -642.94192027 </i>
    <i name="e_wo_entrp">   -642.83251306 </i>
    <i name="e_0_energy">   -642.88721667 </i>
   </energy>
  </scstep>
  <scstep>
   <time name="diag">    1.25    1.27</time>
   <time name="diis">   14.53   14.61</time>
   <time name="orth">    0.30    0.31</time>
   <time name="total">   16.26   16.36</time>
   <energy>
    <i name="e_fr_energy">   -642.52709725 </i>
    <i name="e_wo_entrp">   -642.40316393 </i>
    <i name="e_0_energy">   -642.46513059 </i>
   </energy>
  </scstep>
  <scstep>
   <time name="diag">    1.18    1.18</time>
   <time name="diis">   14.12   14.22</time>
   <time name="orth">    0.29    0.29</time>
   <time name="total">   15.79   15.90</time>
   <energy>
    <i name="e_fr_energy">   -642.05787964 </i>
    <i name="e_wo_entrp">   -641.94250145 </i>
    <i name="e_0_energy">   -642.00019055 </i>
   </energy>
  </scstep>
  <scstep>
   <time name="diag">    1.20    1.21</time>
   <time name="diis">   13.35   13.42</time>
   <time name="orth">    0.30    0.30</time>
   <time name="total">   15.03   15.11</time>
   <energy>
    <i name="e_fr_energy">   -640.94030081 </i>
    <i name="e_wo_entrp">   -640.81763299 </i>
    <i name="e_0_energy">   -640.87896690 </i>
   </energy>
  </scstep>
  <scstep>
   <time name="diag">    1.22    1.22</time>
   <time name="diis">   13.84   14.00</time>
   <time name="orth">    0.28    0.28</time>
   <time name="total">   15.52   15.68</time>
   <energy>
    <i name="e_fr_energy">   -641.38376448 </i>
    <i name="e_wo_entrp">   -641.26698080 </i>
    <i name="e_0_energy">   -641.32537264 </i>
   </energy>
  </scstep>
  <scstep>
   <time name="diag">    1.20    1.20</time>
   <time name="diis">   12.58   12.69</time>
   <time name="orth">    0.28    0.28</time>
   <time name="total">   14.27   14.38</time>
   <energy>
    <i name="e_fr_energy">   -641.05343922 </i>
    <i name="e_wo_entrp">   -640.92482265 </i>
    <i name="e_0_energy">   -640.98913093 </i>
   </energy>
  </scstep>
  <scstep>
   <time name="diag">    1.19    1.20</time>
   <time name="diis">   13.36   13.45</time>
   <time name="orth">    0.29    0.30</time>
   <time name="total">   15.02   15.12</time>
   <energy>
    <i name="e_fr_energy">   -640.84240143 </i>
    <i name="e_wo_entrp">   -640.71556774 </i>
    <i name="e_0_energy">   -640.77898458 </i>
   </energy>
  </scstep>
  <scstep>
   <time name="diag">    1.20    1.21</time>
   <time name="diis">   14.86   15.12</time>
   <time name="orth">    3.01    3.02</time>
   <time name="total">   19.44   19.90</time>
   <energy>
    <i name="e_fr_energy">   -640.81144692 </i>
    <i name="e_wo_entrp">   -640.68498834 </i>
    <i name="e_0_energy">   -640.74821763 </i>
   </energy>
  </scstep>
  <scstep>
   <time name="diag">    8.26    9.49</time>
   <time name="diis">   13.71   14.55</time>
   <time name="orth">    2.16    2.17</time>
   <time name="total">   24.55   26.83</time>
   <energy>
    <i name="e_fr_energy">   -640.80804929 </i>
    <i name="e_wo_entrp">   -640.68155434 </i>
    <i name="e_0_energy">   -640.74480182 </i>
   </energy>
  </scstep>
  <scstep>
   <time name="diag">    1.17    1.18</time>
   <time name="diis">   14.90   14.98</time>
   <time name="orth">    0.28    0.28</time>
   <time name="total">   16.54   16.62</time>
   <energy>
    <i name="e_fr_energy">   -640.81480635 </i>
    <i name="e_wo_entrp">   -640.68848511 </i>
    <i name="e_0_energy">   -640.75164573 </i>
   </energy>
  </scstep>
  <scstep>
   <time name="diag">    1.16    1.19</time>
   <time name="diis">   12.62   12.80</time>
   <time name="orth">    0.28    0.28</time>
   <time name="total">   14.24   14.46</time>
   <energy>
    <i name="e_fr_energy">   -640.81311833 </i>
    <i name="e_wo_entrp">   -640.68657920 </i>
    <i name="e_0_energy">   -640.74984876 </i>
   </energy>
  </scstep>
  <scstep>
   <time name="diag">    1.18    1.18</time>
   <time name="diis">   13.28   13.45</time>
   <time name="orth">    0.28    0.28</time>
   <time name="total">   14.92   15.10</time>
   <energy>
    <i name="e_fr_energy">   -640.81107992 </i>
    <i name="e_wo_entrp">   -640.68471977 </i>
    <i name="e_0_energy">   -640.74789984 </i>
   </energy>
  </scstep>
  <scstep>
   <time name="diag">    1.19    1.20</time>
   <time name="diis">   14.22   14.33</time>
   <time name="orth">    0.29    0.29</time>
   <time name="total">   15.87   15.99</time>
   <energy>
    <i name="e_fr_energy">   -640.81226056 </i>
    <i name="e_wo_entrp">   -640.68575152 </i>
    <i name="e_0_energy">   -640.74900604 </i>
   </energy>
  </scstep>
  <scstep>
   <time name="diag">    1.16    1.17</time>
   <time name="diis">   13.63   13.74</time>
   <time name="orth">    0.28    0.30</time>
   <time name="total">   15.25   15.38</time>
   <energy>
    <i name="e_fr_energy">   -640.81253337 </i>
    <i name="e_wo_entrp">   -640.68601076 </i>
    <i name="e_0_energy">   -640.74927207 </i>
   </energy>
  </scstep>
  <scstep>
   <time name="diag">    1.15    1.18</time>
   <time name="diis">   12.84   12.98</time>
   <time name="orth">    0.30    0.31</time>
   <time name="total">   14.47   14.64</time>
   <energy>
    <i name="e_fr_energy">   -640.81257207 </i>
    <i name="e_wo_entrp">   -640.68596006 </i>
    <i name="e_0_energy">   -640.74926606 </i>
   </energy>
  </scstep>
  <scstep>
   <time name="diag">    1.18    1.19</time>
   <time name="diis">   12.82   12.98</time>
   <time name="orth">    0.28    0.28</time>
   <time name="total">   14.46   14.63</time>
   <energy>
    <i name="e_fr_energy">   -640.81271084 </i>
    <i name="e_wo_entrp">   -640.68608401 </i>
    <i name="e_0_energy">   -640.74939743 </i>
   </energy>
  </scstep>
  <scstep>
   <time name="diag">    1.20    1.20</time>
   <time name="diis">   10.18   10.25</time>
   <time name="orth">    0.30    0.30</time>
   <time name="total">   11.86   11.93</time>
   <energy>
    <i name="e_fr_energy">   -640.81275159 </i>
    <i name="e_wo_entrp">   -640.68612184 </i>
    <i name="e_0_energy">   -640.74943672 </i>
   </energy>
  </scstep>
  <scstep>
   <time name="diag">    1.16    1.16</time>
   <time name="diis">   10.07   10.13</time>
   <time name="orth">    0.28    0.28</time>
   <time name="total">   11.73   11.79</time>
   <energy>
    <i name="e_fr_energy">   -640.81277081 </i>
    <i name="e_wo_entrp">   -640.68613774 </i>
    <i name="e_0_energy">   -640.74945427 </i>
   </energy>
  </scstep>
  <scstep>
   <time name="diag">    1.22    1.23</time>
   <time name="diis">    9.49    9.54</time>
   <time name="orth">    0.29    0.29</time>
   <time name="total">   11.18   11.24</time>
   <energy>
    <i name="e_fr_energy">   -640.81279277 </i>
    <i name="e_wo_entrp">   -640.68615018 </i>
    <i name="e_0_energy">   -640.74947148 </i>
   </energy>
  </scstep>
  <scstep>
   <time name="diag">    1.18    1.18</time>
   <time name="diis">    7.68    7.74</time>
   <time name="orth">    0.33    0.34</time>
   <time name="total">    9.37    9.44</time>
   <energy>
    <i name="e_fr_energy">   -640.81280074 </i>
    <i name="e_wo_entrp">   -640.68615966 </i>
    <i name="e_0_energy">   -640.74948020 </i>
   </energy>
  </scstep>
  <scstep>
   <time name="diag">    1.23    1.24</time>
   <time name="diis">    7.58    7.65</time>
   <time name="orth">    0.28    0.29</time>
   <time name="total">    9.12    9.19</time>
   <energy>
    <i name="alphaZ">   3295.07913865 </i>
    <i name="ewald"> -30018.68913440 </i>
    <i name="hartreedc">  -6364.72003021 </i>
    <i name="XCdc">    564.20460773 </i>
    <i name="pawpsdc">  23676.60740540 </i>
    <i name="pawaedc"> -22742.56385430 </i>
    <i name="eentropy">     -0.12665069 </i>
    <i name="bandstr">  -3588.75887926 </i>
    <i name="atom">  34538.15459128 </i>
    <i name="e_fr_energy">   -640.81280579 </i>
    <i name="e_wo_entrp">   -640.68615511 </i>
    <i name="e_0_energy">   -640.74948045 </i>
   </energy>
  </scstep>
  <structure>
   <crystal>
    <varray name="basis" >
     <v>       8.86032795       0.00242070      -0.00816336 </v>
     <v>       0.00821002       8.88376071      -0.00666293 </v>
     <v>       0.02368982      -0.02186774       8.86379357 </v>
    </varray>
    <i name="volume">    697.69633094 </i>
    <varray name="rec_basis" >
     <v>       0.11286239      -0.00010453      -0.00030190 </v>
     <v>      -0.00003050       0.11256518       0.00027779 </v>
     <v>       0.00010392       0.00008452       0.11281844 </v>
    </varray>
   </crystal>
   <varray name="positions" >
    <v>       0.99546940       0.00622080       0.99657209 </v>
    <v>       0.25176663       0.00545661       0.24939327 </v>
    <v>       0.24838509       0.49361958       0.24818623 </v>
    <v>       0.49765338       0.49948035       0.99897375 </v>
    <v>       0.50149879       0.24643548       0.74605318 </v>
    <v>       0.00337405       0.50068444       0.50093119 </v>
    <v>       0.49449348       0.75226813       0.75464209 </v>
    <v>       0.98151682       0.23120048       0.26995416 </v>
    <v>       0.77035329       0.73548432       0.99855156 </v>
    <v>       0.00744819       0.26866731       0.73821038 </v>
    <v>       0.76401642       0.25937762       0.49406047 </v>
    <v>       0.00033151       0.72744470       0.75565204 </v>
    <v>       0.24757150       0.49060194       0.74973613 </v>
    <v>       0.24585583       0.25216369       0.99344337 </v>
    <v>       0.51652833       0.25002999       0.25146164 </v>
    <v>       0.75000485       0.00112483       0.24541791 </v>
    <v>       0.75483024       0.25850511       0.99951573 </v>
    <v>       0.23521611       0.74534742       0.99427432 </v>
    <v>       0.24390204       0.25102262       0.50262225 </v>
    <v>       0.24614305       0.75004768       0.50344448 </v>
    <v>       0.24499652       0.24890555       0.24904918 </v>
    <v>       0.25393380       0.00211975       0.99482414 </v>
    <v>       0.00123743       0.25365638       0.00076408 </v>
    <v>       0.75319080       0.24788323       0.25277313 </v>
    <v>       0.74840652       0.00242558       0.00643598 </v>
    <v>       0.50795463       0.00574341       0.25228680 </v>
    <v>       0.99347130       0.49550482       0.24573640 </v>
    <v>       0.49736631       0.75611949       0.00413320 </v>
    <v>       0.99748412       0.00713248       0.74570262 </v>
    <v>       0.76235471       0.24957873       0.75070729 </v>
    <v>       0.74880257       0.00290352       0.50107136 </v>
    <v>       0.50284895       0.24930019       0.49322603 </v>
    <v>       0.50053249       0.99962249       0.75060815 </v>
    <v>       0.99234957       0.00418202       0.25569597 </v>
    <v>       0.50206217       0.24600772       0.00486486 </v>
    <v>       0.24764249       0.74979870       0.24669825 </v>
    <v>       0.24471536       0.49830281       0.99135743 </v>
    <v>       0.99805561       0.74625630       0.99704886 </v>
    <v>       0.75077023       0.75136841       0.24631352 </v>
    <v>       0.75506542       0.50109087       0.00080849 </v>
    <v>       0.50541225       0.49601186       0.25382221 </v>
    <v>       0.24143002       0.25354494       0.74807638 </v>
    <v>       0.24759947       0.00085335       0.50168330 </v>
    <v>       0.99892077       0.24744577       0.50293956 </v>
    <v>       0.23633992       0.74925845       0.75042344 </v>
    <v>       0.25450119       0.49779420       0.50624847 </v>
    <v>       0.99876368       0.75582063       0.50516571 </v>
    <v>       0.00309510       0.49916095       0.75130154 </v>
    <v>       0.75846340       0.75063846       0.75530775 </v>
    <v>       0.74723976       0.49475666       0.49916624 </v>
    <v>       0.49836716       0.74875846       0.49809108 </v>
    <v>       0.50031592       0.49861003       0.74453860 </v>
    <v>       0.50970491       0.00827794       0.00477818 </v>
    <v>       0.00185002       0.49661024       0.99429127 </v>
    <v>       0.49753682       0.75077780       0.24856661 </v>
    <v>       0.24635412       0.00502863       0.74547249 </v>
    <v>       0.49098278       0.99357560       0.49542593 </v>
    <v>       0.75102190       0.99252825       0.75886407 </v>
    <v>       0.00036737       0.76168736       0.24914911 </v>
    <v>       0.74941934       0.50133196       0.25050443 </v>
    <v>       0.00310217       0.00221999       0.50315389 </v>
    <v>       0.49646533       0.50225594       0.50046256 </v>
    <v>       0.75182056       0.50191807       0.74962417 </v>
    <v>       0.75132641       0.74804865       0.50174120 </v>
   </varray>
  </structure>
  <varray name="forces" >
   <v>       0.09616026      -0.04739249      -0.05299554 </v>
   <v>       0.01986329       0.03376210      -0.06696932 </v>
   <v>      -0.14925445       0.01566182       0.06537126 </v>
   <v>       0.04233085       0.01955852       0.03851623 </v>
   <v>       0.07170560       0.01425665       0.01635127 </v>
   <v>      -0.08715033      -0.03751454      -0.18118051 </v>
   <v>       0.03132170       0.02747082       0.03236065 </v>
   <v>      -0.00801218      -0.01142688      -0.04023205 </v>
   <v>      -0.01184531       0.12168677      -0.14981811 </v>
   <v>      -0.04604951       0.02119988       0.09365816 </v>
   <v>       0.04240249      -0.01491180      -0.17207812 </v>
   <v>       0.15051522      -0.03507664      -0.00102521 </v>
   <v>       0.05534492       0.07913039       0.01419254 </v>
   <v>       0.03466234       0.04857162      -0.02997683 </v>
   <v>      -0.01555163       0.00855453       0.01384317 </v>
   <v>      -0.03778729      -0.07506849      -0.10630822 </v>
   <v>      -0.00228349       0.01334361       0.13831139 </v>
   <v>       0.02263134      -0.02566072       0.07109014 </v>
   <v>      -0.02209690      -0.04578138       0.07747094 </v>
   <v>      -0.03185124       0.01729283       0.04676154 </v>
   <v>      -0.05644450       0.03528275       0.01576940 </v>
   <v>      -0.13558029      -0.02853651       0.16378660 </v>
   <v>      -0.01231965      -0.13639281       0.00461907 </v>
   <v>       0.01522706      -0.01236067      -0.00871418 </v>
   <v>       0.11704086      -0.06011667       0.20534011 </v>
   <v>       0.07580581       0.17470062      -0.08988452 </v>
   <v>      -0.03619189       0.01093699       0.07377147 </v>
   <v>       0.00495248      -0.14268464      -0.21289534 </v>
   <v>       0.04071200       0.07772047      -0.01774578 </v>
   <v>       0.00721508       0.11846953      -0.00127867 </v>
   <v>       0.17586509       0.00212048      -0.12426779 </v>
   <v>       0.01649194       0.15614041      -0.09541948 </v>
   <v>      -0.05610564       0.00754421      -0.02362874 </v>
   <v>      -0.09394592      -0.07874801      -0.01172924 </v>
   <v>       0.02050379       0.04328750       0.08298104 </v>
   <v>      -0.14226287       0.04103645       0.01758690 </v>
   <v>       0.05289116       0.00237470      -0.14306219 </v>
   <v>       0.08450961       0.07007542      -0.09210887 </v>
   <v>       0.11076451       0.02938869      -0.01880219 </v>
   <v>      -0.08408119       0.00528245      -0.02016219 </v>
   <v>       0.08471274      -0.13622629       0.16131987 </v>
   <v>      -0.08469726       0.12090285       0.05383731 </v>
   <v>      -0.21577320       0.05423809      -0.05494689 </v>
   <v>      -0.01083680      -0.08211871       0.00015960 </v>
   <v>      -0.10500971      -0.16661652       0.01028706 </v>
   <v>       0.16035921      -0.00703056       0.06807763 </v>
   <v>       0.13442608       0.08494436       0.01423779 </v>
   <v>       0.08429165      -0.07195608       0.02161608 </v>
   <v>       0.08587783      -0.25177444       0.00073496 </v>
   <v>      -0.11903579       0.06750105      -0.02608571 </v>
   <v>      -0.05652213      -0.20080294       0.08524147 </v>
   <v>      -0.06226345      -0.01690277      -0.09489552 </v>
   <v>      -0.07807739       0.03997321       0.04698592 </v>
   <v>       0.04736478       0.02703456      -0.01245216 </v>
   <v>       0.03915259      -0.03340947       0.03920766 </v>
   <v>       0.07622838      -0.03808634      -0.02444371 </v>
   <v>      -0.10800812      -0.06682928       0.03419690 </v>
   <v>      -0.08936470       0.07596527       0.07755279 </v>
   <v>      -0.01745096       0.06014429       0.01627596 </v>
   <v>       0.00559180       0.02065627      -0.03203024 </v>
   <v>      -0.06879404       0.06384703       0.01883641 </v>
   <v>       0.00009515       0.07647462      -0.01149558 </v>
   <v>      -0.09594141      -0.09650995       0.03680749 </v>
   <v>       0.13357164       0.03340375       0.05947611 </v>
  </varray>
  <varray name="stress" >
   <v>       0.16698089       0.54748957       0.09697113 </v>
   <v>       0.54748939      -1.02841287      -0.60745693 </v>
   <v>       0.09696842      -0.60745960      -0.87239204 </v>
  </varray>
  <energy>
   <i name="e_fr_energy">   -640.81280579 </i>
   <i name="e_wo_entrp">   -640.68615511 </i>
   <i name="e_0_energy">   -640.74948045 </i>
  </energy>
  <time name="totalsc">  476.47  484.36</time>
 </calculation>
 <calculation>
  <scstep>
   <time name="dav">   20.22   20.56</time>
   <time name="total">   20.42   20.76</time>
   <energy>
    <i name="alphaZ">   3296.95557253 </i>
    <i name="ewald"> -30024.37276205 </i>
    <i name="hartreedc">  -6365.92313214 </i>
    <i name="XCdc">    564.49294520 </i>
    <i name="pawpsdc">  23676.56169856 </i>
    <i name="pawaedc"> -22742.51951926 </i>
    <i name="eentropy">     -0.12557992 </i>
    <i name="bandstr">  -3583.98987889 </i>
    <i name="atom">  34538.15459128 </i>
    <i name="e_fr_energy">   -640.76606469 </i>
    <i name="e_wo_entrp">   -640.64048477 </i>
    <i name="e_0_energy">   -640.70327473 </i>
   </energy>
  </scstep>
  <scstep>
   <time name="diag">    1.19    1.21</time>
   <time name="diis">   13.79   14.07</time>
   <time name="orth">    0.28    0.28</time>
   <time name="total">   15.49   16.12</time>
   <energy>
    <i name="e_fr_energy">   -640.83125312 </i>
    <i name="e_wo_entrp">   -640.70599472 </i>
    <i name="e_0_energy">   -640.76862392 </i>
   </energy>
  </scstep>
  <scstep>
   <time name="diag">    1.15    1.17</time>
   <time name="diis">   15.70   16.00</time>
   <time name="orth">    0.28    0.29</time>
   <time name="total">   17.31   17.64</time>
   <energy>
    <i name="e_fr_energy">   -640.85119965 </i>
    <i name="e_wo_entrp">   -640.72576867 </i>
    <i name="e_0_energy">   -640.78848416 </i>
   </energy>
  </scstep>
  <scstep>
   <time name="diag">    1.17    1.18</time>
   <time name="diis">   15.08   15.19</time>
   <time name="orth">    0.29    0.29</time>
   <time name="total">   16.71   16.84</time>
   <energy>
    <i name="e_fr_energy">   -640.85193392 </i>
    <i name="e_wo_entrp">   -640.72633410 </i>
    <i name="e_0_energy">   -640.78913401 </i>
   </energy>
  </scstep>
  <scstep>
   <time name="diag">    1.28    1.29</time>
   <time name="diis">   14.60   15.40</time>
   <time name="orth">    0.67    1.02</time>
   <time name="total">   16.74   17.89</time>
   <energy>
    <i name="e_fr_energy">   -640.85142777 </i>
    <i name="e_wo_entrp">   -640.72592773 </i>
    <i name="e_0_energy">   -640.78867775 </i>
   </energy>
  </scstep>
  <scstep>
   <time name="diag">    6.27    6.75</time>
   <time name="diis">   14.04   14.96</time>
   <time name="orth">    1.30    1.42</time>
   <time name="total">   22.10   23.64</time>
   <energy>
    <i name="e_fr_energy">   -640.85185061 </i>
    <i name="e_wo_entrp">   -640.72656593 </i>
    <i name="e_0_energy">   -640.78920827 </i>
   </energy>
  </scstep>
  <scstep>
   <time name="diag">    2.03    2.04</time>
   <time name="diis">   13.00   13.13</time>
   <time name="orth">    0.29    0.29</time>
   <time name="total">   15.71   15.86</time>
   <energy>
    <i name="e_fr_energy">   -640.85129393 </i>
    <i name="e_wo_entrp">   -640.72562022 </i>
    <i name="e_0_energy">   -640.78845708 </i>
   </energy>
  </scstep>
  <scstep>
   <time name="diag">    1.16    1.16</time>
   <time name="diis">   14.12   14.24</time>
   <time name="orth">    0.28    0.28</time>
   <time name="total">   15.79   15.92</time>
   <energy>
    <i name="e_fr_energy">   -640.85119198 </i>
    <i name="e_wo_entrp">   -640.72558537 </i>
    <i name="e_0_energy">   -640.78838867 </i>
   </energy>
  </scstep>
  <scstep>
   <time name="diag">    1.28    1.29</time>
   <time name="diis">   12.44   12.56</time>
   <time name="orth">    0.32    0.34</time>
   <time name="total">   14.24   14.40</time>
   <energy>
    <i name="e_fr_energy">   -640.85121460 </i>
    <i name="e_wo_entrp">   -640.72562520 </i>
    <i name="e_0_energy">   -640.78841990 </i>
   </energy>
  </scstep>
  <scstep>
   <time name="diag">    1.20    1.20</time>
   <time name="diis">   10.62   10.68</time>
   <time name="orth">    0.30    0.30</time>
   <time name="total">   12.29   12.36</time>
   <energy>
    <i name="e_fr_energy">   -640.85119857 </i>
    <i name="e_wo_entrp">   -640.72557678 </i>
    <i name="e_0_energy">   -640.78838768 </i>
   </energy>
  </scstep>
  <scstep>
   <time name="diag">    1.18    1.19</time>
   <time name="diis">    8.90    9.00</time>
   <time name="orth">    0.28    0.28</time>
   <time name="total">   10.54   10.64</time>
   <energy>
    <i name="e_fr_energy">   -640.85120656 </i>
    <i name="e_wo_entrp">   -640.72562760 </i>
    <i name="e_0_energy">   -640.78841708 </i>
   </energy>
  </scstep>
  <scstep>
   <time name="diag">    1.16    1.17</time>
   <time name="diis">    7.76    7.84</time>
   <time name="orth">    0.30    0.30</time>
   <time name="total">    9.24    9.33</time>
   <energy>
    <i name="alphaZ">   3296.95557253 </i>
    <i name="ewald"> -30024.37276205 </i>
    <i name="hartreedc">  -6363.27334911 </i>
    <i name="XCdc">    564.33340121 </i>
    <i name="pawpsdc">  23680.24823008 </i>
    <i name="pawaedc"> -22746.17774571 </i>
    <i name="eentropy">     -0.12563623 </i>
    <i name="bandstr">  -3586.59351406 </i>
    <i name="atom">  34538.15459128 </i>
    <i name="e_fr_energy">   -640.85121205 </i>
    <i name="e_wo_entrp">   -640.72557582 </i>
    <i name="e_0_energy">   -640.78839394 </i>
   </energy>
  </scstep>
  <structure>
   <crystal>
    <varray name="basis" >
     <v>       8.86081378       0.00401384      -0.00787947 </v>
     <v>       0.00980680       8.88076455      -0.00843218 </v>
     <v>       0.02396933      -0.02362353       8.86126041 </v>
    </varray>
    <i name="volume">    697.29924308 </i>
    <varray name="rec_basis" >
     <v>       0.11285624      -0.00012491      -0.00030560 </v>
     <v>      -0.00005074       0.11260326       0.00030033 </v>
     <v>       0.00010030       0.00010704       0.11285078 </v>
    </varray>
   </crystal>
   <varray name="positions" >
    <v>       0.99599398       0.00596258       0.99628394 </v>
    <v>       0.25187559       0.00563902       0.24902902 </v>
    <v>       0.24757140       0.49370573       0.24854134 </v>
    <v>       0.49788320       0.49958702       0.99918367 </v>
    <v>       0.50188890       0.24651301       0.74614259 </v>
    <v>       0.00290236       0.50047842       0.49994450 </v>
    <v>       0.49466341       0.75241770       0.75481849 </v>
    <v>       0.98147384       0.23113790       0.26973511 </v>
    <v>       0.77029036       0.73614314       0.99773659 </v>
    <v>       0.00719599       0.26878376       0.73871998 </v>
    <v>       0.76424987       0.25929427       0.49312406 </v>
    <v>       0.00115122       0.72725399       0.75564707 </v>
    <v>       0.24787223       0.49103176       0.74981397 </v>
    <v>       0.24604475       0.25242700       0.99328059 </v>
    <v>       0.51644341       0.25007666       0.25153694 </v>
    <v>       0.74980104       0.00071580       0.24483881 </v>
    <v>       0.75481573       0.25857943       0.00026855 </v>
    <v>       0.23533843       0.74520899       0.99466124 </v>
    <v>       0.24378083       0.25077508       0.50304360 </v>
    <v>       0.24596886       0.75014227       0.50369889 </v>
    <v>       0.24468878       0.24909745       0.24913487 </v>
    <v>       0.25319336       0.00196718       0.99571477 </v>
    <v>       0.00117098       0.25291579       0.00078860 </v>
    <v>       0.75327390       0.24781597       0.25272573 </v>
    <v>       0.74904109       0.00210170       0.00755392 </v>
    <v>       0.50836780       0.00669080       0.25179868 </v>
    <v>       0.99327312       0.49556526       0.24613778 </v>
    <v>       0.49739709       0.75534179       0.00297392 </v>
    <v>       0.99770566       0.00755424       0.74560655 </v>
    <v>       0.76239342       0.25022204       0.75070085 </v>
    <v>       0.74976191       0.00291311       0.50039590 </v>
    <v>       0.50293935       0.25014680       0.49270741 </v>
    <v>       0.50022731       0.99966322       0.75047929 </v>
    <v>       0.99183862       0.00375436       0.25563134 </v>
    <v>       0.50217238       0.24624388       0.00531678 </v>
    <v>       0.24686744       0.75002199       0.24679342 </v>
    <v>       0.24500541       0.49831371       0.99057906 </v>
    <v>       0.99851674       0.74663549       0.99654826 </v>
    <v>       0.75137345       0.75152759       0.24621186 </v>
    <v>       0.75460788       0.50111941       0.00069835 </v>
    <v>       0.50587183       0.49527413       0.25470009 </v>
    <v>       0.24096747       0.25420234       0.74836947 </v>
    <v>       0.24642516       0.00114747       0.50138338 </v>
    <v>       0.99886217       0.24699985       0.50294004 </v>
    <v>       0.23576886       0.74835394       0.75047822 </v>
    <v>       0.25537336       0.49775670       0.50661976 </v>
    <v>       0.99949497       0.75628191       0.50524422 </v>
    <v>       0.00355410       0.49877036       0.75141932 </v>
    <v>       0.75893224       0.74927110       0.75531115 </v>
    <v>       0.74659168       0.49512305       0.49902394 </v>
    <v>       0.49805918       0.74766923       0.49855392 </v>
    <v>       0.49997838       0.49851706       0.74402173 </v>
    <v>       0.50927891       0.00849576       0.00503368 </v>
    <v>       0.00210795       0.49675681       0.99422385 </v>
    <v>       0.49774959       0.75059684       0.24878007 </v>
    <v>       0.24676971       0.00482136       0.74533968 </v>
    <v>       0.49039454       0.99321330       0.49561124 </v>
    <v>       0.75053382       0.99294195       0.75928603 </v>
    <v>       0.00027181       0.76201422       0.24923785 </v>
    <v>       0.74945015       0.50144369       0.25033021 </v>
    <v>       0.00272701       0.00256706       0.50325632 </v>
    <v>       0.49646563       0.50267108       0.50040031 </v>
    <v>       0.75129813       0.50139461       0.74982362 </v>
    <v>       0.75205265       0.74823065       0.50206572 </v>
   </varray>
  </structure>
  <varray name="forces" >
   <v>       0.04042251      -0.03685188      -0.03778112 </v>
   <v>       0.00913190       0.01744839       0.02435593 </v>
   <v>       0.03031340       0.01408272      -0.00782508 </v>
   <v>      -0.02478187       0.01340599       0.06189138 </v>
   <v>       0.01379367      -0.03505844      -0.02722304 </v>
   <v>      -0.00039871      -0.04897843       0.05104258 </v>
   <v>       0.00498699       0.01987356      -0.02554529 </v>
   <v>       0.00644283      -0.03630276      -0.06146220 </v>
   <v>       0.01795867       0.09410677      -0.13941888 </v>
   <v>      -0.03171189       0.02537003       0.07127059 </v>
   <v>       0.00636506      -0.02641697      -0.15385443 </v>
   <v>       0.09648608      -0.11306941      -0.01496429 </v>
   <v>       0.01818423       0.07392258      -0.00872918 </v>
   <v>       0.00481676       0.03129918      -0.01644709 </v>
   <v>      -0.00395730       0.02417775       0.03476100 </v>
   <v>      -0.03005781      -0.05334666      -0.07458913 </v>
   <v>       0.01484294      -0.03452846       0.13039238 </v>
   <v>       0.03494682      -0.02712829       0.04201057 </v>
   <v>      -0.02703180      -0.00558877       0.05584585 </v>
   <v>      -0.03736935       0.01170342       0.00822390 </v>
   <v>      -0.05359323       0.02777410       0.01298478 </v>
   <v>      -0.02025972      -0.00662272       0.01390167 </v>
   <v>       0.00066143       0.00704665       0.00476498 </v>
   <v>       0.00219651      -0.00036010      -0.02386423 </v>
   <v>      -0.00408952      -0.05873629       0.05135882 </v>
   <v>       0.00621159       0.05353575       0.00824774 </v>
   <v>      -0.01361451      -0.00448134      -0.01252518 </v>
   <v>       0.00026021      -0.03713103      -0.00763835 </v>
   <v>      -0.00128874       0.04736466      -0.00538027 </v>
   <v>      -0.01167376       0.02017741       0.00329661 </v>
   <v>       0.03617511      -0.00229798      -0.04472546 </v>
   <v>       0.00276064       0.02350990      -0.00940601 </v>
   <v>      -0.03599994       0.00729015      -0.02421445 </v>
   <v>      -0.01694137       0.00785223      -0.01912208 </v>
   <v>       0.00355675       0.01122451       0.02727631 </v>
   <v>      -0.02025324       0.00510712       0.01319764 </v>
   <v>       0.02200684       0.00033268      -0.00591764 </v>
   <v>       0.03332804      -0.00388817      -0.03895469 </v>
   <v>       0.00038850       0.00359067      -0.00123544 </v>
   <v>       0.02289710       0.01437734      -0.01557950 </v>
   <v>      -0.03807869      -0.04140854       0.00322788 </v>
   <v>      -0.00617527       0.01219601       0.02614976 </v>
   <v>      -0.02896432       0.02149380       0.00013488 </v>
   <v>      -0.00333143       0.03353889       0.01801325 </v>
   <v>       0.00356337      -0.06897715       0.01429172 </v>
   <v>      -0.06578395      -0.00773293       0.02546470 </v>
   <v>       0.04964964      -0.01434063       0.01494563 </v>
   <v>       0.00160063      -0.01253406      -0.06283838 </v>
   <v>       0.05133439      -0.03244611      -0.01749271 </v>
   <v>       0.00664641       0.02924710      -0.00145255 </v>
   <v>      -0.00029256       0.00604535       0.00706018 </v>
   <v>      -0.01744251      -0.00238675       0.03978028 </v>
   <v>      -0.01288774      -0.02940600      -0.01286546 </v>
   <v>      -0.02565514       0.00462715       0.00452893 </v>
   <v>       0.02977570       0.02134947       0.01164915 </v>
   <v>       0.09272113      -0.01335194       0.00205733 </v>
   <v>      -0.06154122      -0.04791039      -0.02145649 </v>
   <v>      -0.08475457       0.03937082       0.09828148 </v>
   <v>       0.00067179       0.01403806      -0.02294497 </v>
   <v>       0.00581812       0.03792469      -0.02164318 </v>
   <v>      -0.07283608       0.03827015       0.01744356 </v>
   <v>       0.00521480       0.00648502      -0.03625141 </v>
   <v>       0.01634270      -0.08095596      -0.01205963 </v>
   <v>       0.05829296       0.06307811       0.08755636 </v>
  </varray>
  <varray name="stress" >
   <v>       0.01372451       0.01138609       0.19059852 </v>
   <v>       0.01138535       1.50315464      -0.11703237 </v>
   <v>       0.19059804      -0.11703159       0.92601507 </v>
  </varray>
  <energy>
   <i name="e_fr_energy">   -640.85121205 </i>
   <i name="e_wo_entrp">   -640.72557582 </i>
   <i name="e_0_energy">   -640.78839394 </i>
  </energy>
  <time name="totalsc">  216.91  222.05</time>
 </calculation>
 <calculation>
  <scstep>
   <time name="dav">   20.72   20.91</time>
   <time name="total">   20.90   21.09</time>
   <energy>
    <i name="alphaZ">   3297.50584127 </i>
    <i name="ewald"> -30025.90042205 </i>
    <i name="hartreedc">  -6363.73952301 </i>
    <i name="XCdc">    564.41960311 </i>
    <i name="pawpsdc">  23680.27173903 </i>
    <i name="pawaedc"> -22746.20002063 </i>
    <i name="eentropy">     -0.12533801 </i>
    <i name="bandstr">  -3585.23429619 </i>
    <i name="atom">  34538.15459128 </i>
    <i name="e_fr_energy">   -640.84782520 </i>
    <i name="e_wo_entrp">   -640.72248719 </i>
    <i name="e_0_energy">   -640.78515620 </i>
   </energy>
  </scstep>
  <scstep>
   <time name="diag">    1.16    1.17</time>
   <time name="diis">   14.24   14.36</time>
   <time name="orth">    0.28    0.28</time>
   <time name="total">   15.85   15.99</time>
   <energy>
    <i name="e_fr_energy">   -640.85300448 </i>
    <i name="e_wo_entrp">   -640.72773057 </i>
    <i name="e_0_energy">   -640.79036753 </i>
   </energy>
  </scstep>
  <scstep>
   <time name="diag">    1.16    1.17</time>
   <time name="diis">   15.89   16.04</time>
   <time name="orth">    0.32    0.32</time>
   <time name="total">   17.56   17.72</time>
   <energy>
    <i name="e_fr_energy">   -640.85373897 </i>
    <i name="e_wo_entrp">   -640.72847671 </i>
    <i name="e_0_energy">   -640.79110784 </i>
   </energy>
  </scstep>
  <scstep>
   <time name="diag">    1.16    1.17</time>
   <time name="diis">   14.83   14.92</time>
   <time name="orth">    0.28    0.28</time>
   <time name="total">   16.46   16.55</time>
   <energy>
    <i name="e_fr_energy">   -640.85373572 </i>
    <i name="e_wo_entrp">   -640.72834564 </i>
    <i name="e_0_energy">   -640.79104068 </i>
   </energy>
  </scstep>
  <scstep>
   <time name="diag">    1.16    1.16</time>
   <time name="diis">   13.30   13.45</time>
   <time name="orth">    0.28    0.28</time>
   <time name="total">   14.92   15.08</time>
   <energy>
    <i name="e_fr_energy">   -640.85368984 </i>
    <i name="e_wo_entrp">   -640.72839256 </i>
    <i name="e_0_energy">   -640.79104120 </i>
   </energy>
  </scstep>
  <scstep>
   <time name="diag">    1.16    1.16</time>
   <time name="diis">   12.22   12.32</time>
   <time name="orth">    0.34    0.35</time>
   <time name="total">   13.89   14.00</time>
   <energy>
    <i name="e_fr_energy">   -640.85372423 </i>
    <i name="e_wo_entrp">   -640.72843453 </i>
    <i name="e_0_energy">   -640.79107938 </i>
   </energy>
  </scstep>
  <scstep>
   <time name="diag">    1.20    1.20</time>
   <time name="diis">   11.23   11.43</time>
   <time name="orth">    0.29    0.29</time>
   <time name="total">   12.89   13.10</time>
   <energy>
    <i name="e_fr_energy">   -640.85368550 </i>
    <i name="e_wo_entrp">   -640.72831553 </i>
    <i name="e_0_energy">   -640.79100051 </i>
   </energy>
  </scstep>
  <scstep>
   <time name="diag">    1.21    1.22</time>
   <time name="diis">   10.15   10.25</time>
   <time name="orth">    0.29    0.30</time>
   <time name="total">   11.68   11.79</time>
   <energy>
    <i name="alphaZ">   3297.50584127 </i>
    <i name="ewald"> -30025.90042205 </i>
    <i name="hartreedc">  -6362.99749546 </i>
    <i name="XCdc">    564.37467700 </i>
    <i name="pawpsdc">  23681.56723476 </i>
    <i name="pawaedc"> -22747.48665066 </i>
    <i name="eentropy">     -0.12532884 </i>
    <i name="bandstr">  -3585.94612658 </i>
    <i name="atom">  34538.15459128 </i>
    <i name="e_fr_energy">   -640.85367929 </i>
    <i name="e_wo_entrp">   -640.72835045 </i>
    <i name="e_0_energy">   -640.79101487 </i>
   </energy>
  </scstep>
  <structure>
   <crystal>
    <varray name="basis" >
     <v>       8.86095614       0.00448068      -0.00779628 </v>
     <v>       0.01027471       8.87988659      -0.00895062 </v>
     <v>       0.02405123      -0.02413803       8.86051812 </v>
    </varray>
    <i name="volume">    697.18288181 </i>
    <varray name="rec_basis" >
     <v>       0.11285443      -0.00013089      -0.00030669 </v>
     <v>      -0.00005668       0.11261443       0.00030694 </v>
     <v>       0.00009924       0.00011364       0.11286026 </v>
    </varray>
   </crystal>
   <varray name="positions" >
    <v>       0.99614771       0.00588685       0.99619946 </v>
    <v>       0.25190751       0.00569247       0.24892226 </v>
    <v>       0.24733297       0.49373104       0.24864544 </v>
    <v>       0.49795054       0.49961829       0.99924520 </v>
    <v>       0.50200321       0.24653572       0.74616880 </v>
    <v>       0.00276417       0.50041799       0.49965528 </v>
    <v>       0.49471319       0.75246154       0.75487020 </v>
    <v>       0.98146125       0.23111955       0.26967090 </v>
    <v>       0.77027190       0.73633621       0.99749775 </v>
    <v>       0.00712208       0.26881794       0.73886937 </v>
    <v>       0.76431829       0.25926977       0.49284957 </v>
    <v>       0.00139142       0.72719804       0.75564559 </v>
    <v>       0.24796033       0.49115774       0.74983681 </v>
    <v>       0.24610009       0.25250416       0.99323289 </v>
    <v>       0.51641852       0.25009034       0.25155901 </v>
    <v>       0.74974134       0.00059588       0.24466905 </v>
    <v>       0.75481146       0.25860126       0.00048922 </v>
    <v>       0.23537427       0.74516843       0.99477465 </v>
    <v>       0.24374532       0.25070255       0.50316709 </v>
    <v>       0.24591781       0.75017001       0.50377348 </v>
    <v>       0.24459860       0.24915372       0.24916000 </v>
    <v>       0.25297640       0.00192254       0.99597583 </v>
    <v>       0.00115154       0.25269871       0.00079575 </v>
    <v>       0.75329825       0.24779624       0.25271183 </v>
    <v>       0.74922704       0.00200679       0.00788157 </v>
    <v>       0.50848882       0.00696845       0.25165566 </v>
    <v>       0.99321504       0.49558301       0.24625543 </v>
    <v>       0.49740617       0.75511376       0.00263408 </v>
    <v>       0.99777055       0.00767785       0.74557842 </v>
    <v>       0.76240472       0.25041061       0.75069900 </v>
    <v>       0.75004302       0.00291583       0.50019791 </v>
    <v>       0.50296579       0.25039493       0.49255544 </v>
    <v>       0.50013789       0.99967517       0.75044153 </v>
    <v>       0.99168893       0.00362903       0.25561238 </v>
    <v>       0.50220466       0.24631312       0.00544926 </v>
    <v>       0.24664032       0.75008749       0.24682134 </v>
    <v>       0.24509041       0.49831685       0.99035091 </v>
    <v>       0.99865184       0.74674658       0.99640154 </v>
    <v>       0.75155019       0.75157421       0.24618207 </v>
    <v>       0.75447382       0.50112779       0.00066608 </v>
    <v>       0.50600652       0.49505790       0.25495736 </v>
    <v>       0.24083190       0.25439508       0.74845542 </v>
    <v>       0.24608106       0.00123373       0.50129550 </v>
    <v>       0.99884503       0.24686914       0.50294016 </v>
    <v>       0.23560157       0.74808884       0.75049423 </v>
    <v>       0.25562891       0.49774568       0.50672859 </v>
    <v>       0.99970922       0.75641709       0.50526725 </v>
    <v>       0.00368861       0.49865585       0.75145381 </v>
    <v>       0.75906969       0.74887026       0.75531207 </v>
    <v>       0.74640176       0.49523047       0.49898226 </v>
    <v>       0.49796900       0.74734999       0.49868952 </v>
    <v>       0.49987948       0.49848980       0.74387023 </v>
    <v>       0.50915407       0.00855964       0.00510859 </v>
    <v>       0.00218352       0.49679976       0.99420409 </v>
    <v>       0.49781195       0.75054379       0.24884262 </v>
    <v>       0.24689150       0.00476058       0.74530074 </v>
    <v>       0.49022219       0.99310714       0.49566554 </v>
    <v>       0.75039078       0.99306327       0.75940974 </v>
    <v>       0.00024379       0.76211004       0.24926389 </v>
    <v>       0.74945917       0.50147643       0.25027915 </v>
    <v>       0.00261706       0.00266882       0.50328637 </v>
    <v>       0.49646569       0.50279277       0.50038208 </v>
    <v>       0.75114508       0.50124121       0.74988206 </v>
    <v>       0.75226543       0.74828398       0.50216084 </v>
   </varray>
  </structure>
  <varray name="forces" >
   <v>       0.02403140      -0.03422257      -0.03197792 </v>
   <v>       0.00528043       0.01325673       0.05183699 </v>
   <v>       0.08172080       0.01291899      -0.02872123 </v>
   <v>      -0.04400182       0.01113255       0.06885503 </v>
   <v>      -0.00251360      -0.04876624      -0.04080085 </v>
   <v>       0.02255857      -0.05275540       0.11690663 </v>
   <v>      -0.00259415       0.01630573      -0.04360980 </v>
   <v>       0.00890953      -0.04489178      -0.06532158 </v>
   <v>       0.02605406       0.08693008      -0.13596762 </v>
   <v>      -0.02897629       0.02372513       0.06617381 </v>
   <v>      -0.00217288      -0.02851575      -0.15092663 </v>
   <v>       0.08069595      -0.13410523      -0.01875096 </v>
   <v>       0.00821875       0.07381430      -0.01548687 </v>
   <v>      -0.00324535       0.02564646      -0.01070409 </v>
   <v>      -0.00047020       0.02899665       0.04163284 </v>
   <v>      -0.02610460      -0.04575849      -0.06395944 </v>
   <v>       0.01961289      -0.04835671       0.12854828 </v>
   <v>       0.03783943      -0.02760805       0.03340967 </v>
   <v>      -0.02700782       0.00539281       0.04694030 </v>
   <v>      -0.03825754       0.01011809      -0.00282604 </v>
   <v>      -0.05383509       0.02638730       0.01227094 </v>
   <v>       0.01290361      -0.00101198      -0.02711931 </v>
   <v>       0.00322265       0.04682647       0.00428931 </v>
   <v>      -0.00031525       0.00323181      -0.02911472 </v>
   <v>      -0.03740283      -0.05972497       0.00882642 </v>
   <v>      -0.01270163       0.02119591       0.03419694 </v>
   <v>      -0.00757715      -0.00901679      -0.03609598 </v>
   <v>      -0.00087112      -0.00883249       0.04892773 </v>
   <v>      -0.01312273       0.04088007      -0.00213251 </v>
   <v>      -0.01717461      -0.00620558       0.00604242 </v>
   <v>       0.00000702      -0.00418057      -0.02342908 </v>
   <v>      -0.00139020      -0.01303748       0.01402115 </v>
   <v>      -0.03108052       0.00778722      -0.02576200 </v>
   <v>       0.00456258       0.03346584      -0.02138514 </v>
   <v>      -0.00087495       0.00107913       0.01190412 </v>
   <v>       0.01425406      -0.00547979       0.01165603 </v>
   <v>       0.01277246       0.00003176       0.03274287 </v>
   <v>       0.01935773      -0.02523902      -0.02488511 </v>
   <v>      -0.03167361      -0.00335499       0.00407184 </v>
   <v>       0.05246731       0.01527525      -0.01459780 </v>
   <v>      -0.07236238      -0.01427171      -0.04183863 </v>
   <v>       0.01781946      -0.01946828       0.01855339 </v>
   <v>       0.02606361       0.01217039       0.01671713 </v>
   <v>      -0.00311454       0.06674903       0.01959216 </v>
   <v>       0.03458354      -0.04218319       0.01481799 </v>
   <v>      -0.13062810      -0.00748629       0.01287965 </v>
   <v>       0.02554896      -0.04331122       0.01555071 </v>
   <v>      -0.02125282       0.00554238      -0.08611450 </v>
   <v>       0.04083756       0.02853930      -0.02174527 </v>
   <v>       0.04328843       0.01786463       0.00531290 </v>
   <v>       0.01411522       0.06690742      -0.01555496 </v>
   <v>      -0.00468341       0.00171463       0.07864861 </v>
   <v>       0.00385400      -0.04729736      -0.02832174 </v>
   <v>      -0.04485281       0.00024167       0.00897236 </v>
   <v>       0.02825371       0.03604296       0.00607582 </v>
   <v>       0.09947040      -0.00709416       0.00714753 </v>
   <v>      -0.05253953      -0.04358060      -0.03631435 </v>
[...]
      </set>
     </set>
    </set>
   </array>
  </eigenvalues>
  <separator name="orbital magnetization" >
   <v name="MAGDIPOLOUT">      0.00000000      0.00000000      0.00000000</v>
  </separator>
  <dos>
   <i name="efermi">      7.68860871 </i>
   <total>
    <array>
     <dimension dim="1">gridpoints</dimension>
     <dimension dim="2">spin</dimension>
     <field>energy</field>
     <field>total</field>
     <field>integrated</field>
     <set>
      <set comment="spin 1">
       <r>   -33.4069     0.0000     0.0000 </r>
       <r>   -33.2535     0.0000     0.0000 </r>
       <r>   -33.1001     0.0000     0.0000 </r>
       <r>   -32.9468     0.0000     0.0000 </r>
       <r>   -32.7934     0.0000     0.0000 </r>
       <r>   -32.6400     0.0000     0.0000 </r>
       <r>   -32.4866     0.0000     0.0000 </r>
       <r>   -32.3332     0.0000     0.0000 </r>
       <r>   -32.1798     0.0000     0.0000 </r>
       <r>   -32.0264     0.0000     0.0000 </r>
       <r>   -31.8731     0.0000     0.0000 </r>
       <r>   -31.7197     0.0000     0.0000 </r>
       <r>   -31.5663     0.0026     0.0004 </r>
       <r>   -31.4129     1.2898     0.1982 </r>
       <r>   -31.2595    26.8357     4.3144 </r>
       <r>   -31.1061   113.4836    21.7210 </r>
       <r>   -30.9528    83.4351    34.5187 </r>
       <r>   -30.7994     9.5742    35.9872 </r>
       <r>   -30.6460     0.0833    36.0000 </r>
       <r>   -30.4926     0.0000    36.0000 </r>
       <r>   -30.3392     0.0000    36.0000 </r>
       <r>   -30.1858     0.0000    36.0000 </r>
       <r>   -30.0324     0.0000    36.0000 </r>
       <r>   -29.8791     0.0000    36.0000 </r>
       <r>   -29.7257     0.0000    36.0000 </r>
       <r>   -29.5723     0.0000    36.0000 </r>
       <r>   -29.4189     0.0000    36.0000 </r>
       <r>   -29.2655     0.0000    36.0000 </r>
       <r>   -29.1121     0.0000    36.0000 </r>
       <r>   -28.9588     0.0000    36.0000 </r>
       <r>   -28.8054     0.0000    36.0000 </r>
       <r>   -28.6520     0.0000    36.0000 </r>
       <r>   -28.4986     0.0000    36.0000 </r>
       <r>   -28.3452     0.0000    36.0000 </r>
       <r>   -28.1918     0.0000    36.0000 </r>
       <r>   -28.0384     0.0000    36.0000 </r>
       <r>   -27.8851     0.0416    36.0064 </r>
       <r>   -27.7317     5.6362    36.8709 </r>
       <r>   -27.5783    38.7278    42.8111 </r>
       <r>   -27.4249    68.0163    53.2438 </r>
       <r>   -27.2715    77.8724    65.1882 </r>
       <r>   -27.1181    42.4860    71.7049 </r>
       <r>   -26.9648     1.9217    71.9997 </r>
       <r>   -26.8114     0.0023    72.0000 </r>
       <r>   -26.6580     0.2074    72.0318 </r>
       <r>   -26.5046    10.8116    73.6902 </r>
       <r>   -26.3512    51.3030    81.5592 </r>
       <r>   -26.1978    61.2410    90.9527 </r>
       <r>   -26.0444    56.4429    99.6101 </r>
       <r>   -25.8911    62.2438   109.1574 </r>
       <r>   -25.7377    29.6725   113.7087 </r>
       <r>   -25.5843     1.8964   113.9995 </r>
       <r>   -25.4309     0.0030   114.0000 </r>
       <r>   -25.2775     0.0000   114.0000 </r>
       <r>   -25.1241     0.0000   114.0000 </r>
       <r>   -24.9708     0.0020   114.0003 </r>
       <r>   -24.8174     1.0238   114.1573 </r>
       <r>   -24.6640    15.7305   116.5701 </r>
       <r>   -24.5106    43.5827   123.2551 </r>
       <r>   -24.3572    53.7688   131.5024 </r>
       <r>   -24.2038    56.2857   140.1357 </r>
       <r>   -24.0504    52.4064   148.1740 </r>
       <r>   -23.8971    11.7282   149.9730 </r>
       <r>   -23.7437     0.1763   150.0000 </r>
       <r>   -23.5903     0.0000   150.0000 </r>
       <r>   -23.4369     0.0000   150.0000 </r>
       <r>   -23.2835     0.0000   150.0000 </r>
       <r>   -23.1301     0.0000   150.0000 </r>
       <r>   -22.9768     0.0000   150.0000 </r>
       <r>   -22.8234     0.0000   150.0000 </r>
       <r>   -22.6700     0.0000   150.0000 </r>
       <r>   -22.5166     0.0000   150.0000 </r>
       <r>   -22.3632     0.0000   150.0000 </r>
       <r>   -22.2098     0.0000   150.0000 </r>
       <r>   -22.0565     0.0000   150.0000 </r>
       <r>   -21.9031     0.0000   150.0000 </r>
       <r>   -21.7497     0.0000   150.0000 </r>
       <r>   -21.5963     0.0000   150.0000 </r>
       <r>   -21.4429     0.0000   150.0000 </r>
       <r>   -21.2895     0.0000   150.0000 </r>
       <r>   -21.1361     0.0000   150.0000 </r>
       <r>   -20.9828     0.0000   150.0000 </r>
       <r>   -20.8294     0.0000   150.0000 </r>
       <r>   -20.6760     0.0000   150.0000 </r>
       <r>   -20.5226     0.0000   150.0000 </r>
       <r>   -20.3692     0.0000   150.0000 </r>
       <r>   -20.2158     0.0000   150.0000 </r>
       <r>   -20.0625     0.0000   150.0000 </r>
       <r>   -19.9091     0.0000   150.0000 </r>
       <r>   -19.7557     0.0000   150.0000 </r>
       <r>   -19.6023     0.0000   150.0000 </r>
       <r>   -19.4489     0.0000   150.0000 </r>
       <r>   -19.2955     0.0000   150.0000 </r>
       <r>   -19.1421     0.0000   150.0000 </r>
       <r>   -18.9888     0.0000   150.0000 </r>
       <r>   -18.8354     0.0000   150.0000 </r>
       <r>   -18.6820     0.0000   150.0000 </r>
       <r>   -18.5286     0.0000   150.0000 </r>
       <r>   -18.3752     0.0000   150.0000 </r>
       <r>   -18.2218     0.0000   150.0000 </r>
       <r>   -18.0685     0.0000   150.0000 </r>
       <r>   -17.9151     0.0000   150.0000 </r>
       <r>   -17.7617     0.0000   150.0000 </r>
       <r>   -17.6083     0.0000   150.0000 </r>
       <r>   -17.4549     0.0000   150.0000 </r>
       <r>   -17.3015     0.0000   150.0000 </r>
       <r>   -17.1481     0.0000   150.0000 </r>
       <r>   -16.9948     0.0000   150.0000 </r>
       <r>   -16.8414     0.0000   150.0000 </r>
       <r>   -16.6880     0.0000   150.0000 </r>
       <r>   -16.5346     0.0000   150.0000 </r>
       <r>   -16.3812     0.0000   150.0000 </r>
       <r>   -16.2278     0.0000   150.0000 </r>
       <r>   -16.0745     0.0000   150.0000 </r>
       <r>   -15.9211     0.0000   150.0000 </r>
       <r>   -15.7677     0.0000   150.0000 </r>
       <r>   -15.6143     0.0000   150.0000 </r>
       <r>   -15.4609     0.0000   150.0000 </r>
       <r>   -15.3075     0.0000   150.0000 </r>
       <r>   -15.1541     0.0000   150.0000 </r>
       <r>   -15.0008     0.0000   150.0000 </r>
       <r>   -14.8474     0.0000   150.0000 </r>
       <r>   -14.6940     0.0000   150.0000 </r>
       <r>   -14.5406     0.0000   150.0000 </r>
       <r>   -14.3872     0.0000   150.0000 </r>
       <r>   -14.2338     0.0000   150.0000 </r>
       <r>   -14.0805     0.0000   150.0000 </r>
       <r>   -13.9271     0.0000   150.0000 </r>
       <r>   -13.7737     0.0000   150.0000 </r>
       <r>   -13.6203     0.0000   150.0000 </r>
       <r>   -13.4669     0.0000   150.0000 </r>
       <r>   -13.3135     0.0000   150.0000 </r>
       <r>   -13.1601     0.0000   150.0000 </r>
       <r>   -13.0068     0.0000   150.0000 </r>
       <r>   -12.8534     0.0000   150.0000 </r>
       <r>   -12.7000     0.0000   150.0000 </r>
       <r>   -12.5466     0.0000   150.0000 </r>
       <r>   -12.3932     0.0000   150.0000 </r>
       <r>   -12.2398     0.0000   150.0000 </r>
       <r>   -12.0865     0.0000   150.0000 </r>
       <r>   -11.9331     0.0000   150.0000 </r>
       <r>   -11.7797     0.0000   150.0000 </r>
       <r>   -11.6263     0.0000   150.0000 </r>
       <r>   -11.4729     0.0000   150.0000 </r>
       <r>   -11.3195     0.0000   150.0000 </r>
       <r>   -11.1661     0.0000   150.0000 </r>
       <r>   -11.0128     0.0000   150.0000 </r>
       <r>   -10.8594     0.0000   150.0000 </r>
       <r>   -10.7060     0.0000   150.0000 </r>
       <r>   -10.5526     0.0000   150.0000 </r>
       <r>   -10.3992     0.0000   150.0000 </r>
       <r>   -10.2458     0.0000   150.0000 </r>
       <r>   -10.0925     0.0000   150.0000 </r>
       <r>    -9.9391     0.0000   150.0000 </r>
       <r>    -9.7857     0.0000   150.0000 </r>
       <r>    -9.6323     0.0000   150.0000 </r>
       <r>    -9.4789     0.0000   150.0000 </r>
       <r>    -9.3255     0.0000   150.0000 </r>
       <r>    -9.1722     0.0000   150.0000 </r>
       <r>    -9.0188     0.0000   150.0000 </r>
       <r>    -8.8654     0.0000   150.0000 </r>
       <r>    -8.7120     0.0009   150.0001 </r>
       <r>    -8.5586     0.2378   150.0366 </r>
       <r>    -8.4052     3.0869   150.5101 </r>
       <r>    -8.2518     7.0840   151.5967 </r>
       <r>    -8.0985     7.6053   152.7632 </r>
       <r>    -7.9451     9.0818   154.1562 </r>
       <r>    -7.7917    13.4353   156.2170 </r>
       <r>    -7.6383    12.0388   158.0636 </r>
       <r>    -7.4849    17.7537   160.7867 </r>
       <r>    -7.3315    24.5856   164.5577 </r>
       <r>    -7.1782    30.6481   169.2587 </r>
       <r>    -7.0248    26.9170   173.3873 </r>
       <r>    -6.8714     4.8735   174.1349 </r>
       <r>    -6.7180     8.9238   175.5036 </r>
       <r>    -6.5646     3.2065   175.9955 </r>
       <r>    -6.4112     0.0296   176.0000 </r>
       <r>    -6.2578     0.0000   176.0000 </r>
       <r>    -6.1045     0.0000   176.0000 </r>
       <r>    -5.9511     0.0000   176.0000 </r>
       <r>    -5.7977     0.0000   176.0000 </r>
       <r>    -5.6443     0.0000   176.0000 </r>
       <r>    -5.4909     0.0000   176.0000 </r>
       <r>    -5.3375     0.0000   176.0000 </r>
       <r>    -5.1842     0.0038   176.0006 </r>
       <r>    -5.0308     0.4240   176.0656 </r>
       <r>    -4.8774     3.6552   176.6263 </r>
       <r>    -4.7240     6.4543   177.6163 </r>
       <r>    -4.5706     2.4861   177.9976 </r>
       <r>    -4.4172     2.9017   178.4427 </r>
       <r>    -4.2638    10.8984   180.1143 </r>
       <r>    -4.1105     8.9604   181.4887 </r>
       <r>    -3.9571     8.5334   182.7976 </r>
       <r>    -3.8037    13.9699   184.9404 </r>
       <r>    -3.6503    19.7282   187.9664 </r>
       <r>    -3.4969    24.4422   191.7155 </r>
       <r>    -3.3435    26.8460   195.8332 </r>
       <r>    -3.1902    27.2559   200.0138 </r>
       <r>    -3.0368    22.1732   203.4149 </r>
       <r>    -2.8834    24.4980   207.1725 </r>
       <r>    -2.7300    19.4842   210.1611 </r>
       <r>    -2.5766    15.2227   212.4960 </r>
       <r>    -2.4232     7.4893   213.6447 </r>
       <r>    -2.2698     2.2197   213.9852 </r>
       <r>    -2.1165     0.0963   214.0000 </r>
       <r>    -1.9631     0.0002   214.0000 </r>
       <r>    -1.8097     0.0000   214.0000 </r>
       <r>    -1.6563     0.0000   214.0000 </r>
       <r>    -1.5029     0.0000   214.0000 </r>
       <r>    -1.3495     0.0000   214.0000 </r>
       <r>    -1.1962     0.0000   214.0000 </r>
       <r>    -1.0428     0.0000   214.0000 </r>
       <r>    -0.8894     0.0000   214.0000 </r>
       <r>    -0.7360     0.0000   214.0000 </r>
       <r>    -0.5826     0.0000   214.0000 </r>
       <r>    -0.4292     0.0000   214.0000 </r>
       <r>    -0.2758     0.0000   214.0000 </r>
       <r>    -0.1225     0.0419   214.0064 </r>
       <r>     0.0309     0.8119   214.1310 </r>
       <r>     0.1843     1.3933   214.3447 </r>
       <r>     0.3377     5.9605   215.2589 </r>
       <r>     0.4911    11.2274   216.9810 </r>
       <r>     0.6445     8.7145   218.3177 </r>
       <r>     0.7978    15.0488   220.6260 </r>
       <r>     0.9512    14.1168   222.7913 </r>
       <r>     1.1046    19.4900   225.7807 </r>
       <r>     1.2580    25.2497   229.6536 </r>
       <r>     1.4114    29.5995   234.1937 </r>
       <r>     1.5648    28.8319   238.6161 </r>
       <r>     1.7181    27.5746   242.8456 </r>
       <r>     1.8715    28.3668   247.1966 </r>
       <r>     2.0249    35.8203   252.6909 </r>
       <r>     2.1783    36.2847   258.2564 </r>
       <r>     2.3317    38.3714   264.1420 </r>
       <r>     2.4851    38.1008   269.9861 </r>
       <r>     2.6385    44.4366   276.8020 </r>
       <r>     2.7918    52.2481   284.8160 </r>
       <r>     2.9452    56.3121   293.4534 </r>
       <r>     3.0986    57.8776   302.3309 </r>
       <r>     3.2520    56.1351   310.9412 </r>
       <r>     3.4054    58.8506   319.9680 </r>
       <r>     3.5588    63.8644   329.7638 </r>
       <r>     3.7121    62.4542   339.3433 </r>
       <r>     3.8655    57.1132   348.1036 </r>
       <r>     4.0189    54.2564   356.4256 </r>
       <r>     4.1723    47.8498   363.7651 </r>
       <r>     4.3257    43.2024   370.3916 </r>
       <r>     4.4791    40.3369   376.5787 </r>
       <r>     4.6325    34.2917   381.8385 </r>
       <r>     4.7858    30.7199   386.5505 </r>
       <r>     4.9392    32.4774   391.5320 </r>
       <r>     5.0926    24.9316   395.3561 </r>
       <r>     5.2460    19.7075   398.3789 </r>
       <r>     5.3994    16.6223   400.9285 </r>
       <r>     5.5528    15.5913   403.3200 </r>
       <r>     5.7061    11.8350   405.1353 </r>
       <r>     5.8595     3.7020   405.7031 </r>
       <r>     6.0129     4.7180   406.4268 </r>
       <r>     6.1663    12.2758   408.3097 </r>
       <r>     6.3197    14.8618   410.5893 </r>
       <r>     6.4731    17.4595   413.2673 </r>
       <r>     6.6265    16.6292   415.8180 </r>
       <r>     6.7798    17.9365   418.5691 </r>
       <r>     6.9332    17.5663   421.2635 </r>
       <r>     7.0866    16.9032   423.8562 </r>
       <r>     7.2400    16.1078   426.3269 </r>
       <r>     7.3934    20.2299   429.4299 </r>
       <r>     7.5468    26.1536   433.4414 </r>
       <r>     7.7001    25.0717   437.2870 </r>
       <r>     7.8535    24.7769   441.0874 </r>
       <r>     8.0069    27.1102   445.2457 </r>
       <r>     8.1603    32.0525   450.1621 </r>
       <r>     8.3137    34.9187   455.5181 </r>
       <r>     8.4671    39.7227   461.6109 </r>
       <r>     8.6205    46.4902   468.7418 </r>
       <r>     8.7738    49.6827   476.3624 </r>
       <r>     8.9272    51.4747   484.2578 </r>
       <r>     9.0806    53.2293   492.4223 </r>
       <r>     9.2340    54.9901   500.8570 </r>
       <r>     9.3874    54.3231   509.1893 </r>
       <r>     9.5408    55.8178   517.7509 </r>
       <r>     9.6941    53.9061   526.0192 </r>
       <r>     9.8475    52.1613   534.0199 </r>
       <r>    10.0009    51.8188   541.9681 </r>
       <r>    10.1543    49.4474   549.5526 </r>
       <r>    10.3077    40.2107   555.7203 </r>
       <r>    10.4611    21.4548   559.0111 </r>
       <r>    10.6145     6.1709   559.9577 </r>
       <r>    10.7678     0.2757   559.9999 </r>
       <r>    10.9212     0.0004   560.0000 </r>
       <r>    11.0746     0.0000   560.0000 </r>
       <r>    11.2280     0.0000   560.0000 </r>
       <r>    11.3814     0.0000   560.0000 </r>
       <r>    11.5348     0.0000   560.0000 </r>
       <r>    11.6881     0.0000   560.0000 </r>
       <r>    11.8415     0.0000   560.0000 </r>
       <r>    11.9949     0.0000   560.0000 </r>
       <r>    12.1483     0.0000   560.0000 </r>
       <r>    12.3017     0.0000   560.0000 </r>
       <r>    12.4551     0.0000   560.0000 </r>
       <r>    12.6084     0.0000   560.0000 </r>
      </set>
     </set>
    </array>
   </total>
  </dos>
 </calculation>
 <structure name="finalpos" >
  <crystal>
   <varray name="basis" >
    <v>       8.86112209       0.00253166      -0.00748053 </v>
    <v>       0.00832162       8.87930374      -0.00793653 </v>
    <v>       0.02437658      -0.02312511       8.86584955 </v>
   </varray>
   <i name="volume">    697.57012081 </i>
   <varray name="rec_basis" >
    <v>       0.11285229      -0.00010604      -0.00031056 </v>
    <v>      -0.00003193       0.11262174       0.00029384 </v>
    <v>       0.00009519       0.00010073       0.11279235 </v>
   </varray>
  </crystal>
  <varray name="positions" >
   <v>       0.99698251       0.00487848       0.99526637 </v>
   <v>       0.25173792       0.00567401       0.24937905 </v>
   <v>       0.24747296       0.49425373       0.24924830 </v>
   <v>       0.49807295       0.49992119       0.99987987 </v>
   <v>       0.50213778       0.24618154       0.74609229 </v>
   <v>       0.00198688       0.49915987       0.49972117 </v>
   <v>       0.49526516       0.75220210       0.75449986 </v>
   <v>       0.98383432       0.22969242       0.26572942 </v>
   <v>       0.77127162       0.73920517       0.98974325 </v>
   <v>       0.00826313       0.26779996       0.74364806 </v>
   <v>       0.76469150       0.25563461       0.48161157 </v>
   <v>       0.00375345       0.72328277       0.75449768 </v>
   <v>       0.24799901       0.49230602       0.74942782 </v>
   <v>       0.24548015       0.25313510       0.99258019 </v>
   <v>       0.51480488       0.25127904       0.25229485 </v>
   <v>       0.74916352       0.99910423       0.24292850 </v>
   <v>       0.75562983       0.25778344       0.00845556 </v>
   <v>       0.23631206       0.74454882       0.99515811 </v>
   <v>       0.24180002       0.25085978       0.50460215 </v>
   <v>       0.24518218       0.75020517       0.50413805 </v>
   <v>       0.24174313       0.24947437       0.24957276 </v>
   <v>       0.25313709       0.00200387       0.99586264 </v>
   <v>       0.00125069       0.25282426       0.00200733 </v>
   <v>       0.75308501       0.24850009       0.24982587 </v>
   <v>       0.74932932       0.99992649       0.00799219 </v>
   <v>       0.50820769       0.00764550       0.25209777 </v>
   <v>       0.99295742       0.49728813       0.24574521 </v>
   <v>       0.49732109       0.75498459       0.00302657 </v>
   <v>       0.99767519       0.01055397       0.74536342 </v>
   <v>       0.76155114       0.25000219       0.75251956 </v>
   <v>       0.74983440       0.00419429       0.49983095 </v>
   <v>       0.50271806       0.25059109       0.49258316 </v>
   <v>       0.49927460       0.99945548       0.75052091 </v>
   <v>       0.99165135       0.00345581       0.25501339 </v>
   <v>       0.50187508       0.24580917       0.00604362 </v>
   <v>       0.24640181       0.75030310       0.24696007 </v>
   <v>       0.24528475       0.49813533       0.99114053 </v>
   <v>       0.99951344       0.74653602       0.99546561 </v>
   <v>       0.75154882       0.75205318       0.24645378 </v>
   <v>       0.75479658       0.50169236       0.00041579 </v>
   <v>       0.50522030       0.49526952       0.25497120 </v>
   <v>       0.24127739       0.25418659       0.74902902 </v>
   <v>       0.24558457       0.00159048       0.50174006 </v>
   <v>       0.99720474       0.24705152       0.50289258 </v>
   <v>       0.23653397       0.74707412       0.75074136 </v>
   <v>       0.25479591       0.49756693       0.50713237 </v>
   <v>       0.00038966       0.75598484       0.50556743 </v>
   <v>       0.00398873       0.49764110       0.75115925 </v>
   <v>       0.76082445       0.74862832       0.75457662 </v>
   <v>       0.74633254       0.49480056       0.49860974 </v>
   <v>       0.49865893       0.74801813       0.49869708 </v>
   <v>       0.50022489       0.49820801       0.74466615 </v>
   <v>       0.50843913       0.00747439       0.00554637 </v>
   <v>       0.00180060       0.49699094       0.99443529 </v>
   <v>       0.49813506       0.75078614       0.24990675 </v>
   <v>       0.24890212       0.00442965       0.74531069 </v>
   <v>       0.48918583       0.99341181       0.49521506 </v>
   <v>       0.74801255       0.99591164       0.76129271 </v>
   <v>       0.00016919       0.76195223       0.24963740 </v>
   <v>       0.74920999       0.50436562       0.25018321 </v>
   <v>       0.00174897       0.00406223       0.50386035 </v>
   <v>       0.49684212       0.50266967       0.50037672 </v>
   <v>       0.75162526       0.49832389       0.74999642 </v>
   <v>       0.75389497       0.75106472       0.50711305 </v>
  </varray>
 </structure>
</modeling>
