  64  64   0   0
  0.2218804E+02  0.1124000E-08  0.1124000E-08  0.1124000E-08  0.5000000E-15
  1.000000000000000E-004
  CAR 
 HECN                                    
     14.59014901    -59.92363498  301      8.34778590      1.00000000
    -59.924  0.0000E+00  0.0000E+00
    -59.675  0.0000E+00  0.0000E+00
    -59.427  0.0000E+00  0.0000E+00
    -59.178  0.0000E+00  0.0000E+00
    -58.930  0.0000E+00  0.0000E+00
    -58.682  0.0000E+00  0.0000E+00
    -58.433  0.0000E+00  0.0000E+00
    -58.185  0.0000E+00  0.0000E+00
    -57.937  0.0000E+00  0.0000E+00
    -57.688  0.0000E+00  0.0000E+00
    -57.440  0.0000E+00  0.0000E+00
    -57.191  0.0000E+00  0.0000E+00
    -56.943  0.4011E-09  0.9962E-10
    -56.695  0.1471E-02  0.3655E-03
    -56.446  0.2731E+00  0.6820E-01
    -56.198  0.2081E+00  0.1199E+00
    -55.950  0.4457E-03  0.1200E+00
    -55.701  0.3350E-10  0.1200E+00
    -55.453  0.0000E+00  0.1200E+00
    -55.204  0.0000E+00  0.1200E+00
    -54.956  0.0000E+00  0.1200E+00
    -54.708  0.0000E+00  0.1200E+00
    -54.459  0.0000E+00  0.1200E+00
    -54.211  0.0000E+00  0.1200E+00
    -53.963  0.0000E+00  0.1200E+00
    -53.714  0.0000E+00  0.1200E+00
    -53.466  0.0000E+00  0.1200E+00
    -53.217  0.0000E+00  0.1200E+00
    -52.969  0.0000E+00  0.1200E+00
    -52.721  0.0000E+00  0.1200E+00
    -52.472  0.0000E+00  0.1200E+00
    -52.224  0.0000E+00  0.1200E+00
    -51.975  0.0000E+00  0.1200E+00
    -51.727  0.0000E+00  0.1200E+00
    -51.479  0.0000E+00  0.1200E+00
    -51.230  0.0000E+00  0.1200E+00
    -50.982  0.0000E+00  0.1200E+00
    -50.734  0.0000E+00  0.1200E+00
    -50.485  0.0000E+00  0.1200E+00
    -50.237  0.0000E+00  0.1200E+00
    -49.988  0.0000E+00  0.1200E+00
    -49.740  0.0000E+00  0.1200E+00
    -49.492  0.0000E+00  0.1200E+00
    -49.243  0.0000E+00  0.1200E+00
    -48.995  0.0000E+00  0.1200E+00
    -48.747  0.0000E+00  0.1200E+00
    -48.498  0.0000E+00  0.1200E+00
    -48.250  0.3836E-14  0.1200E+00
    -48.001  0.3361E-05  0.1200E+00
    -47.753  0.3332E-01  0.1283E+00
    -47.505  0.2750E+00  0.1966E+00
    -47.256  0.1575E+00  0.2357E+00
    -47.008  0.1724E-01  0.2400E+00
    -46.760  0.2373E-06  0.2400E+00
    -46.511  0.0000E+00  0.2400E+00
    -46.263  0.0000E+00  0.2400E+00
    -46.014  0.0000E+00  0.2400E+00
    -45.766  0.0000E+00  0.2400E+00
    -45.518  0.0000E+00  0.2400E+00
    -45.269  0.0000E+00  0.2400E+00
    -45.021  0.0000E+00  0.2400E+00
    -44.772  0.0000E+00  0.2400E+00
    -44.524  0.0000E+00  0.2400E+00
    -44.276  0.0000E+00  0.2400E+00
    -44.027  0.0000E+00  0.2400E+00
    -43.779  0.0000E+00  0.2400E+00
    -43.531  0.0000E+00  0.2400E+00
    -43.282  0.0000E+00  0.2400E+00
    -43.034  0.0000E+00  0.2400E+00
    -42.785  0.0000E+00  0.2400E+00
    -42.537  0.0000E+00  0.2400E+00
    -42.289  0.0000E+00  0.2400E+00
    -42.040  0.0000E+00  0.2400E+00
    -41.792  0.0000E+00  0.2400E+00
    -41.544  0.0000E+00  0.2400E+00
    -41.295  0.1179E-09  0.2400E+00
    -41.047  0.6197E-03  0.2402E+00
    -40.798  0.6883E-01  0.2573E+00
    -40.550  0.6056E-01  0.2723E+00
    -40.302  0.2919E+00  0.3448E+00
    -40.053  0.1415E+00  0.3799E+00
    -39.805  0.2145E-03  0.3800E+00
    -39.557  0.8271E-11  0.3800E+00
    -39.308  0.0000E+00  0.3800E+00
    -39.060  0.0000E+00  0.3800E+00
    -38.811  0.0000E+00  0.3800E+00
    -38.563  0.0000E+00  0.3800E+00
    -38.315  0.0000E+00  0.3800E+00
    -38.066  0.0000E+00  0.3800E+00
    -37.818  0.0000E+00  0.3800E+00
    -37.569  0.0000E+00  0.3800E+00
    -37.321  0.0000E+00  0.3800E+00
    -37.073  0.0000E+00  0.3800E+00
    -36.824  0.0000E+00  0.3800E+00
    -36.576  0.0000E+00  0.3800E+00
    -36.328  0.0000E+00  0.3800E+00
    -36.079  0.0000E+00  0.3800E+00
    -35.831  0.0000E+00  0.3800E+00
    -35.582  0.0000E+00  0.3800E+00
    -35.334  0.0000E+00  0.3800E+00
    -35.086  0.0000E+00  0.3800E+00
    -34.837  0.0000E+00  0.3800E+00
    -34.589  0.0000E+00  0.3800E+00
    -34.341  0.0000E+00  0.3800E+00
    -34.092  0.0000E+00  0.3800E+00
    -33.844  0.0000E+00  0.3800E+00
    -33.595  0.0000E+00  0.3800E+00
    -33.347  0.0000E+00  0.3800E+00
    -33.099  0.0000E+00  0.3800E+00
    -32.850  0.0000E+00  0.3800E+00
    -32.602  0.0000E+00  0.3800E+00
    -32.354  0.0000E+00  0.3800E+00
    -32.105  0.0000E+00  0.3800E+00
    -31.857  0.0000E+00  0.3800E+00
    -31.608  0.0000E+00  0.3800E+00
    -31.360  0.0000E+00  0.3800E+00
    -31.112  0.2253E-15  0.3800E+00
    -30.863  0.8475E-06  0.3800E+00
    -30.615  0.3829E-01  0.3895E+00
    -30.367  0.8579E+00  0.6026E+00
    -30.118  0.5505E+00  0.7393E+00
    -29.870  0.2724E-02  0.7400E+00
    -29.621  0.6858E-09  0.7400E+00
    -29.373  0.0000E+00  0.7400E+00
    -29.125  0.0000E+00  0.7400E+00
    -28.876  0.0000E+00  0.7400E+00
    -28.628  0.0000E+00  0.7400E+00
    -28.379  0.0000E+00  0.7400E+00
    -28.131  0.0000E+00  0.7400E+00
    -27.883  0.5265E-16  0.7400E+00
    -27.634  0.3017E-06  0.7400E+00
    -27.386  0.1821E-01  0.7445E+00
    -27.138  0.2397E+00  0.8041E+00
    -26.889  0.5286E+00  0.9353E+00
    -26.641  0.4914E+00  0.1057E+01
    -26.392  0.1712E+00  0.1100E+01
    -26.144  0.3942E-03  0.1100E+01
    -25.896  0.1908E-10  0.1100E+01
    -25.647  0.0000E+00  0.1100E+01
    -25.399  0.0000E+00  0.1100E+01
    -25.151  0.0000E+00  0.1100E+01
    -24.902  0.0000E+00  0.1100E+01
    -24.654  0.0000E+00  0.1100E+01
    -24.405  0.9405E-09  0.1100E+01
    -24.157  0.1876E-02  0.1100E+01
    -23.909  0.2272E+00  0.1157E+01
    -23.660  0.5628E+00  0.1297E+01
    -23.412  0.5576E+00  0.1435E+01
    -23.164  0.9994E-01  0.1460E+01
    -22.915  0.3244E-01  0.1468E+01
    -22.667  0.3523E+00  0.1556E+01
    -22.418  0.4361E+00  0.1664E+01
    -22.170  0.4776E+00  0.1783E+01
    -21.922  0.1742E+00  0.1826E+01
    -21.673  0.2146E+00  0.1879E+01
    -21.425  0.3763E-02  0.1880E+01
    -21.176  0.2199E-08  0.1880E+01
    -20.928  0.0000E+00  0.1880E+01
    -20.680  0.0000E+00  0.1880E+01
    -20.431  0.0000E+00  0.1880E+01
    -20.183  0.0000E+00  0.1880E+01
    -19.935  0.0000E+00  0.1880E+01
    -19.686  0.3841E-11  0.1880E+01
    -19.438  0.1303E-03  0.1880E+01
    -19.189  0.1105E+00  0.1907E+01
    -18.941  0.2079E+00  0.1959E+01
    -18.693  0.6308E+00  0.2116E+01
    -18.444  0.6206E+00  0.2270E+01
    -18.196  0.1199E+00  0.2300E+01
    -17.948  0.1163E-02  0.2300E+01
    -17.699  0.4845E-09  0.2300E+01
    -17.451  0.0000E+00  0.2300E+01
    -17.202  0.0000E+00  0.2300E+01
    -16.954  0.0000E+00  0.2300E+01
    -16.706  0.0000E+00  0.2300E+01
    -16.457  0.0000E+00  0.2300E+01
    -16.209  0.0000E+00  0.2300E+01
    -15.961  0.0000E+00  0.2300E+01
    -15.712  0.0000E+00  0.2300E+01
    -15.464  0.0000E+00  0.2300E+01
    -15.215  0.0000E+00  0.2300E+01
    -14.967  0.0000E+00  0.2300E+01
    -14.719  0.0000E+00  0.2300E+01
    -14.470  0.0000E+00  0.2300E+01
    -14.222  0.0000E+00  0.2300E+01
    -13.973  0.0000E+00  0.2300E+01
    -13.725  0.0000E+00  0.2300E+01
    -13.477  0.0000E+00  0.2300E+01
    -13.228  0.0000E+00  0.2300E+01
    -12.980  0.0000E+00  0.2300E+01
    -12.732  0.0000E+00  0.2300E+01
    -12.483  0.0000E+00  0.2300E+01
    -12.235  0.0000E+00  0.2300E+01
    -11.986  0.0000E+00  0.2300E+01
    -11.738  0.0000E+00  0.2300E+01
    -11.490  0.0000E+00  0.2300E+01
    -11.241  0.0000E+00  0.2300E+01
    -10.993  0.0000E+00  0.2300E+01
    -10.745  0.0000E+00  0.2300E+01
    -10.496  0.0000E+00  0.2300E+01
    -10.248  0.0000E+00  0.2300E+01
     -9.999  0.0000E+00  0.2300E+01
     -9.751  0.0000E+00  0.2300E+01
     -9.503  0.0000E+00  0.2300E+01
     -9.254  0.0000E+00  0.2300E+01
     -9.006  0.0000E+00  0.2300E+01
     -8.758  0.0000E+00  0.2300E+01
     -8.509  0.0000E+00  0.2300E+01
     -8.261  0.4322E-12  0.2300E+01
     -8.012  0.1085E-04  0.2300E+01
     -7.764  0.9316E-02  0.2302E+01
     -7.516  0.5956E-01  0.2317E+01
     -7.267  0.1003E+00  0.2342E+01
     -7.019  0.1474E+00  0.2379E+01
     -6.770  0.2153E+00  0.2432E+01
     -6.522  0.3015E+00  0.2507E+01
     -6.274  0.8057E-01  0.2527E+01
     -6.025  0.1246E+00  0.2558E+01
     -5.777  0.8263E-02  0.2560E+01
     -5.529  0.7301E-07  0.2560E+01
     -5.280  0.0000E+00  0.2560E+01
     -5.032  0.0000E+00  0.2560E+01
     -4.783  0.0000E+00  0.2560E+01
     -4.535  0.5241E-10  0.2560E+01
     -4.287  0.1150E-03  0.2560E+01
     -4.038  0.2317E-01  0.2566E+01
     -3.790  0.5606E-01  0.2580E+01
     -3.542  0.5086E-01  0.2592E+01
     -3.293  0.1087E+00  0.2619E+01
     -3.045  0.1250E+00  0.2650E+01
     -2.796  0.2025E+00  0.2701E+01
     -2.548  0.3162E+00  0.2779E+01
     -2.300  0.2745E+00  0.2847E+01
     -2.051  0.2031E+00  0.2898E+01
     -1.803  0.1141E+00  0.2926E+01
     -1.555  0.5248E-01  0.2939E+01
     -1.306  0.2944E-02  0.2940E+01
     -1.058  0.1608E-05  0.2940E+01
     -0.809  0.1686E-13  0.2940E+01
     -0.561  0.0000E+00  0.2940E+01
     -0.313  0.0000E+00  0.2940E+01
     -0.064  0.4392E-14  0.2940E+01
      0.184  0.7829E-06  0.2940E+01
      0.433  0.1652E-02  0.2940E+01
      0.681  0.8419E-02  0.2943E+01
      0.929  0.4785E-01  0.2954E+01
      1.178  0.9678E-01  0.2978E+01
      1.426  0.1298E+00  0.3011E+01
      1.674  0.1624E+00  0.3051E+01
      1.923  0.2515E+00  0.3113E+01
      2.171  0.2807E+00  0.3183E+01
      2.420  0.2735E+00  0.3251E+01
      2.668  0.3306E+00  0.3333E+01
      2.916  0.3537E+00  0.3421E+01
      3.165  0.3942E+00  0.3519E+01
      3.413  0.4865E+00  0.3640E+01
      3.661  0.5172E+00  0.3768E+01
      3.910  0.5471E+00  0.3904E+01
      4.158  0.5793E+00  0.4048E+01
      4.407  0.6002E+00  0.4197E+01
      4.655  0.6190E+00  0.4351E+01
      4.903  0.5385E+00  0.4485E+01
      5.152  0.4145E+00  0.4588E+01
      5.400  0.3339E+00  0.4671E+01
      5.648  0.3103E+00  0.4748E+01
      5.897  0.1604E+00  0.4787E+01
      6.145  0.1918E+00  0.4835E+01
      6.394  0.8691E-01  0.4857E+01
      6.642  0.6251E-01  0.4872E+01
      6.890  0.1526E+00  0.4910E+01
      7.139  0.1625E+00  0.4950E+01
      7.387  0.1338E+00  0.4984E+01
      7.636  0.1636E+00  0.5024E+01
      7.884  0.1801E+00  0.5069E+01
      8.132  0.2079E+00  0.5121E+01
      8.381  0.2302E+00  0.5178E+01
      8.629  0.2468E+00  0.5239E+01
      8.877  0.2789E+00  0.5308E+01
      9.126  0.3302E+00  0.5390E+01
      9.374  0.4252E+00  0.5496E+01
      9.623  0.4429E+00  0.5606E+01
      9.871  0.3983E+00  0.5705E+01
     10.119  0.4224E+00  0.5810E+01
     10.368  0.4227E+00  0.5915E+01
     10.616  0.4345E+00  0.6023E+01
     10.864  0.4371E+00  0.6131E+01
     11.113  0.3582E+00  0.6220E+01
     11.361  0.7865E-01  0.6240E+01
     11.610  0.2492E-03  0.6240E+01
     11.858  0.4658E-10  0.6240E+01
     12.106  0.0000E+00  0.6240E+01
     12.355  0.0000E+00  0.6240E+01
     12.603  0.0000E+00  0.6240E+01
     12.851  0.0000E+00  0.6240E+01
     13.100  0.0000E+00  0.6240E+01
     13.348  0.0000E+00  0.6240E+01
     13.597  0.0000E+00  0.6240E+01
     13.845  0.0000E+00  0.6240E+01
     14.093  0.0000E+00  0.6240E+01
     14.342  0.0000E+00  0.6240E+01
     14.590  0.0000E+00  0.6240E+01
