       N       E                     dE             d eps       ncg     rms          rms(c)
DAV:   1     0.418701967291E+04    0.41870E+04   -0.23422E+05  9144   0.130E+03
DAV:   2    -0.490607535094E+02   -0.42361E+04   -0.41172E+04 10584   0.507E+02
DAV:   3    -0.599092576060E+03   -0.55003E+03   -0.53853E+03 14088   0.142E+02
DAV:   4    -0.644815079037E+03   -0.45723E+02   -0.44497E+02 13632   0.419E+01
DAV:   5    -0.652664707365E+03   -0.78496E+01   -0.76736E+01 17112   0.149E+01    0.708E+01
RMM:   6    -0.806456536158E+03   -0.15379E+03   -0.32713E+03 11706   0.760E+01    0.122E+02
RMM:   7    -0.521654433557E+03    0.28480E+03   -0.38365E+02 13507   0.311E+01    0.446E+01
RMM:   8    -0.494872115760E+03    0.26782E+02   -0.66554E+01 12438   0.141E+01    0.287E+01
RMM:   9    -0.494861254406E+03    0.10861E-01   -0.32869E+01 12881   0.724E+00    0.300E+01
RMM:  10    -0.493681051087E+03    0.11802E+01   -0.14823E+01 13044   0.440E+00    0.209E+01
RMM:  11    -0.497378740668E+03   -0.36977E+01   -0.18883E+01 12544   0.619E+00    0.375E+01
RMM:  12    -0.493570163809E+03    0.38086E+01   -0.10333E+01 12825   0.527E+00    0.351E+01
RMM:  13    -0.492468990038E+03    0.11012E+01   -0.49447E+00 13084   0.304E+00    0.270E+01
RMM:  14    -0.489948881150E+03    0.25201E+01   -0.23708E+00 12598   0.236E+00    0.124E+01
RMM:  15    -0.490053827433E+03   -0.10495E+00   -0.13807E+00 12861   0.143E+00    0.130E+01
RMM:  16    -0.489747277572E+03    0.30655E+00   -0.15018E+00 12658   0.127E+00    0.677E+00
RMM:  17    -0.489941432438E+03   -0.19415E+00   -0.97601E-01 12878   0.117E+00    0.124E+01
RMM:  18    -0.489612563325E+03    0.32887E+00   -0.67682E-01 13075   0.834E-01    0.345E+00
RMM:  19    -0.489660751711E+03   -0.48188E-01   -0.66280E-01 13031   0.749E-01    0.241E+00
RMM:  20    -0.489686353982E+03   -0.25602E-01   -0.37411E-01 13186   0.660E-01    0.219E+00
RMM:  21    -0.489677742345E+03    0.86116E-02   -0.28109E-01 13067   0.467E-01    0.143E+00
RMM:  22    -0.489681779366E+03   -0.40370E-02   -0.16688E-01 13319   0.357E-01    0.120E+00
RMM:  23    -0.489687510525E+03   -0.57312E-02   -0.14086E-01 12960   0.300E-01    0.491E-01
RMM:  24    -0.489695644498E+03   -0.81340E-02   -0.92525E-02 12837   0.229E-01    0.329E-01
RMM:  25    -0.489701715470E+03   -0.60710E-02   -0.73717E-02 12735   0.148E-01    0.249E-01
RMM:  26    -0.489706438279E+03   -0.47228E-02   -0.55634E-02 12559   0.104E-01    0.240E-01
RMM:  27    -0.489710693978E+03   -0.42557E-02   -0.46722E-02 12358   0.951E-02    0.157E-01
RMM:  28    -0.489714213696E+03   -0.35197E-02   -0.36603E-02 11877   0.766E-02    0.126E-01
RMM:  29    -0.489717299498E+03   -0.30858E-02   -0.31489E-02 11050   0.663E-02    0.826E-02
RMM:  30    -0.489719678327E+03   -0.23788E-02   -0.24421E-02 10555   0.505E-02    0.789E-02
RMM:  31    -0.489721697580E+03   -0.20193E-02   -0.20801E-02 10476   0.447E-02    0.323E-02
RMM:  32    -0.489723351308E+03   -0.16537E-02   -0.16704E-02 10426   0.409E-02    0.478E-02
RMM:  33    -0.489724764137E+03   -0.14128E-02   -0.14309E-02  9823   0.376E-02    0.214E-02
RMM:  34    -0.489725899365E+03   -0.11352E-02   -0.11490E-02  9334   0.312E-02    0.880E-03
RMM:  35    -0.489726881330E+03   -0.98196E-03   -0.99018E-03  8213   0.272E-02    0.116E-02
RMM:  36    -0.489727679477E+03   -0.79815E-03   -0.80589E-03  8064   0.246E-02    0.120E-02
RMM:  37    -0.489728364363E+03   -0.68489E-03   -0.69058E-03  8150   0.236E-02    0.436E-03
RMM:  38    -0.489728932065E+03   -0.56770E-03   -0.57158E-03  6496   0.203E-02    0.152E-02
RMM:  39    -0.489729411415E+03   -0.47935E-03   -0.48487E-03  6622   0.196E-02    0.135E-02
RMM:  40    -0.489729810545E+03   -0.39913E-03   -0.40350E-03  6408   0.194E-02    0.135E-02
RMM:  41    -0.489730151242E+03   -0.34070E-03   -0.34457E-03  6035   0.177E-02    0.135E-02
RMM:  42    -0.489730437000E+03   -0.28576E-03   -0.28796E-03  5653   0.174E-02    0.190E-02
RMM:  43    -0.489730682469E+03   -0.24547E-03   -0.24598E-03  5190   0.148E-02    0.284E-02
RMM:  44    -0.489730883095E+03   -0.20063E-03   -0.20570E-03  5382   0.145E-02    0.223E-02
RMM:  45    -0.489731059870E+03   -0.17677E-03   -0.17625E-03  5192   0.137E-02    0.312E-02
RMM:  46    -0.489731207057E+03   -0.14719E-03   -0.14810E-03  4817   0.117E-02    0.350E-02
RMM:  47    -0.489731332748E+03   -0.12569E-03   -0.12747E-03  4771   0.112E-02    0.362E-02
RMM:  48    -0.489731437267E+03   -0.10452E-03   -0.10709E-03  4716   0.102E-02    0.356E-02
RMM:  49    -0.489731525850E+03   -0.88583E-04   -0.90899E-04  4710   0.997E-03    0.355E-02
RMM:  50    -0.489731601820E+03   -0.75970E-04   -0.77539E-04  4702   0.905E-03    0.359E-02
RMM:  51    -0.489731667374E+03   -0.65554E-04   -0.66213E-04  4461   0.872E-03    0.376E-02
RMM:  52    -0.489731719976E+03   -0.52602E-04   -0.55898E-04  4884   0.782E-03    0.346E-02
RMM:  53    -0.489731763461E+03   -0.43486E-04   -0.47089E-04  5247   0.821E-03    0.302E-02
RMM:  54    -0.489731801210E+03   -0.37749E-04   -0.41008E-04  5418   0.821E-03    0.249E-02
RMM:  55    -0.489731832696E+03   -0.31485E-04   -0.33980E-04  5466   0.879E-03    0.201E-02
RMM:  56    -0.489731861601E+03   -0.28905E-04   -0.29916E-04  5188   0.829E-03    0.183E-02
RMM:  57    -0.489731886021E+03   -0.24420E-04   -0.24843E-04  4644   0.779E-03    0.186E-02
RMM:  58    -0.489731906580E+03   -0.20559E-04   -0.21530E-04  4618   0.700E-03    0.170E-02
RMM:  59    -0.489731924431E+03   -0.17851E-04   -0.18000E-04  4353   0.715E-03    0.178E-02
RMM:  60    -0.489731940316E+03   -0.15886E-04   -0.16092E-04  3938   0.589E-03
   1 F= -.48973194E+03 E0= -.48949712E+03  d E =-.489732E+03
       N       E                     dE             d eps       ncg     rms          rms(c)
DAV:   1    -0.391580709716E+04   -0.34261E+04   -0.99756E+04 10008   0.109E+03    0.363E+02
RMM:   2    -0.129037449668E+04    0.26254E+04   -0.61625E+03 13163   0.254E+02    0.176E+02
RMM:   3    -0.560424878429E+03    0.72995E+03   -0.27634E+03 11519   0.179E+02    0.489E+01
RMM:   4    -0.662644439463E+03   -0.10222E+03   -0.65044E+02 11887   0.675E+01    0.550E+01
RMM:   5    -0.559704381833E+03    0.10294E+03   -0.19154E+02 12574   0.376E+01    0.236E+01
RMM:   6    -0.564716992226E+03   -0.50126E+01   -0.66431E+01 14384   0.193E+01    0.225E+01
RMM:   7    -0.578890449016E+03   -0.14173E+02   -0.12980E+02 14682   0.227E+01    0.369E+01
RMM:   8    -0.565801417141E+03    0.13089E+02   -0.36748E+01 13695   0.158E+01    0.149E+01
RMM:   9    -0.569638116576E+03   -0.38367E+01   -0.18047E+01 15105   0.885E+00    0.172E+01
RMM:  10    -0.568634087417E+03    0.10040E+01   -0.69374E+00 15295   0.589E+00    0.139E+01
RMM:  11    -0.568986135201E+03   -0.35205E+00   -0.49311E+00 15039   0.439E+00    0.113E+01
RMM:  12    -0.569613794027E+03   -0.62766E+00   -0.40642E+00 15209   0.377E+00    0.102E+01
RMM:  13    -0.568682891651E+03    0.93090E+00   -0.38556E+00 14943   0.461E+00    0.303E+00
RMM:  14    -0.568808014549E+03   -0.12512E+00   -0.23532E+00 14791   0.297E+00    0.243E+00
RMM:  15    -0.568831725639E+03   -0.23711E-01   -0.93764E-01 15522   0.210E+00    0.186E+00
RMM:  16    -0.568857921240E+03   -0.26196E-01   -0.56311E-01 15588   0.119E+00    0.106E+00
RMM:  17    -0.568872909746E+03   -0.14989E-01   -0.26410E-01 15193   0.105E+00    0.742E-01
RMM:  18    -0.568882401933E+03   -0.94922E-02   -0.15429E-01 15363   0.689E-01    0.541E-01
RMM:  19    -0.568891756048E+03   -0.93541E-02   -0.78883E-02 15398   0.582E-01    0.664E-01
RMM:  20    -0.568890696580E+03    0.10595E-02   -0.46294E-02 15055   0.422E-01    0.219E-01
RMM:  21    -0.568892689131E+03   -0.19926E-02   -0.22643E-02 15370   0.308E-01    0.183E-01
RMM:  22    -0.568893633781E+03   -0.94465E-03   -0.14637E-02 15101   0.228E-01    0.789E-02
RMM:  23    -0.568894329597E+03   -0.69582E-03   -0.77641E-03 15385   0.184E-01    0.540E-02
RMM:  24    -0.568894772769E+03   -0.44317E-03   -0.47886E-03 15249   0.129E-01    0.297E-02
RMM:  25    -0.568895015350E+03   -0.24258E-03   -0.26671E-03 14792   0.105E-01    0.291E-02
RMM:  26    -0.568895176766E+03   -0.16142E-03   -0.16720E-03 14742   0.789E-02    0.194E-02
RMM:  27    -0.568895265240E+03   -0.88474E-04   -0.95245E-04 13855   0.646E-02    0.919E-03
RMM:  28    -0.568895330004E+03   -0.64764E-04   -0.64922E-04 13756   0.497E-02    0.927E-03
RMM:  29    -0.568895364776E+03   -0.34772E-04   -0.36738E-04 12265   0.422E-02    0.110E-02
RMM:  30    -0.568895390889E+03   -0.26114E-04   -0.26058E-04 11667   0.331E-02    0.259E-03
RMM:  31    -0.568895405217E+03   -0.14328E-04   -0.14247E-04 10053   0.299E-02    0.320E-03
RMM:  32    -0.568895415334E+03   -0.10117E-04   -0.10700E-04  8993   0.241E-02    0.482E-03
RMM:  33    -0.568895421657E+03   -0.63234E-05   -0.61074E-05  7657   0.236E-02
   2 F= -.56889542E+03 E0= -.56882660E+03  d E =-.791635E+02
       N       E                     dE             d eps       ncg     rms          rms(c)
DAV:   1    -0.122343088702E+04   -0.65454E+03   -0.12926E+04 10656   0.391E+02    0.204E+02
RMM:   2    -0.138225045944E+04   -0.15882E+03   -0.25765E+03 10849   0.131E+02    0.108E+02
RMM:   3    -0.862635890231E+03    0.51961E+03   -0.83322E+02 13348   0.632E+01    0.696E+01
RMM:   4    -0.681999837688E+03    0.18064E+03   -0.33040E+02 12033   0.423E+01    0.316E+01
RMM:   5    -0.693391271455E+03   -0.11391E+02   -0.31060E+02 12711   0.351E+01    0.514E+01
RMM:   6    -0.693869248613E+03   -0.47798E+00   -0.98847E+01 11839   0.184E+01    0.386E+01
RMM:   7    -0.662172967696E+03    0.31696E+02   -0.21442E+01 12564   0.128E+01    0.208E+01
RMM:   8    -0.658984967004E+03    0.31880E+01   -0.68287E+00 14030   0.554E+00    0.157E+01
RMM:   9    -0.657385825189E+03    0.15991E+01   -0.14290E+01 14025   0.723E+00    0.110E+01
RMM:  10    -0.656940196990E+03    0.44563E+00   -0.24069E+00 14895   0.316E+00    0.952E+00
RMM:  11    -0.656622573065E+03    0.31762E+00   -0.13691E+00 14001   0.226E+00    0.512E+00
RMM:  12    -0.656699771813E+03   -0.77199E-01   -0.57596E-01 15155   0.144E+00    0.506E+00
RMM:  13    -0.656658040097E+03    0.41732E-01   -0.34388E-01 15120   0.953E-01    0.358E+00
RMM:  14    -0.656774423431E+03   -0.11638E+00   -0.27345E-01 14917   0.886E-01    0.442E+00
RMM:  15    -0.656792838224E+03   -0.18415E-01   -0.21094E-01 14980   0.757E-01    0.391E+00
RMM:  16    -0.656710113829E+03    0.82724E-01   -0.42622E-01 14632   0.116E+00    0.172E+00
RMM:  17    -0.656720695096E+03   -0.10581E-01   -0.17748E-01 14731   0.743E-01    0.163E+00
RMM:  18    -0.656745621181E+03   -0.24926E-01   -0.12259E-01 14804   0.464E-01    0.222E+00
RMM:  19    -0.656719791567E+03    0.25830E-01   -0.50349E-02 14462   0.360E-01    0.133E+00
RMM:  20    -0.656706951307E+03    0.12840E-01   -0.46844E-02 14276   0.380E-01    0.380E-01
RMM:  21    -0.656707422669E+03   -0.47136E-03   -0.13306E-02 14670   0.244E-01    0.300E-01
RMM:  22    -0.656707120222E+03    0.30245E-03   -0.68697E-03 14558   0.114E-01    0.136E-01
RMM:  23    -0.656707480244E+03   -0.36002E-03   -0.42584E-03 14314   0.111E-01    0.175E-01
RMM:  24    -0.656707374363E+03    0.10588E-03   -0.20946E-03 13799   0.672E-02    0.265E-02
RMM:  25    -0.656707482907E+03   -0.10854E-03   -0.12833E-03 13334   0.454E-02    0.429E-02
RMM:  26    -0.656707516690E+03   -0.33783E-04   -0.67465E-04 12746   0.373E-02    0.168E-02
RMM:  27    -0.656707548169E+03   -0.31479E-04   -0.43033E-04 11483   0.287E-02    0.584E-03
RMM:  28    -0.656707566784E+03   -0.18615E-04   -0.24846E-04 11008   0.245E-02    0.454E-03
RMM:  29    -0.656707575635E+03   -0.88507E-05   -0.13537E-04  9497   0.200E-02    0.286E-03
RMM:  30    -0.656707585028E+03   -0.93931E-05   -0.95337E-05  9009   0.189E-02
   3 F= -.65670759E+03 E0= -.65660519E+03  d E =-.166976E+03
       N       E                     dE             d eps       ncg     rms          rms(c)
DAV:   1    -0.660402327239E+03   -0.36948E+01   -0.67784E+01 10128   0.279E+01    0.141E+01
RMM:   2    -0.678640499016E+03   -0.18238E+02   -0.50559E+01 10984   0.169E+01    0.466E+01
RMM:   3    -0.658265719682E+03    0.20375E+02   -0.10147E+01 10452   0.940E+00    0.684E+00
RMM:   4    -0.658599238632E+03   -0.33352E+00   -0.20364E+00 12293   0.327E+00    0.111E+01
RMM:   5    -0.657782918822E+03    0.81632E+00   -0.87823E-01 11194   0.193E+00    0.426E+00
RMM:   6    -0.657810875772E+03   -0.27957E-01   -0.53162E-01 11329   0.183E+00    0.552E+00
RMM:   7    -0.657591680099E+03    0.21920E+00   -0.22463E-01 12073   0.121E+00    0.905E-01
RMM:   8    -0.657596855987E+03   -0.51759E-02   -0.55878E-02 13181   0.617E-01    0.141E+00
RMM:   9    -0.657587121229E+03    0.97348E-02   -0.23000E-02 14391   0.258E-01    0.522E-01
RMM:  10    -0.657587262657E+03   -0.14143E-03   -0.10187E-02 13776   0.202E-01    0.322E-01
RMM:  11    -0.657589721642E+03   -0.24590E-02   -0.66990E-03 14435   0.127E-01    0.516E-01
RMM:  12    -0.657590109250E+03   -0.38761E-03   -0.56686E-03 14117   0.121E-01    0.191E-01
RMM:  13    -0.657591416938E+03   -0.13077E-02   -0.50647E-03 14059   0.104E-01    0.192E-01
RMM:  14    -0.657591640543E+03   -0.22360E-03   -0.29484E-03 12982   0.799E-02    0.160E-01
RMM:  15    -0.657591773282E+03   -0.13274E-03   -0.19307E-03 12508   0.617E-02    0.604E-02
RMM:  16    -0.657591856511E+03   -0.83229E-04   -0.98427E-04 11212   0.444E-02    0.371E-02
RMM:  17    -0.657591900192E+03   -0.43682E-04   -0.56252E-04 11034   0.360E-02    0.213E-02
RMM:  18    -0.657591920735E+03   -0.20543E-04   -0.28358E-04 10418   0.278E-02    0.936E-03
RMM:  19    -0.657591935022E+03   -0.14287E-04   -0.17040E-04 10241   0.231E-02    0.477E-03
RMM:  20    -0.657591940889E+03   -0.58664E-05   -0.83618E-05  8880   0.180E-02
   4 F= -.65759194E+03 E0= -.65749255E+03  d E =-.167860E+03
       N       E                     dE             d eps       ncg     rms          rms(c)
DAV:   1    -0.658591391220E+03   -0.99946E+00   -0.20896E+01 10224   0.156E+01    0.815E+00
RMM:   2    -0.665168129022E+03   -0.65767E+01   -0.14984E+01 11134   0.899E+00    0.285E+01
RMM:   3    -0.657932760212E+03    0.72354E+01   -0.34871E+00 10554   0.520E+00    0.372E+00
RMM:   4    -0.658058036267E+03   -0.12528E+00   -0.67217E-01 12100   0.192E+00    0.658E+00
RMM:   5    -0.657774077811E+03    0.28396E+00   -0.27345E-01 11259   0.105E+00    0.233E+00
RMM:   6    -0.657799453517E+03   -0.25376E-01   -0.16709E-01 11348   0.101E+00    0.342E+00
RMM:   7    -0.657718448496E+03    0.81005E-01   -0.78230E-02 12064   0.709E-01    0.666E-01
RMM:   8    -0.657725909472E+03   -0.74610E-02   -0.27338E-02 12883   0.406E-01    0.127E+00
RMM:   9    -0.657715593978E+03    0.10315E-01   -0.97648E-03 13894   0.194E-01    0.225E-01
RMM:  10    -0.657716039371E+03   -0.44539E-03   -0.38470E-03 13784   0.126E-01    0.260E-01
RMM:  11    -0.657716121700E+03   -0.82329E-04   -0.19633E-03 13900   0.680E-02    0.196E-01
RMM:  12    -0.657716766090E+03   -0.64439E-03   -0.17350E-03 13257   0.633E-02    0.128E-01
RMM:  13    -0.657717422987E+03   -0.65690E-03   -0.14683E-03 12847   0.607E-02    0.226E-01
RMM:  14    -0.657717442451E+03   -0.19464E-04   -0.13478E-03 12532   0.562E-02    0.481E-02
RMM:  15    -0.657717526928E+03   -0.84477E-04   -0.76465E-04 11523   0.445E-02    0.253E-02
RMM:  16    -0.657717562760E+03   -0.35832E-04   -0.41056E-04 10800   0.315E-02    0.200E-02
RMM:  17    -0.657717581713E+03   -0.18953E-04   -0.23210E-04 10476   0.258E-02    0.161E-02
RMM:  18    -0.657717591807E+03   -0.10094E-04   -0.11661E-04  9671   0.190E-02    0.657E-03
RMM:  19    -0.657717599610E+03   -0.78027E-05   -0.75158E-05  8981   0.172E-02
   5 F= -.65771760E+03 E0= -.65761981E+03  d E =-.167986E+03
       N       E                     dE             d eps       ncg     rms          rms(c)
DAV:   1    -0.656245453077E+03    0.14721E+01   -0.37455E+02  9072   0.614E+01    0.362E+00
RMM:   2    -0.660145088280E+03   -0.38996E+01   -0.39814E+01 12099   0.171E+01    0.623E+00
RMM:   3    -0.659698578795E+03    0.44651E+00   -0.30914E+00 12581   0.635E+00    0.402E+00
RMM:   4    -0.659562308511E+03    0.13627E+00   -0.64215E-01 13730   0.189E+00    0.235E+00
RMM:   5    -0.659544516855E+03    0.17792E-01   -0.18654E-01 13304   0.989E-01    0.232E+00
RMM:   6    -0.659500120500E+03    0.44396E-01   -0.30344E-01 12764   0.977E-01    0.124E+00
RMM:   7    -0.659496358836E+03    0.37617E-02   -0.93680E-02 12516   0.757E-01    0.138E+00
RMM:   8    -0.659484476606E+03    0.11882E-01   -0.34219E-02 13668   0.317E-01    0.611E-01
RMM:   9    -0.659486274708E+03   -0.17981E-02   -0.22441E-02 13373   0.285E-01    0.848E-01
RMM:  10    -0.659481495526E+03    0.47792E-02   -0.14062E-02 13738   0.181E-01    0.253E-01
RMM:  11    -0.659482268617E+03   -0.77309E-03   -0.39074E-03 13399   0.141E-01    0.441E-01
RMM:  12    -0.659481149203E+03    0.11194E-02   -0.22974E-03 13477   0.760E-02    0.132E-01
RMM:  13    -0.659481224116E+03   -0.74913E-04   -0.14672E-03 12968   0.623E-02    0.140E-01
RMM:  14    -0.659481231898E+03   -0.77815E-05   -0.87225E-04 12410   0.425E-02    0.830E-02
RMM:  15    -0.659481262456E+03   -0.30558E-04   -0.42750E-04 11988   0.374E-02    0.303E-02
RMM:  16    -0.659481276350E+03   -0.13894E-04   -0.27406E-04 11488   0.251E-02    0.117E-02
RMM:  17    -0.659481284036E+03   -0.76867E-05   -0.10943E-04  8944   0.220E-02    0.773E-03
RMM:  18    -0.659481287495E+03   -0.34590E-05   -0.50771E-05  6745   0.164E-02
   6 F= -.65948129E+03 E0= -.65939157E+03  d E =-.176369E+01
       N       E                     dE             d eps       ncg     rms          rms(c)
DAV:   1    -0.658739064414E+03    0.74222E+00   -0.11747E+02  9072   0.345E+01    0.202E+00
RMM:   2    -0.659935211704E+03   -0.11961E+01   -0.12414E+01 12042   0.960E+00    0.320E+00
RMM:   3    -0.659815471985E+03    0.11974E+00   -0.95315E-01 12581   0.354E+00    0.230E+00
RMM:   4    -0.659766775861E+03    0.48696E-01   -0.19436E-01 13773   0.105E+00    0.108E+00
RMM:   5    -0.659769498368E+03   -0.27225E-02   -0.63320E-02 13175   0.565E-01    0.149E+00
RMM:   6    -0.659754711043E+03    0.14787E-01   -0.77417E-02 12753   0.509E-01    0.808E-01
RMM:   7    -0.659753593915E+03    0.11171E-02   -0.27897E-02 12751   0.392E-01    0.802E-01
RMM:   8    -0.659749199383E+03    0.43945E-02   -0.96256E-03 13376   0.184E-01    0.371E-01
RMM:   9    -0.659749391629E+03   -0.19225E-03   -0.58647E-03 13309   0.138E-01    0.407E-01
RMM:  10    -0.659748435409E+03    0.95622E-03   -0.53219E-03 13439   0.115E-01    0.180E-01
RMM:  11    -0.659748460607E+03   -0.25199E-04   -0.13111E-03 12457   0.797E-02    0.176E-01
RMM:  12    -0.659748207719E+03    0.25289E-03   -0.72890E-04 13092   0.432E-02    0.567E-02
RMM:  13    -0.659748248209E+03   -0.40489E-04   -0.48592E-04 11977   0.349E-02    0.707E-02
RMM:  14    -0.659748258219E+03   -0.10010E-04   -0.28326E-04 11594   0.291E-02    0.407E-02
RMM:  15    -0.659748266015E+03   -0.77968E-05   -0.12374E-04  9662   0.217E-02    0.178E-02
RMM:  16    -0.659748267039E+03   -0.10235E-05   -0.83811E-05  9233   0.189E-02
   7 F= -.65974827E+03 E0= -.65966478E+03  d E =-.203067E+01
       N       E                     dE             d eps       ncg     rms          rms(c)
DAV:   1    -0.659487017029E+03    0.26125E+00   -0.25531E+02  9240   0.626E+01    0.162E+01
RMM:   2    -0.678181321746E+03   -0.18694E+02   -0.59094E+01 11319   0.218E+01    0.298E+01
RMM:   3    -0.660684975722E+03    0.17496E+02   -0.12292E+01 10990   0.112E+01    0.632E+00
RMM:   4    -0.660743953784E+03   -0.58978E-01   -0.40165E+00 12519   0.432E+00    0.793E+00
RMM:   5    -0.660275311834E+03    0.46864E+00   -0.10786E+00 12220   0.226E+00    0.398E+00
RMM:   6    -0.660213357099E+03    0.61955E-01   -0.46778E-01 12586   0.152E+00    0.402E+00
RMM:   7    -0.660122194995E+03    0.91162E-01   -0.24106E-01 12368   0.110E+00    0.217E+00
RMM:   8    -0.660084549112E+03    0.37646E-01   -0.94000E-02 13310   0.704E-01    0.917E-01
RMM:   9    -0.660085605668E+03   -0.10566E-02   -0.37805E-02 14057   0.430E-01    0.968E-01
RMM:  10    -0.660080982019E+03    0.46236E-02   -0.23115E-02 14675   0.277E-01    0.396E-01
RMM:  11    -0.660082832396E+03   -0.18504E-02   -0.10904E-02 14460   0.186E-01    0.482E-01
RMM:  12    -0.660082647723E+03    0.18467E-03   -0.64036E-03 14879   0.126E-01    0.243E-01
RMM:  13    -0.660084275405E+03   -0.16277E-02   -0.51027E-03 14360   0.114E-01    0.306E-01
RMM:  14    -0.660084427750E+03   -0.15235E-03   -0.42481E-03 14218   0.107E-01    0.139E-01
RMM:  15    -0.660084491202E+03   -0.63452E-04   -0.29626E-03 13857   0.876E-02    0.423E-02
RMM:  16    -0.660084572607E+03   -0.81405E-04   -0.15355E-03 13389   0.559E-02    0.349E-02
RMM:  17    -0.660084618089E+03   -0.45481E-04   -0.72774E-04 12144   0.427E-02    0.284E-02
RMM:  18    -0.660084641789E+03   -0.23700E-04   -0.37031E-04 11348   0.328E-02    0.176E-02
RMM:  19    -0.660084655659E+03   -0.13871E-04   -0.24056E-04 11164   0.261E-02    0.840E-03
RMM:  20    -0.660084662224E+03   -0.65651E-05   -0.12581E-04  9884   0.223E-02    0.360E-03
RMM:  21    -0.660084669476E+03   -0.72520E-05   -0.78798E-05  8895   0.184E-02
   8 F= -.66008467E+03 E0= -.66000742E+03  d E =-.336402E+00
       N       E                     dE             d eps       ncg     rms          rms(c)
DAV:   1    -0.660088449060E+03   -0.37868E-02   -0.11862E+01 10200   0.137E+01    0.320E+00
RMM:   2    -0.661116190348E+03   -0.10277E+01   -0.35947E+00 10898   0.517E+00    0.998E+00
RMM:   3    -0.660141714320E+03    0.97448E+00   -0.67722E-01 10353   0.281E+00    0.135E+00
RMM:   4    -0.660148730742E+03   -0.70164E-02   -0.16107E-01 12559   0.905E-01    0.179E+00
RMM:   5    -0.660117957595E+03    0.30773E-01   -0.40653E-02 11814   0.461E-01    0.645E-01
RMM:   6    -0.660121546883E+03   -0.35893E-02   -0.26609E-02 12150   0.391E-01    0.113E+00
RMM:   7    -0.660113184395E+03    0.83625E-02   -0.11666E-02 11934   0.258E-01    0.322E-01
RMM:   8    -0.660112592284E+03    0.59211E-03   -0.33181E-03 13332   0.150E-01    0.246E-01
RMM:   9    -0.660112393146E+03    0.19914E-03   -0.15394E-03 13299   0.743E-02    0.154E-01
RMM:  10    -0.660112341336E+03    0.51810E-04   -0.73167E-04 12810   0.518E-02    0.710E-02
RMM:  11    -0.660112427141E+03   -0.85805E-04   -0.39108E-04 11780   0.341E-02    0.875E-02
RMM:  12    -0.660112452470E+03   -0.25330E-04   -0.24352E-04 11249   0.281E-02    0.467E-02
RMM:  13    -0.660112534149E+03   -0.81678E-04   -0.24185E-04 11087   0.265E-02    0.247E-02
RMM:  14    -0.660112579039E+03   -0.44890E-04   -0.17548E-04 10608   0.250E-02    0.290E-02
RMM:  15    -0.660112581804E+03   -0.27655E-05   -0.91071E-05  9490   0.213E-02
   9 F= -.66011258E+03 E0= -.66003380E+03  d E =-.364315E+00
       N       E                     dE             d eps       ncg     rms          rms(c)
DAV:   1    -0.656783031371E+03    0.33295E+01   -0.22418E+02  9072   0.609E+01    0.488E+00
RMM:   2    -0.662443543455E+03   -0.56605E+01   -0.50804E+01 12014   0.176E+01    0.109E+01
RMM:   3    -0.660548981529E+03    0.18946E+01   -0.33847E+00 11340   0.599E+00    0.305E+00
RMM:   4    -0.660539954436E+03    0.90271E-02   -0.75487E-01 13370   0.186E+00    0.302E+00
RMM:   5    -0.660456263164E+03    0.83691E-01   -0.16951E-01 12191   0.104E+00    0.143E+00
RMM:   6    -0.660447046797E+03    0.92164E-02   -0.17273E-01 12462   0.877E-01    0.172E+00
RMM:   7    -0.660430412678E+03    0.16634E-01   -0.68496E-02 13210   0.586E-01    0.939E-01
RMM:   8    -0.660422896936E+03    0.75157E-02   -0.20974E-02 13596   0.292E-01    0.279E-01
RMM:   9    -0.660425101244E+03   -0.22043E-02   -0.11170E-02 13865   0.193E-01    0.513E-01
RMM:  10    -0.660423590198E+03    0.15110E-02   -0.55564E-03 14429   0.128E-01    0.157E-01
RMM:  11    -0.660424051956E+03   -0.46176E-03   -0.27506E-03 13593   0.865E-02    0.194E-01
RMM:  12    -0.660424086779E+03   -0.34823E-04   -0.16920E-03 13341   0.607E-02    0.118E-01
RMM:  13    -0.660424365760E+03   -0.27898E-03   -0.11512E-03 13008   0.539E-02    0.104E-01
RMM:  14    -0.660424429961E+03   -0.64201E-04   -0.69712E-04 12535   0.433E-02    0.727E-02
RMM:  15    -0.660424447071E+03   -0.17110E-04   -0.51974E-04 12339   0.379E-02    0.159E-02
RMM:  16    -0.660424454991E+03   -0.79206E-05   -0.26744E-04 11526   0.282E-02    0.147E-02
RMM:  17    -0.660424459639E+03   -0.46478E-05   -0.11618E-04  9617   0.199E-02    0.126E-02
RMM:  18    -0.660424462281E+03   -0.26422E-05   -0.52243E-05  7684   0.179E-02
  10 F= -.66042446E+03 E0= -.66035701E+03  d E =-.311880E+00
       N       E                     dE             d eps       ncg     rms          rms(c)
DAV:   1    -0.660420370121E+03    0.40895E-02   -0.27842E-01  9744   0.217E+00    0.168E-01
RMM:   2    -0.660426476391E+03   -0.61063E-02   -0.58293E-02 12335   0.604E-01    0.297E-01
RMM:   3    -0.660425127859E+03    0.13485E-02   -0.43470E-03 12044   0.200E-01    0.116E-01
RMM:   4    -0.660425075597E+03    0.52262E-04   -0.83743E-04 12514   0.626E-02    0.101E-01
RMM:   5    -0.660425003239E+03    0.72358E-04   -0.18449E-04 10125   0.393E-02    0.556E-02
RMM:   6    -0.660425002477E+03    0.76211E-06   -0.18096E-04  9825   0.281E-02    0.726E-02
RMM:   7    -0.660424961068E+03    0.41410E-04   -0.80762E-05  7528   0.246E-02    0.285E-02
RMM:   8    -0.660424950945E+03    0.10123E-04   -0.19295E-05  5338   0.179E-02    0.133E-02
RMM:   9    -0.660424952449E+03   -0.15041E-05   -0.12672E-05  5211   0.152E-02
  11 F= -.66042495E+03 E0= -.66035712E+03  d E =-.312371E+00
       N       E                     dE             d eps       ncg     rms          rms(c)
DAV:   1    -0.659952238325E+03    0.47271E+00   -0.49685E+01  9072   0.262E+01    0.182E+00
RMM:   2    -0.660648074054E+03   -0.69584E+00   -0.75628E+00 11792   0.713E+00    0.167E+00
RMM:   3    -0.660607088432E+03    0.40986E-01   -0.55103E-01 12438   0.248E+00    0.206E+00
RMM:   4    -0.660576542471E+03    0.30546E-01   -0.12202E-01 13488   0.740E-01    0.962E-01
RMM:   5    -0.660571706032E+03    0.48364E-02   -0.27285E-02 12807   0.426E-01    0.666E-01
RMM:   6    -0.660569007415E+03    0.26986E-02   -0.23905E-02 12457   0.291E-01    0.629E-01
RMM:   7    -0.660566542235E+03    0.24652E-02   -0.87938E-03 12656   0.210E-01    0.356E-01
RMM:   8    -0.660565373717E+03    0.11685E-02   -0.28194E-03 13044   0.100E-01    0.113E-01
RMM:   9    -0.660565655636E+03   -0.28192E-03   -0.16089E-03 12649   0.716E-02    0.220E-01
RMM:  10    -0.660565310215E+03    0.34542E-03   -0.95637E-04 12522   0.520E-02    0.415E-02
RMM:  11    -0.660565329865E+03   -0.19650E-04   -0.31086E-04 11235   0.351E-02    0.548E-02
RMM:  12    -0.660565320483E+03    0.93814E-05   -0.18480E-04  9869   0.211E-02    0.246E-02
RMM:  13    -0.660565323929E+03   -0.34454E-05   -0.11087E-04  9141   0.186E-02    0.115E-02
RMM:  14    -0.660565324754E+03   -0.82528E-06   -0.50113E-05  6423   0.162E-02
  12 F= -.66056532E+03 E0= -.66050106E+03  d E =-.140372E+00
       N       E                     dE             d eps       ncg     rms          rms(c)
DAV:   1    -0.660450639341E+03    0.11468E+00   -0.10735E+01  9072   0.122E+01    0.855E-01
RMM:   2    -0.660602421938E+03   -0.15178E+00   -0.16368E+00 11754   0.332E+00    0.874E-01
RMM:   3    -0.660590614464E+03    0.11807E-01   -0.12163E-01 12450   0.117E+00    0.885E-01
RMM:   4    -0.660585136288E+03    0.54782E-02   -0.26918E-02 13485   0.350E-01    0.460E-01
RMM:   5    -0.660583886604E+03    0.12497E-02   -0.60371E-03 12652   0.199E-01    0.299E-01
RMM:   6    -0.660583334626E+03    0.55198E-03   -0.51287E-03 12569   0.137E-01    0.283E-01
RMM:   7    -0.660582826735E+03    0.50789E-03   -0.19359E-03 12483   0.968E-02    0.160E-01
RMM:   8    -0.660582573708E+03    0.25303E-03   -0.63118E-04 12100   0.480E-02    0.344E-02
RMM:   9    -0.660582586912E+03   -0.13204E-04   -0.37937E-04 11427   0.347E-02    0.536E-02
RMM:  10    -0.660582579893E+03    0.70190E-05   -0.15440E-04  9775   0.225E-02    0.306E-02
RMM:  11    -0.660582576887E+03    0.30055E-05   -0.64801E-05  6926   0.171E-02
  13 F= -.66058258E+03 E0= -.66051985E+03  d E =-.157624E+00
       N       E                     dE             d eps       ncg     rms          rms(c)
DAV:   1    -0.660455728005E+03    0.12685E+00   -0.21402E+01  9072   0.153E+01    0.139E+00
RMM:   2    -0.660737427226E+03   -0.28170E+00   -0.25837E+00 11851   0.435E+00    0.250E+00
RMM:   3    -0.660648222742E+03    0.89204E-01   -0.22186E-01 12026   0.167E+00    0.818E-01
RMM:   4    -0.660647232806E+03    0.98994E-03   -0.50234E-02 13536   0.501E-01    0.863E-01
RMM:   5    -0.660641630329E+03    0.56025E-02   -0.13478E-02 12743   0.289E-01    0.426E-01
RMM:   6    -0.660641403281E+03    0.22705E-03   -0.10419E-02 12678   0.207E-01    0.506E-01
RMM:   7    -0.660639737373E+03    0.16659E-02   -0.52718E-03 12899   0.159E-01    0.253E-01
RMM:   8    -0.660639240229E+03    0.49714E-03   -0.17666E-03 13383   0.871E-02    0.122E-01
RMM:   9    -0.660639262234E+03   -0.22005E-04   -0.78399E-04 12400   0.514E-02    0.119E-01
RMM:  10    -0.660639172255E+03    0.89978E-04   -0.39192E-04 12199   0.340E-02    0.369E-02
RMM:  11    -0.660639197510E+03   -0.25255E-04   -0.19994E-04 10984   0.241E-02    0.509E-02
RMM:  12    -0.660639188039E+03    0.94712E-05   -0.11437E-04  9720   0.199E-02    0.227E-02
RMM:  13    -0.660639188304E+03   -0.26487E-06   -0.72261E-05  8242   0.179E-02
  14 F= -.66063919E+03 E0= -.66057608E+03  d E =-.566114E-01
       N       E                     dE             d eps       ncg     rms          rms(c)
DAV:   1    -0.660619659415E+03    0.19529E-01   -0.28762E+00  9216   0.561E+00    0.509E-01
RMM:   2    -0.660657505846E+03   -0.37846E-01   -0.34596E-01 11781   0.159E+00    0.933E-01
RMM:   3    -0.660645382239E+03    0.12124E-01   -0.30944E-02 11959   0.622E-01    0.308E-01
RMM:   4    -0.660645340794E+03    0.41445E-04   -0.69238E-03 13347   0.188E-01    0.337E-01
RMM:   5    -0.660644441548E+03    0.89925E-03   -0.19050E-03 12400   0.107E-01    0.150E-01
RMM:   6    -0.660644502165E+03   -0.60617E-04   -0.15191E-03 12548   0.801E-02    0.206E-01
RMM:   7    -0.660644195182E+03    0.30698E-03   -0.76718E-04 12389   0.612E-02    0.813E-02
RMM:   8    -0.660644148313E+03    0.46868E-04   -0.25625E-04 11616   0.343E-02    0.514E-02
RMM:   9    -0.660644142963E+03    0.53501E-05   -0.11922E-04  9791   0.224E-02    0.386E-02
RMM:  10    -0.660644131671E+03    0.11293E-04   -0.57585E-05  7532   0.159E-02    0.138E-02
RMM:  11    -0.660644133798E+03   -0.21274E-05   -0.28223E-05  6067   0.156E-02
  15 F= -.66064413E+03 E0= -.66058092E+03  d E =-.615569E-01
       N       E                     dE             d eps       ncg     rms          rms(c)
DAV:   1    -0.660593006050E+03    0.51126E-01   -0.19175E+01  9576   0.152E+01    0.288E+00
RMM:   2    -0.661251253158E+03   -0.65825E+00   -0.34026E+00 10802   0.530E+00    0.718E+00
RMM:   3    -0.660689414586E+03    0.56184E+00   -0.53034E-01 10405   0.273E+00    0.130E+00
RMM:   4    -0.660696809939E+03   -0.73954E-02   -0.15152E-01 12928   0.851E-01    0.168E+00
RMM:   5    -0.660668767237E+03    0.28043E-01   -0.40504E-02 12188   0.468E-01    0.605E-01
RMM:   6    -0.660671241307E+03   -0.24741E-02   -0.24988E-02 12621   0.379E-01    0.960E-01
RMM:   7    -0.660664519978E+03    0.67213E-02   -0.10787E-02 12532   0.246E-01    0.265E-01
RMM:   8    -0.660664007355E+03    0.51262E-03   -0.29876E-03 13800   0.135E-01    0.128E-01
RMM:   9    -0.660664192011E+03   -0.18466E-03   -0.15658E-03 13301   0.650E-02    0.157E-01
RMM:  10    -0.660664114397E+03    0.77613E-04   -0.76197E-04 12621   0.471E-02    0.596E-02
RMM:  11    -0.660664203856E+03   -0.89459E-04   -0.42167E-04 11782   0.326E-02    0.610E-02
RMM:  12    -0.660664245982E+03   -0.42126E-04   -0.25759E-04 11387   0.288E-02    0.493E-02
RMM:  13    -0.660664314394E+03   -0.68412E-04   -0.24175E-04 10986   0.254E-02    0.162E-02
RMM:  14    -0.660664336966E+03   -0.22572E-04   -0.13199E-04 10045   0.234E-02    0.781E-03
RMM:  15    -0.660664343711E+03   -0.67449E-05   -0.76270E-05  9161   0.188E-02
  16 F= -.66066434E+03 E0= -.66060224E+03  d E =-.202099E-01
       N       E                     dE             d eps       ncg     rms          rms(c)
DAV:   1    -0.660662967233E+03    0.13697E-02   -0.76957E-01 10032   0.305E+00    0.591E-01
RMM:   2    -0.660689924643E+03   -0.26957E-01   -0.13341E-01 10956   0.105E+00    0.140E+00
RMM:   3    -0.660666635968E+03    0.23289E-01   -0.21716E-02 10600   0.538E-01    0.214E-01
RMM:   4    -0.660666887127E+03   -0.25116E-03   -0.58376E-03 12972   0.169E-01    0.309E-01
RMM:   5    -0.660666016110E+03    0.87102E-03   -0.15158E-03 12272   0.893E-02    0.128E-01
RMM:   6    -0.660665886379E+03    0.12973E-03   -0.86671E-04 12367   0.719E-02    0.111E-01
RMM:   7    -0.660665846897E+03    0.39482E-04   -0.34642E-04 11390   0.444E-02    0.879E-02
RMM:   8    -0.660665771548E+03    0.75349E-04   -0.10443E-04  9695   0.266E-02    0.176E-02
RMM:   9    -0.660665773007E+03   -0.14590E-05   -0.49630E-05  7450   0.171E-02
  17 F= -.66066577E+03 E0= -.66060341E+03  d E =-.216392E-01
       N       E                     dE             d eps       ncg     rms          rms(c)
DAV:   1    -0.660528346357E+03    0.13743E+00   -0.17648E+01  9072   0.144E+01    0.161E+00
RMM:   2    -0.660845843078E+03   -0.31750E+00   -0.25609E+00 11640   0.427E+00    0.330E+00
RMM:   3    -0.660691139436E+03    0.15470E+00   -0.22976E-01 11266   0.166E+00    0.697E-01
RMM:   4    -0.660692113478E+03   -0.97404E-03   -0.55333E-02 13008   0.550E-01    0.898E-01
RMM:   5    -0.660686094506E+03    0.60190E-02   -0.14656E-02 12704   0.276E-01    0.417E-01
RMM:   6    -0.660685212398E+03    0.88211E-03   -0.98213E-03 12885   0.212E-01    0.401E-01
RMM:   7    -0.660684439602E+03    0.77280E-03   -0.48780E-03 13239   0.152E-01    0.265E-01
RMM:   8    -0.660683880324E+03    0.55928E-03   -0.16965E-03 13570   0.858E-02    0.879E-02
RMM:   9    -0.660683965977E+03   -0.85653E-04   -0.82525E-04 12271   0.482E-02    0.115E-01
RMM:  10    -0.660683900202E+03    0.65775E-04   -0.42263E-04 11896   0.336E-02    0.407E-02
RMM:  11    -0.660683926641E+03   -0.26439E-04   -0.22402E-04 10898   0.236E-02    0.459E-02
RMM:  12    -0.660683929225E+03   -0.25832E-05   -0.13538E-04 10381   0.220E-02    0.303E-02
RMM:  13    -0.660683929664E+03   -0.43937E-06   -0.92758E-05  9302   0.187E-02
  18 F= -.66068393E+03 E0= -.66062213E+03  d E =-.181567E-01
       N       E                     dE             d eps       ncg     rms          rms(c)
DAV:   1    -0.660683618280E+03    0.31094E-03   -0.39383E-02 10104   0.683E-01    0.773E-02
RMM:   2    -0.660684366548E+03   -0.74827E-03   -0.57680E-03 12350   0.204E-01    0.173E-01
RMM:   3    -0.660683987030E+03    0.37952E-03   -0.56061E-04 11105   0.802E-02    0.394E-02
RMM:   4    -0.660683991760E+03   -0.47302E-05   -0.13522E-04 10493   0.296E-02    0.500E-02
RMM:   5    -0.660683969870E+03    0.21890E-04   -0.35943E-05  6482   0.190E-02    0.210E-02
RMM:   6    -0.660683971331E+03   -0.14614E-05   -0.23342E-05  5520   0.164E-02
  19 F= -.66068397E+03 E0= -.66062216E+03  d E =-.181983E-01
       N       E                     dE             d eps       ncg     rms          rms(c)
DAV:   1    -0.660650031051E+03    0.33939E-01   -0.43005E+00  9072   0.735E+00    0.578E-01
RMM:   2    -0.660699711844E+03   -0.49681E-01   -0.57006E-01 11887   0.201E+00    0.449E-01
RMM:   3    -0.660695893085E+03    0.38188E-02   -0.41188E-02 12582   0.689E-01    0.534E-01
RMM:   4    -0.660692668619E+03    0.32245E-02   -0.91856E-03 13008   0.218E-01    0.200E-01
RMM:   5    -0.660693105695E+03   -0.43708E-03   -0.30430E-03 12363   0.130E-01    0.331E-01
RMM:   6    -0.660692178507E+03    0.92719E-03   -0.18134E-03 12501   0.866E-02    0.113E-01
RMM:   7    -0.660692184141E+03   -0.56347E-05   -0.67316E-04 11339   0.601E-02    0.137E-01
RMM:   8    -0.660692039202E+03    0.14494E-03   -0.26743E-04 10420   0.327E-02    0.270E-02
RMM:   9    -0.660692044348E+03   -0.51451E-05   -0.13623E-04  9255   0.222E-02    0.336E-02
RMM:  10    -0.660692041711E+03    0.26367E-05   -0.65250E-05  7601   0.163E-02
  20 F= -.66069204E+03 E0= -.66063033E+03  d E =-.807038E-02
       N       E                     dE             d eps       ncg     rms          rms(c)
DAV:   1    -0.660690260385E+03    0.17840E-02   -0.21982E-01  9648   0.166E+00    0.130E-01
RMM:   2    -0.660692811761E+03   -0.25514E-02   -0.29083E-02 11957   0.454E-01    0.108E-01
RMM:   3    -0.660692629276E+03    0.18248E-03   -0.21682E-03 12321   0.154E-01    0.126E-01
RMM:   4    -0.660692487532E+03    0.14174E-03   -0.51619E-04 11837   0.526E-02    0.696E-02
RMM:   5    -0.660692471564E+03    0.15968E-04   -0.17142E-04  9713   0.339E-02    0.583E-02
RMM:   6    -0.660692446607E+03    0.24957E-04   -0.11360E-04  9277   0.242E-02    0.335E-02
RMM:   7    -0.660692442748E+03    0.38596E-05   -0.50594E-05  6706   0.199E-02
  21 F= -.66069244E+03 E0= -.66063073E+03  d E =-.847142E-02
       N       E                     dE             d eps       ncg     rms          rms(c)
DAV:   1    -0.660670030358E+03    0.22416E-01   -0.23761E+00  9072   0.563E+00    0.456E-01
RMM:   2    -0.660703982796E+03   -0.33952E-01   -0.35625E-01 11748   0.153E+00    0.598E-01
RMM:   3    -0.660698863167E+03    0.51196E-02   -0.28486E-02 11973   0.559E-01    0.382E-01
RMM:   4    -0.660697929601E+03    0.93357E-03   -0.61345E-03 12808   0.171E-01    0.264E-01
RMM:   5    -0.660697363661E+03    0.56594E-03   -0.16809E-03 11667   0.108E-01    0.144E-01
RMM:   6    -0.660697472972E+03   -0.10931E-03   -0.13842E-03 12297   0.748E-02    0.218E-01
RMM:   7    -0.660697094480E+03    0.37849E-03   -0.49985E-04 10915   0.533E-02    0.427E-02
RMM:   8    -0.660697093823E+03    0.65691E-06   -0.17350E-04 10298   0.278E-02    0.439E-02
RMM:   9    -0.660697089575E+03    0.42481E-05   -0.90125E-05  8930   0.197E-02
  22 F= -.66069709E+03 E0= -.66063593E+03  d E =-.464683E-02
       N       E                     dE             d eps       ncg     rms          rms(c)
DAV:   1    -0.660692970586E+03    0.41232E-02   -0.40443E-01  9120   0.232E+00    0.187E-01
RMM:   2    -0.660698763604E+03   -0.57930E-02   -0.60768E-02 11741   0.633E-01    0.244E-01
RMM:   3    -0.660697912910E+03    0.85069E-03   -0.47966E-03 11914   0.229E-01    0.157E-01
RMM:   4    -0.660697768992E+03    0.14392E-03   -0.11150E-03 12366   0.720E-02    0.111E-01
RMM:   5    -0.660697672743E+03    0.96248E-04   -0.31716E-04 10052   0.470E-02    0.590E-02
RMM:   6    -0.660697690847E+03   -0.18104E-04   -0.24987E-04 11192   0.324E-02    0.847E-02
RMM:   7    -0.660697632955E+03    0.57892E-04   -0.92915E-05  8621   0.264E-02    0.167E-02
RMM:   8    -0.660697634286E+03   -0.13310E-05   -0.32341E-05  5925   0.155E-02
  23 F= -.66069763E+03 E0= -.66063666E+03  d E =-.519154E-02
       N       E                     dE             d eps       ncg     rms          rms(c)
DAV:   1    -0.660669106945E+03    0.28526E-01   -0.26900E+00  9096   0.625E+00    0.863E-01
RMM:   2    -0.660749126548E+03   -0.80020E-01   -0.54866E-01 11204   0.187E+00    0.194E+00
RMM:   3    -0.660702110327E+03    0.47016E-01   -0.65404E-02 10739   0.899E-01    0.346E-01
RMM:   4    -0.660703250479E+03   -0.11402E-02   -0.15427E-02 12807   0.267E-01    0.516E-01
RMM:   5    -0.660700983820E+03    0.22667E-02   -0.32473E-03 12369   0.141E-01    0.186E-01
RMM:   6    -0.660700825867E+03    0.15795E-03   -0.22153E-03 12833   0.104E-01    0.200E-01
RMM:   7    -0.660700609329E+03    0.21654E-03   -0.10987E-03 12467   0.737E-02    0.125E-01
RMM:   8    -0.660700484698E+03    0.12463E-03   -0.35137E-04 12412   0.453E-02    0.607E-02
RMM:   9    -0.660700478992E+03    0.57062E-05   -0.17846E-04 10948   0.266E-02    0.461E-02
RMM:  10    -0.660700465074E+03    0.13917E-04   -0.83054E-05  9019   0.190E-02    0.173E-02
RMM:  11    -0.660700466485E+03   -0.14103E-05   -0.42767E-05  7294   0.156E-02
  24 F= -.66070047E+03 E0= -.66063956E+03  d E =-.283220E-02
       N       E                     dE             d eps       ncg     rms          rms(c)
DAV:   1    -0.660700449154E+03    0.15920E-04   -0.23184E-03 10944   0.182E-01    0.302E-02
RMM:   2    -0.660700543241E+03   -0.94086E-04   -0.50295E-04  9763   0.564E-02    0.793E-02
RMM:   3    -0.660700475465E+03    0.67776E-04   -0.71778E-05  7182   0.314E-02    0.158E-02
RMM:   4    -0.660700475466E+03   -0.90222E-09   -0.17459E-05  5388   0.136E-02
  25 F= -.66070048E+03 E0= -.66063957E+03  d E =-.284118E-02
       N       E                     dE             d eps       ncg     rms          rms(c)
DAV:   1    -0.660675542551E+03    0.24933E-01   -0.18409E+00  9072   0.516E+00    0.436E-01
RMM:   2    -0.660713767796E+03   -0.38225E-01   -0.35184E-01 11858   0.140E+00    0.840E-01
RMM:   3    -0.660703790452E+03    0.99773E-02   -0.29528E-02 11436   0.511E-01    0.273E-01
RMM:   4    -0.660704134952E+03   -0.34450E-03   -0.64718E-03 12846   0.166E-01    0.332E-01
RMM:   5    -0.660703181847E+03    0.95310E-03   -0.12615E-03 11419   0.951E-02    0.114E-01
RMM:   6    -0.660703389188E+03   -0.20734E-03   -0.11426E-03 11815   0.672E-02    0.213E-01
RMM:   7    -0.660702991663E+03    0.39753E-03   -0.59202E-04 11970   0.556E-02    0.334E-02
RMM:   8    -0.660702997829E+03   -0.61669E-05   -0.14378E-04 10600   0.308E-02    0.407E-02
RMM:   9    -0.660702993963E+03    0.38663E-05   -0.68661E-05  8580   0.185E-02
  26 F= -.66070299E+03 E0= -.66064225E+03  d E =-.251850E-02
       N       E                     dE             d eps       ncg     rms          rms(c)
DAV:   1    -0.660698742290E+03    0.42555E-02   -0.30619E-01  9120   0.211E+00    0.179E-01
RMM:   2    -0.660705140437E+03   -0.63981E-02   -0.58637E-02 11694   0.571E-01    0.345E-01
RMM:   3    -0.660703459508E+03    0.16809E-02   -0.48005E-03 11026   0.204E-01    0.114E-01
RMM:   4    -0.660703521309E+03   -0.61801E-04   -0.11083E-03 11608   0.682E-02    0.136E-01
RMM:   5    -0.660703361845E+03    0.15946E-03   -0.22324E-04  9420   0.423E-02    0.439E-02
RMM:   6    -0.660703400968E+03   -0.39123E-04   -0.20724E-04 10226   0.304E-02    0.844E-02
RMM:   7    -0.660703342624E+03    0.58343E-04   -0.96426E-05  8847   0.255E-02    0.148E-02
RMM:   8    -0.660703347447E+03   -0.48223E-05   -0.29021E-05  5873   0.181E-02
  27 F= -.66070335E+03 E0= -.66064264E+03  d E =-.287198E-02
       N       E                     dE             d eps       ncg     rms          rms(c)
DAV:   1    -0.660702536732E+03    0.80589E-03   -0.54768E-02  9648   0.889E-01    0.763E-02
RMM:   2    -0.660703701144E+03   -0.11644E-02   -0.10529E-02 11470   0.240E-01    0.151E-01
RMM:   3    -0.660703385480E+03    0.31566E-03   -0.87550E-04 10265   0.887E-02    0.503E-02
RMM:   4    -0.660703398327E+03   -0.12847E-04   -0.21077E-04  8818   0.308E-02    0.587E-02
RMM:   5    -0.660703369182E+03    0.29144E-04   -0.36476E-05  6112   0.218E-02    0.190E-02
RMM:   6    -0.660703376740E+03   -0.75574E-05   -0.34076E-05  6100   0.159E-02
  28 F= -.66070338E+03 E0= -.66064270E+03  d E =-.290127E-02
       N       E                     dE             d eps       ncg     rms          rms(c)
DAV:   1    -0.660682181428E+03    0.21188E-01   -0.14886E+00  9096   0.464E+00    0.271E-01
RMM:   2    -0.660706750888E+03   -0.24569E-01   -0.25393E-01 11617   0.113E+00    0.308E-01
RMM:   3    -0.660705837120E+03    0.91377E-03   -0.20531E-02 11854   0.404E-01    0.288E-01
RMM:   4    -0.660705280947E+03    0.55617E-03   -0.38407E-03 12305   0.112E-01    0.814E-02
RMM:   5    -0.660705370534E+03   -0.89586E-04   -0.56842E-04 10709   0.641E-02    0.144E-01
RMM:   6    -0.660705206014E+03    0.16452E-03   -0.37155E-04 10782   0.383E-02    0.395E-02
RMM:   7    -0.660705213498E+03   -0.74843E-05   -0.13227E-04  8827   0.280E-02    0.490E-02
RMM:   8    -0.660705194765E+03    0.18733E-04   -0.50168E-05  6429   0.187E-02    0.162E-02
RMM:   9    -0.660705195058E+03   -0.29241E-06   -0.25022E-05  5808   0.156E-02
  29 F= -.66070520E+03 E0= -.66064465E+03  d E =-.181832E-02
       N       E                     dE             d eps       ncg     rms          rms(c)
DAV:   1    -0.660697597412E+03    0.75974E-02   -0.51678E-01  9096   0.273E+00    0.160E-01
RMM:   2    -0.660706134942E+03   -0.85375E-02   -0.88140E-02 11582   0.669E-01    0.184E-01
RMM:   3    -0.660705811684E+03    0.32326E-03   -0.71445E-03 11664   0.239E-01    0.166E-01
RMM:   4    -0.660705629682E+03    0.18200E-03   -0.13552E-03 11502   0.669E-02    0.473E-02
RMM:   5    -0.660705650568E+03   -0.20886E-04   -0.21023E-04  9624   0.401E-02    0.723E-02
RMM:   6    -0.660705612948E+03    0.37620E-04   -0.13138E-04  8955   0.245E-02    0.386E-02
RMM:   7    -0.660705606402E+03    0.65459E-05   -0.51849E-05  6810   0.192E-02
  30 F= -.66070561E+03 E0= -.66064514E+03  d E =-.222966E-02
       N       E                     dE             d eps       ncg     rms          rms(c)
DAV:   1    -0.660703990700E+03    0.16222E-02   -0.10525E-01  9672   0.123E+00    0.732E-02
RMM:   2    -0.660705735002E+03   -0.17443E-02   -0.18114E-02 11488   0.302E-01    0.829E-02
RMM:   3    -0.660705671632E+03    0.63370E-04   -0.14532E-03 10958   0.110E-01    0.784E-02
RMM:   4    -0.660705633110E+03    0.38522E-04   -0.30594E-04  8301   0.325E-02    0.218E-02
RMM:   5    -0.660705634793E+03   -0.16837E-05   -0.44064E-05  6360   0.220E-02
  31 F= -.66070563E+03 E0= -.66064519E+03  d E =-.225805E-02
       N       E                     dE             d eps       ncg     rms          rms(c)
DAV:   1    -0.660697049138E+03    0.85840E-02   -0.63366E-01  9072   0.305E+00    0.187E-01
RMM:   2    -0.660707741798E+03   -0.10693E-01   -0.10898E-01 11602   0.782E-01    0.226E-01
RMM:   3    -0.660706863005E+03    0.87879E-03   -0.93640E-03 12043   0.274E-01    0.143E-01
RMM:   4    -0.660706774979E+03    0.88026E-04   -0.15466E-03 12128   0.750E-02    0.897E-02
RMM:   5    -0.660706735280E+03    0.39699E-04   -0.24450E-04  9906   0.453E-02    0.583E-02
RMM:   6    -0.660706709863E+03    0.25416E-04   -0.22349E-04 11074   0.293E-02    0.491E-02
RMM:   7    -0.660706697170E+03    0.12694E-04   -0.74539E-05  8075   0.217E-02    0.281E-02
RMM:   8    -0.660706689544E+03    0.76260E-05   -0.22388E-05  5604   0.154E-02
  32 F= -.66070669E+03 E0= -.66064628E+03  d E =-.105475E-02
       N       E                     dE             d eps       ncg     rms          rms(c)
DAV:   1    -0.660704600635E+03    0.20965E-02   -0.14979E-01  9072   0.148E+00    0.935E-02
RMM:   2    -0.660707179368E+03   -0.25787E-02   -0.25803E-02 11469   0.379E-01    0.138E-01
RMM:   3    -0.660706909933E+03    0.26943E-03   -0.21924E-03 11560   0.136E-01    0.760E-02
RMM:   4    -0.660706912458E+03   -0.25248E-05   -0.45972E-04 10365   0.413E-02    0.623E-02
RMM:   5    -0.660706879824E+03    0.32634E-04   -0.64025E-05  6814   0.260E-02    0.254E-02
RMM:   6    -0.660706886090E+03   -0.62660E-05   -0.52188E-05  6706   0.175E-02
  33 F= -.66070689E+03 E0= -.66064649E+03  d E =-.125130E-02
       N       E                     dE             d eps       ncg     rms          rms(c)
DAV:   1    -0.660706643129E+03    0.23670E-03   -0.15470E-02  9744   0.479E-01    0.311E-02
RMM:   2    -0.660706917381E+03   -0.27425E-03   -0.27321E-03 11076   0.124E-01    0.515E-02
RMM:   3    -0.660706885965E+03    0.31416E-04   -0.24257E-04  8060   0.464E-02    0.273E-02
RMM:   4    -0.660706886715E+03   -0.75000E-06   -0.47751E-05  6060   0.191E-02
  34 F= -.66070689E+03 E0= -.66064650E+03  d E =-.125192E-02
       N       E                     dE             d eps       ncg     rms          rms(c)
DAV:   1    -0.660704174348E+03    0.27116E-02   -0.25706E-01  9072   0.191E+00    0.138E-01
RMM:   2    -0.660707791585E+03   -0.36172E-02   -0.39122E-02 11730   0.505E-01    0.143E-01
RMM:   3    -0.660707491671E+03    0.29991E-03   -0.29646E-03 12398   0.165E-01    0.131E-01
RMM:   4    -0.660707388816E+03    0.10286E-03   -0.61631E-04 11735   0.543E-02    0.919E-02
RMM:   5    -0.660707320774E+03    0.68042E-04   -0.15791E-04  9557   0.340E-02    0.433E-02
RMM:   6    -0.660707322450E+03   -0.16758E-05   -0.12605E-04  9495   0.242E-02    0.561E-02
RMM:   7    -0.660707295367E+03    0.27083E-04   -0.41718E-05  6505   0.215E-02    0.131E-02
RMM:   8    -0.660707295454E+03   -0.86518E-07   -0.15885E-05  5495   0.135E-02
  35 F= -.66070730E+03 E0= -.66064686E+03  d E =-.408739E-03
       N       E                     dE             d eps       ncg     rms          rms(c)
DAV:   1    -0.660707109913E+03    0.18545E-03   -0.16377E-02  9744   0.483E-01    0.352E-02
RMM:   2    -0.660707351191E+03   -0.24128E-03   -0.25442E-03 11366   0.128E-01    0.484E-02
RMM:   3    -0.660707325157E+03    0.26034E-04   -0.20492E-04  9316   0.474E-02    0.349E-02
RMM:   4    -0.660707319805E+03    0.53525E-05   -0.43728E-05  6210   0.190E-02
  36 F= -.66070732E+03 E0= -.66064688E+03  d E =-.433090E-03
       N       E                     dE             d eps       ncg     rms          rms(c)
DAV:   1    -0.660706268357E+03    0.10568E-02   -0.12643E-01  9072   0.133E+00    0.154E-01
RMM:   2    -0.660709126970E+03   -0.28586E-02   -0.22232E-02 11814   0.387E-01    0.328E-01
RMM:   3    -0.660707645929E+03    0.14810E-02   -0.19213E-03 10618   0.144E-01    0.774E-02
RMM:   4    -0.660707677425E+03   -0.31496E-04   -0.51214E-04 11299   0.548E-02    0.103E-01
RMM:   5    -0.660707584814E+03    0.92611E-04   -0.13949E-04  9169   0.316E-02    0.357E-02
RMM:   6    -0.660707591352E+03   -0.65375E-05   -0.10142E-04  8781   0.256E-02    0.526E-02
RMM:   7    -0.660707572499E+03    0.18852E-04   -0.49158E-05  6755   0.209E-02    0.205E-02
RMM:   8    -0.660707571491E+03    0.10083E-05   -0.14423E-05  5335   0.164E-02
  37 F= -.66070757E+03 E0= -.66064719E+03  d E =-.251686E-03
       N       E                     dE             d eps       ncg     rms          rms(c)
DAV:   1    -0.660707172358E+03    0.40014E-03   -0.39170E-02  9216   0.743E-01    0.852E-02
RMM:   2    -0.660708043704E+03   -0.87135E-03   -0.68513E-03 11567   0.214E-01    0.178E-01
RMM:   3    -0.660707603086E+03    0.44062E-03   -0.60640E-04 10067   0.827E-02    0.430E-02
RMM:   4    -0.660707614121E+03   -0.11034E-04   -0.16211E-04  9052   0.312E-02    0.565E-02
RMM:   5    -0.660707586914E+03    0.27206E-04   -0.41221E-05  6307   0.203E-02    0.199E-02
RMM:   6    -0.660707591596E+03   -0.46811E-05   -0.28952E-05  5813   0.165E-02
  38 F= -.66070759E+03 E0= -.66064725E+03  d E =-.271791E-03
       N       E                     dE             d eps       ncg     rms          rms(c)
DAV:   1    -0.660706391440E+03    0.11955E-02   -0.14399E-01  9072   0.134E+00    0.137E-01
RMM:   2    -0.660708778470E+03   -0.23870E-02   -0.21022E-02 11952   0.389E-01    0.263E-01
RMM:   3    -0.660707782686E+03    0.99578E-03   -0.18130E-03 11280   0.141E-01    0.667E-02
RMM:   4    -0.660707778512E+03    0.41747E-05   -0.44216E-04 11943   0.489E-02    0.747E-02
RMM:   5    -0.660707736086E+03    0.42426E-04   -0.12295E-04  9096   0.301E-02    0.380E-02
RMM:   6    -0.660707729264E+03    0.68219E-05   -0.84353E-05  8272   0.221E-02
  39 F= -.66070773E+03 E0= -.66064739E+03  d E =-.137668E-03
       N       E                     dE             d eps       ncg     rms          rms(c)
DAV:   1    -0.660707718730E+03    0.17355E-04   -0.66082E-04 11088   0.916E-02    0.258E-02
RMM:   2    -0.660707825665E+03   -0.10693E-03   -0.22682E-04  8410   0.384E-02    0.114E-01
RMM:   3    -0.660707718762E+03    0.10690E-03   -0.50316E-05  6390   0.256E-02    0.967E-03
RMM:   4    -0.660707717710E+03    0.10526E-05   -0.70054E-06  5048   0.118E-02
  40 F= -.66070772E+03 E0= -.66064739E+03  d E =-.126114E-03
       N       E                     dE             d eps       ncg     rms          rms(c)
DAV:   1    -0.660706895086E+03    0.82368E-03   -0.10141E-01  9096   0.108E+00    0.972E-02
RMM:   2    -0.660708156896E+03   -0.12618E-02   -0.12852E-02 12094   0.308E-01    0.152E-01
RMM:   3    -0.660707842279E+03    0.31462E-03   -0.10260E-03 11662   0.106E-01    0.670E-02
RMM:   4    -0.660707849424E+03   -0.71453E-05   -0.27039E-04 10824   0.390E-02    0.815E-02
RMM:   5    -0.660707787880E+03    0.61545E-04   -0.78627E-05  7558   0.284E-02    0.232E-02
RMM:   6    -0.660707790137E+03   -0.22578E-05   -0.55389E-05  7036   0.192E-02
  41 F= -.66070779E+03 E0= -.66064745E+03  d E =-.724276E-04
