 running on   24 total cores
 distrk:  each k-point on   24 cores,    1 groups
 distr:  one band on    1 cores,   24 groups
 using from now: INCAR     
 vasp.5.4.4.18Apr17-6-g9f103f2a35 (build Oct 18 2021 20:38:43) complex          
  
 POSCAR found type information on POSCAR  V  Nb Zr N  C  Cr Ta
 POSCAR found :  7 types and      64 ions
 scaLAPACK will be used

 ----------------------------------------------------------------------------- 
|                                                                             |
|           W    W    AA    RRRRR   N    N  II  N    N   GGGG   !!!           |
|           W    W   A  A   R    R  NN   N  II  NN   N  G    G  !!!           |
|           W    W  A    A  R    R  N N  N  II  N N  N  G       !!!           |
|           W WW W  AAAAAA  RRRRR   N  N N  II  N  N N  G  GGG   !            |
|           WW  WW  A    A  R   R   N   NN  II  N   NN  G    G                |
|           W    W  A    A  R    R  N    N  II  N    N   GGGG   !!!           |
|                                                                             |
|      For optimal performance we recommend to set                            |
|        NCORE= 4 - approx SQRT( number of cores)                             |
|      NCORE specifies how many cores store one orbital (NPAR=cpu/NCORE).     |
|      This setting can  greatly improve the performance of VASP for DFT.     |
|      The default,   NCORE=1            might be grossly inefficient         |
|      on modern multi-core architectures or massively parallel machines.     |
|      Do your own testing !!!!                                               |
|      Unfortunately you need to use the default for GW and RPA calculations. |
|      (for HF NCORE is supported but not extensively tested yet)             |
|                                                                             |
 ----------------------------------------------------------------------------- 


 ----------------------------------------------------------------------------- 
|                                                                             |
|  ADVICE TO THIS USER RUNNING 'VASP/VAMP'   (HEAR YOUR MASTER'S VOICE ...):  |
|                                                                             |
|      You have a (more or less) 'large supercell' and for larger cells       |
|      it might be more efficient to use real space projection operators      |
|      So try LREAL= Auto  in the INCAR   file.                               |
|      Mind: If you want to do a very accurate calculations keep the          |
|      reciprocal projection scheme          (i.e. LREAL=.FALSE.)             |
|                                                                             |
 ----------------------------------------------------------------------------- 

 LDA part: xc-table for Pade appr. of Perdew
 POSCAR, INCAR and KPOINTS ok, starting setup
 FFT: planning ...
 WAVECAR not read
 entering main loop
       N       E                     dE             d eps       ncg     rms          rms(c)
DAV:   1     0.701688164755E+04    0.70169E+04   -0.22483E+05  9672   0.150E+03
DAV:   2     0.384670856306E+03   -0.66322E+04   -0.63855E+04  9528   0.618E+02
DAV:   3    -0.651308023285E+03   -0.10360E+04   -0.95044E+03 14712   0.212E+02
DAV:   4    -0.775241792568E+03   -0.12393E+03   -0.11986E+03 16560   0.897E+01
DAV:   5    -0.791178445921E+03   -0.15937E+02   -0.15627E+02 18816   0.280E+01    0.817E+01
RMM:   6    -0.974167594116E+03   -0.18299E+03   -0.26704E+03 12258   0.131E+02    0.137E+02
RMM:   7    -0.637490381888E+03    0.33668E+03   -0.25722E+02 13404   0.481E+01    0.476E+01
RMM:   8    -0.655833873632E+03   -0.18343E+02   -0.75846E+01 14965   0.160E+01    0.509E+01
RMM:   9    -0.637386066087E+03    0.18448E+02   -0.32814E+01 13831   0.154E+01    0.347E+01
RMM:  10    -0.631060951164E+03    0.63251E+01   -0.12943E+01 15189   0.787E+00    0.203E+01
RMM:  11    -0.630947966768E+03    0.11298E+00   -0.52815E+00 15336   0.564E+00    0.222E+01
RMM:  12    -0.629908477034E+03    0.10395E+01   -0.57780E+00 14456   0.491E+00    0.177E+01
RMM:  13    -0.629308437892E+03    0.60004E+00   -0.40266E+00 14753   0.477E+00    0.165E+01
RMM:  14    -0.629157758899E+03    0.15068E+00   -0.28572E+00 14968   0.333E+00    0.130E+01
RMM:  15    -0.628576963778E+03    0.58080E+00   -0.14903E+00 14782   0.276E+00    0.844E+00
RMM:  16    -0.628575968371E+03    0.99541E-03   -0.74872E-01 14426   0.209E+00    0.938E+00
RMM:  17    -0.628920766689E+03   -0.34480E+00   -0.67859E-01 14537   0.214E+00    0.126E+01
RMM:  18    -0.628327425085E+03    0.59334E+00   -0.45676E-01 14356   0.164E+00    0.512E+00
RMM:  19    -0.628279049664E+03    0.48375E-01   -0.26339E-01 14871   0.119E+00    0.331E+00
RMM:  20    -0.628274562620E+03    0.44870E-02   -0.21763E-01 14895   0.850E-01    0.246E+00
RMM:  21    -0.628261936964E+03    0.12626E-01   -0.11272E-01 15020   0.671E-01    0.189E+00
RMM:  22    -0.628296309415E+03   -0.34372E-01   -0.76893E-02 14563   0.586E-01    0.342E+00
RMM:  23    -0.628258243969E+03    0.38065E-01   -0.41778E-02 14713   0.472E-01    0.115E+00
RMM:  24    -0.628258902717E+03   -0.65875E-03   -0.30720E-02 14777   0.293E-01    0.110E+00
RMM:  25    -0.628252440038E+03    0.64627E-02   -0.24930E-02 15060   0.259E-01    0.313E-01
RMM:  26    -0.628253640716E+03   -0.12007E-02   -0.11134E-02 13847   0.204E-01    0.430E-01
RMM:  27    -0.628253103935E+03    0.53678E-03   -0.69350E-03 13789   0.141E-01    0.119E-01
RMM:  28    -0.628253292813E+03   -0.18888E-03   -0.36977E-03 13367   0.999E-02    0.773E-02
RMM:  29    -0.628253398120E+03   -0.10531E-03   -0.19199E-03 13100   0.775E-02    0.457E-02
RMM:  30    -0.628253531378E+03   -0.13326E-03   -0.16601E-03 11865   0.525E-02    0.199E-02
RMM:  31    -0.628253593261E+03   -0.61883E-04   -0.79973E-04 11705   0.385E-02    0.109E-02
RMM:  32    -0.628253647771E+03   -0.54510E-04   -0.60597E-04 11344   0.314E-02    0.673E-03
RMM:  33    -0.628253673890E+03   -0.26119E-04   -0.32105E-04 10777   0.253E-02    0.482E-03
WARNING in EDDRMM: call to ZHEGV failed, returncode =   8  4     11
RMM:  34    -0.628253693595E+03   -0.19705E-04   -0.22556E-04 10318   0.213E-02    0.214E-03
RMM:  35    -0.628253704325E+03   -0.10729E-04   -0.12850E-04  9692   0.178E-02    0.174E-03
RMM:  36    -0.628253711707E+03   -0.73822E-05   -0.84860E-05  9077   0.159E-02
   1 F= -.62825371E+03 E0= -.62814844E+03  d E =-.628254E+03
 curvature:   0.00 expect dE= 0.000E+00 dE for cont linesearch  0.000E+00
 trial: gam= 0.00000 g(F)=  0.978E+01 g(S)=  0.576E+01 ort = 0.000E+00 (trialstep = 0.100E+01)
 search vector abs. value=  0.155E+02
 bond charge predicted
       N       E                     dE             d eps       ncg     rms          rms(c)
DAV:   1    -0.674600778846E+03   -0.46347E+02   -0.32140E+03 12768   0.228E+02    0.582E+01
RMM:   2    -0.767818428417E+03   -0.93218E+02   -0.82176E+02 11528   0.108E+02    0.892E+01
RMM:   3    -0.660753407717E+03    0.10707E+03   -0.81049E+01 13039   0.288E+01    0.574E+01
RMM:   4    -0.644122229312E+03    0.16631E+02   -0.31400E+01 13917   0.162E+01    0.280E+01
RMM:   5    -0.646950813567E+03   -0.28286E+01   -0.26937E+01 11629   0.175E+01    0.426E+01
RMM:   6    -0.635031801071E+03    0.11919E+02   -0.14114E+01 12708   0.123E+01    0.199E+01
RMM:   7    -0.634625331685E+03    0.40647E+00   -0.57870E+00 13146   0.678E+00    0.190E+01
RMM:   8    -0.632916858727E+03    0.17085E+01   -0.21992E+00 13491   0.421E+00    0.873E+00
RMM:   9    -0.632748561286E+03    0.16830E+00   -0.10399E+00 15263   0.221E+00    0.642E+00
RMM:  10    -0.632763510643E+03   -0.14949E-01   -0.49085E-01 14954   0.186E+00    0.582E+00
RMM:  11    -0.632632983647E+03    0.13053E+00   -0.32350E-01 15560   0.125E+00    0.222E+00
RMM:  12    -0.632688175518E+03   -0.55192E-01   -0.18984E-01 15535   0.986E-01    0.321E+00
RMM:  13    -0.632711699843E+03   -0.23524E-01   -0.16485E-01 15094   0.961E-01    0.294E+00
RMM:  14    -0.632692131653E+03    0.19568E-01   -0.10352E-01 15679   0.750E-01    0.143E+00
RMM:  15    -0.632720653622E+03   -0.28522E-01   -0.10206E-01 15601   0.653E-01    0.150E+00
RMM:  16    -0.632714536186E+03    0.61174E-02   -0.66563E-02 15545   0.538E-01    0.594E-01
RMM:  17    -0.632719509711E+03   -0.49735E-02   -0.46109E-02 15610   0.419E-01    0.620E-01
RMM:  18    -0.632720335536E+03   -0.82583E-03   -0.27457E-02 15428   0.334E-01    0.423E-01
RMM:  19    -0.632721925327E+03   -0.15898E-02   -0.19982E-02 15602   0.246E-01    0.378E-01
RMM:  20    -0.632721982947E+03   -0.57620E-04   -0.99792E-03 15073   0.195E-01    0.178E-01
RMM:  21    -0.632722575194E+03   -0.59225E-03   -0.70999E-03 14448   0.141E-01    0.173E-01
RMM:  22    -0.632722648130E+03   -0.72936E-04   -0.35926E-03 14327   0.119E-01    0.637E-02
RMM:  23    -0.632722903976E+03   -0.25585E-03   -0.24966E-03 13422   0.908E-02    0.108E-01
RMM:  24    -0.632722957858E+03   -0.53883E-04   -0.16005E-03 12775   0.644E-02    0.604E-02
RMM:  25    -0.632723004240E+03   -0.46382E-04   -0.74390E-04 12603   0.559E-02    0.210E-02
RMM:  26    -0.632723060523E+03   -0.56283E-04   -0.61266E-04 12158   0.405E-02    0.381E-02
RMM:  27    -0.632723085824E+03   -0.25301E-04   -0.31843E-04 12091   0.359E-02    0.646E-03
WARNING in EDDRMM: call to ZHEGV failed, returncode =   6  3     11
RMM:  28    -0.632723106876E+03   -0.21052E-04   -0.22790E-04 11681   0.269E-02    0.800E-03
RMM:  29    -0.632723118888E+03   -0.12012E-04   -0.14512E-04 11128   0.222E-02    0.667E-03
RMM:  30    -0.632723127146E+03   -0.82578E-05   -0.85510E-05 10455   0.185E-02
   2 F= -.63272313E+03 E0= -.63263455E+03  d E =-.446942E+01
 trial-energy change:   -4.469415  1 .order   -3.906789  -15.542176    7.728598
 step:   0.6984(harm=  0.6679)  dis= 0.13051  next Energy=  -633.873024 (dE=-0.562E+01)
 bond charge predicted
       N       E                     dE             d eps       ncg     rms          rms(c)
DAV:   1    -0.638409023581E+03   -0.56859E+01   -0.30271E+02 12768   0.684E+01    0.235E+01
RMM:   2    -0.671152350363E+03   -0.32743E+02   -0.78740E+01 13396   0.278E+01    0.505E+01
RMM:   3    -0.637680094940E+03    0.33472E+02   -0.20681E+01 11694   0.186E+01    0.235E+01
RMM:   4    -0.635827978795E+03    0.18521E+01   -0.60978E+00 13391   0.717E+00    0.168E+01
RMM:   5    -0.635965234419E+03   -0.13726E+00   -0.21904E+00 12954   0.472E+00    0.174E+01
RMM:   6    -0.634219301196E+03    0.17459E+01   -0.12911E+00 12727   0.353E+00    0.802E+00
RMM:   7    -0.634482690757E+03   -0.26339E+00   -0.77648E-01 12865   0.245E+00    0.113E+01
RMM:   8    -0.634043763097E+03    0.43893E+00   -0.43743E-01 12986   0.203E+00    0.588E+00
RMM:   9    -0.633895856234E+03    0.14791E+00   -0.22280E-01 14158   0.128E+00    0.289E+00
RMM:  10    -0.633951872969E+03   -0.56017E-01   -0.12484E-01 14327   0.970E-01    0.439E+00
RMM:  11    -0.633878323815E+03    0.73549E-01   -0.68638E-02 14565   0.769E-01    0.200E+00
RMM:  12    -0.633862546670E+03    0.15777E-01   -0.43820E-02 15591   0.445E-01    0.791E-01
RMM:  13    -0.633870641146E+03   -0.80945E-02   -0.26984E-02 15483   0.382E-01    0.137E+00
RMM:  14    -0.633865699844E+03    0.49413E-02   -0.19181E-02 15360   0.276E-01    0.565E-01
RMM:  15    -0.633866190389E+03   -0.49054E-03   -0.10509E-02 15315   0.201E-01    0.427E-01
RMM:  16    -0.633869025049E+03   -0.28347E-02   -0.91707E-03 15019   0.180E-01    0.607E-01
RMM:  17    -0.633868806000E+03    0.21905E-03   -0.53337E-03 14545   0.172E-01    0.334E-01
RMM:  18    -0.633870993796E+03   -0.21878E-02   -0.66469E-03 14846   0.147E-01    0.424E-01
RMM:  19    -0.633870164805E+03    0.82899E-03   -0.38955E-03 14509   0.140E-01    0.947E-02
RMM:  20    -0.633870496968E+03   -0.33216E-03   -0.30069E-03 13414   0.926E-02    0.150E-01
RMM:  21    -0.633870459763E+03    0.37205E-04   -0.16454E-03 13002   0.848E-02    0.428E-02
RMM:  22    -0.633870581710E+03   -0.12195E-03   -0.13341E-03 12519   0.553E-02    0.586E-02
RMM:  23    -0.633870609436E+03   -0.27726E-04   -0.60488E-04 12190   0.498E-02    0.300E-02
RMM:  24    -0.633870644467E+03   -0.35030E-04   -0.48634E-04 11738   0.338E-02    0.164E-02
RMM:  25    -0.633870655443E+03   -0.10977E-04   -0.22455E-04 11691   0.311E-02    0.797E-03
WARNING in EDDRMM: call to ZHEGV failed, returncode =   8  4      6
RMM:  26    -0.633870668531E+03   -0.13087E-04   -0.15935E-04 11028   0.229E-02    0.322E-03
RMM:  27    -0.633870676679E+03   -0.81484E-05   -0.10238E-04 10496   0.190E-02    0.245E-03
WARNING in EDDRMM: call to ZHEGV failed, returncode =   6  3     11
RMM:  28    -0.633870681395E+03   -0.47158E-05   -0.64371E-05  9632   0.162E-02
   3 F= -.63387068E+03 E0= -.63377929E+03  d E =-.561697E+01
 curvature:  -0.33 expect dE=-0.182E+01 dE for cont linesearch -0.249E-02
 trial: gam= 0.33087 g(F)=  0.315E+01 g(S)=  0.234E+01 ort = 0.342E+00 (trialstep = 0.940E+00)
 search vector abs. value=  0.741E+01
 bond charge predicted
       N       E                     dE             d eps       ncg     rms          rms(c)
DAV:   1    -0.629230231977E+03    0.46404E+01   -0.11602E+03 12720   0.144E+02    0.271E+01
RMM:   2    -0.694724488003E+03   -0.65494E+02   -0.21671E+02 13459   0.451E+01    0.573E+01
RMM:   3    -0.640332186897E+03    0.54392E+02   -0.36872E+01 12031   0.230E+01    0.245E+01
RMM:   4    -0.638627528941E+03    0.17047E+01   -0.10469E+01 13568   0.908E+00    0.193E+01
RMM:   5    -0.638076850496E+03    0.55068E+00   -0.41153E+00 13596   0.513E+00    0.184E+01
RMM:   6    -0.636389578617E+03    0.16873E+01   -0.14689E+00 13243   0.327E+00    0.768E+00
RMM:   7    -0.636722775495E+03   -0.33320E+00   -0.96423E-01 13718   0.255E+00    0.127E+01
RMM:   8    -0.636347154463E+03    0.37562E+00   -0.64637E-01 13574   0.225E+00    0.793E+00
RMM:   9    -0.636075219733E+03    0.27193E+00   -0.42348E-01 14490   0.167E+00    0.448E+00
RMM:  10    -0.636147784410E+03   -0.72565E-01   -0.26841E-01 14559   0.135E+00    0.574E+00
RMM:  11    -0.636008596115E+03    0.13919E+00   -0.15130E-01 14029   0.111E+00    0.215E+00
RMM:  12    -0.635996849976E+03    0.11746E-01   -0.93174E-02 15533   0.643E-01    0.133E+00
RMM:  13    -0.636011753457E+03   -0.14903E-01   -0.63386E-02 15280   0.541E-01    0.206E+00
RMM:  14    -0.635996963219E+03    0.14790E-01   -0.34723E-02 15662   0.405E-01    0.596E-01
RMM:  15    -0.636000253493E+03   -0.32903E-02   -0.25520E-02 15338   0.257E-01    0.627E-01
RMM:  16    -0.636001072617E+03   -0.81912E-03   -0.14288E-02 15344   0.204E-01    0.435E-01
RMM:  17    -0.636004284756E+03   -0.32121E-02   -0.85002E-03 14939   0.206E-01    0.806E-01
RMM:  18    -0.636003701762E+03    0.58299E-03   -0.83453E-03 15037   0.202E-01    0.317E-01
RMM:  19    -0.636003775068E+03   -0.73306E-04   -0.57624E-03 14626   0.145E-01    0.231E-01
RMM:  20    -0.636003688329E+03    0.86739E-04   -0.33867E-03 14504   0.113E-01    0.999E-02
RMM:  21    -0.636003827297E+03   -0.13897E-03   -0.23380E-03 13420   0.832E-02    0.651E-02
RMM:  22    -0.636003899437E+03   -0.72140E-04   -0.12097E-03 13132   0.634E-02    0.525E-02
RMM:  23    -0.636003964117E+03   -0.64680E-04   -0.86062E-04 12465   0.490E-02    0.445E-02
RMM:  24    -0.636003987210E+03   -0.23093E-04   -0.48582E-04 12271   0.370E-02    0.209E-02
RMM:  25    -0.636004004460E+03   -0.17250E-04   -0.31173E-04 12017   0.309E-02    0.918E-03
RMM:  26    -0.636004017442E+03   -0.12982E-04   -0.16766E-04 11642   0.260E-02    0.460E-03
RMM:  27    -0.636004028606E+03   -0.11164E-04   -0.12190E-04 10598   0.190E-02    0.474E-03
WARNING in EDDRMM: call to ZHEGV failed, returncode =   8  4      9
RMM:  28    -0.636004034360E+03   -0.57532E-05   -0.78434E-05  9983   0.165E-02
   4 F= -.63600403E+03 E0= -.63590814E+03  d E =-.213335E+01
 trial-energy change:   -2.133353  1 .order   -2.288378   -5.260009    0.683252
 step:   0.8147(harm=  0.8317)  dis= 0.07397  next Energy=  -636.049839 (dE=-0.218E+01)
 bond charge predicted
       N       E                     dE             d eps       ncg     rms          rms(c)
DAV:   1    -0.635914614868E+03    0.89414E-01   -0.20048E+01 12192   0.196E+01    0.328E+00
RMM:   2    -0.637238779882E+03   -0.13242E+01   -0.42229E+00 12307   0.680E+00    0.136E+01
RMM:   3    -0.636460030870E+03    0.77875E+00   -0.76003E-01 12238   0.309E+00    0.853E+00
RMM:   4    -0.636108024975E+03    0.35201E+00   -0.26506E-01 12005   0.172E+00    0.315E+00
RMM:   5    -0.636072378338E+03    0.35647E-01   -0.83979E-02 13621   0.777E-01    0.175E+00
RMM:   6    -0.636080994814E+03   -0.86165E-02   -0.38148E-02 12942   0.517E-01    0.255E+00
RMM:   7    -0.636052433688E+03    0.28561E-01   -0.16709E-02 12340   0.402E-01    0.851E-01
RMM:   8    -0.636059521134E+03   -0.70874E-02   -0.15604E-02 13925   0.302E-01    0.147E+00
RMM:   9    -0.636053823806E+03    0.56973E-02   -0.10666E-02 13417   0.303E-01    0.107E+00
RMM:  10    -0.636048668044E+03    0.51558E-02   -0.51080E-03 13463   0.219E-01    0.306E-01
RMM:  11    -0.636049571454E+03   -0.90341E-03   -0.37658E-03 14781   0.123E-01    0.447E-01
RMM:  12    -0.636048758995E+03    0.81246E-03   -0.16273E-03 13580   0.111E-01    0.235E-01
RMM:  13    -0.636048649914E+03    0.10908E-03   -0.12421E-03 13415   0.591E-02    0.894E-02
RMM:  14    -0.636048739991E+03   -0.90077E-04   -0.57212E-04 13163   0.466E-02    0.861E-02
RMM:  15    -0.636048769384E+03   -0.29393E-04   -0.33250E-04 12530   0.363E-02    0.719E-02
RMM:  16    -0.636048867738E+03   -0.98354E-04   -0.21666E-04 12105   0.357E-02    0.127E-01
RMM:  17    -0.636048861362E+03    0.63757E-05   -0.21198E-04 12140   0.326E-02    0.344E-02
RMM:  18    -0.636048910418E+03   -0.49056E-04   -0.16095E-04 12272   0.284E-02    0.693E-02
RMM:  19    -0.636048887226E+03    0.23192E-04   -0.10992E-04 10887   0.239E-02    0.918E-03
RMM:  20    -0.636048891484E+03   -0.42573E-05   -0.54232E-05  9124   0.190E-02
   5 F= -.63604889E+03 E0= -.63595379E+03  d E =-.217821E+01
 curvature:  -0.54 expect dE=-0.764E+00 dE for cont linesearch -0.214E-06
 trial: gam= 0.28107 g(F)=  0.114E+01 g(S)=  0.277E+00 ort =-0.172E-02 (trialstep = 0.915E+00)
 search vector abs. value=  0.201E+01
 bond charge predicted
       N       E                     dE             d eps       ncg     rms          rms(c)
DAV:   1    -0.630647668395E+03    0.54012E+01   -0.34845E+02 11976   0.106E+02    0.841E+00
RMM:   2    -0.644302600130E+03   -0.13655E+02   -0.88238E+01 13386   0.252E+01    0.298E+01
RMM:   3    -0.638246837222E+03    0.60558E+01   -0.74489E+00 12115   0.103E+01    0.152E+01
RMM:   4    -0.637187074032E+03    0.10598E+01   -0.28322E+00 13859   0.407E+00    0.625E+00
RMM:   5    -0.637128585913E+03    0.58488E-01   -0.57776E-01 13319   0.225E+00    0.656E+00
RMM:   6    -0.636949002063E+03    0.17958E+00   -0.28670E-01 13081   0.156E+00    0.451E+00
RMM:   7    -0.636873443312E+03    0.75559E-01   -0.16855E-01 13672   0.999E-01    0.297E+00
RMM:   8    -0.636992347448E+03   -0.11890E+00   -0.22937E-01 12947   0.135E+00    0.565E+00
RMM:   9    -0.636833124441E+03    0.15922E+00   -0.13482E-01 13203   0.112E+00    0.247E+00
RMM:  10    -0.636807738885E+03    0.25386E-01   -0.62479E-02 14679   0.648E-01    0.937E-01
RMM:  11    -0.636811851662E+03   -0.41128E-02   -0.30015E-02 15202   0.341E-01    0.994E-01
RMM:  12    -0.636806967291E+03    0.48844E-02   -0.13439E-02 15281   0.270E-01    0.466E-01
RMM:  13    -0.636807340699E+03   -0.37341E-03   -0.88740E-03 15115   0.161E-01    0.349E-01
RMM:  14    -0.636807958102E+03   -0.61740E-03   -0.45265E-03 15047   0.136E-01    0.292E-01
RMM:  15    -0.636808129456E+03   -0.17135E-03   -0.28750E-03 14636   0.104E-01    0.233E-01
RMM:  16    -0.636808929322E+03   -0.79987E-03   -0.20086E-03 14092   0.105E-01    0.386E-01
RMM:  17    -0.636808731591E+03    0.19773E-03   -0.17429E-03 14244   0.870E-02    0.104E-01
RMM:  18    -0.636808958869E+03   -0.22728E-03   -0.12228E-03 13763   0.753E-02    0.143E-01
RMM:  19    -0.636808891357E+03    0.67512E-04   -0.89395E-04 13444   0.590E-02    0.263E-02
RMM:  20    -0.636808926514E+03   -0.35157E-04   -0.44067E-04 12415   0.456E-02    0.275E-02
RMM:  21    -0.636808953622E+03   -0.27108E-04   -0.34813E-04 11851   0.329E-02    0.218E-02
RMM:  22    -0.636808965576E+03   -0.11954E-04   -0.17908E-04 11364   0.269E-02    0.832E-03
RMM:  23    -0.636808977711E+03   -0.12135E-04   -0.12342E-04 11026   0.206E-02    0.147E-02
RMM:  24    -0.636808982506E+03   -0.47952E-05   -0.69563E-05 10215   0.180E-02
   6 F= -.63680898E+03 E0= -.63672023E+03  d E =-.760091E+00
 trial-energy change:   -0.760091  1 .order   -0.733463   -1.300031   -0.166895
 step:   1.0309(harm=  1.0494)  dis= 0.06172  next Energy=  -636.819643 (dE=-0.771E+00)
 bond charge predicted
       N       E                     dE             d eps       ncg     rms          rms(c)
DAV:   1    -0.636710565622E+03    0.98412E-01   -0.55616E+00 11328   0.137E+01    0.111E+00
RMM:   2    -0.636966625667E+03   -0.25606E+00   -0.14708E+00 13601   0.318E+00    0.509E+00
RMM:   3    -0.636850871367E+03    0.11575E+00   -0.13399E-01 12057   0.137E+00    0.228E+00
RMM:   4    -0.636827835614E+03    0.23036E-01   -0.46696E-02 12877   0.638E-01    0.109E+00
RMM:   5    -0.636824426749E+03    0.34089E-02   -0.14235E-02 13381   0.313E-01    0.798E-01
RMM:   6    -0.636821752025E+03    0.26747E-02   -0.59199E-03 13232   0.190E-01    0.545E-01
RMM:   7    -0.636820087966E+03    0.16641E-02   -0.28819E-03 13216   0.135E-01    0.297E-01
RMM:   8    -0.636821952395E+03   -0.18644E-02   -0.34337E-03 13107   0.166E-01    0.679E-01
RMM:   9    -0.636820045796E+03    0.19066E-02   -0.19519E-03 13109   0.134E-01    0.415E-01
RMM:  10    -0.636819327513E+03    0.71828E-03   -0.87030E-04 12844   0.889E-02    0.114E-01
RMM:  11    -0.636819419435E+03   -0.91922E-04   -0.54715E-04 13104   0.509E-02    0.143E-01
RMM:  12    -0.636819338384E+03    0.81051E-04   -0.22586E-04 11969   0.404E-02    0.756E-02
RMM:  13    -0.636819336961E+03    0.14233E-05   -0.16043E-04 10793   0.258E-02    0.507E-02
RMM:  14    -0.636819350103E+03   -0.13142E-04   -0.91587E-05 10406   0.214E-02    0.396E-02
RMM:  15    -0.636819354150E+03   -0.40467E-05   -0.54768E-05  8162   0.177E-02
   7 F= -.63681935E+03 E0= -.63673115E+03  d E =-.770463E+00
 curvature:  -0.73 expect dE=-0.513E+00 dE for cont linesearch -0.347E-05
 trial: gam= 0.44375 g(F)=  0.455E+00 g(S)=  0.251E+00 ort =-0.309E-02 (trialstep = 0.938E+00)
 search vector abs. value=  0.110E+01
 bond charge predicted
       N       E                     dE             d eps       ncg     rms          rms(c)
DAV:   1    -0.634346410686E+03    0.24729E+01   -0.21177E+02 12096   0.849E+01    0.104E+01
RMM:   2    -0.645234762558E+03   -0.10888E+02   -0.54648E+01 13528   0.215E+01    0.275E+01
RMM:   3    -0.638776661598E+03    0.64581E+01   -0.66736E+00 12234   0.961E+00    0.162E+01
RMM:   4    -0.637661419368E+03    0.11152E+01   -0.20601E+00 13260   0.425E+00    0.862E+00
RMM:   5    -0.637597418808E+03    0.64001E-01   -0.68452E-01 13363   0.242E+00    0.787E+00
RMM:   6    -0.637276257427E+03    0.32116E+00   -0.33694E-01 12917   0.168E+00    0.419E+00
RMM:   7    -0.637243482076E+03    0.32775E-01   -0.16547E-01 13132   0.113E+00    0.359E+00
RMM:   8    -0.637261290728E+03   -0.17809E-01   -0.15786E-01 13338   0.111E+00    0.400E+00
RMM:   9    -0.637185695524E+03    0.75595E-01   -0.79479E-02 13787   0.831E-01    0.206E+00
RMM:  10    -0.637185904188E+03   -0.20866E-03   -0.48306E-02 14343   0.601E-01    0.192E+00
RMM:  11    -0.637177126275E+03    0.87779E-02   -0.28618E-02 14293   0.439E-01    0.131E+00
RMM:  12    -0.637170111825E+03    0.70145E-02   -0.15770E-02 14696   0.295E-01    0.580E-01
RMM:  13    -0.637170183876E+03   -0.72052E-04   -0.98623E-03 15188   0.196E-01    0.400E-01
RMM:  14    -0.637170318020E+03   -0.13414E-03   -0.57596E-03 15171   0.132E-01    0.239E-01
RMM:  15    -0.637170657213E+03   -0.33919E-03   -0.32969E-03 14643   0.110E-01    0.226E-01
RMM:  16    -0.637171394205E+03   -0.73699E-03   -0.23483E-03 14492   0.105E-01    0.332E-01
RMM:  17    -0.637171202253E+03    0.19195E-03   -0.17166E-03 13838   0.102E-01    0.155E-01
RMM:  18    -0.637171519163E+03   -0.31691E-03   -0.16542E-03 14080   0.795E-02    0.172E-01
RMM:  19    -0.637171359788E+03    0.15938E-03   -0.10388E-03 13544   0.670E-02    0.355E-02
RMM:  20    -0.637171424017E+03   -0.64228E-04   -0.61903E-04 12903   0.498E-02    0.600E-02
RMM:  21    -0.637171426357E+03   -0.23401E-05   -0.37081E-04 12197   0.392E-02    0.231E-02
RMM:  22    -0.637171443673E+03   -0.17316E-04   -0.23056E-04 11786   0.286E-02    0.196E-02
RMM:  23    -0.637171453476E+03   -0.98028E-05   -0.15079E-04 11227   0.233E-02    0.117E-02
RMM:  24    -0.637171458038E+03   -0.45623E-05   -0.91869E-05 10614   0.182E-02
   8 F= -.63717146E+03 E0= -.63708459E+03  d E =-.352104E+00
 trial-energy change:   -0.352104  1 .order   -0.351219   -0.660889   -0.041550
 step:   1.0009(harm=  1.0009)  dis= 0.05254  next Energy=  -637.171967 (dE=-0.353E+00)
 bond charge predicted
       N       E                     dE             d eps       ncg     rms          rms(c)
DAV:   1    -0.637160007933E+03    0.11446E-01   -0.94473E-01 12984   0.578E+00    0.682E-01
RMM:   2    -0.637211259194E+03   -0.51251E-01   -0.24865E-01 12995   0.150E+00    0.228E+00
RMM:   3    -0.637188281272E+03    0.22978E-01   -0.33690E-02 12204   0.671E-01    0.173E+00
RMM:   4    -0.637175685796E+03    0.12595E-01   -0.11164E-02 12304   0.342E-01    0.617E-01
RMM:   5    -0.637174668584E+03    0.10172E-02   -0.38319E-03 12921   0.167E-01    0.473E-01
RMM:   6    -0.637174260558E+03    0.40803E-03   -0.18351E-03 12133   0.121E-01    0.454E-01
RMM:   7    -0.637173245528E+03    0.10150E-02   -0.89183E-04 11824   0.927E-02    0.182E-01
RMM:   8    -0.637173751787E+03   -0.50626E-03   -0.89235E-04 12865   0.802E-02    0.359E-01
RMM:   9    -0.637173290393E+03    0.46139E-03   -0.53228E-04 11730   0.774E-02    0.225E-01
RMM:  10    -0.637173066755E+03    0.22364E-03   -0.29647E-04 11669   0.496E-02    0.799E-02
RMM:  11    -0.637173087094E+03   -0.20338E-04   -0.16280E-04 11097   0.329E-02    0.943E-02
RMM:  12    -0.637173052675E+03    0.34419E-04   -0.64265E-05  8592   0.249E-02    0.418E-02
RMM:  13    -0.637173046735E+03    0.59400E-05   -0.50626E-05  7698   0.180E-02
   9 F= -.63717305E+03 E0= -.63708624E+03  d E =-.353693E+00
 curvature:  -0.78 expect dE=-0.345E+00 dE for cont linesearch -0.138E-05
 trial: gam= 0.56883 g(F)=  0.286E+00 g(S)=  0.156E+00 ort = 0.140E-02 (trialstep = 0.951E+00)
 search vector abs. value=  0.799E+00
 bond charge predicted
       N       E                     dE             d eps       ncg     rms          rms(c)
DAV:   1    -0.634220406432E+03    0.29526E+01   -0.15879E+02 11064   0.778E+01    0.551E+00
RMM:   2    -0.640008270749E+03   -0.57879E+01   -0.42909E+01 13600   0.170E+01    0.170E+01
RMM:   3    -0.638138392111E+03    0.18699E+01   -0.32962E+00 11786   0.718E+00    0.114E+01
RMM:   4    -0.637568044017E+03    0.57035E+00   -0.13279E+00 13189   0.319E+00    0.489E+00
RMM:   5    -0.637516766742E+03    0.51277E-01   -0.32990E-01 13581   0.152E+00    0.393E+00
RMM:   6    -0.637435989583E+03    0.80777E-01   -0.12184E-01 13025   0.954E-01    0.237E+00
RMM:   7    -0.637421354810E+03    0.14635E-01   -0.58185E-02 13311   0.634E-01    0.204E+00
RMM:   8    -0.637445155870E+03   -0.23801E-01   -0.80452E-02 13486   0.744E-01    0.286E+00
RMM:   9    -0.637400679447E+03    0.44476E-01   -0.55527E-02 13693   0.620E-01    0.152E+00
RMM:  10    -0.637392126608E+03    0.85528E-02   -0.18868E-02 14162   0.425E-01    0.662E-01
RMM:  11    -0.637393628959E+03   -0.15024E-02   -0.12922E-02 15382   0.231E-01    0.659E-01
RMM:  12    -0.637391724310E+03    0.19046E-02   -0.52877E-03 14617   0.191E-01    0.351E-01
RMM:  13    -0.637391691894E+03    0.32416E-04   -0.42295E-03 14475   0.112E-01    0.202E-01
RMM:  14    -0.637391920248E+03   -0.22835E-03   -0.19194E-03 14517   0.818E-02    0.162E-01
RMM:  15    -0.637392074928E+03   -0.15468E-03   -0.10572E-03 13791   0.705E-02    0.172E-01
RMM:  16    -0.637392330869E+03   -0.25594E-03   -0.82076E-04 13568   0.667E-02    0.176E-01
RMM:  17    -0.637392340757E+03   -0.98876E-05   -0.72011E-04 13714   0.593E-02    0.568E-02
RMM:  18    -0.637392411964E+03   -0.71207E-04   -0.49973E-04 13060   0.491E-02    0.578E-02
RMM:  19    -0.637392415104E+03   -0.31395E-05   -0.31983E-04 12348   0.370E-02    0.223E-02
RMM:  20    -0.637392428676E+03   -0.13572E-04   -0.18449E-04 11686   0.297E-02    0.166E-02
RMM:  21    -0.637392439943E+03   -0.11267E-04   -0.13850E-04 10819   0.223E-02    0.155E-02
RMM:  22    -0.637392446755E+03   -0.68121E-05   -0.81187E-05 10357   0.190E-02
  10 F= -.63739245E+03 E0= -.63730893E+03  d E =-.219400E+00
 trial-energy change:   -0.219400  1 .order   -0.213091   -0.421172   -0.005010
 step:   0.9610(harm=  0.9620)  dis= 0.04610  next Energy=  -637.392474 (dE=-0.219E+00)
 bond charge predicted
       N       E                     dE             d eps       ncg     rms          rms(c)
DAV:   1    -0.637392058075E+03    0.38187E-03   -0.19223E-02 11784   0.860E-01    0.619E-02
RMM:   2    -0.637392766430E+03   -0.70836E-03   -0.52811E-03 13503   0.185E-01    0.185E-01
RMM:   3    -0.637392584305E+03    0.18212E-03   -0.40277E-04 10100   0.813E-02    0.149E-01
RMM:   4    -0.637392505567E+03    0.78738E-04   -0.15281E-04  9304   0.402E-02    0.635E-02
RMM:   5    -0.637392495112E+03    0.10455E-04   -0.48647E-05  7289   0.231E-02    0.420E-02
RMM:   6    -0.637392488042E+03    0.70695E-05   -0.19920E-05  6252   0.188E-02
  11 F= -.63739249E+03 E0= -.63730901E+03  d E =-.219441E+00
 curvature:  -0.86 expect dE=-0.175E+00 dE for cont linesearch -0.706E-06
 trial: gam= 0.42315 g(F)=  0.144E+00 g(S)=  0.587E-01 ort = 0.809E-03 (trialstep = 0.953E+00)
 search vector abs. value=  0.347E+00
 bond charge predicted
       N       E                     dE             d eps       ncg     rms          rms(c)
DAV:   1    -0.636276269655E+03    0.11162E+01   -0.70845E+01 12600   0.503E+01    0.501E+00
RMM:   2    -0.640101429971E+03   -0.38252E+01   -0.18612E+01 13495   0.114E+01    0.175E+01
RMM:   3    -0.637946613148E+03    0.21548E+01   -0.20051E+00 12110   0.517E+00    0.839E+00
RMM:   4    -0.637608012702E+03    0.33860E+00   -0.63195E-01 13242   0.225E+00    0.396E+00
RMM:   5    -0.637587017387E+03    0.20995E-01   -0.18513E-01 13210   0.120E+00    0.346E+00
RMM:   6    -0.637524810122E+03    0.62207E-01   -0.88834E-02 13224   0.784E-01    0.194E+00
RMM:   7    -0.637516040804E+03    0.87693E-02   -0.39153E-02 13187   0.543E-01    0.175E+00
RMM:   8    -0.637532682384E+03   -0.16642E-01   -0.44831E-02 13026   0.592E-01    0.248E+00
RMM:   9    -0.637506100458E+03    0.26582E-01   -0.27360E-02 13244   0.494E-01    0.134E+00
RMM:  10    -0.637497919254E+03    0.81812E-02   -0.12339E-02 13715   0.329E-01    0.506E-01
RMM:  11    -0.637498674306E+03   -0.75505E-03   -0.82072E-03 14838   0.194E-01    0.545E-01
RMM:  12    -0.637497331998E+03    0.13423E-02   -0.34155E-03 14082   0.158E-01    0.304E-01
RMM:  13    -0.637497244963E+03    0.87035E-04   -0.24991E-03 13833   0.880E-02    0.172E-01
RMM:  14    -0.637497285958E+03   -0.40995E-04   -0.12844E-03 13843   0.636E-02    0.969E-02
WARNING in EDDRMM: call to ZHEGV failed, returncode =   6  3      7
RMM:  15    -0.637497404388E+03   -0.11843E-03   -0.68123E-04 12991   0.555E-02    0.115E-01
RMM:  16    -0.637497433787E+03   -0.29399E-04   -0.54849E-04 13386   0.482E-02    0.595E-02
RMM:  17    -0.637497500457E+03   -0.66670E-04   -0.40750E-04 12862   0.437E-02    0.842E-02
RMM:  18    -0.637497479195E+03    0.21262E-04   -0.23985E-04 12464   0.387E-02    0.564E-02
RMM:  19    -0.637497481193E+03   -0.19978E-05   -0.18589E-04 11814   0.276E-02    0.244E-02
RMM:  20    -0.637497488788E+03   -0.75951E-05   -0.10141E-04 11222   0.229E-02    0.233E-02
RMM:  21    -0.637497490373E+03   -0.15854E-05   -0.67373E-05  9754   0.178E-02
  12 F= -.63749749E+03 E0= -.63741371E+03  d E =-.105002E+00
 trial-energy change:   -0.105002  1 .order   -0.103939   -0.193758   -0.014119
 step:   1.0247(harm=  1.0275)  dis= 0.04322  next Energy=  -637.498025 (dE=-0.106E+00)
 bond charge predicted
       N       E                     dE             d eps       ncg     rms          rms(c)
DAV:   1    -0.637490849436E+03    0.66394E-02   -0.40031E-01 13272   0.384E+00    0.380E-01
RMM:   2    -0.637516239619E+03   -0.25390E-01   -0.10939E-01 12980   0.908E-01    0.178E+00
RMM:   3    -0.637502088203E+03    0.14151E-01   -0.13307E-02 11953   0.418E-01    0.820E-01
RMM:   4    -0.637498807734E+03    0.32805E-02   -0.42483E-03 12091   0.205E-01    0.307E-01
RMM:   5    -0.637498529558E+03    0.27818E-03   -0.14504E-03 12041   0.985E-02    0.227E-01
RMM:   6    -0.637498302604E+03    0.22695E-03   -0.58553E-04 11985   0.604E-02    0.171E-01
RMM:   7    -0.637498171596E+03    0.13101E-03   -0.23605E-04 10434   0.473E-02    0.114E-01
RMM:   8    -0.637498288959E+03   -0.11736E-03   -0.25001E-04 10981   0.480E-02    0.185E-01
RMM:   9    -0.637498163479E+03    0.12548E-03   -0.18382E-04 10584   0.434E-02    0.119E-01
RMM:  10    -0.637498091197E+03    0.72282E-04   -0.80756E-05  8416   0.313E-02    0.347E-02
RMM:  11    -0.637498094505E+03   -0.33078E-05   -0.54114E-05  8117   0.195E-02
  13 F= -.63749809E+03 E0= -.63741431E+03  d E =-.105606E+00
 curvature:  -0.87 expect dE=-0.102E+00 dE for cont linesearch -0.207E-05
 trial: gam= 0.54399 g(F)=  0.818E-01 g(S)=  0.344E-01 ort = 0.907E-03 (trialstep = 0.967E+00)
 search vector abs. value=  0.220E+00
 bond charge predicted
       N       E                     dE             d eps       ncg     rms          rms(c)
DAV:   1    -0.636431867825E+03    0.10662E+01   -0.46312E+01 11016   0.423E+01    0.293E+00
RMM:   2    -0.638185234631E+03   -0.17534E+01   -0.13991E+01 14274   0.906E+00    0.860E+00
RMM:   3    -0.637740269140E+03    0.44497E+00   -0.10806E+00 11684   0.386E+00    0.549E+00
RMM:   4    -0.637610884373E+03    0.12938E+00   -0.38025E-01 13429   0.161E+00    0.232E+00
RMM:   5    -0.637605651166E+03    0.52332E-02   -0.90105E-02 13818   0.785E-01    0.237E+00
RMM:   6    -0.637579666425E+03    0.25985E-01   -0.32356E-02 12686   0.527E-01    0.134E+00
RMM:   7    -0.637574286811E+03    0.53796E-02   -0.19814E-02 13867   0.322E-01    0.103E+00
RMM:   8    -0.637582920850E+03   -0.86340E-02   -0.23112E-02 12764   0.427E-01    0.166E+00
RMM:   9    -0.637568528854E+03    0.14392E-01   -0.16262E-02 13636   0.345E-01    0.777E-01
RMM:  10    -0.637566377297E+03    0.21516E-02   -0.56011E-03 14174   0.210E-01    0.374E-01
RMM:  11    -0.637566281316E+03    0.95981E-04   -0.34475E-03 14716   0.114E-01    0.261E-01
RMM:  12    -0.637566066276E+03    0.21504E-03   -0.14489E-03 13258   0.103E-01    0.168E-01
RMM:  13    -0.637566149261E+03   -0.82985E-04   -0.10660E-03 13555   0.599E-02    0.143E-01
RMM:  14    -0.637566118214E+03    0.31046E-04   -0.52827E-04 13157   0.475E-02    0.668E-02
RMM:  15    -0.637566244798E+03   -0.12658E-03   -0.34653E-04 12679   0.397E-02    0.124E-01
RMM:  16    -0.637566231893E+03    0.12904E-04   -0.22390E-04 12213   0.379E-02    0.658E-02
RMM:  17    -0.637566255634E+03   -0.23741E-04   -0.19065E-04 12095   0.297E-02    0.490E-02
RMM:  18    -0.637566264256E+03   -0.86214E-05   -0.13243E-04 12124   0.263E-02    0.146E-02
RMM:  19    -0.637566273782E+03   -0.95260E-05   -0.84322E-05 10243   0.206E-02
  14 F= -.63756627E+03 E0= -.63748398E+03  d E =-.681793E-01
 trial-energy change:   -0.068179  1 .order   -0.067481   -0.112845   -0.022117
 step:   1.1901(harm=  1.2028)  dis= 0.04312  next Energy=  -637.568833 (dE=-0.707E-01)
 bond charge predicted
       N       E                     dE             d eps       ncg     rms          rms(c)
DAV:   1    -0.637497761257E+03    0.68503E-01   -0.23593E+00 10320   0.982E+00    0.679E-01
RMM:   2    -0.637590337048E+03   -0.92576E-01   -0.81475E-01 14329   0.219E+00    0.151E+00
RMM:   3    -0.637576491087E+03    0.13846E-01   -0.70103E-02 11992   0.830E-01    0.119E+00
RMM:   4    -0.637570991422E+03    0.54997E-02   -0.16761E-02 13283   0.338E-01    0.504E-01
RMM:   5    -0.637570718112E+03    0.27331E-03   -0.44019E-03 13236   0.180E-01    0.518E-01
RMM:   6    -0.637569326945E+03    0.13912E-02   -0.15402E-03 12001   0.111E-01    0.265E-01
RMM:   7    -0.637569348433E+03   -0.21488E-04   -0.96851E-04 12036   0.760E-02    0.297E-01
RMM:   8    -0.637569541360E+03   -0.19293E-03   -0.11999E-03 12501   0.103E-01    0.351E-01
RMM:   9    -0.637568841249E+03    0.70011E-03   -0.84209E-04 13378   0.717E-02    0.128E-01
RMM:  10    -0.637568847755E+03   -0.65052E-05   -0.28480E-04 11236   0.497E-02    0.122E-01
RMM:  11    -0.637568803170E+03    0.44585E-04   -0.18541E-04 11330   0.313E-02    0.480E-02
RMM:  12    -0.637568802340E+03    0.82978E-06   -0.88908E-05  9219   0.239E-02
  15 F= -.63756880E+03 E0= -.63748690E+03  d E =-.707078E-01
 curvature:  -1.13 expect dE=-0.105E+00 dE for cont linesearch -0.104E-07
 trial: gam= 0.76338 g(F)=  0.602E-01 g(S)=  0.327E-01 ort =-0.450E-04 (trialstep = 0.101E+01)
 search vector abs. value=  0.221E+00
 bond charge predicted
       N       E                     dE             d eps       ncg     rms          rms(c)
DAV:   1    -0.636372690980E+03    0.11961E+01   -0.48056E+01 10464   0.437E+01    0.360E+00
RMM:   2    -0.638495209306E+03   -0.21225E+01   -0.15673E+01 14291   0.101E+01    0.105E+01
RMM:   3    -0.637935926702E+03    0.55928E+00   -0.13816E+00 11973   0.380E+00    0.751E+00
RMM:   4    -0.637676651317E+03    0.25928E+00   -0.40590E-01 12938   0.182E+00    0.265E+00
RMM:   5    -0.637685149582E+03   -0.84983E-02   -0.12079E-01 13304   0.960E-01    0.305E+00
RMM:   6    -0.637637527534E+03    0.47622E-01   -0.45686E-02 13288   0.576E-01    0.142E+00
RMM:   7    -0.637632208116E+03    0.53194E-02   -0.25829E-02 13720   0.381E-01    0.115E+00
RMM:   8    -0.637636737011E+03   -0.45289E-02   -0.26338E-02 13569   0.427E-01    0.142E+00
RMM:   9    -0.637625353293E+03    0.11384E-01   -0.16443E-02 14022   0.350E-01    0.812E-01
RMM:  10    -0.637623480306E+03    0.18730E-02   -0.69631E-03 13686   0.248E-01    0.502E-01
RMM:  11    -0.637622902617E+03    0.57769E-03   -0.47158E-03 14937   0.146E-01    0.267E-01
RMM:  12    -0.637622593575E+03    0.30904E-03   -0.21032E-03 14071   0.988E-02    0.131E-01
RMM:  13    -0.637622791070E+03   -0.19749E-03   -0.12918E-03 13429   0.688E-02    0.181E-01
WARNING in EDDRMM: call to ZHEGV failed, returncode =   8  4      7
RMM:  14    -0.637622728168E+03    0.62902E-04   -0.73565E-04 13400   0.525E-02    0.784E-02
RMM:  15    -0.637622820390E+03   -0.92222E-04   -0.45927E-04 13053   0.419E-02    0.988E-02
RMM:  16    -0.637622843696E+03   -0.23306E-04   -0.31071E-04 12989   0.421E-02    0.804E-02
RMM:  17    -0.637622862687E+03   -0.18991E-04   -0.23012E-04 12352   0.377E-02    0.778E-02
RMM:  18    -0.637622847407E+03    0.15280E-04   -0.17974E-04 12241   0.299E-02    0.311E-02
RMM:  19    -0.637622850611E+03   -0.32038E-05   -0.11856E-04 11407   0.221E-02    0.163E-02
RMM:  20    -0.637622854015E+03   -0.34045E-05   -0.68186E-05  9499   0.186E-02
  16 F= -.63762285E+03 E0= -.63754100E+03  d E =-.540517E-01
 trial-energy change:   -0.054052  1 .order   -0.053041   -0.093472   -0.012611
 step:   1.1512(harm=  1.1636)  dis= 0.03052  next Energy=  -637.623763 (dE=-0.550E-01)
 bond charge predicted
       N       E                     dE             d eps       ncg     rms          rms(c)
DAV:   1    -0.637599881469E+03    0.22969E-01   -0.10065E+00 11760   0.632E+00    0.512E-01
RMM:   2    -0.637645017760E+03   -0.45136E-01   -0.31713E-01 13970   0.143E+00    0.165E+00
RMM:   3    -0.637631062466E+03    0.13955E-01   -0.27595E-02 12036   0.545E-01    0.116E+00
RMM:   4    -0.637625120979E+03    0.59415E-02   -0.83170E-03 12487   0.270E-01    0.412E-01
RMM:   5    -0.637624874056E+03    0.24692E-03   -0.26509E-03 12768   0.139E-01    0.357E-01
RMM:   6    -0.637624127686E+03    0.74637E-03   -0.10621E-03 12856   0.799E-02    0.185E-01
RMM:   7    -0.637624060655E+03    0.67031E-04   -0.43021E-04 11308   0.578E-02    0.174E-01
RMM:   8    -0.637624150876E+03   -0.90221E-04   -0.50881E-04 12314   0.651E-02    0.200E-01
RMM:   9    -0.637623887195E+03    0.26368E-03   -0.35700E-04 12849   0.511E-02    0.830E-02
RMM:  10    -0.637623880274E+03    0.69209E-05   -0.12130E-04 10059   0.363E-02    0.732E-02
RMM:  11    -0.637623866139E+03    0.14135E-04   -0.76669E-05  9677   0.236E-02    0.372E-02
RMM:  12    -0.637623859278E+03    0.68603E-05   -0.40009E-05  7313   0.182E-02
  17 F= -.63762386E+03 E0= -.63754202E+03  d E =-.550569E-01
 curvature:  -1.38 expect dE=-0.918E-01 dE for cont linesearch -0.228E-05
 trial: gam= 0.66875 g(F)=  0.454E-01 g(S)=  0.213E-01 ort = 0.605E-03 (trialstep = 0.104E+01)
 search vector abs. value=  0.166E+00
 bond charge predicted
       N       E                     dE             d eps       ncg     rms          rms(c)
DAV:   1    -0.636849081121E+03    0.77479E+00   -0.37769E+01 10728   0.366E+01    0.250E+00
RMM:   2    -0.638225703181E+03   -0.13766E+01   -0.97782E+00 14543   0.757E+00    0.961E+00
RMM:   3    -0.637778302551E+03    0.44740E+00   -0.76230E-01 11511   0.355E+00    0.441E+00
RMM:   4    -0.637698349983E+03    0.79953E-01   -0.28262E-01 13242   0.148E+00    0.219E+00
RMM:   5    -0.637692353213E+03    0.59968E-02   -0.77378E-02 13666   0.728E-01    0.203E+00
RMM:   6    -0.637671879379E+03    0.20474E-01   -0.28923E-02 13454   0.464E-01    0.113E+00
RMM:   7    -0.637667357445E+03    0.45219E-02   -0.15831E-02 14231   0.289E-01    0.846E-01
RMM:   8    -0.637673842291E+03   -0.64848E-02   -0.16482E-02 13269   0.349E-01    0.137E+00
RMM:   9    -0.637664093157E+03    0.97491E-02   -0.12017E-02 13459   0.307E-01    0.661E-01
RMM:  10    -0.637662053339E+03    0.20398E-02   -0.47349E-03 14291   0.183E-01    0.253E-01
RMM:  11    -0.637662160247E+03   -0.10691E-03   -0.25968E-03 14232   0.963E-02    0.206E-01
RMM:  12    -0.637661970390E+03    0.18986E-03   -0.11031E-03 13430   0.745E-02    0.107E-01
RMM:  13    -0.637662054419E+03   -0.84029E-04   -0.65016E-04 13084   0.505E-02    0.124E-01
RMM:  14    -0.637662043424E+03    0.10995E-04   -0.39073E-04 12718   0.409E-02    0.506E-02
RMM:  15    -0.637662104346E+03   -0.60921E-04   -0.25913E-04 12589   0.307E-02    0.696E-02
RMM:  16    -0.637662113251E+03   -0.89055E-05   -0.15293E-04 12021   0.307E-02    0.340E-02
RMM:  17    -0.637662136236E+03   -0.22985E-04   -0.11038E-04 10334   0.261E-02    0.594E-02
RMM:  18    -0.637662129875E+03    0.63617E-05   -0.67353E-05  9472   0.232E-02
  18 F= -.63766213E+03 E0= -.63758089E+03  d E =-.382706E-01
 trial-energy change:   -0.038271  1 .order   -0.037435   -0.069533   -0.005337
 step:   1.1149(harm=  1.1216)  dis= 0.02256  next Energy=  -637.662335 (dE=-0.385E-01)
 bond charge predicted
       N       E                     dE             d eps       ncg     rms          rms(c)
DAV:   1    -0.637657265966E+03    0.48703E-02   -0.22017E-01 10920   0.281E+00    0.188E-01
RMM:   2    -0.637664448531E+03   -0.71826E-02   -0.57564E-02 14447   0.575E-01    0.568E-01
RMM:   3    -0.637663015850E+03    0.14327E-02   -0.42052E-03 11235   0.270E-01    0.365E-01
RMM:   4    -0.637662512144E+03    0.50371E-03   -0.16168E-03 12200   0.114E-01    0.160E-01
RMM:   5    -0.637662509259E+03    0.28849E-05   -0.45569E-04 10796   0.593E-02    0.167E-01
RMM:   6    -0.637662367347E+03    0.14191E-03   -0.17266E-04  9362   0.398E-02    0.739E-02
RMM:   7    -0.637662356494E+03    0.10853E-04   -0.10617E-04  8857   0.265E-02    0.640E-02
RMM:   8    -0.637662392050E+03   -0.35557E-04   -0.97746E-05  8661   0.303E-02    0.102E-01
RMM:   9    -0.637662340751E+03    0.51300E-04   -0.75257E-05  8527   0.265E-02    0.420E-02
RMM:  10    -0.637662335257E+03    0.54932E-05   -0.33117E-05  6819   0.177E-02
  19 F= -.63766234E+03 E0= -.63758116E+03  d E =-.384760E-01
 curvature:  -1.38 expect dE=-0.596E-01 dE for cont linesearch -0.584E-06
 trial: gam= 0.59351 g(F)=  0.301E-01 g(S)=  0.130E-01 ort = 0.265E-03 (trialstep = 0.105E+01)
 search vector abs. value=  0.102E+00
 bond charge predicted
       N       E                     dE             d eps       ncg     rms          rms(c)
DAV:   1    -0.637201230452E+03    0.46111E+00   -0.24138E+01 10344   0.288E+01    0.238E+00
RMM:   2    -0.638039389987E+03   -0.83816E+00   -0.65602E+00 14068   0.622E+00    0.611E+00
RMM:   3    -0.637819544612E+03    0.21985E+00   -0.52188E-01 11970   0.272E+00    0.500E+00
RMM:   4    -0.637707052520E+03    0.11249E+00   -0.17946E-01 12955   0.125E+00    0.153E+00
RMM:   5    -0.637713123409E+03   -0.60709E-02   -0.56222E-02 13243   0.633E-01    0.193E+00
RMM:   6    -0.637692868026E+03    0.20255E-01   -0.20568E-02 13310   0.382E-01    0.869E-01
RMM:   7    -0.637692365569E+03    0.50246E-03   -0.11605E-02 13548   0.253E-01    0.851E-01
RMM:   8    -0.637693246120E+03   -0.88055E-03   -0.10790E-02 12851   0.308E-01    0.951E-01
RMM:   9    -0.637687764212E+03    0.54819E-02   -0.66100E-03 14332   0.198E-01    0.305E-01
RMM:  10    -0.637688524456E+03   -0.76024E-03   -0.29403E-03 13868   0.147E-01    0.475E-01
RMM:  11    -0.637687533464E+03    0.99099E-03   -0.15459E-03 12967   0.105E-01    0.146E-01
RMM:  12    -0.637687492969E+03    0.40496E-04   -0.99603E-04 13524   0.577E-02    0.866E-02
RMM:  13    -0.637687552937E+03   -0.59968E-04   -0.47079E-04 12658   0.455E-02    0.103E-01
RMM:  14    -0.637687533824E+03    0.19112E-04   -0.30621E-04 12381   0.327E-02    0.494E-02
RMM:  15    -0.637687572511E+03   -0.38686E-04   -0.19724E-04 12279   0.276E-02    0.605E-02
RMM:  16    -0.637687575672E+03   -0.31614E-05   -0.11610E-04 11097   0.300E-02    0.550E-02
RMM:  17    -0.637687584018E+03   -0.83461E-05   -0.97440E-05 10686   0.254E-02
  20 F= -.63768758E+03 E0= -.63760601E+03  d E =-.252488E-01
 trial-energy change:   -0.025249  1 .order   -0.024979   -0.045507   -0.004451
 step:   1.1607(harm=  1.1654)  dis= 0.02008  next Energy=  -637.687816 (dE=-0.255E-01)
 bond charge predicted
       N       E                     dE             d eps       ncg     rms          rms(c)
DAV:   1    -0.637682743257E+03    0.48324E-02   -0.26156E-01 11688   0.300E+00    0.243E-01
RMM:   2    -0.637691627147E+03   -0.88839E-02   -0.69625E-02 13707   0.643E-01    0.613E-01
RMM:   3    -0.637689178520E+03    0.24486E-02   -0.55897E-03 11725   0.282E-01    0.509E-01
RMM:   4    -0.637688075192E+03    0.11033E-02   -0.18883E-03 11902   0.126E-01    0.176E-01
RMM:   5    -0.637688082188E+03   -0.69963E-05   -0.58101E-04 10902   0.676E-02    0.180E-01
RMM:   6    -0.637687885971E+03    0.19622E-03   -0.24633E-04 11308   0.410E-02    0.757E-02
RMM:   7    -0.637687890518E+03   -0.45468E-05   -0.11070E-04  8785   0.307E-02    0.860E-02
RMM:   8    -0.637687911316E+03   -0.20799E-04   -0.12517E-04  9583   0.359E-02    0.106E-01
RMM:   9    -0.637687843569E+03    0.67747E-04   -0.70878E-05  8810   0.266E-02    0.235E-02
RMM:  10    -0.637687849051E+03   -0.54820E-05   -0.31729E-05  6468   0.189E-02
  21 F= -.63768785E+03 E0= -.63760624E+03  d E =-.255138E-01
 curvature:  -1.37 expect dE=-0.530E-01 dE for cont linesearch -0.311E-06
 trial: gam= 0.83447 g(F)=  0.247E-01 g(S)=  0.140E-01 ort = 0.152E-03 (trialstep = 0.996E+00)
 search vector abs. value=  0.110E+00
 bond charge predicted
       N       E                     dE             d eps       ncg     rms          rms(c)
DAV:   1    -0.637201955675E+03    0.48589E+00   -0.23895E+01 10536   0.287E+01    0.188E+00
RMM:   2    -0.637913406475E+03   -0.71145E+00   -0.61045E+00 14301   0.582E+00    0.460E+00
RMM:   3    -0.637777382934E+03    0.13602E+00   -0.40957E-01 11564   0.262E+00    0.363E+00
RMM:   4    -0.637727190204E+03    0.50193E-01   -0.14954E-01 13399   0.103E+00    0.148E+00
RMM:   5    -0.637725539598E+03    0.16506E-02   -0.39201E-02 12984   0.548E-01    0.147E+00
RMM:   6    -0.637713254266E+03    0.12285E-01   -0.16066E-02 13367   0.316E-01    0.671E-01
RMM:   7    -0.637713235890E+03    0.18376E-04   -0.83282E-03 13480   0.215E-01    0.742E-01
RMM:   8    -0.637715614443E+03   -0.23786E-02   -0.99080E-03 12816   0.284E-01    0.101E+00
RMM:   9    -0.637709802864E+03    0.58116E-02   -0.65921E-03 13737   0.211E-01    0.356E-01
RMM:  10    -0.637709487634E+03    0.31523E-03   -0.24306E-03 13991   0.131E-01    0.229E-01
RMM:  11    -0.637709479245E+03    0.83897E-05   -0.13246E-03 13551   0.759E-02    0.166E-01
RMM:  12    -0.637709345514E+03    0.13373E-03   -0.60822E-04 12897   0.529E-02    0.624E-02
RMM:  13    -0.637709426759E+03   -0.81245E-04   -0.38107E-04 12359   0.384E-02    0.104E-01
RMM:  14    -0.637709408988E+03    0.17771E-04   -0.20287E-04 11509   0.319E-02    0.445E-02
RMM:  15    -0.637709449966E+03   -0.40977E-04   -0.15781E-04 11851   0.246E-02    0.542E-02
RMM:  16    -0.637709459257E+03   -0.92912E-05   -0.10029E-04 10973   0.235E-02    0.178E-02
RMM:  17    -0.637709477110E+03   -0.17854E-04   -0.67682E-05  9588   0.215E-02    0.392E-02
RMM:  18    -0.637709474355E+03    0.27551E-05   -0.40087E-05  7888   0.201E-02
  22 F= -.63770947E+03 E0= -.63762824E+03  d E =-.216253E-01
 trial-energy change:   -0.021625  1 .order   -0.021599   -0.038614   -0.004583
 step:   1.1302(harm=  1.1302)  dis= 0.02196  next Energy=  -637.709756 (dE=-0.219E-01)
 bond charge predicted
       N       E                     dE             d eps       ncg     rms          rms(c)
DAV:   1    -0.637699247472E+03    0.10230E-01   -0.42120E-01 10704   0.387E+00    0.255E-01
RMM:   2    -0.637712710761E+03   -0.13463E-01   -0.12188E-01 14232   0.831E-01    0.534E-01
RMM:   3    -0.637710951666E+03    0.17591E-02   -0.82035E-03 11631   0.311E-01    0.486E-01
RMM:   4    -0.637710079984E+03    0.87168E-03   -0.23492E-03 12412   0.127E-01    0.200E-01
RMM:   5    -0.637710040175E+03    0.39809E-04   -0.64818E-04 10824   0.778E-02    0.198E-01
RMM:   6    -0.637709819528E+03    0.22065E-03   -0.27780E-04 10597   0.451E-02    0.840E-02
RMM:   7    -0.637709829688E+03   -0.10160E-04   -0.15781E-04  9688   0.324E-02    0.974E-02
RMM:   8    -0.637709856479E+03   -0.26792E-04   -0.18239E-04 10598   0.413E-02    0.121E-01
RMM:   9    -0.637709768955E+03    0.87524E-04   -0.10325E-04  9501   0.306E-02    0.348E-02
RMM:  10    -0.637709772088E+03   -0.31326E-05   -0.44580E-05  7051   0.200E-02
  23 F= -.63770977E+03 E0= -.63762862E+03  d E =-.219230E-01
 curvature:  -1.60 expect dE=-0.447E-01 dE for cont linesearch -0.149E-06
 trial: gam= 0.66934 g(F)=  0.180E-01 g(S)=  0.986E-02 ort =-0.101E-03 (trialstep = 0.102E+01)
 search vector abs. value=  0.770E-01
 bond charge predicted
       N       E                     dE             d eps       ncg     rms          rms(c)
DAV:   1    -0.637373134915E+03    0.33663E+00   -0.17708E+01 10728   0.245E+01    0.197E+00
RMM:   2    -0.637983970257E+03   -0.61084E+00   -0.46963E+00 13898   0.511E+00    0.507E+00
RMM:   3    -0.637797068343E+03    0.18690E+00   -0.35469E-01 12165   0.219E+00    0.360E+00
RMM:   4    -0.637740345745E+03    0.56723E-01   -0.12599E-01 13339   0.920E-01    0.150E+00
RMM:   5    -0.637738934972E+03    0.14108E-02   -0.34948E-02 12983   0.512E-01    0.144E+00
RMM:   6    -0.637726242922E+03    0.12692E-01   -0.14531E-02 13129   0.301E-01    0.569E-01
RMM:   7    -0.637726556542E+03   -0.31362E-03   -0.79865E-03 13385   0.212E-01    0.676E-01
RMM:   8    -0.637728064166E+03   -0.15076E-02   -0.70510E-03 12808   0.249E-01    0.904E-01
RMM:   9    -0.637723250916E+03    0.48132E-02   -0.43538E-03 13333   0.199E-01    0.233E-01
RMM:  10    -0.637723640168E+03   -0.38925E-03   -0.22154E-03 14023   0.114E-01    0.335E-01
RMM:  11    -0.637723230989E+03    0.40918E-03   -0.10457E-03 12449   0.846E-02    0.152E-01
RMM:  12    -0.637723138417E+03    0.92572E-04   -0.60413E-04 12771   0.492E-02    0.612E-02
RMM:  13    -0.637723189594E+03   -0.51177E-04   -0.32956E-04 12156   0.370E-02    0.915E-02
RMM:  14    -0.637723172623E+03    0.16971E-04   -0.18868E-04 11314   0.273E-02    0.427E-02
RMM:  15    -0.637723197064E+03   -0.24441E-04   -0.13195E-04 11532   0.235E-02    0.509E-02
RMM:  16    -0.637723195027E+03    0.20375E-05   -0.90252E-05 10621   0.230E-02
  24 F= -.63772320E+03 E0= -.63764154E+03  d E =-.134229E-01
 trial-energy change:   -0.013423  1 .order   -0.013208   -0.028458    0.002042
 step:   0.9570(harm=  0.9544)  dis= 0.01506  next Energy=  -637.723261 (dE=-0.135E-01)
 bond charge predicted
       N       E                     dE             d eps       ncg     rms          rms(c)
DAV:   1    -0.637721667427E+03    0.15296E-02   -0.71937E-02 11496   0.158E+00    0.142E-01
RMM:   2    -0.637725816286E+03   -0.41489E-02   -0.22205E-02 13871   0.366E-01    0.609E-01
RMM:   3    -0.637723596884E+03    0.22194E-02   -0.21206E-03 11727   0.153E-01    0.223E-01
RMM:   4    -0.637723325082E+03    0.27180E-03   -0.61634E-04 11610   0.728E-02    0.976E-02
RMM:   5    -0.637723320752E+03    0.43306E-05   -0.20220E-04 10802   0.412E-02    0.955E-02
RMM:   6    -0.637723277503E+03    0.43248E-04   -0.58651E-05  7900   0.255E-02    0.580E-02
RMM:   7    -0.637723263503E+03    0.14001E-04   -0.30919E-05  6762   0.201E-02    0.405E-02
RMM:   8    -0.637723270043E+03   -0.65403E-05   -0.32334E-05  6563   0.210E-02
  25 F= -.63772327E+03 E0= -.63764165E+03  d E =-.134980E-01
 curvature:  -1.32 expect dE=-0.154E-01 dE for cont linesearch -0.145E-08
 trial: gam= 0.36279 g(F)=  0.839E-02 g(S)=  0.328E-02 ort =-0.921E-05 (trialstep = 0.101E+01)
 search vector abs. value=  0.218E-01
 bond charge predicted
       N       E                     dE             d eps       ncg     rms          rms(c)
DAV:   1    -0.637623020983E+03    0.10024E+00   -0.47878E+00 11136   0.131E+01    0.108E+00
RMM:   2    -0.637815504470E+03   -0.19248E+00   -0.14550E+00 13810   0.297E+00    0.306E+00
RMM:   3    -0.637756696672E+03    0.58808E-01   -0.12519E-01 12036   0.119E+00    0.216E+00
RMM:   4    -0.637734759742E+03    0.21937E-01   -0.36851E-02 13215   0.523E-01    0.729E-01
RMM:   5    -0.637735076417E+03   -0.31667E-03   -0.10417E-02 12960   0.286E-01    0.839E-01
RMM:   6    -0.637731139150E+03    0.39373E-02   -0.39728E-03 12651   0.182E-01    0.371E-01
RMM:   7    -0.637731022040E+03    0.11711E-03   -0.25514E-03 13106   0.120E-01    0.380E-01
RMM:   8    -0.637731674087E+03   -0.65205E-03   -0.25753E-03 12301   0.163E-01    0.541E-01
RMM:   9    -0.637730059680E+03    0.16144E-02   -0.14421E-03 12792   0.112E-01    0.164E-01
RMM:  10    -0.637730086168E+03   -0.26488E-04   -0.63073E-04 12833   0.691E-02    0.153E-01
RMM:  11    -0.637730001476E+03    0.84692E-04   -0.30117E-04 12134   0.425E-02    0.672E-02
RMM:  12    -0.637729993016E+03    0.84599E-05   -0.14783E-04 11348   0.285E-02    0.456E-02
RMM:  13    -0.637730004189E+03   -0.11172E-04   -0.90633E-05  9470   0.205E-02    0.438E-02
RMM:  14    -0.637730007176E+03   -0.29877E-05   -0.52870E-05  8352   0.193E-02
  26 F= -.63773001E+03 E0= -.63764844E+03  d E =-.673713E-02
 trial-energy change:   -0.006737  1 .order   -0.006654   -0.011777   -0.001532
 step:   1.1528(harm=  1.1607)  dis= 0.00908  next Energy=  -637.730116 (dE=-0.685E-02)
 bond charge predicted
       N       E                     dE             d eps       ncg     rms          rms(c)
DAV:   1    -0.637728084935E+03    0.19193E-02   -0.97689E-02 11832   0.186E+00    0.158E-01
RMM:   2    -0.637732123565E+03   -0.40386E-02   -0.28835E-02 13378   0.411E-01    0.471E-01
RMM:   3    -0.637730697929E+03    0.14256E-02   -0.24242E-03 11268   0.179E-01    0.314E-01
RMM:   4    -0.637730229404E+03    0.46852E-03   -0.77349E-04 11137   0.801E-02    0.105E-01
RMM:   5    -0.637730231105E+03   -0.17007E-05   -0.23184E-04  9990   0.431E-02    0.114E-01
RMM:   6    -0.637730168383E+03    0.62722E-04   -0.79435E-05  7835   0.300E-02    0.638E-02
RMM:   7    -0.637730154462E+03    0.13921E-04   -0.49807E-05  7235   0.226E-02    0.459E-02
RMM:   8    -0.637730181351E+03   -0.26889E-04   -0.54692E-05  7352   0.270E-02    0.778E-02
RMM:   9    -0.637730148974E+03    0.32377E-04   -0.41570E-05  7094   0.223E-02    0.232E-02
RMM:  10    -0.637730150030E+03   -0.10560E-05   -0.18363E-05  6100   0.171E-02
  27 F= -.63773015E+03 E0= -.63764859E+03  d E =-.687999E-02
 curvature:  -1.08 expect dE=-0.971E-02 dE for cont linesearch -0.511E-05
 trial: gam= 0.73546 g(F)=  0.517E-02 g(S)=  0.381E-02 ort = 0.321E-03 (trialstep = 0.104E+01)
 search vector abs. value=  0.212E-01
 bond charge predicted
       N       E                     dE             d eps       ncg     rms          rms(c)
DAV:   1    -0.637642967777E+03    0.87181E-01   -0.48446E+00 11424   0.129E+01    0.114E+00
RMM:   2    -0.637827773166E+03   -0.18481E+00   -0.13583E+00 13569   0.291E+00    0.299E+00
RMM:   3    -0.637758489290E+03    0.69284E-01   -0.11102E-01 12139   0.121E+00    0.194E+00
RMM:   4    -0.637741186036E+03    0.17303E-01   -0.35891E-02 13262   0.502E-01    0.873E-01
RMM:   5    -0.637740730909E+03    0.45513E-03   -0.97109E-03 12670   0.290E-01    0.844E-01
RMM:   6    -0.637736535422E+03    0.41955E-02   -0.47100E-03 12832   0.182E-01    0.328E-01
RMM:   7    -0.637736715457E+03   -0.18004E-03   -0.25826E-03 13216   0.126E-01    0.410E-01
RMM:   8    -0.637737144322E+03   -0.42886E-03   -0.23448E-03 12556   0.151E-01    0.500E-01
RMM:   9    -0.637735640162E+03    0.15042E-02   -0.13312E-03 13052   0.111E-01    0.147E-01
RMM:  10    -0.637735637365E+03    0.27977E-05   -0.59325E-04 13006   0.637E-02    0.138E-01
RMM:  11    -0.637735598745E+03    0.38619E-04   -0.29186E-04 12001   0.440E-02    0.883E-02
RMM:  12    -0.637735560995E+03    0.37750E-04   -0.16953E-04 11793   0.277E-02    0.303E-02
RMM:  13    -0.637735574168E+03   -0.13173E-04   -0.86948E-05  9424   0.213E-02    0.496E-02
RMM:  14    -0.637735568544E+03    0.56236E-05   -0.54973E-05  8174   0.207E-02
  28 F= -.63773557E+03 E0= -.63765365E+03  d E =-.541851E-02
 trial-energy change:   -0.005419  1 .order   -0.005282   -0.009570   -0.000994
 step:   1.1472(harm=  1.1587)  dis= 0.00990  next Energy=  -637.735621 (dE=-0.547E-02)
 bond charge predicted
       N       E                     dE             d eps       ncg     rms          rms(c)
DAV:   1    -0.637734602748E+03    0.97142E-03   -0.53184E-02 12048   0.136E+00    0.125E-01
RMM:   2    -0.637736898474E+03   -0.22957E-02   -0.15549E-02 13157   0.314E-01    0.356E-01
RMM:   3    -0.637735924139E+03    0.97434E-03   -0.13832E-03 10949   0.130E-01    0.213E-01
RMM:   4    -0.637735716499E+03    0.20764E-03   -0.42480E-04 10876   0.593E-02    0.948E-02
RMM:   5    -0.637735702346E+03    0.14153E-04   -0.11167E-04  8507   0.351E-02    0.831E-02
RMM:   6    -0.637735672254E+03    0.30092E-04   -0.55634E-05  7462   0.230E-02    0.503E-02
RMM:   7    -0.637735661031E+03    0.11223E-04   -0.27105E-05  6384   0.202E-02    0.344E-02
RMM:   8    -0.637735671491E+03   -0.10460E-04   -0.28238E-05  6315   0.200E-02    0.530E-02
RMM:   9    -0.637735654720E+03    0.16771E-04   -0.22976E-05  6150   0.186E-02    0.146E-02
RMM:  10    -0.637735655134E+03   -0.41437E-06   -0.14597E-05  5917   0.145E-02
  29 F= -.63773566E+03 E0= -.63765371E+03  d E =-.550510E-02
 curvature:  -1.32 expect dE=-0.101E-01 dE for cont linesearch -0.575E-05
 trial: gam= 0.85246 g(F)=  0.487E-02 g(S)=  0.276E-02 ort = 0.304E-03 (trialstep = 0.955E+00)
 search vector abs. value=  0.236E-01
 bond charge predicted
       N       E                     dE             d eps       ncg     rms          rms(c)
DAV:   1    -0.637651924718E+03    0.83730E-01   -0.44273E+00 10464   0.119E+01    0.760E-01
RMM:   2    -0.637776829121E+03   -0.12490E+00   -0.10417E+00 14191   0.247E+00    0.216E+00
RMM:   3    -0.637752808411E+03    0.24021E-01   -0.70890E-02 11817   0.107E+00    0.155E+00
RMM:   4    -0.637743042322E+03    0.97661E-02   -0.26424E-02 13232   0.448E-01    0.553E-01
RMM:   5    -0.637743075385E+03   -0.33064E-04   -0.73275E-03 13284   0.221E-01    0.617E-01
RMM:   6    -0.637741171244E+03    0.19041E-02   -0.23899E-03 12421   0.140E-01    0.315E-01
RMM:   7    -0.637740912346E+03    0.25890E-03   -0.14255E-03 12740   0.856E-02    0.250E-01
RMM:   8    -0.637741371478E+03   -0.45913E-03   -0.15622E-03 12212   0.121E-01    0.400E-01
RMM:   9    -0.637740494354E+03    0.87712E-03   -0.96236E-04 13090   0.846E-02    0.126E-01
RMM:  10    -0.637740518921E+03   -0.24567E-04   -0.44774E-04 12398   0.565E-02    0.125E-01
RMM:  11    -0.637740474891E+03    0.44030E-04   -0.23555E-04 11498   0.360E-02    0.673E-02
RMM:  12    -0.637740456107E+03    0.18784E-04   -0.11264E-04  9871   0.245E-02    0.279E-02
RMM:  13    -0.637740470191E+03   -0.14085E-04   -0.71255E-05  8175   0.190E-02    0.418E-02
RMM:  14    -0.637740468200E+03    0.19915E-05   -0.35474E-05  6901   0.186E-02
  30 F= -.63774047E+03 E0= -.63765847E+03  d E =-.481307E-02
 trial-energy change:   -0.004813  1 .order   -0.004816   -0.007527   -0.002104
 step:   1.3258(harm=  1.3258)  dis= 0.01377  next Energy=  -637.740879 (dE=-0.522E-02)
 bond charge predicted
       N       E                     dE             d eps       ncg     rms          rms(c)
DAV:   1    -0.637727617856E+03    0.12852E-01   -0.66803E-01 10488   0.463E+00    0.296E-01
RMM:   2    -0.637746449713E+03   -0.18832E-01   -0.15687E-01 14095   0.957E-01    0.829E-01
RMM:   3    -0.637742797100E+03    0.36526E-02   -0.10598E-02 11796   0.413E-01    0.600E-01
RMM:   4    -0.637741330809E+03    0.14663E-02   -0.39439E-03 12521   0.175E-01    0.218E-01
RMM:   5    -0.637741346802E+03   -0.15993E-04   -0.11567E-03 12195   0.867E-02    0.243E-01
RMM:   6    -0.637741058567E+03    0.28823E-03   -0.37558E-04 10482   0.580E-02    0.121E-01
RMM:   7    -0.637741017822E+03    0.40745E-04   -0.22399E-04 10409   0.359E-02    0.923E-02
RMM:   8    -0.637741102552E+03   -0.84730E-04   -0.24442E-04 10707   0.490E-02    0.159E-01
RMM:   9    -0.637740969128E+03    0.13342E-03   -0.15327E-04 11074   0.364E-02    0.462E-02
RMM:  10    -0.637740976250E+03   -0.71214E-05   -0.69232E-05  7778   0.243E-02
  31 F= -.63774098E+03 E0= -.63765896E+03  d E =-.532112E-02
 curvature:  -1.98 expect dE=-0.119E-01 dE for cont linesearch -0.152E-04
 trial: gam= 0.75488 g(F)=  0.397E-02 g(S)=  0.201E-02 ort = 0.425E-03 (trialstep = 0.103E+01)
 search vector abs. value=  0.201E-01
 bond charge predicted
       N       E                     dE             d eps       ncg     rms          rms(c)
DAV:   1    -0.637660230759E+03    0.80738E-01   -0.43844E+00 10488   0.118E+01    0.885E-01
RMM:   2    -0.637798904619E+03   -0.13867E+00   -0.10845E+00 14015   0.251E+00    0.243E+00
RMM:   3    -0.637759563117E+03    0.39342E-01   -0.81568E-02 12166   0.109E+00    0.159E+00
RMM:   4    -0.637748805075E+03    0.10758E-01   -0.27960E-02 13287   0.451E-01    0.704E-01
RMM:   5    -0.637748777011E+03    0.28064E-04   -0.79305E-03 12819   0.244E-01    0.710E-01
RMM:   6    -0.637745971765E+03    0.28052E-02   -0.30748E-03 12416   0.150E-01    0.296E-01
RMM:   7    -0.637745939782E+03    0.31982E-04   -0.16005E-03 12378   0.101E-01    0.311E-01
RMM:   8    -0.637746073694E+03   -0.13391E-03   -0.18902E-03 12881   0.121E-01    0.332E-01
RMM:   9    -0.637745342052E+03    0.73164E-03   -0.10412E-03 13488   0.840E-02    0.130E-01
RMM:  10    -0.637745329106E+03    0.12946E-04   -0.41917E-04 12241   0.558E-02    0.109E-01
RMM:  11    -0.637745300641E+03    0.28465E-04   -0.21588E-04 11577   0.341E-02    0.634E-02
RMM:  12    -0.637745283800E+03    0.16841E-04   -0.10507E-04  9756   0.245E-02    0.320E-02
RMM:  13    -0.637745291956E+03   -0.81555E-05   -0.58693E-05  7932   0.195E-02
  32 F= -.63774529E+03 E0= -.63766285E+03  d E =-.431571E-02
 trial-energy change:   -0.004316  1 .order   -0.004127   -0.006488   -0.001765
 step:   1.3233(harm=  1.4141)  dis= 0.01448  next Energy=  -637.745549 (dE=-0.457E-02)
 bond charge predicted
       N       E                     dE             d eps       ncg     rms          rms(c)
DAV:   1    -0.637738649381E+03    0.66344E-02   -0.35772E-01 10632   0.339E+00    0.254E-01
RMM:   2    -0.637750161027E+03   -0.11512E-01   -0.89967E-02 13825   0.718E-01    0.696E-01
RMM:   3    -0.637746899258E+03    0.32618E-02   -0.65819E-03 12011   0.306E-01    0.471E-01
RMM:   4    -0.637745953953E+03    0.94531E-03   -0.22512E-03 12106   0.127E-01    0.203E-01
RMM:   5    -0.637745936565E+03    0.17388E-04   -0.64529E-04 10463   0.717E-02    0.195E-01
RMM:   6    -0.637745725167E+03    0.21140E-03   -0.26654E-04 10522   0.456E-02    0.819E-02
RMM:   7    -0.637745726559E+03   -0.13919E-05   -0.12953E-04  8658   0.310E-02    0.884E-02
RMM:   8    -0.637745741971E+03   -0.15412E-04   -0.18218E-04 11149   0.378E-02    0.948E-02
RMM:   9    -0.637745684792E+03    0.57179E-04   -0.89935E-05  9367   0.279E-02    0.373E-02
RMM:  10    -0.637745682314E+03    0.24785E-05   -0.34829E-05  6720   0.183E-02
  33 F= -.63774568E+03 E0= -.63766311E+03  d E =-.470606E-02
 curvature:  -2.12 expect dE=-0.122E-01 dE for cont linesearch -0.275E-04
 trial: gam= 0.95042 g(F)=  0.333E-02 g(S)=  0.240E-02 ort = 0.510E-03 (trialstep = 0.880E+00)
 search vector abs. value=  0.248E-01
 bond charge predicted
       N       E                     dE             d eps       ncg     rms          rms(c)
DAV:   1    -0.637666703966E+03    0.78981E-01   -0.39915E+00 10080   0.111E+01    0.719E-01
RMM:   2    -0.637774972875E+03   -0.10827E+00   -0.95421E-01 14183   0.232E+00    0.173E+00
RMM:   3    -0.637758812352E+03    0.16161E-01   -0.66684E-02 11859   0.101E+00    0.141E+00
RMM:   4    -0.637751503560E+03    0.73088E-02   -0.24043E-02 13109   0.422E-01    0.557E-01
RMM:   5    -0.637751430455E+03    0.73105E-04   -0.68033E-03 13233   0.202E-01    0.599E-01
RMM:   6    -0.637749694023E+03    0.17364E-02   -0.20024E-03 12025   0.132E-01    0.294E-01
RMM:   7    -0.637749444090E+03    0.24993E-03   -0.13297E-03 12663   0.791E-02    0.222E-01
RMM:   8    -0.637749873308E+03   -0.42922E-03   -0.14246E-03 12196   0.113E-01    0.385E-01
RMM:   9    -0.637749108437E+03    0.76487E-03   -0.82651E-04 12718   0.824E-02    0.129E-01
RMM:  10    -0.637749115709E+03   -0.72723E-05   -0.42802E-04 12470   0.522E-02    0.113E-01
RMM:  11    -0.637749081845E+03    0.33865E-04   -0.20443E-04 11086   0.349E-02    0.674E-02
RMM:  12    -0.637749062793E+03    0.19052E-04   -0.99027E-05  9053   0.233E-02    0.272E-02
RMM:  13    -0.637749075457E+03   -0.12664E-04   -0.62194E-05  7552   0.196E-02    0.392E-02
RMM:  14    -0.637749074099E+03    0.13583E-05   -0.32038E-05  6641   0.175E-02
  34 F= -.63774907E+03 E0= -.63766648E+03  d E =-.339178E-02
 trial-energy change:   -0.003392  1 .order   -0.003383   -0.005463   -0.001302
 step:   1.1547(harm=  1.1547)  dis= 0.01548  next Energy=  -637.749269 (dE=-0.359E-02)
 bond charge predicted
       N       E                     dE             d eps       ncg     rms          rms(c)
DAV:   1    -0.637741225119E+03    0.78503E-02   -0.39133E-01 10128   0.348E+00    0.226E-01
RMM:   2    -0.637751992388E+03   -0.10767E-01   -0.94548E-02 14069   0.722E-01    0.545E-01
RMM:   3    -0.637750333637E+03    0.16588E-02   -0.62099E-03 11667   0.300E-01    0.449E-01
RMM:   4    -0.637749572892E+03    0.76075E-03   -0.22189E-03 12124   0.128E-01    0.175E-01
RMM:   5    -0.637749565950E+03    0.69417E-05   -0.63806E-04 11132   0.644E-02    0.188E-01
RMM:   6    -0.637749398850E+03    0.16710E-03   -0.20352E-04  9274   0.455E-02    0.912E-02
RMM:   7    -0.637749374404E+03    0.24446E-04   -0.13257E-04  9102   0.280E-02    0.657E-02
RMM:   8    -0.637749426517E+03   -0.52112E-04   -0.14936E-04  9833   0.390E-02    0.121E-01
RMM:   9    -0.637749351087E+03    0.75430E-04   -0.85844E-05  9000   0.296E-02    0.346E-02
RMM:  10    -0.637749356451E+03   -0.53648E-05   -0.41734E-05  6866   0.188E-02
  35 F= -.63774936E+03 E0= -.63766676E+03  d E =-.367414E-02
 curvature:  -2.31 expect dE=-0.127E-01 dE for cont linesearch -0.200E-04
 trial: gam= 0.99834 g(F)=  0.313E-02 g(S)=  0.238E-02 ort = 0.464E-03 (trialstep = 0.744E+00)
 search vector abs. value=  0.312E-01
 bond charge predicted
       N       E                     dE             d eps       ncg     rms          rms(c)
DAV:   1    -0.637674439856E+03    0.74911E-01   -0.36630E+00 10416   0.104E+01    0.673E-01
RMM:   2    -0.637780270023E+03   -0.10583E+00   -0.89684E-01 14154   0.212E+00    0.190E+00
RMM:   3    -0.637761228231E+03    0.19042E-01   -0.59194E-02 12003   0.899E-01    0.129E+00
RMM:   4    -0.637755110080E+03    0.61182E-02   -0.20111E-02 12955   0.376E-01    0.584E-01
RMM:   5    -0.637754904375E+03    0.20571E-03   -0.56744E-03 12443   0.200E-01    0.559E-01
RMM:   6    -0.637753178508E+03    0.17259E-02   -0.20962E-03 11814   0.121E-01    0.238E-01
RMM:   7    -0.637753134160E+03    0.44348E-04   -0.11103E-03 11937   0.731E-02    0.243E-01
RMM:   8    -0.637753324939E+03   -0.19078E-03   -0.12580E-03 12511   0.974E-02    0.294E-01
RMM:   9    -0.637752798860E+03    0.52608E-03   -0.81209E-04 13191   0.720E-02    0.130E-01
RMM:  10    -0.637752753097E+03    0.45763E-04   -0.29613E-04 11618   0.471E-02    0.820E-02
RMM:  11    -0.637752746643E+03    0.64543E-05   -0.15843E-04 10955   0.286E-02    0.584E-02
RMM:  12    -0.637752729945E+03    0.16698E-04   -0.69541E-05  7776   0.211E-02    0.288E-02
RMM:  13    -0.637752734646E+03   -0.47013E-05   -0.47828E-05  7130   0.183E-02
  36 F= -.63775273E+03 E0= -.63767012E+03  d E =-.337819E-02
 trial-energy change:   -0.003378  1 .order   -0.003200   -0.004444   -0.001957
 step:   1.1019(harm=  1.3294)  dis= 0.01747  next Energy=  -637.753225 (dE=-0.387E-02)
 bond charge predicted
       N       E                     dE             d eps       ncg     rms          rms(c)
DAV:   1    -0.637735293905E+03    0.17436E-01   -0.84703E-01 10392   0.500E+00    0.324E-01
RMM:   2    -0.637759877377E+03   -0.24583E-01   -0.20919E-01 14039   0.102E+00    0.902E-01
RMM:   3    -0.637755643875E+03    0.42335E-02   -0.13945E-02 11908   0.426E-01    0.644E-01
RMM:   4    -0.637754099076E+03    0.15448E-02   -0.45881E-03 12309   0.180E-01    0.278E-01
RMM:   5    -0.637754048229E+03    0.50848E-04   -0.13193E-03 11130   0.959E-02    0.263E-01
RMM:   6    -0.637753663700E+03    0.38453E-03   -0.50013E-04 10636   0.604E-02    0.113E-01
RMM:   7    -0.637753656786E+03    0.69149E-05   -0.25427E-04 10304   0.368E-02    0.117E-01
RMM:   8    -0.637753705437E+03   -0.48652E-04   -0.31031E-04 11504   0.487E-02    0.141E-01
RMM:   9    -0.637753583893E+03    0.12154E-03   -0.18940E-04 11501   0.364E-02    0.582E-02
RMM:  10    -0.637753574648E+03    0.92443E-05   -0.67125E-05  7780   0.238E-02
  37 F= -.63775357E+03 E0= -.63767095E+03  d E =-.421820E-02
 curvature:  -2.94 expect dE=-0.892E-02 dE for cont linesearch -0.208E-03
 ZBRENT: increasing intervall
 opt :   1.8175  next Energy=  -637.753819 (dE=-0.446E-02)
 bond charge predicted
       N       E                     dE             d eps       ncg     rms          rms(c)
DAV:   1    -0.637681147576E+03    0.72436E-01   -0.33894E+00 10416   0.999E+00    0.646E-01
RMM:   2    -0.637779234887E+03   -0.98087E-01   -0.83210E-01 14034   0.203E+00    0.183E+00
RMM:   3    -0.637761830939E+03    0.17404E-01   -0.55070E-02 11999   0.861E-01    0.127E+00
RMM:   4    -0.637755824981E+03    0.60060E-02   -0.18702E-02 12815   0.365E-01    0.554E-01
RMM:   5    -0.637755712337E+03    0.11264E-03   -0.53514E-03 12319   0.190E-01    0.544E-01
RMM:   6    -0.637754097194E+03    0.16151E-02   -0.19108E-03 11610   0.119E-01    0.230E-01
RMM:   7    -0.637754029883E+03    0.67310E-04   -0.10502E-03 11955   0.681E-02    0.220E-01
RMM:   8    -0.637754250247E+03   -0.22036E-03   -0.11625E-03 12704   0.934E-02    0.289E-01
RMM:   9    -0.637753744553E+03    0.50569E-03   -0.71192E-04 13077   0.665E-02    0.109E-01
RMM:  10    -0.637753730565E+03    0.13987E-04   -0.27902E-04 11660   0.446E-02    0.842E-02
RMM:  11    -0.637753716924E+03    0.13641E-04   -0.14876E-04 10753   0.280E-02    0.506E-02
RMM:  12    -0.637753706788E+03    0.10136E-04   -0.69994E-05  8105   0.208E-02    0.286E-02
RMM:  13    -0.637753711493E+03   -0.47048E-05   -0.46138E-05  7268   0.186E-02
  38 F= -.63775371E+03 E0= -.63767112E+03  d E =-.435504E-02
 curvature:  -3.45 expect dE=-0.255E-01 dE for cont linesearch -0.261E-03
 ZBRENT: bracketing found
 ZBRENT: interpolating
 opt :   1.4538  next Energy=  -637.753836 (dE=-0.448E-02)
 bond charge predicted
       N       E                     dE             d eps       ncg     rms          rms(c)
DAV:   1    -0.637735154381E+03    0.18552E-01   -0.87343E-01 10392   0.507E+00    0.325E-01
RMM:   2    -0.637759726256E+03   -0.24572E-01   -0.21281E-01 14217   0.104E+00    0.850E-01
RMM:   3    -0.637755946547E+03    0.37797E-02   -0.14367E-02 11857   0.445E-01    0.639E-01
RMM:   4    -0.637754487773E+03    0.14588E-02   -0.47936E-03 12662   0.185E-01    0.291E-01
RMM:   5    -0.637754401539E+03    0.86233E-04   -0.13185E-03 11363   0.100E-01    0.264E-01
RMM:   6    -0.637753991257E+03    0.41028E-03   -0.46416E-04 10534   0.612E-02    0.111E-01
RMM:   7    -0.637753987510E+03    0.37473E-05   -0.24416E-04 10067   0.375E-02    0.123E-01
RMM:   8    -0.637754022369E+03   -0.34860E-04   -0.30402E-04 10699   0.504E-02    0.143E-01
RMM:   9    -0.637753886434E+03    0.13594E-03   -0.19461E-04 11060   0.363E-02    0.495E-02
RMM:  10    -0.637753884827E+03    0.16067E-05   -0.51821E-05  6832   0.234E-02
  39 F= -.63775388E+03 E0= -.63767128E+03  d E =-.452838E-02
 curvature:  -3.46 expect dE=-0.143E-01 dE for cont linesearch -0.476E-05
 trial: gam= 0.70401 g(F)=  0.340E-02 g(S)=  0.743E-03 ort = 0.207E-03 (trialstep = 0.886E+00)
 search vector abs. value=  0.199E-01
 bond charge predicted
       N       E                     dE             d eps       ncg     rms          rms(c)
DAV:   1    -0.637679210049E+03    0.74676E-01   -0.34275E+00 10104   0.985E+00    0.466E-01
RMM:   2    -0.637768256246E+03   -0.89046E-01   -0.83241E-01 13628   0.202E+00    0.137E+00
RMM:   3    -0.637758346334E+03    0.99099E-02   -0.50139E-02 12398   0.714E-01    0.634E-01
RMM:   4    -0.637758135999E+03    0.21034E-03   -0.15493E-02 12778   0.285E-01    0.375E-01
RMM:   5    -0.637757603954E+03    0.53204E-03   -0.26233E-03 11566   0.136E-01    0.328E-01
RMM:   6    -0.637757125494E+03    0.47846E-03   -0.92483E-04 11325   0.755E-02    0.139E-01
RMM:   7    -0.637757389103E+03   -0.26361E-03   -0.72301E-04 11430   0.603E-02    0.278E-01
RMM:   8    -0.637757090409E+03    0.29869E-03   -0.65709E-04 11431   0.685E-02    0.166E-01
RMM:   9    -0.637756933339E+03    0.15707E-03   -0.34349E-04 11632   0.444E-02    0.546E-02
RMM:  10    -0.637756975494E+03   -0.42155E-04   -0.14431E-04  9301   0.324E-02    0.901E-02
RMM:  11    -0.637756936617E+03    0.38876E-04   -0.54384E-05  6878   0.234E-02    0.337E-02
RMM:  12    -0.637756934997E+03    0.16209E-05   -0.39237E-05  6833   0.179E-02
  40 F= -.63775693E+03 E0= -.63767460E+03  d E =-.305017E-02
 trial-energy change:   -0.003050  1 .order   -0.002959   -0.003797   -0.002122
 step:   1.5939(harm=  2.0080)  dis= 0.01946  next Energy=  -637.757829 (dE=-0.394E-02)
 bond charge predicted
       N       E                     dE             d eps       ncg     rms          rms(c)
DAV:   1    -0.637708611244E+03    0.48325E-01   -0.21918E+00 10344   0.796E+00    0.368E-01
RMM:   2    -0.637764208895E+03   -0.55598E-01   -0.52687E-01 13633   0.160E+00    0.102E+00
RMM:   3    -0.637759112087E+03    0.50968E-02   -0.31668E-02 12391   0.568E-01    0.526E-01
RMM:   4    -0.637758878071E+03    0.23402E-03   -0.98531E-03 12834   0.223E-01    0.299E-01
RMM:   5    -0.637758570938E+03    0.30713E-03   -0.18167E-03 11542   0.108E-01    0.261E-01
RMM:   6    -0.637758272626E+03    0.29831E-03   -0.62712E-04 11129   0.621E-02    0.113E-01
RMM:   7    -0.637758439046E+03   -0.16642E-03   -0.44668E-04 10686   0.488E-02    0.220E-01
RMM:   8    -0.637758254838E+03    0.18421E-03   -0.45484E-04 11169   0.559E-02    0.135E-01
RMM:   9    -0.637758160469E+03    0.94369E-04   -0.21172E-04 10755   0.368E-02    0.485E-02
RMM:  10    -0.637758190296E+03   -0.29827E-04   -0.96253E-05  7926   0.271E-02    0.774E-02
RMM:  11    -0.637758161047E+03    0.29249E-04   -0.41896E-05  6661   0.224E-02    0.230E-02
RMM:  12    -0.637758163024E+03   -0.19770E-05   -0.33611E-05  6768   0.147E-02
  41 F= -.63775816E+03 E0= -.63767607E+03  d E =-.427820E-02
 curvature:  -4.02 expect dE=-0.118E-01 dE for cont linesearch -0.152E-03
 ZBRENT: increasing intervall
 opt :   3.0097  next Energy=  -637.757227 (dE=-0.334E-02)
 bond charge predicted
       N       E                     dE             d eps       ncg     rms          rms(c)
DAV:   1    -0.637559027023E+03    0.19913E+00   -0.87650E+00 10320   0.158E+01    0.743E-01
RMM:   2    -0.637783183688E+03   -0.22416E+00   -0.20968E+00 13622   0.321E+00    0.219E+00
RMM:   3    -0.637760317549E+03    0.22866E-01   -0.13286E-01 12411   0.117E+00    0.990E-01
RMM:   4    -0.637760019408E+03    0.29814E-03   -0.40304E-02 13142   0.461E-01    0.586E-01
RMM:   5    -0.637758953217E+03    0.10662E-02   -0.76457E-03 12240   0.226E-01    0.536E-01
RMM:   6    -0.637757728550E+03    0.12247E-02   -0.26606E-03 12315   0.118E-01    0.218E-01
RMM:   7    -0.637758667687E+03   -0.93914E-03   -0.20981E-03 12485   0.990E-02    0.507E-01
RMM:   8    -0.637757480081E+03    0.11876E-02   -0.16556E-03 12165   0.107E-01    0.202E-01
RMM:   9    -0.637757290892E+03    0.18919E-03   -0.81012E-04 12703   0.618E-02    0.991E-02
RMM:  10    -0.637757388584E+03   -0.97693E-04   -0.39686E-04 11498   0.458E-02    0.142E-01
RMM:  11    -0.637757278104E+03    0.11048E-03   -0.16236E-04  9396   0.335E-02    0.385E-02
RMM:  12    -0.637757290334E+03   -0.12231E-04   -0.10674E-04  8329   0.217E-02    0.460E-02
RMM:  13    -0.637757290304E+03    0.30275E-07   -0.52594E-05  7136   0.218E-02
  42 F= -.63775729E+03 E0= -.63767575E+03  d E =-.340548E-02
 curvature:  24.79 expect dE= 0.295E+00 dE for cont linesearch  0.763E-02
 ZBRENT: bracketing found
 ZBRENT: interpolating
 opt :   1.9613  next Energy=  -637.758322 (dE=-0.444E-02)
 bond charge predicted
       N       E                     dE             d eps       ncg     rms          rms(c)
DAV:   1    -0.637649128844E+03    0.10816E+00   -0.47973E+00 10416   0.119E+01    0.541E-01
RMM:   2    -0.637768855248E+03   -0.11973E+00   -0.11546E+00 13798   0.235E+00    0.132E+00
RMM:   3    -0.637760785743E+03    0.80695E-02   -0.67955E-02 12282   0.864E-01    0.815E-01
RMM:   4    -0.637760846579E+03   -0.60836E-04   -0.22162E-02 13061   0.342E-01    0.591E-01
RMM:   5    -0.637759372038E+03    0.14745E-02   -0.41608E-03 11864   0.167E-01    0.368E-01
RMM:   6    -0.637758725866E+03    0.64617E-03   -0.14371E-03 11518   0.907E-02    0.183E-01
RMM:   7    -0.637758764352E+03   -0.38486E-04   -0.77251E-04 11063   0.631E-02    0.220E-01
RMM:   8    -0.637758858157E+03   -0.93805E-04   -0.91705E-04 11254   0.783E-02    0.288E-01
RMM:   9    -0.637758392913E+03    0.46524E-03   -0.56001E-04 11326   0.632E-02    0.807E-02
RMM:  10    -0.637758453015E+03   -0.60102E-04   -0.27729E-04 10863   0.414E-02    0.117E-01
RMM:  11    -0.637758386651E+03    0.66364E-04   -0.10352E-04  8086   0.277E-02    0.526E-02
RMM:  12    -0.637758375190E+03    0.11461E-04   -0.50436E-05  6869   0.204E-02    0.270E-02
RMM:  13    -0.637758377760E+03   -0.25707E-05   -0.30585E-05  6485   0.167E-02
  43 F= -.63775838E+03 E0= -.63767642E+03  d E =-.449293E-02
 curvature:  -0.52 expect dE=-0.217E-02 dE for cont linesearch -0.411E-05
[...]
RMM:   4    -0.637770434234E+03    0.53897E-03   -0.10703E-03 11607   0.989E-02    0.159E-01
RMM:   5    -0.637770394786E+03    0.39447E-04   -0.40557E-04 10803   0.551E-02    0.139E-01
RMM:   6    -0.637770286291E+03    0.10849E-03   -0.14392E-04  9068   0.362E-02    0.738E-02
RMM:   7    -0.637770269317E+03    0.16974E-04   -0.71474E-05  7875   0.254E-02    0.592E-02
RMM:   8    -0.637770294693E+03   -0.25375E-04   -0.86829E-05  8399   0.299E-02    0.873E-02
RMM:   9    -0.637770247335E+03    0.47358E-04   -0.64247E-05  8277   0.237E-02    0.326E-02
RMM:  10    -0.637770243955E+03    0.33794E-05   -0.17926E-05  5993   0.181E-02
  59 F= -.63777024E+03 E0= -.63768808E+03  d E =-.559683E-03
 trial-energy change:   -0.000560  1 .order   -0.000509   -0.000651   -0.000368
 step:   1.5353(harm=  2.3575)  dis= 0.00272  next Energy=  -637.770343 (dE=-0.658E-03)
 bond charge predicted
       N       E                     dE             d eps       ncg     rms          rms(c)
DAV:   1    -0.637769384153E+03    0.86318E-03   -0.48833E-02 10440   0.122E+00    0.925E-02
RMM:   2    -0.637770971226E+03   -0.15871E-02   -0.12428E-02 13745   0.290E-01    0.268E-01
RMM:   3    -0.637770547601E+03    0.42362E-03   -0.10557E-03 11002   0.109E-01    0.179E-01
RMM:   4    -0.637770420186E+03    0.12742E-03   -0.28789E-04 10569   0.513E-02    0.845E-02
RMM:   5    -0.637770412734E+03    0.74520E-05   -0.97210E-05  8049   0.306E-02
  60 F= -.63777041E+03 E0= -.63768818E+03  d E =-.728462E-03
 curvature:  -1.13 expect dE=-0.931E-03 dE for cont linesearch -0.296E-04
 trial: gam= 0.87313 g(F)=  0.301E-03 g(S)=  0.521E-03 ort = 0.161E-03 (trialstep = 0.598E+00)
 search vector abs. value=  0.185E-02
 bond charge predicted
       N       E                     dE             d eps       ncg     rms          rms(c)
DAV:   1    -0.637771933262E+03   -0.15131E-02   -0.14510E-01 12936   0.197E+00    0.508E-01
RMM:   2    -0.637790643304E+03   -0.18710E-01   -0.49727E-02 12126   0.808E-01    0.158E+00
RMM:   3    -0.637777129275E+03    0.13514E-01   -0.12871E-02 11651   0.415E-01    0.107E+00
RMM:   4    -0.637771365812E+03    0.57635E-02   -0.34963E-03 11275   0.207E-01    0.399E-01
RMM:   5    -0.637770884030E+03    0.48178E-03   -0.13214E-03 11852   0.121E-01    0.277E-01
RMM:   6    -0.637770714778E+03    0.16925E-03   -0.96886E-04 12178   0.866E-02    0.263E-01
RMM:   7    -0.637770337927E+03    0.37685E-03   -0.38952E-04 10905   0.674E-02    0.111E-01
RMM:   8    -0.637770406192E+03   -0.68264E-04   -0.33228E-04 11753   0.500E-02    0.146E-01
RMM:   9    -0.637770302426E+03    0.10377E-03   -0.12333E-04  9444   0.401E-02    0.867E-02
RMM:  10    -0.637770265474E+03    0.36952E-04   -0.60898E-05  8053   0.246E-02    0.270E-02
RMM:  11    -0.637770264491E+03    0.98309E-06   -0.29745E-05  6744   0.188E-02
  61 F= -.63777026E+03 E0= -.63768793E+03  d E =0.148243E-03
 trial-energy change:    0.000148  1 .order   -0.000006   -0.000575    0.000564
 step:   0.1952(harm=  0.3018)  dis= 0.00040  next Energy=  -637.770501 (dE=-0.886E-04)
 bond charge predicted
       N       E                     dE             d eps       ncg     rms          rms(c)
DAV:   1    -0.637771078385E+03   -0.81291E-03   -0.65936E-02 12672   0.133E+00    0.330E-01
RMM:   2    -0.637779156123E+03   -0.80777E-02   -0.22165E-02 12400   0.541E-01    0.104E+00
RMM:   3    -0.637773457079E+03    0.56990E-02   -0.55408E-03 11906   0.264E-01    0.721E-01
RMM:   4    -0.637770899680E+03    0.25574E-02   -0.15327E-03 11796   0.140E-01    0.260E-01
RMM:   5    -0.637770670935E+03    0.22875E-03   -0.59394E-04 11705   0.817E-02    0.171E-01
RMM:   6    -0.637770571178E+03    0.99757E-04   -0.40238E-04 11971   0.560E-02    0.155E-01
RMM:   7    -0.637770444918E+03    0.12626E-03   -0.14150E-04  9251   0.441E-02    0.773E-02
RMM:   8    -0.637770475379E+03   -0.30461E-04   -0.14161E-04  9426   0.342E-02    0.961E-02
RMM:   9    -0.637770423774E+03    0.51605E-04   -0.45220E-05  6742   0.257E-02    0.511E-02
RMM:  10    -0.637770414648E+03    0.91256E-05   -0.21470E-05  6039   0.217E-02
  62 F= -.63777041E+03 E0= -.63768815E+03  d E =-.191462E-05
 curvature:  -0.25 expect dE=-0.137E-03 dE for cont linesearch -0.320E-06
 trial: gam= 0.66676 g(F)=  0.333E-03 g(S)=  0.209E-03 ort = 0.485E-04 (trialstep = 0.517E+00)
 search vector abs. value=  0.143E-02
 bond charge predicted
       N       E                     dE             d eps       ncg     rms          rms(c)
DAV:   1    -0.637768765153E+03    0.16586E-02   -0.79108E-02 10008   0.164E+00    0.114E-01
RMM:   2    -0.637771501583E+03   -0.27364E-02   -0.22541E-02 13931   0.378E-01    0.319E-01
RMM:   3    -0.637770907678E+03    0.59391E-03   -0.18413E-03 11587   0.136E-01    0.221E-01
RMM:   4    -0.637770726709E+03    0.18097E-03   -0.42516E-04 10979   0.655E-02    0.109E-01
RMM:   5    -0.637770707076E+03    0.19633E-04   -0.14154E-04  8878   0.379E-02    0.921E-02
RMM:   6    -0.637770663889E+03    0.43187E-04   -0.48801E-05  6654   0.249E-02    0.520E-02
RMM:   7    -0.637770655074E+03    0.88151E-05   -0.27550E-05  6327   0.210E-02
  63 F= -.63777066E+03 E0= -.63768838E+03  d E =-.240425E-03
 trial-energy change:   -0.000240  1 .order   -0.000243   -0.000297   -0.000188
 step:   1.4144(harm=  1.4144)  dis= 0.00305  next Energy=  -637.770821 (dE=-0.406E-03)
 bond charge predicted
       N       E                     dE             d eps       ncg     rms          rms(c)
DAV:   1    -0.637764976880E+03    0.56870E-02   -0.23604E-01  9840   0.284E+00    0.192E-01
RMM:   2    -0.637772989776E+03   -0.80129E-02   -0.67950E-02 13834   0.657E-01    0.520E-01
RMM:   3    -0.637771533727E+03    0.14560E-02   -0.56023E-03 12051   0.231E-01    0.392E-01
RMM:   4    -0.637770925098E+03    0.60863E-03   -0.12502E-03 11503   0.109E-01    0.156E-01
RMM:   5    -0.637770934928E+03   -0.98300E-05   -0.46158E-04 10927   0.575E-02    0.181E-01
RMM:   6    -0.637770782904E+03    0.15202E-03   -0.14348E-04  8396   0.413E-02    0.823E-02
RMM:   7    -0.637770760335E+03    0.22569E-04   -0.11316E-04  8870   0.264E-02    0.597E-02
RMM:   8    -0.637770798059E+03   -0.37723E-04   -0.10285E-04  8395   0.340E-02    0.992E-02
RMM:   9    -0.637770733520E+03    0.64539E-04   -0.80516E-05  8737   0.276E-02    0.304E-02
RMM:  10    -0.637770732581E+03    0.93936E-06   -0.32976E-05  6559   0.181E-02
  64 F= -.63777073E+03 E0= -.63768842E+03  d E =-.317932E-03
 curvature:  -1.76 expect dE=-0.262E-02 dE for cont linesearch -0.279E-04
 ZBRENT: interpolating
 opt :   1.1520  next Energy=  -637.770752 (dE=-0.338E-03)
 bond charge predicted
       N       E                     dE             d eps       ncg     rms          rms(c)
DAV:   1    -0.637770283902E+03    0.44962E-03   -0.20619E-02 10464   0.836E-01    0.625E-02
RMM:   2    -0.637771122186E+03   -0.83828E-03   -0.58544E-03 13863   0.194E-01    0.223E-01
RMM:   3    -0.637770813794E+03    0.30839E-03   -0.48011E-04  9907   0.769E-02    0.105E-01
RMM:   4    -0.637770773451E+03    0.40342E-04   -0.11149E-04  8521   0.377E-02    0.635E-02
RMM:   5    -0.637770762599E+03    0.10852E-04   -0.35195E-05  6427   0.227E-02    0.468E-02
RMM:   6    -0.637770753872E+03    0.87270E-05   -0.16419E-05  5887   0.196E-02
  65 F= -.63777075E+03 E0= -.63768845E+03  d E =-.339224E-03
 curvature:  -1.25 expect dE=-0.208E-02 dE for cont linesearch -0.105E-06
 trial: gam= 2.16234 g(F)=  0.241E-03 g(S)=  0.143E-02 ort =-0.110E-04 (trialstep = 0.111E+00)
 search vector abs. value=  0.831E-02
 bond charge predicted
       N       E                     dE             d eps       ncg     rms          rms(c)
DAV:   1    -0.637770441343E+03    0.32126E-03   -0.22119E-02 12528   0.882E-01    0.896E-02
RMM:   2    -0.637771504821E+03   -0.10635E-02   -0.62254E-03 13099   0.221E-01    0.296E-01
RMM:   3    -0.637771030807E+03    0.47401E-03   -0.72447E-04 10366   0.903E-02    0.172E-01
RMM:   4    -0.637770906005E+03    0.12480E-03   -0.18877E-04  9549   0.485E-02    0.884E-02
RMM:   5    -0.637770881882E+03    0.24124E-04   -0.70083E-05  7460   0.288E-02    0.559E-02
RMM:   6    -0.637770867732E+03    0.14149E-04   -0.27765E-05  6217   0.209E-02    0.442E-02
RMM:   7    -0.637770859363E+03    0.83694E-05   -0.14599E-05  5837   0.179E-02
  66 F= -.63777086E+03 E0= -.63768856E+03  d E =-.105491E-03
 trial-energy change:   -0.000105  1 .order   -0.000147   -0.000183   -0.000112
 step:   0.2884(harm=  0.2884)  dis= 0.00160  next Energy=  -637.770991 (dE=-0.237E-03)
 bond charge predicted
       N       E                     dE             d eps       ncg     rms          rms(c)
DAV:   1    -0.637769805603E+03    0.10621E-02   -0.56600E-02 11616   0.141E+00    0.136E-01
RMM:   2    -0.637772430493E+03   -0.26249E-02   -0.16657E-02 13192   0.347E-01    0.420E-01
RMM:   3    -0.637771344474E+03    0.10860E-02   -0.17806E-03 11048   0.138E-01    0.272E-01
RMM:   4    -0.637771018461E+03    0.32601E-03   -0.45340E-04 10506   0.705E-02    0.109E-01
RMM:   5    -0.637770995023E+03    0.23438E-04   -0.16827E-04  9410   0.380E-02    0.933E-02
RMM:   6    -0.637770970621E+03    0.24402E-04   -0.54867E-05  6996   0.272E-02    0.772E-02
RMM:   7    -0.637770939638E+03    0.30983E-04   -0.32752E-05  6458   0.225E-02    0.352E-02
RMM:   8    -0.637770951599E+03   -0.11961E-04   -0.28984E-05  6178   0.219E-02    0.542E-02
RMM:   9    -0.637770937189E+03    0.14410E-04   -0.29272E-05  6285   0.195E-02    0.269E-02
RMM:  10    -0.637770934852E+03    0.23368E-05   -0.13456E-05  5804   0.172E-02
  67 F= -.63777093E+03 E0= -.63768867E+03  d E =-.180980E-03
 curvature:  -0.73 expect dE=-0.308E-03 dE for cont linesearch -0.328E-05
 ZBRENT: extrapolating
 opt :   0.3303  next Energy=  -637.770939 (dE=-0.185E-03)
 bond charge predicted
       N       E                     dE             d eps       ncg     rms          rms(c)
DAV:   1    -0.637770874025E+03    0.63163E-04   -0.31589E-03 13104   0.334E-01    0.314E-02
RMM:   2    -0.637771032818E+03   -0.15879E-03   -0.87591E-04 11436   0.812E-02    0.112E-01
RMM:   3    -0.637770959225E+03    0.73593E-04   -0.90715E-05  7263   0.394E-02    0.612E-02
RMM:   4    -0.637770941888E+03    0.17338E-04   -0.24449E-05  6123   0.209E-02    0.265E-02
RMM:   5    -0.637770941146E+03    0.74143E-06   -0.94941E-06  5647   0.153E-02
  68 F= -.63777094E+03 E0= -.63768868E+03  d E =-.187274E-03
 curvature:  -0.90 expect dE=-0.496E-03 dE for cont linesearch -0.984E-06
 trial: gam=-0.02873 g(F)=  0.401E-03 g(S)=  0.150E-03 ort =-0.953E-04 (trialstep = 0.155E+00)
 search vector abs. value=  0.563E-03
 bond charge predicted
       N       E                     dE             d eps       ncg     rms          rms(c)
DAV:   1    -0.637770969613E+03   -0.27725E-04   -0.27837E-03 13032   0.312E-01    0.494E-02
RMM:   2    -0.637771166354E+03   -0.19674E-03   -0.87478E-04 11781   0.937E-02    0.139E-01
RMM:   3    -0.637771048639E+03    0.11772E-03   -0.14212E-04  8113   0.439E-02    0.908E-02
RMM:   4    -0.637771004549E+03    0.44089E-04   -0.34411E-05  6366   0.252E-02    0.318E-02
RMM:   5    -0.637771007155E+03   -0.26060E-05   -0.15788E-05  5891   0.186E-02
  69 F= -.63777101E+03 E0= -.63768874E+03  d E =-.660093E-04
 ZBRENT: can't locate minimum, use default step
 trial-energy change:   -0.000066  1 .order   -0.000076   -0.000086   -0.000065
 step:   0.6190(harm=  0.6544)  dis= 0.00109  next Energy=  -637.771122 (dE=-0.181E-03)
 bond charge predicted
       N       E                     dE             d eps       ncg     rms          rms(c)
DAV:   1    -0.637770785211E+03    0.21934E-03   -0.25278E-02 12960   0.935E-01    0.134E-01
RMM:   2    -0.637772163423E+03   -0.13782E-02   -0.74239E-03 12774   0.271E-01    0.345E-01
RMM:   3    -0.637771427916E+03    0.73551E-03   -0.11953E-03 10777   0.120E-01    0.244E-01
RMM:   4    -0.637771128848E+03    0.29907E-03   -0.33517E-04 10961   0.598E-02    0.916E-02
RMM:   5    -0.637771140598E+03   -0.11750E-04   -0.11163E-04  8429   0.363E-02    0.111E-01
RMM:   6    -0.637771094558E+03    0.46040E-04   -0.65125E-05  7606   0.280E-02    0.758E-02
RMM:   7    -0.637771065399E+03    0.29159E-04   -0.37092E-05  6559   0.214E-02    0.361E-02
RMM:   8    -0.637771079356E+03   -0.13957E-04   -0.32115E-05  6360   0.235E-02    0.546E-02
RMM:   9    -0.637771062463E+03    0.16893E-04   -0.16497E-05  5879   0.179E-02    0.207E-02
RMM:  10    -0.637771061745E+03    0.71789E-06   -0.90552E-06  5646   0.134E-02
  70 F= -.63777106E+03 E0= -.63768880E+03  d E =-.120599E-03
 curvature:  -0.33 expect dE=-0.724E-04 dE for cont linesearch -0.363E-07
 trial: gam= 0.41120 g(F)=  0.847E-04 g(S)=  0.134E-03 ort =-0.785E-05 (trialstep = 0.248E+00)
 search vector abs. value=  0.307E-03
 bond charge predicted
       N       E                     dE             d eps       ncg     rms          rms(c)
DAV:   1    -0.637771061812E+03    0.65130E-06   -0.42530E-03 13008   0.405E-01    0.600E-02
RMM:   2    -0.637771395763E+03   -0.33395E-03   -0.13643E-03 12587   0.121E-01    0.193E-01
RMM:   3    -0.637771194502E+03    0.20126E-03   -0.24610E-04  9322   0.566E-02    0.121E-01
RMM:   4    -0.637771126363E+03    0.68139E-04   -0.65364E-05  7695   0.318E-02    0.522E-02
RMM:   5    -0.637771118399E+03    0.79638E-05   -0.25093E-05  6145   0.209E-02
  71 F= -.63777112E+03 E0= -.63768883E+03  d E =-.566539E-04
 trial-energy change:   -0.000057  1 .order   -0.000045   -0.000053   -0.000037
 step:   0.8088(harm=  0.8088)  dis= 0.00099  next Energy=  -637.771149 (dE=-0.870E-04)
 bond charge predicted
       N       E                     dE             d eps       ncg     rms          rms(c)
DAV:   1    -0.637770905712E+03    0.22065E-03   -0.21620E-02 12864   0.918E-01    0.144E-01
RMM:   2    -0.637772962614E+03   -0.20569E-02   -0.73156E-03 12652   0.278E-01    0.502E-01
RMM:   3    -0.637771595150E+03    0.13675E-02   -0.14303E-03 10856   0.132E-01    0.271E-01
RMM:   4    -0.637771206936E+03    0.38821E-03   -0.40422E-04 11043   0.666E-02    0.112E-01
RMM:   5    -0.637771177675E+03    0.29261E-04   -0.11188E-04  8610   0.362E-02    0.898E-02
RMM:   6    -0.637771150532E+03    0.27143E-04   -0.69143E-05  7695   0.285E-02    0.738E-02
RMM:   7    -0.637771122734E+03    0.27798E-04   -0.37492E-05  6528   0.223E-02    0.369E-02
RMM:   8    -0.637771140158E+03   -0.17424E-04   -0.35885E-05  6525   0.241E-02    0.680E-02
RMM:   9    -0.637771115494E+03    0.24664E-04   -0.17769E-05  5939   0.198E-02    0.203E-02
RMM:  10    -0.637771113808E+03    0.16869E-05   -0.97046E-06  5695   0.127E-02
  72 F= -.63777111E+03 E0= -.63768879E+03  d E =-.520624E-04
 curvature:  -0.58 expect dE=-0.140E-03 dE for cont linesearch -0.269E-04
 ZBRENT: interpolating
 opt :   0.5592  next Energy=  -637.771129 (dE=-0.670E-04)
 bond charge predicted
       N       E                     dE             d eps       ncg     rms          rms(c)
DAV:   1    -0.637771079531E+03    0.35963E-04   -0.43628E-03 12984   0.409E-01    0.595E-02
RMM:   2    -0.637771405814E+03   -0.32628E-03   -0.13642E-03 12608   0.120E-01    0.190E-01
RMM:   3    -0.637771213117E+03    0.19270E-03   -0.23587E-04  9195   0.559E-02    0.121E-01
RMM:   4    -0.637771142476E+03    0.70641E-04   -0.63326E-05  7621   0.320E-02    0.510E-02
RMM:   5    -0.637771134798E+03    0.76786E-05   -0.22921E-05  6033   0.211E-02
  73 F= -.63777113E+03 E0= -.63768883E+03  d E =-.730524E-04
 curvature:  -0.32 expect dE=-0.149E-03 dE for cont linesearch -0.593E-05
 ZBRENT: bisectioning
 opt :   0.4034  next Energy=  -637.771144 (dE=-0.826E-04)
 bond charge predicted
       N       E                     dE             d eps       ncg     rms          rms(c)
DAV:   1    -0.637771118913E+03    0.23563E-04   -0.17347E-03 13416   0.259E-01    0.545E-02
RMM:   2    -0.637771587107E+03   -0.46819E-03   -0.72095E-04 10822   0.860E-02    0.276E-01
RMM:   3    -0.637771161953E+03    0.42515E-03   -0.18113E-04  8222   0.583E-02    0.721E-02
RMM:   4    -0.637771124260E+03    0.37693E-04   -0.43713E-05  6831   0.253E-02    0.302E-02
RMM:   5    -0.637771125341E+03   -0.10812E-05   -0.13327E-05  5730   0.185E-02
  74 F= -.63777113E+03 E0= -.63768883E+03  d E =-.635961E-04
 curvature:  -0.52 expect dE=-0.989E-04 dE for cont linesearch -0.316E-06
 trial: gam= 0.86981 g(F)=  0.110E-03 g(S)=  0.805E-04 ort = 0.137E-04 (trialstep = 0.192E+00)
 search vector abs. value=  0.447E-03
 bond charge predicted
       N       E                     dE             d eps       ncg     rms          rms(c)
DAV:   1    -0.637771041838E+03    0.82422E-04   -0.39219E-03 11544   0.419E-01    0.284E-02
RMM:   2    -0.637771278483E+03   -0.23665E-03   -0.11758E-03 12264   0.811E-02    0.159E-01
RMM:   3    -0.637771151920E+03    0.12656E-03   -0.10093E-04  7457   0.485E-02    0.467E-02
RMM:   4    -0.637771142742E+03    0.91784E-05   -0.29271E-05  6262   0.197E-02
  75 F= -.63777114E+03 E0= -.63768883E+03  d E =-.174006E-04
 trial-energy change:   -0.000017  1 .order   -0.000021   -0.000039   -0.000003
 step:   0.2077(harm=  0.2077)  dis= 0.00027  next Energy=  -637.771146 (dE=-0.210E-04)
 bond charge predicted
       N       E                     dE             d eps       ncg     rms          rms(c)
DAV:   1    -0.637771145288E+03    0.66318E-05   -0.59059E-05 10896   0.499E-02    0.263E-02
RMM:   2    -0.637771356516E+03   -0.21123E-03   -0.12044E-04  7851   0.384E-02    0.200E-01
RMM:   3    -0.637771147644E+03    0.20887E-03   -0.51443E-05  6675   0.314E-02    0.249E-02
RMM:   4    -0.637771144126E+03    0.35177E-05   -0.63574E-06  4807   0.913E-03
  76 F= -.63777114E+03 E0= -.63768884E+03  d E =-.187852E-04
 curvature:  -0.23 expect dE=-0.253E-04 dE for cont linesearch -0.186E-05
 ZBRENT: increasing intervall
 opt :   0.2398  next Energy=  -637.771147 (dE=-0.222E-04)
 bond charge predicted
       N       E                     dE             d eps       ncg     rms          rms(c)
DAV:   1    -0.637771144015E+03    0.36292E-05   -0.12966E-04 13320   0.734E-02    0.773E-03
RMM:   2    -0.637771161977E+03   -0.17963E-04   -0.27266E-05  6284   0.169E-02    0.567E-02
RMM:   3    -0.637771147100E+03    0.14877E-04   -0.92639E-06  4906   0.176E-02    0.108E-02
RMM:   4    -0.637771146676E+03    0.42456E-06   -0.26434E-06  4639   0.593E-03
  77 F= -.63777115E+03 E0= -.63768884E+03  d E =-.213345E-04
 curvature:  -0.41 expect dE=-0.350E-04 dE for cont linesearch -0.281E-05
 ZBRENT: increasing intervall
 opt :   0.3040  next Energy=  -637.771150 (dE=-0.245E-04)
 bond charge predicted
       N       E                     dE             d eps       ncg     rms          rms(c)
DAV:   1    -0.637771139225E+03    0.78753E-05   -0.44729E-04 10704   0.140E-01    0.719E-03
RMM:   2    -0.637771158320E+03   -0.19095E-04   -0.12828E-04  8764   0.280E-02    0.366E-02
RMM:   3    -0.637771151981E+03    0.63386E-05   -0.12230E-05  4949   0.198E-02
  78 F= -.63777115E+03 E0= -.63768883E+03  d E =-.266400E-04
 curvature:  -0.47 expect dE=-0.426E-04 dE for cont linesearch -0.167E-07
 trial: gam= 0.20443 g(F)=  0.807E-04 g(S)=  0.960E-05 ort =-0.397E-05 (trialstep = 0.214E+00)
 search vector abs. value=  0.107E-03
 bond charge predicted
       N       E                     dE             d eps       ncg     rms          rms(c)
DAV:   1    -0.637771150455E+03    0.78653E-05   -0.97558E-04 10272   0.177E-01    0.142E-02
RMM:   2    -0.637771197085E+03   -0.46630E-04   -0.24563E-04 10582   0.430E-02    0.744E-02
RMM:   3    -0.637771172267E+03    0.24818E-04   -0.23922E-05  5680   0.236E-02    0.149E-02
RMM:   4    -0.637771172703E+03   -0.43641E-06   -0.71695E-06  4836   0.107E-02
  79 F= -.63777117E+03 E0= -.63768885E+03  d E =-.207218E-04
 trial-energy change:   -0.000021  1 .order   -0.000016   -0.000019   -0.000012
 step:   0.6089(harm=  0.6089)  dis= 0.00042  next Energy=  -637.771179 (dE=-0.272E-04)
 reached required accuracy - stopping structural energy minimisation
