HECN                                    
           1
     8.932500    0.000000    0.000000
     0.005753    9.055598    0.000000
     0.032102   -0.015743    8.937128
   V    Nb   Zr   N    C    Cr   Ta
   7   6   7  13  19   6   6
Direct configuration=     1
   0.99688001  0.99204997  0.99924002
   0.25398003  0.99714995  0.24912000
   0.24803003  0.50165000  0.24955001
   0.50501006  0.49745998  0.99834003
   0.50479003  0.24631001  0.74710002
   0.99427992  0.50449999  0.49779000
   0.49950005  0.75481999  0.74817004
   0.99437004  0.23617001  0.26379999
   0.75718000  0.74102998  0.01100000
   0.00201000  0.25541000  0.73894001
   0.75307001  0.26163001  0.50533002
   0.99514004  0.74492004  0.74511997
   0.25679999  0.49462002  0.74545002
   0.24788999  0.24839000  0.99657997
   0.50833000  0.25676999  0.25376001
   0.74879004  0.98787999  0.26967001
   0.75719000  0.25603001  0.99591997
   0.24762001  0.74973999  0.99974006
   0.25272001  0.24823001  0.50015003
   0.24457999  0.75048999  0.49983999
   0.24982001  0.24942998  0.24825000
   0.26146999  0.99984002  0.99295996
   0.00281000  0.25024000  0.00130000
   0.75313998  0.24617000  0.25492002
   0.74767001  0.99748000  0.01202000
   0.50714994  0.99977000  0.24673000
   0.99051999  0.48088002  0.24100998
   0.50519005  0.76130999  0.00855000
   0.98896989  0.00202000  0.73708999
   0.75744996  0.24437997  0.74896999
   0.73632001  0.00417000  0.51063000
   0.50563996  0.23264999  0.49544997
   0.50008998  0.00061000  0.73471998
   0.99720000  0.99771992  0.25899999
   0.50427997  0.24673000  0.00262000
   0.25133999  0.74958002  0.24910999
   0.24328000  0.50072997  0.99510994
   0.99837005  0.74313996  0.00460000
   0.75633000  0.73891003  0.25767000
   0.75839004  0.50315998  0.00288000
   0.50700002  0.50333002  0.25878999
   0.24900999  0.25315000  0.74854000
   0.24446000  0.99823996  0.50287998
   0.99804009  0.24229999  0.50128003
   0.24177002  0.75340997  0.75018002
   0.25841001  0.50062002  0.50129001
   0.99000004  0.76215003  0.49746000
   0.99203996  0.50055999  0.75138002
   0.75036005  0.74888000  0.74756004
   0.74036002  0.50197000  0.50067003
   0.50575006  0.74958002  0.49720000
   0.50501003  0.50217998  0.73912003
   0.51588997  0.01358000  0.98075008
   0.99841994  0.50976998  0.98613004
   0.50379003  0.73926997  0.25905001
   0.23780002  0.01082000  0.74607998
   0.47957999  0.98308000  0.49717999
   0.74279003  0.97869994  0.76450995
   0.99864998  0.77573999  0.26102000
   0.73551001  0.51468004  0.26666001
   0.02362000  0.99783001  0.49557002
   0.50539000  0.52833005  0.49917999
   0.73876003  0.52828003  0.73814999
   0.75400003  0.72937999  0.49116997
HECN                                    
           1
     8.603760    0.010108   -0.005586
     0.015788    8.682974    0.006477
     0.025314   -0.008664    8.616183
   V    Nb   Zr   N    C    Cr   Ta
   7   6   7  13  19   6   6
Direct configuration=     2
   0.99645751  0.98958163  0.00021814
   0.25341326  0.99444391  0.25011891
   0.25159213  0.50547126  0.24853936
   0.50326755  0.49387178  0.99754820
   0.50076493  0.24332152  0.75154421
   0.99349633  0.50021788  0.50134873
   0.49963402  0.75951306  0.74690850
   0.99981166  0.23954893  0.25908901
   0.75239763  0.74593827  0.00775858
   0.00266702  0.25402170  0.74012976
   0.75148327  0.25862341  0.50878110
   0.99915993  0.74842293  0.74932017
   0.25631280  0.49651925  0.74915095
   0.24912849  0.24499750  0.99963180
   0.50088785  0.25111421  0.25106801
   0.73917862  0.99370042  0.26430830
   0.75592725  0.25226936  0.99282512
   0.25534462  0.75403315  0.00008732
   0.25774963  0.24907478  0.49747983
   0.25231717  0.74991324  0.49958736
   0.24880314  0.25024771  0.24858666
   0.25922911  0.00065339  0.99431082
   0.00225782  0.24773257  0.00147138
   0.75455482  0.24853499  0.25582464
   0.74865537  0.99562154  0.00408939
   0.49832175  0.99688022  0.24885205
   0.99403542  0.48361212  0.24515712
   0.50665009  0.75894692  0.00575593
   0.98928141  0.00180949  0.74287707
   0.75204247  0.24541378  0.74751659
   0.73771101  0.00218891  0.51297791
   0.50619612  0.23352057  0.50275994
   0.50343730  0.00039229  0.73799325
   0.00390903  0.00312053  0.24972938
   0.50414865  0.24812169 -0.00601149
   0.25222616  0.74847775  0.24951885
   0.24594167  0.50002660  0.00001721
   0.99600888  0.74540929  0.00397629
   0.75227265  0.74499553  0.25094081
   0.75430071  0.50594647  0.00216849
   0.49538851  0.50788412  0.24976162
   0.25350651  0.24968849  0.74863570
   0.25915480  0.99836405  0.50198773
   0.99751535  0.24826160  0.50104005
   0.24608312  0.75383039  0.75014586
   0.25224571  0.50045921  0.49595394
   0.99475459  0.75347723  0.50073943
   0.99473570  0.50060762  0.74977895
   0.74398112  0.76149939  0.75152493
   0.75085812  0.49564699  0.50312157
   0.50214226  0.76125780  0.49924306
   0.50073475  0.50153534  0.74804851
   0.51683887  0.01680095  0.97607368
   0.00073448  0.51473543  0.98230920
   0.50244712  0.73999709  0.25651803
   0.23846971  0.01151247  0.74858700
   0.47764688  0.98129264  0.49926605
   0.73792731  0.97411833  0.76652805
   0.00725084  0.76126718  0.24826233
   0.74970308  0.50108958  0.25156033
   0.01021396  0.00335657  0.50574317
   0.49076664  0.51591511  0.50083004
   0.74376910  0.51111955  0.74910943
   0.75215659  0.75003207  0.50127585
HECN                                    
           1
     8.702896    0.007059   -0.003901
     0.012762    8.795343    0.004524
     0.027361   -0.010799    8.712968
   V    Nb   Zr   N    C    Cr   Ta
   7   6   7  13  19   6   6
Direct configuration=     3
   0.99658866  0.99035801 -0.00008831
   0.25358949  0.99529500  0.24980593
   0.25047853  0.50427052  0.24885566
   0.50381192  0.49499946  0.99779539
   0.50202310  0.24426099  0.75015420
   0.99373932  0.50156517  0.50023472
   0.49959409  0.75803682  0.74730419
   0.99811020  0.23848712  0.26056227
   0.75389742  0.74439209  0.00877461
   0.00246055  0.25445884  0.73975715
   0.75197822  0.25956923  0.50770123
   0.99790181  0.74732371  0.74800638
   0.25646529  0.49592263  0.74799387
   0.24873884  0.24606562  0.99867615
   0.50321631  0.25288963  0.25191023
   0.74219109  0.99186511  0.26598875
   0.75632182  0.25345091  0.99379254
   0.25292770  0.75268583 -0.00002185
   0.25617580  0.24881030  0.49831423
   0.24989461  0.75009739  0.49966467
   0.24912175  0.24999024  0.24848176
   0.25993072  0.00039709  0.99388893
   0.00242972  0.24852101  0.00141729
   0.75411256  0.24779192  0.25554195
   0.74834780  0.99620453  0.00656941
   0.50108420  0.99778635  0.24818939
   0.99293497  0.48275512  0.24385984
   0.50619266  0.75968999  0.00662905
   0.98918261  0.00187717  0.74106678
   0.75373616  0.24508634  0.74797255
   0.73727428  0.00281303  0.51224275
   0.50602082  0.23324869  0.50047351
   0.50238855  0.00046275  0.73696866
   0.00181246  0.00142228  0.25262910
   0.50419206  0.24768192 -0.00331124
   0.25194822  0.74882483  0.24939052
   0.24510707  0.50024993 -0.00151847
   0.99674911  0.74469457  0.00417240
   0.75354661  0.74307856  0.25304794
   0.75558221  0.50506845  0.00239254
   0.49902746  0.50644549  0.25258909
   0.25209740  0.25077881  0.74860403
   0.25455432  0.99833017  0.50226386
   0.99768192  0.24638640  0.50111663
   0.24473292  0.75369973  0.75015577
   0.25417669  0.50050629  0.49762425
   0.99326209  0.75620736  0.49971062
   0.99389205  0.50059325  0.75027922
   0.74598218  0.75752916  0.75028901
   0.74756845  0.49764000  0.50235110
   0.50327576  0.75758426  0.49860750
   0.50207120  0.50173863  0.74525644
   0.51654395  0.01578719  0.97753700
   0.00001248  0.51317372  0.98350505
   0.50286836  0.73976732  0.25731047
   0.23825978  0.01129552  0.74780284
   0.47825101  0.98185456  0.49861351
   0.73944762  0.97555797  0.76589670
   0.00455524  0.76581907  0.25224770
   0.74525746  0.50536545  0.25627734
   0.01441117  0.00161595  0.50256509
   0.49534000  0.51981472  0.50031395
   0.74219216  0.51652098  0.74567629
   0.75273941  0.74353861  0.49812004
HECN                                    
           1
     8.818420    0.005767   -0.007766
     0.011597    8.825170    0.000675
     0.023919   -0.014714    8.843266
   V    Nb   Zr   N    C    Cr   Ta
   7   6   7  13  19   6   6
Direct configuration=     4
   0.99777228  0.98765548  0.00042608
   0.25285475  0.99280757  0.25164276
   0.25610785  0.50884913  0.24634854
   0.50045677  0.49019591  0.99746849
   0.49613803  0.24037488  0.75595328
   0.99588975  0.49590557  0.50537780
   0.49995033  0.76302361  0.74555144
   0.00433013  0.24229476  0.25511040
   0.74672514  0.75068921  0.00358581
   0.00549610  0.25213582  0.74328132
   0.75064936  0.25549490  0.50954669
   0.00056910  0.75114271  0.75432649
   0.25328733  0.49758210  0.75344142
   0.24941456  0.24305082  0.00062112
   0.49625392  0.24954291  0.24761647
   0.73859282  0.99686027  0.25732983
   0.75470859  0.24891635  0.99239240
   0.26158791  0.75682522 -0.00045651
   0.25740122  0.24908843  0.49724676
   0.25244291  0.75161005  0.49956952
   0.24784963  0.25065003  0.24859776
   0.25796134  0.00081201  0.99545142
   0.00193504  0.24606210  0.00176633
   0.75407244  0.25083588  0.25505592
   0.74953959  0.99496401 -0.00261533
   0.48969101  0.99360457  0.24945084
   0.99755565  0.48983372  0.24774201
   0.50742575  0.75768529  0.00344096
   0.98931832  0.00205929  0.75008307
   0.74758749  0.24741603  0.74677729
   0.74088311 -0.00049264  0.51655739
   0.50706225  0.23638554  0.50782052
   0.50591237  0.00091974  0.74175703
   0.00762339  0.00014758  0.24412986
   0.50325968  0.24985678 -0.01200338
   0.25552501  0.74746664  0.24927863
   0.24743974  0.49998423  0.00469348
   0.99756901  0.74740001  0.00212898
   0.74896115  0.74558253  0.25106320
   0.75187225  0.50498560  0.00150401
   0.49115546  0.51055994  0.24366827
   0.25777462  0.24622563  0.74910704
   0.26167789  0.99900764  0.50226702
   0.99876779  0.25399013  0.50038693
   0.25091821  0.75577624  0.75046785
   0.24535800  0.49977188  0.49227448
   0.99809682  0.74747966  0.50083045
   0.99771870  0.50067080  0.74907741
   0.74013770  0.76142538  0.75438091
   0.75341744  0.49929473  0.50174463
   0.50125032  0.76361881  0.50033263
   0.49886590  0.50078516  0.75448475
   0.51631420  0.01843217  0.97133661
   0.00281454  0.51888195  0.97912756
   0.50044496  0.73950646  0.25526161
   0.23851763  0.01039712  0.74978313
   0.47844944  0.98132311  0.50050790
   0.73216549  0.97448195  0.76898317
   0.00788498  0.75600393  0.24460590
   0.75263375  0.49744359  0.24721146
   0.00725412  0.00370809  0.50656315
   0.49397145  0.51089230  0.49910480
   0.74624497  0.50711855  0.75547563
   0.74849293  0.75299992  0.50395672
HECN                                    
           1
     8.803054    0.005939   -0.007252
     0.011752    8.821203    0.001187
     0.024376   -0.014193    8.825935
   V    Nb   Zr   N    C    Cr   Ta
   7   6   7  13  19   6   6
Direct configuration=     5
   0.99761693  0.98801367  0.00035876
   0.25295113  0.99313722  0.25140223
   0.25536896  0.50824221  0.24667652
   0.50089730  0.49083276  0.99751180
   0.49691029  0.24088982  0.75519386
   0.99560727  0.49665548  0.50470401
   0.49990358  0.76236264  0.74578083
   0.00351390  0.24179019  0.25582430
   0.74766682  0.74985489  0.00426585
   0.00509747  0.25244350  0.74281944
   0.75082376  0.25603492  0.50930515
   0.00021854  0.75063605  0.75349786
   0.25370415  0.49736188  0.75272760
   0.24932580  0.24345034  0.00036636
   0.49716816  0.24998694  0.24817976
   0.73906556  0.99619866  0.25846450
   0.75492052  0.24951756  0.99257624
   0.26045105  0.75627634 -0.00040027
   0.25724042  0.24905159  0.49738657
   0.25210838  0.75140949  0.49958175
   0.24801660  0.25056259  0.24858259
   0.25821976  0.00075696  0.99524674
   0.00200000  0.24638805  0.00172076
   0.75407768  0.25043240  0.25511944
   0.74938370  0.99512894 -0.00141165
   0.49118657  0.99415908  0.24928641
   0.99694875  0.48889506  0.24723258
   0.50726410  0.75795119  0.00385881
   0.98929999  0.00203464  0.74890146
   0.74839464  0.24710740  0.74693414
   0.74040920 -0.00005475  0.51599194
   0.50692507  0.23596929  0.50685745
   0.50544953  0.00085882  0.74112928
   0.00686111  0.00031691  0.24524343
   0.50338253  0.24956898 -0.01086434
   0.25505552  0.74764661  0.24929317
   0.24713318  0.50001906  0.00387928
   0.99746145  0.74704147  0.00239657
   0.74956315  0.74525081  0.25132342
   0.75235930  0.50499671  0.00162067
   0.49218923  0.51001519  0.24483756
   0.25702943  0.24682905  0.74904106
   0.26074278  0.99891768  0.50226616
   0.99862516  0.25298219  0.50048205
   0.25010623  0.75550083  0.75042648
   0.24651593  0.49986971  0.49297611
   0.99746227  0.74863645  0.50068393
   0.99721645  0.50066051  0.74923469
   0.74090459  0.76090879  0.75384477
   0.75264966  0.49907529  0.50182368
   0.50151599  0.76281881  0.50010631
   0.49928614  0.50091111  0.75327561
   0.51634467  0.01808190  0.97214904
   0.00244687  0.51812545  0.97970075
   0.50076319  0.73954120  0.25553027
   0.23848369  0.01051610  0.74952365
   0.47842329  0.98139345  0.50025966
   0.73312124  0.97462456  0.76857916
   0.00744851  0.75730539  0.24560774
   0.75166614  0.49849408  0.24839959
   0.00819334  0.00343068  0.50603949
   0.49415133  0.51207516  0.49926385
   0.74571257  0.50836431  0.75419174
   0.74904985  0.75174549  0.50319151
HECN                                    
           1
     8.757256    0.002343   -0.006695
     0.008109    8.782819   -0.004478
     0.024786   -0.019805    8.789263
   V    Nb   Zr   N    C    Cr   Ta
   7   6   7  13  19   6   6
Direct configuration=     6
   0.00020816  0.98509455  0.00045754
   0.25248203  0.99065494  0.25414099
   0.26159197  0.51259307  0.24371029
   0.49790571  0.48627219  0.99767888
   0.49105116  0.23804243  0.75875516
   0.99773088  0.49314146  0.51000526
   0.50073719  0.76534629  0.74345549
   0.00544746  0.24284938  0.25495937
   0.74335198  0.75150117  0.00163940
   0.00878232  0.25021900  0.74396605
   0.75169162  0.25504694  0.50894250
   0.00078270  0.75255733  0.75598726
   0.25177338  0.49805906  0.75563876
   0.24789477  0.24247441 -0.00016883
   0.49534705  0.24962336  0.24557988
   0.73939403  0.99737065  0.25329978
   0.75467885  0.24733910  0.99285509
   0.26473744  0.75795502 -0.00065873
   0.25460198  0.24911534  0.49863324
   0.25009102  0.75113188  0.50009301
   0.24746238  0.25052199  0.24873025
   0.25692711  0.00074830  0.99625099
   0.00158566  0.24457244  0.00173915
   0.75290977  0.25201319  0.25385694
   0.74942576  0.99534517 -0.00653179
   0.48678962  0.99196514  0.25037024
   0.99856369  0.49497362  0.24954026
   0.50832956  0.75715562  0.00156964
   0.99048606  0.00249165  0.75322723
   0.74651424  0.24983451  0.74634405
   0.74493697 -0.00166129  0.51662750
   0.50748465  0.24087800  0.50839269
   0.50793542  0.00189717  0.74506528
   0.00787924 -0.00315219  0.24319867
   0.50212098  0.25067511 -0.01345017
   0.25695484  0.74723486  0.24884323
   0.24736682  0.50071033  0.00664354
   0.99946027  0.74881060  0.00074041
   0.74789234  0.74439717  0.25300590
   0.75126383  0.50361743  0.00136169
   0.49284932  0.51045082  0.24243998
   0.25936685  0.24461139  0.74972633
   0.25893109  0.99984080  0.50352996
   0.99976522  0.25531002  0.50008613
   0.25344886  0.75747630  0.75076385
   0.24367751  0.49984938  0.49197184
   0.99663304  0.74598435  0.50022625
   0.99892310  0.50095267  0.74979449
   0.74021843  0.75622359  0.75436349
   0.75259428  0.50239002  0.50130479
   0.50229759  0.76006397  0.50008922
   0.49971449  0.50049902  0.75547545
   0.51638486  0.01988102  0.96693584
   0.00425826  0.52361393  0.97608492
   0.49816554  0.73811861  0.25671126
   0.23740085  0.00848109  0.74920912
   0.47963857  0.98264560  0.50115902
   0.72603626  0.97571525  0.77120944
   0.00550341  0.75468594  0.24562056
   0.75026401  0.49962800  0.24676441
   0.00832991  0.00361638  0.50452918
   0.49851789  0.51055800  0.49849582
   0.74556632  0.50889287  0.75544734
   0.74894380  0.75109435  0.50356536
HECN                                    
           1
     8.751435    0.001886   -0.006625
     0.007646    8.777941   -0.005198
     0.024839   -0.020518    8.784602
   V    Nb   Zr   N    C    Cr   Ta
   7   6   7  13  19   6   6
Direct configuration=     7
   0.00053905  0.98472208  0.00046989
   0.25242196  0.99033828  0.25449031
   0.26238724  0.51314851  0.24333205
   0.49752328  0.48568991  0.99769985
   0.49030245  0.23767897  0.75920946
   0.99800196  0.49269345  0.51068150
   0.50084386  0.76572699  0.74315897
   0.00569455  0.24298461  0.25484906
   0.74280084  0.75171087  0.00130438
   0.00925295  0.24993534  0.74411217
   0.75180245  0.25492084  0.50889613
   0.00085486  0.75280280  0.75630511
   0.25152673  0.49814819  0.75601036
   0.24771191  0.24234972 -0.00023720
   0.49511439  0.24957664  0.24524807
   0.73943609  0.99751984  0.25264075
   0.75464786  0.24706104  0.99289050
   0.26528514  0.75816950 -0.00069160
   0.25426491  0.24912344  0.49879236
   0.24983327  0.75109638  0.50015825
   0.24739158  0.25051679  0.24874910
   0.25676196  0.00074721  0.99637916
   0.00153263  0.24434067  0.00174135
   0.75276066  0.25221481  0.25369596
   0.74943118  0.99537235 -0.00718520
   0.48622776  0.99168495  0.25050842
   0.99877031  0.49574979  0.24983525
   0.50846566  0.75705393  0.00127742
   0.99063758  0.00255040  0.75377932
   0.74627415  0.25018247  0.74626898
   0.74551532 -0.00186607  0.51670845
   0.50755638  0.24150473  0.50858901
   0.50825303  0.00203017  0.74556766
   0.00800915 -0.00359512  0.24293742
   0.50195989  0.25081603 -0.01378008
   0.25719747  0.74718236  0.24878577
   0.24739668  0.50079881  0.00699638
   0.99971574  0.74903638  0.00052918
   0.74767883  0.74428826  0.25322056
   0.75112381  0.50344130  0.00132853
   0.49293369  0.51050626  0.24213403
   0.25966535  0.24432849  0.74981358
   0.25869967  0.99995864  0.50369134
   0.99991099  0.25560718  0.50003578
   0.25387600  0.75772866  0.75080704
   0.24331490  0.49984655  0.49184370
   0.99652697  0.74564574  0.50016762
   0.99914115  0.50099010  0.74986594
   0.74013052  0.75562556  0.75442931
   0.75258738  0.50281309  0.50123884
   0.50239730  0.75971236  0.50008680
   0.49976917  0.50044663  0.75575615
   0.51639013  0.02011024  0.96627067
   0.00448999  0.52431431  0.97562391
   0.49783360  0.73793698  0.25686188
   0.23726240  0.00822125  0.74916882
   0.47979388  0.98280557  0.50127389
   0.72513116  0.97585432  0.77154526
   0.00525478  0.75435148  0.24562200
   0.75008495  0.49977253  0.24655583
   0.00834738  0.00363997  0.50433645
   0.49907567  0.51036450  0.49839764
   0.74554765  0.50896043  0.75560762
   0.74893021  0.75101126  0.50361302
HECN                                    
           1
     8.791134    0.001743   -0.006485
     0.007521    8.839233   -0.009281
     0.025121   -0.024725    8.822320
   V    Nb   Zr   N    C    Cr   Ta
   7   6   7  13  19   6   6
Direct configuration=     8
   0.00459225  0.98188146  0.00016986
   0.25194388  0.98771248  0.25802155
   0.26801744  0.51660459  0.24099148
   0.49547185  0.48224294  0.99766475
   0.48500680  0.23674406  0.75880074
   0.99874205  0.49193665  0.51530735
   0.50231064  0.76693910  0.74032396
   0.00457284  0.24357448  0.25484751
   0.74056238  0.75095791  0.00026261
   0.01108590  0.24745031  0.74476082
   0.75319275  0.25563694  0.50762486
   0.00055676  0.75506059  0.75506061
   0.25203257  0.49964988  0.75667780
   0.24533331  0.24234111  0.00012029
   0.49512602  0.24919526  0.24509963
   0.74036646  0.99671800  0.25022166
   0.75563425  0.24723121  0.99302141
   0.26708760  0.75879302 -0.00050551
   0.25391720  0.25068363  0.49925474
   0.24876453  0.74970596  0.50075452
   0.24695853  0.25026271  0.24905859
   0.25542058  0.00056248  0.99755877
   0.00081008  0.24259672  0.00166631
   0.75185596  0.25264291  0.25245290
   0.74921676  0.99574708 -0.00925574
   0.48539759  0.99037698  0.25217031
   0.99907839  0.49948975  0.25124031
   0.50939201  0.75694539 -0.00066231
   0.99288687  0.00277058  0.75558583
   0.74639752  0.25158896  0.74546524
   0.74937786 -0.00151343  0.51564486
   0.50765150  0.24605748  0.50810557
   0.50816898  0.00352430  0.74625303
   0.00687430 -0.00424223  0.24374626
   0.50057705  0.25074273 -0.01293669
   0.25781414  0.74752962  0.24910005
   0.24648003  0.50196584  0.00794004
   0.00148839  0.75038136  0.00041891
   0.74664239  0.74430049  0.25395186
   0.75144125  0.50265914  0.00108021
   0.49666390  0.50870356  0.24198663
   0.26021408  0.24361044  0.75040493
   0.25635427  0.99955835  0.50523635
   0.00010700  0.25445881  0.50021954
   0.25591237  0.75962028  0.75083858
   0.24376850  0.50002820  0.49256236
   0.99457700  0.74566977  0.49992944
   0.99925532  0.50104113  0.75088464
   0.74133650  0.75302727  0.75301256
   0.75229240  0.50331415  0.50131559
   0.50223184  0.75663950  0.49931116
   0.50024687  0.50012799  0.75519433
   0.51576493  0.02162958  0.96479578
   0.00593993  0.52887885  0.97413565
   0.49607981  0.73728239  0.26028619
   0.23525171  0.00500256  0.74766066
   0.48099237  0.98448389  0.50137175
   0.72119158  0.97485198  0.77178871
   0.00287431  0.75181775  0.24731117
   0.74666633  0.50196660  0.24698083
   0.00795045  0.00399592  0.50161648
   0.50063229  0.50916850  0.49867607
   0.74451396  0.50964904  0.75427590
   0.75093499  0.75002482  0.50313992
HECN                                    
           1
     8.793797    0.001733   -0.006476
     0.007512    8.843345   -0.009555
     0.025140   -0.025008    8.824851
   V    Nb   Zr   N    C    Cr   Ta
   7   6   7  13  19   6   6
Direct configuration=     9
   0.00486294  0.98169220  0.00014973
   0.25191194  0.98753765  0.25825736
   0.26839346  0.51683478  0.24083523
   0.49533484  0.48201329  0.99766230
   0.48465313  0.23668176  0.75877342
   0.99879147  0.49188638  0.51561634
   0.50240860  0.76701977  0.74013461
   0.00449793  0.24361378  0.25484743
   0.74041289  0.75090771  0.00019300
   0.01120832  0.24728478  0.74480407
   0.75328560  0.25568461  0.50753995
   0.00053685  0.75521097  0.75497755
   0.25206635  0.49974995  0.75672243
   0.24517445  0.24234054  0.00014418
   0.49512680  0.24916985  0.24508970
   0.74042860  0.99666450  0.25006003
   0.75570013  0.24724256  0.99303016
   0.26720798  0.75883457 -0.00049307
   0.25389398  0.25078759  0.49928567
   0.24869316  0.74961335  0.50079431
   0.24692961  0.25024579  0.24907925
   0.25533100  0.00055021  0.99763756
   0.00076182  0.24248053  0.00166124
   0.75179554  0.25267139  0.25236987
   0.74920244  0.99577198 -0.00939404
   0.48534214  0.99028989  0.25228129
   0.99909897  0.49973896  0.25133429
   0.50945388  0.75693810 -0.00079189
   0.99303709  0.00278530  0.75570651
   0.74640577  0.25168264  0.74541159
   0.74963582 -0.00148997  0.51557381
   0.50765786  0.24636078  0.50807342
   0.50816337  0.00362386  0.74629886
   0.00679851 -0.00428532  0.24380028
   0.50048469  0.25073787 -0.01288035
   0.25785533  0.74755277  0.24912106
   0.24641882  0.50204362  0.00800312
   0.00160678  0.75047097  0.00041158
   0.74657317  0.74430132  0.25400071
   0.75146245  0.50260702  0.00106359
   0.49691302  0.50858346  0.24197672
   0.26025072  0.24356262  0.75044441
   0.25619763  0.99953173  0.50533955
   0.00012009  0.25438231  0.50023178
   0.25604838  0.75974630  0.75084075
   0.24379879  0.50004032  0.49261037
   0.99444677  0.74567136  0.49991353
   0.99926294  0.50104457  0.75095269
   0.74141704  0.75285412  0.75291784
   0.75227270  0.50334753  0.50132074
   0.50222079  0.75643475  0.49925925
   0.50027877  0.50010674  0.75515679
   0.51572318  0.02173076  0.96469730
   0.00603678  0.52918291  0.97403637
   0.49596268  0.73723889  0.26051492
   0.23511742  0.00478807  0.74755982
   0.48107241  0.98459571  0.50137834
   0.72092847  0.97478521  0.77180495
   0.00271533  0.75164899  0.24742394
   0.74643802  0.50211278  0.24700930
   0.00792395  0.00401955  0.50143480
   0.50073625  0.50908883  0.49869463
   0.74444492  0.50969487  0.75418696
   0.75106888  0.74995909  0.50310828
HECN                                    
           1
     8.778285    0.003271   -0.010454
     0.009052    8.817920   -0.012820
     0.021076   -0.028222    8.791515
   V    Nb   Zr   N    C    Cr   Ta
   7   6   7  13  19   6   6
Direct configuration=    10
   0.00940028  0.97911683  0.00011463
   0.25157552  0.98498573  0.26229402
   0.27277386  0.51888808  0.23976864
   0.49481638  0.47918660  0.99690678
   0.48103929  0.23733234  0.75667320
   0.99837511  0.49231823  0.51890787
   0.50407865  0.76725968  0.73676981
   0.00245681  0.24454701  0.25548476
   0.73947094  0.74950382 -0.00062751
   0.01145123  0.24537296  0.74457583
   0.75449319  0.25730583  0.50697790
   0.00027565  0.75716985  0.75300304
   0.25337525  0.50204808  0.75652468
   0.24332129  0.24249747  0.00170095
   0.49544703  0.24773287  0.24644072
   0.74077264  0.99519698  0.24936631
   0.75644261  0.24858244  0.99174752
   0.26817908  0.75937416 -0.00031394
   0.25458652  0.25187812  0.49867378
   0.24850796  0.74881826  0.50123293
   0.24644982  0.24996409  0.24952969
   0.25367126  0.00053578  0.99916873
  -0.00002943  0.24044775  0.00169889
   0.75135404  0.25249861  0.25156348
   0.74849397  0.99553515 -0.01001763
   0.48624153  0.98989795  0.25476001
   0.99828031  0.50125900  0.25201210
   0.51016278  0.75730825 -0.00254989
   0.99584308  0.00253485  0.75561294
   0.74776979  0.25235963  0.74428183
   0.75240957 -0.00055610  0.51358526
   0.50746766  0.24979592  0.50705544
   0.50684339  0.00498525  0.74484317
   0.00535529 -0.00343215  0.24548731
   0.49946701  0.24957604 -0.01137813
   0.25751932  0.74819065  0.25009999
   0.24540663  0.50314497  0.00776610
   0.00250568  0.75123386  0.00077572
   0.74571675  0.74506788  0.25323979
   0.75229319  0.50302163  0.00050240
   0.49980378  0.50672886  0.24267908
   0.25896806  0.24372375  0.75074267
   0.25577534  0.99876960  0.50652753
  -0.00002664  0.25228875  0.50087166
   0.25700730  0.76105564  0.75059630
   0.24592409  0.50029301  0.49404241
   0.99402038  0.74681932  0.50007678
   0.99882824  0.50105171  0.75235426
   0.74284366  0.75369354  0.75124105
   0.75273497  0.50214303  0.50166696
   0.50193241  0.75576147  0.49855056
   0.50010385  0.49984963  0.75375457
   0.51472046  0.02363626  0.96552105
   0.00708522  0.53319246  0.97352959
   0.49560237  0.73718472  0.26568132
   0.23260893  0.00116514  0.74542172
   0.48064883  0.98473618  0.50076856
   0.71978837  0.97195462  0.77061944
   0.00167151  0.74929899  0.24882814
   0.74417195  0.50316306  0.24730131
   0.00660366  0.00478666  0.49919848
   0.49947748  0.50770124  0.49951137
   0.74373287  0.50876185  0.75342692
   0.75191237  0.74975593  0.50282930
HECN                                    
           1
     8.778114    0.003288   -0.010497
     0.009069    8.817640   -0.012856
     0.021031   -0.028257    8.791147
   V    Nb   Zr   N    C    Cr   Ta
   7   6   7  13  19   6   6
Direct configuration=    11
   0.00945039  0.97908834  0.00011425
   0.25157183  0.98495753  0.26233868
   0.27282222  0.51891077  0.23975687
   0.49481065  0.47915535  0.99689841
   0.48099937  0.23733953  0.75664994
   0.99837053  0.49232302  0.51894430
   0.50409707  0.76726232  0.73673259
   0.00243427  0.24455734  0.25549180
   0.73946053  0.74948829 -0.00063660
   0.01145392  0.24535183  0.74457330
   0.75450652  0.25732375  0.50697170
   0.00027276  0.75719150  0.75298119
   0.25338970  0.50207348  0.75652251
   0.24330083  0.24249922  0.00171816
   0.49545057  0.24771699  0.24645567
   0.74077644  0.99518075  0.24935862
   0.75645080  0.24859724  0.99173334
   0.26818980  0.75938013 -0.00031195
   0.25459416  0.25189017  0.49866702
   0.24850592  0.74880947  0.50123778
   0.24644452  0.24996098  0.24953467
   0.25365294  0.00053563  0.99918566
  -0.00003817  0.24042528  0.00169929
   0.75134916  0.25249670  0.25155455
   0.74848614  0.99553253 -0.01002454
   0.48625147  0.98989363  0.25478744
   0.99827127  0.50127581  0.25201960
   0.51017060  0.75731233 -0.00256934
   0.99587406  0.00253207  0.75561191
   0.74778485  0.25236711  0.74426933
   0.75244019 -0.00054579  0.51356327
   0.50746555  0.24983389  0.50704419
   0.50682881  0.00500029  0.74482706
   0.00533936 -0.00342270  0.24550598
   0.49945578  0.24956320 -0.01136152
   0.25751561  0.74819770  0.25011083
   0.24539545  0.50315715  0.00776348
   0.00251560  0.75124230  0.00077975
   0.74570728  0.74507635  0.25323137
   0.75230236  0.50302621  0.00049619
   0.49983571  0.50670835  0.24268686
   0.25895390  0.24372554  0.75074597
   0.25577068  0.99876118  0.50654067
  -0.00002826  0.25226561  0.50087874
   0.25701789  0.76107011  0.75059361
   0.24594757  0.50029581  0.49405827
   0.99401567  0.74683201  0.50007859
   0.99882345  0.50105179  0.75236977
   0.74285940  0.75370281  0.75122250
   0.75274008  0.50212971  0.50167079
   0.50192923  0.75575403  0.49854271
   0.50010191  0.49984678  0.75373905
   0.51470938  0.02365733  0.96553016
   0.00709679  0.53323678  0.97352401
   0.49559841  0.73718414  0.26573848
   0.23258122  0.00112508  0.74539804
   0.48064415  0.98473773  0.50076181
   0.71977578  0.97192333  0.77060631
   0.00166000  0.74927302  0.24884366
   0.74414692  0.50317468  0.24730453
   0.00658906  0.00479513  0.49917373
   0.49946359  0.50768591  0.49952040
   0.74372501  0.50875153  0.75341850
   0.75192168  0.74975368  0.50282621
HECN                                    
           1
     8.809874    0.003023   -0.014938
     0.008833    8.831638   -0.015622
     0.016682   -0.031030    8.808673
   V    Nb   Zr   N    C    Cr   Ta
   7   6   7  13  19   6   6
Direct configuration=    12
   0.01234519  0.97859011  0.00066229
   0.25149231  0.98414151  0.26514120
   0.27404893  0.51843624  0.24033394