<?xml version="1.0" encoding="ISO-8859-1"?>
<modeling>
 <generator>
  <i name="program" type="string">vasp </i>
  <i name="version" type="string">6.4.3  </i>
  <i name="subversion" type="string">19Mar24 (build Sep 18 2024 11:30:23) complex                          parallel </i>
  <i name="platform" type="string">LinuxIFC </i>
  <i name="date" type="string">2026 07 08 </i>
  <i name="time" type="string">00:03:28 </i>
 </generator>
 <incar>
  <i type="string" name="SYSTEM">HECN</i>
  <i type="int" name="ISTART">     0</i>
  <i type="string" name="PREC">Normal</i>
  <i type="string" name="ALGO">Fast</i>
  <i type="int" name="ICHARG">     2</i>
  <i type="int" name="NELM">    60</i>
  <i type="int" name="IBRION">     2</i>
  <i name="EDIFF">      0.00001000</i>
  <i name="EDIFFG">     -0.01000000</i>
  <i type="int" name="NSW">   100</i>
  <i type="int" name="ISIF">     3</i>
  <i name="ENCUT">    400.00000000</i>
  <i name="POTIM">      0.50000000</i>
  <i type="logical" name="LREAL"> F  </i>
  <i type="int" name="ISMEAR">     0</i>
  <i name="SIGMA">      0.10000000</i>
  <i type="logical" name="LWAVE"> F  </i>
  <i type="logical" name="LCHARG"> F  </i>
 </incar>
 <primitive_cell>
  <structure name="primitive_cell" >
   <crystal>
    <varray name="basis" >
     <v>      11.23999977       0.00000000       0.00000000 </v>
     <v>       0.00000000      11.23999977       0.00000000 </v>
     <v>       0.00000000       0.00000000      11.23999977 </v>
    </varray>
    <i name="volume">   1420.03453724 </i>
    <varray name="rec_basis" >
     <v>       0.08896797       0.00000000       0.00000000 </v>
     <v>       0.00000000       0.08896797       0.00000000 </v>
     <v>       0.00000000       0.00000000       0.08896797 </v>
    </varray>
   </crystal>
   <varray name="positions" >
    <v>       0.00000000       0.00000000       0.00000000 </v>
    <v>       0.25000000       0.00000000       0.25000000 </v>
    <v>       0.25000000       0.50000000       0.25000000 </v>
    <v>       0.50000000       0.50000000       0.00000000 </v>
    <v>       0.50000000       0.25000000       0.75000004 </v>
    <v>       0.00000000       0.50000000       0.50000000 </v>
    <v>       0.50000000       0.75000004       0.75000004 </v>
    <v>       0.00000000       0.25000000       0.25000000 </v>
    <v>       0.75000004       0.75000004       0.00000000 </v>
    <v>       0.00000000       0.25000000       0.75000004 </v>
    <v>       0.75000004       0.25000000       0.50000000 </v>
    <v>       0.00000000       0.75000004       0.75000004 </v>
    <v>       0.25000000       0.50000000       0.75000004 </v>
    <v>       0.25000000       0.25000000       0.00000000 </v>
    <v>       0.50000000       0.25000000       0.25000000 </v>
    <v>       0.75000004       0.00000000       0.25000000 </v>
    <v>       0.75000004       0.25000000       0.00000000 </v>
    <v>       0.25000000       0.75000004       0.00000000 </v>
    <v>       0.25000000       0.25000000       0.50000000 </v>
    <v>       0.25000000       0.25000000       0.25000000 </v>
    <v>       0.25000000       0.00000000       0.00000000 </v>
    <v>       0.00000000       0.25000000       0.00000000 </v>
    <v>       0.75000004       0.25000000       0.25000000 </v>
    <v>       0.75000004       0.00000000       0.00000000 </v>
    <v>       0.50000000       0.00000000       0.25000000 </v>
    <v>       0.00000000       0.50000000       0.25000000 </v>
    <v>       0.50000000       0.75000004       0.00000000 </v>
    <v>       0.00000000       0.00000000       0.75000004 </v>
    <v>       0.75000004       0.25000000       0.75000004 </v>
    <v>       0.75000004       0.00000000       0.50000000 </v>
    <v>       0.50000000       0.25000000       0.50000000 </v>
    <v>       0.50000000       0.00000000       0.75000004 </v>
    <v>       0.00000000       0.00000000       0.25000000 </v>
    <v>       0.50000000       0.25000000       0.00000000 </v>
    <v>       0.25000000       0.75000004       0.25000000 </v>
    <v>       0.25000000       0.50000000       0.00000000 </v>
    <v>       0.00000000       0.75000004       0.00000000 </v>
    <v>       0.75000004       0.75000004       0.25000000 </v>
    <v>       0.75000004       0.50000000       0.00000000 </v>
    <v>       0.50000000       0.50000000       0.25000000 </v>
    <v>       0.25000000       0.25000000       0.75000004 </v>
    <v>       0.25000000       0.00000000       0.50000000 </v>
    <v>       0.00000000       0.25000000       0.50000000 </v>
    <v>       0.25000000       0.75000004       0.75000004 </v>
    <v>       0.25000000       0.50000000       0.50000000 </v>
    <v>       0.00000000       0.75000004       0.50000000 </v>
    <v>       0.00000000       0.50000000       0.75000004 </v>
    <v>       0.75000004       0.75000004       0.75000004 </v>
    <v>       0.75000004       0.50000000       0.50000000 </v>
    <v>       0.50000000       0.75000004       0.50000000 </v>
    <v>       0.50000000       0.50000000       0.75000004 </v>
    <v>       0.50000000       0.00000000       0.00000000 </v>
    <v>       0.00000000       0.50000000       0.00000000 </v>
    <v>       0.50000000       0.75000004       0.25000000 </v>
    <v>       0.25000000       0.00000000       0.75000004 </v>
    <v>       0.50000000       0.00000000       0.50000000 </v>
    <v>       0.75000004       0.00000000       0.75000004 </v>
    <v>       0.25000000       0.75000004       0.50000000 </v>
    <v>       0.00000000       0.75000004       0.25000000 </v>
    <v>       0.75000004       0.50000000       0.25000000 </v>
    <v>       0.00000000       0.00000000       0.50000000 </v>
    <v>       0.50000000       0.50000000       0.50000000 </v>
    <v>       0.75000004       0.50000000       0.75000004 </v>
    <v>       0.75000004       0.75000004       0.50000000 </v>
   </varray>
  </structure>
  <varray name="primitive_index" >
   <v type="int" >        1 </v>
   <v type="int" >        2 </v>
   <v type="int" >        3 </v>
   <v type="int" >        4 </v>
   <v type="int" >        5 </v>
   <v type="int" >        6 </v>
   <v type="int" >        7 </v>
   <v type="int" >        8 </v>
   <v type="int" >        9 </v>
   <v type="int" >       10 </v>
   <v type="int" >       11 </v>
   <v type="int" >       12 </v>
   <v type="int" >       13 </v>
   <v type="int" >       14 </v>
   <v type="int" >       15 </v>
   <v type="int" >       16 </v>
   <v type="int" >       17 </v>
   <v type="int" >       18 </v>
   <v type="int" >       19 </v>
   <v type="int" >       20 </v>
   <v type="int" >       21 </v>
   <v type="int" >       22 </v>
   <v type="int" >       23 </v>
   <v type="int" >       24 </v>
   <v type="int" >       25 </v>
   <v type="int" >       26 </v>
   <v type="int" >       27 </v>
   <v type="int" >       28 </v>
   <v type="int" >       29 </v>
   <v type="int" >       30 </v>
   <v type="int" >       31 </v>
   <v type="int" >       32 </v>
   <v type="int" >       33 </v>
   <v type="int" >       34 </v>
   <v type="int" >       35 </v>
   <v type="int" >       36 </v>
   <v type="int" >       37 </v>
   <v type="int" >       38 </v>
   <v type="int" >       39 </v>
   <v type="int" >       40 </v>
   <v type="int" >       41 </v>
   <v type="int" >       42 </v>
   <v type="int" >       43 </v>
   <v type="int" >       44 </v>
   <v type="int" >       45 </v>
   <v type="int" >       46 </v>
   <v type="int" >       47 </v>
   <v type="int" >       48 </v>
   <v type="int" >       49 </v>
   <v type="int" >       50 </v>
   <v type="int" >       51 </v>
   <v type="int" >       52 </v>
   <v type="int" >       53 </v>
   <v type="int" >       54 </v>
   <v type="int" >       55 </v>
   <v type="int" >       56 </v>
   <v type="int" >       57 </v>
   <v type="int" >       58 </v>
   <v type="int" >       59 </v>
   <v type="int" >       60 </v>
   <v type="int" >       61 </v>
   <v type="int" >       62 </v>
   <v type="int" >       63 </v>
   <v type="int" >       64 </v>
  </varray>
 </primitive_cell>
 <kpoints>
  <generation param="Gamma">
   <v type="int" name="divisions">       3        3        3 </v>
   <v name="usershift">      0.00000000       0.00000000       0.00000000 </v>
   <v name="genvec1">      0.33333333       0.00000000       0.00000000 </v>
   <v name="genvec2">      0.00000000       0.33333333       0.00000000 </v>
   <v name="genvec3">      0.00000000       0.00000000       0.33333333 </v>
   <v name="shift">      0.00000000       0.00000000       0.00000000 </v>
  </generation>
  <varray name="kpointlist" >
   <v>       0.00000000       0.00000000       0.00000000 </v>
   <v>       0.33333333       0.00000000       0.00000000 </v>
   <v>       0.00000000       0.33333333       0.00000000 </v>
   <v>       0.00000000       0.00000000       0.33333333 </v>
   <v>       0.33333333       0.33333333       0.00000000 </v>
   <v>       0.00000000       0.33333333       0.33333333 </v>
   <v>       0.33333333       0.00000000       0.33333333 </v>
   <v>      -0.33333333       0.33333333       0.00000000 </v>
   <v>      -0.33333333       0.00000000       0.33333333 </v>
   <v>       0.00000000      -0.33333333       0.33333333 </v>
   <v>       0.33333333       0.33333333       0.33333333 </v>
   <v>      -0.33333333       0.33333333       0.33333333 </v>
   <v>      -0.33333333      -0.33333333       0.33333333 </v>
   <v>       0.33333333      -0.33333333       0.33333333 </v>
  </varray>
  <varray name="weights" >
   <v>       0.03703704 </v>
   <v>       0.07407407 </v>
   <v>       0.07407407 </v>
   <v>       0.07407407 </v>
   <v>       0.07407407 </v>
   <v>       0.07407407 </v>
   <v>       0.07407407 </v>
   <v>       0.07407407 </v>
   <v>       0.07407407 </v>
   <v>       0.07407407 </v>
   <v>       0.07407407 </v>
   <v>       0.07407407 </v>
   <v>       0.07407407 </v>
   <v>       0.07407407 </v>
  </varray>
 </kpoints>
 <parameters>
  <separator name="general" >
   <i type="string" name="SYSTEM">HECN</i>
   <i type="logical" name="LCOMPAT"> F  </i>
  </separator>
  <separator name="electronic" >
   <i type="string" name="PREC">normal</i>
   <i name="ENMAX">    400.00000000</i>
   <i name="ENAUG">    644.87300000</i>
   <i name="EDIFF">      0.00001000</i>
   <i type="int" name="IALGO">    68</i>
   <i type="int" name="IWAVPR">    11</i>
   <i type="int" name="NBANDS">   280</i>
   <i type="int" name="NBANDSLOW">    -1</i>
   <i type="int" name="NBANDSHIGH">    -1</i>
   <i name="NELECT">    437.00000000</i>
   <i type="int" name="TURBO">     0</i>
   <i type="int" name="IRESTART">     0</i>
   <i type="int" name="NREBOOT">     0</i>
   <i type="int" name="NMIN">     0</i>
   <i name="EREF">      0.00000000</i>
   <separator name="electronic smearing" >
    <i type="int" name="ISMEAR">     0</i>
    <i name="SIGMA">      0.10000000</i>
    <i name="KSPACING">      0.50000000</i>
    <i type="logical" name="KGAMMA"> T  </i>
    <i type="logical" name="KBLOWUP"> T  </i>
   </separator>
   <separator name="electronic projectors" >
    <i type="logical" name="LREAL"> F  </i>
    <v name="ROPT">      0.00000000      0.00000000      0.00000000      0.00000000      0.00000000      0.00000000      0.00000000</v>
    <i type="int" name="LMAXPAW">  -100</i>
    <i type="int" name="LMAXMIX">     2</i>
    <i type="logical" name="NLSPLINE"> F  </i>
   </separator>
   <separator name="electronic startup" >
    <i type="int" name="ISTART">     0</i>
    <i type="int" name="ICHARG">     2</i>
    <i type="int" name="INIWAV">     1</i>
   </separator>
   <separator name="electronic spin" >
    <i type="int" name="ISPIN">     1</i>
    <i type="logical" name="LNONCOLLINEAR"> F  </i>
    <v name="MAGMOM">      1.00000000      1.00000000      1.00000000      1.00000000      1.00000000      1.00000000      1.00000000      1.00000000      1.00000000      1.00000000      1.00000000      1.00000000      1.00000000      1.00000000      1.00000000      1.00000000      1.00000000      1.00000000      1.00000000      1.00000000
      1.00000000      1.00000000      1.00000000      1.00000000      1.00000000      1.00000000      1.00000000      1.00000000      1.00000000      1.00000000      1.00000000      1.00000000      1.00000000      1.00000000      1.00000000      1.00000000      1.00000000      1.00000000      1.00000000      1.00000000
      1.00000000      1.00000000      1.00000000      1.00000000      1.00000000      1.00000000      1.00000000      1.00000000      1.00000000      1.00000000      1.00000000      1.00000000      1.00000000      1.00000000      1.00000000      1.00000000      1.00000000      1.00000000      1.00000000      1.00000000
      1.00000000      1.00000000      1.00000000      1.00000000</v>
    <i name="NUPDOWN">     -1.00000000</i>
    <i type="logical" name="LSORBIT"> F  </i>
    <v name="SAXIS">      0.00000000      0.00000000      1.00000000</v>
    <i type="logical" name="LSPIRAL"> F  </i>
    <v name="QSPIRAL">      0.00000000      0.00000000      0.00000000</v>
    <i type="logical" name="LZEROZ"> F  </i>
   </separator>
   <separator name="electronic exchange-correlation" >
    <i type="logical" name="LASPH"> F  </i>
   </separator>
   <separator name="electronic convergence" >
    <i type="int" name="NELM">    60</i>
    <i type="int" name="NELMDL">    -5</i>
    <i type="int" name="NELMIN">     2</i>
    <i name="ENINI">    400.00000000</i>
    <separator name="electronic convergence detail" >
     <i type="logical" name="LDIAG"> T  </i>
     <i type="logical" name="LSUBROT"> F  </i>
     <i name="WEIMIN">      0.00100000</i>
     <i name="EBREAK">      0.00000001</i>
     <i name="DEPER">      0.30000000</i>
     <i type="int" name="NRMM">     4</i>
     <i name="TIME">      0.40000000</i>
    </separator>
   </separator>
   <separator name="electronic mixer" >
    <i name="AMIX">      0.40000000</i>
    <i name="BMIX">      1.00000000</i>
    <i name="AMIN">      0.10000000</i>
    <i name="AMIX_MAG">      1.60000000</i>
    <i name="BMIX_MAG">      1.00000000</i>
    <separator name="electronic mixer details" >
     <i type="int" name="IMIX">     4</i>
     <i type="logical" name="MIXFIRST"> F  </i>
     <i type="int" name="MAXMIX">   -45</i>
     <i name="WC">    100.00000000</i>
     <i type="int" name="INIMIX">     1</i>
     <i type="int" name="MIXPRE">     1</i>
     <i type="int" name="MREMOVE">     5</i>
    </separator>
   </separator>
   <separator name="electronic dipolcorrection" >
    <i type="logical" name="LDIPOL"> F  </i>
    <i type="logical" name="LMONO"> F  </i>
    <i type="int" name="IDIPOL">     0</i>
    <i name="EPSILON">      1.00000000</i>
    <v name="DIPOL">   -100.00000000   -100.00000000   -100.00000000</v>
    <i name="EFIELD">      0.00000000</i>
    <i type="logical" name="LVACPOTAV"> F  </i>
   </separator>
  </separator>
  <separator name="grids" >
   <i type="int" name="NGX">    56</i>
   <i type="int" name="NGY">    56</i>
   <i type="int" name="NGZ">    56</i>
   <i type="int" name="NGXF">   112</i>
   <i type="int" name="NGYF">   112</i>
   <i type="int" name="NGZF">   112</i>
   <i type="logical" name="ADDGRID"> F  </i>
  </separator>
  <separator name="ionic" >
   <i type="int" name="NSW">   100</i>
   <i type="int" name="IBRION">     2</i>
   <i type="int" name="MDALGO">     0</i>
   <i type="int" name="ISIF">     3</i>
   <i name="PSTRESS">      0.00000000</i>
   <i name="EDIFFG">     -0.01000000</i>
   <i type="int" name="NFREE">     1</i>
   <i name="POTIM">      0.50000000</i>
   <i name="SMASS">     -3.00000000</i>
   <i name="SCALEE">      1.00000000</i>
  </separator>
  <separator name="ionic md" >
   <i name="TEBEG">      0.00010000</i>
   <i name="TEEND">      0.00010000</i>
   <i type="int" name="NBLOCK">     1</i>
   <i type="int" name="KBLOCK">   100</i>
   <i type="int" name="NPACO">   256</i>
   <i name="APACO">     10.00000000</i>
  </separator>
  <separator name="symmetry" >
   <i type="int" name="ISYM">     2</i>
   <i name="SYMPREC">      0.00001000</i>
  </separator>
  <separator name="dos" >
   <i type="int" name="LORBIT">     0</i>
   <v name="RWIGS">     -1.00000000     -1.00000000     -1.00000000     -1.00000000     -1.00000000     -1.00000000     -1.00000000</v>
   <i type="int" name="NEDOS">   301</i>
   <i name="EMIN">     10.00000000</i>
   <i name="EMAX">    -10.00000000</i>
   <i name="EFERMI">      0.00000000</i>
  </separator>
  <separator name="writing" >
   <i type="int" name="NWRITE">     2</i>
   <i type="logical" name="LWAVE"> F  </i>
   <i type="logical" name="LDOWNSAMPLE"> F  </i>
   <i type="logical" name="LCHARG"> F  </i>
   <i type="logical" name="LPARD"> F  </i>
   <i type="logical" name="LVTOT"> F  </i>
   <i type="logical" name="LVHAR"> F  </i>
   <i type="logical" name="LELF"> F  </i>
   <i type="logical" name="LOPTICS"> F  </i>
   <v name="STM">      0.00000000      0.00000000      0.00000000      0.00000000      0.00000000      0.00000000      0.00000000</v>
  </separator>
  <separator name="performance" >
   <i type="int" name="NPAR">    28</i>
   <i type="int" name="NSIM">     4</i>
   <i type="int" name="NBLK">    -1</i>
   <i type="logical" name="LPLANE"> T  </i>
   <i type="logical" name="LSCALAPACK"> T  </i>
   <i type="logical" name="LSCAAWARE"> F  </i>
   <i type="logical" name="LSCALU"> F  </i>
   <i type="logical" name="LASYNC"> F  </i>
   <i type="logical" name="LORBITALREAL"> F  </i>
  </separator>
  <separator name="miscellaneous" >
   <i type="int" name="IDIOT">     3</i>
   <i type="int" name="PHON_NSTRUCT">    -1</i>
   <i type="logical" name="LMUSIC"> F  </i>
   <v name="POMASS">     47.88000000     92.00000000    178.49000000     14.00100000     12.01100000     91.22400000     95.94000000</v>
   <v name="DARWINR">      0.00000000      0.00000000      0.00000000      0.00000000      0.00000000      0.00000000      0.00000000</v>
   <v name="DARWINV">      1.00000000      1.00000000      1.00000000      1.00000000      1.00000000      1.00000000      1.00000000</v>
   <i type="logical" name="LCORR"> T  </i>
  </separator>
  <i type="logical" name="GGA_COMPAT"> T  </i>
  <i type="logical" name="LBERRY"> F  </i>
  <i type="int" name="ICORELEVEL">     0</i>
  <i type="logical" name="LDAU"> F  </i>
  <i type="int" name="I_CONSTRAINED_M">     0</i>
  <separator name="electronic exchange-correlation" >
   <i type="string" name="GGA    ">PE</i>
   <i type="string" name="XC_C">1</i>
   <i type="int" name="VOSKOWN">     0</i>
   <i type="logical" name="LHFCALC"> F  </i>
   <i type="string" name="PRECFOCK"></i>
   <i type="logical" name="LSYMGRAD"> F  </i>
   <i type="logical" name="LHFONE"> F  </i>
   <i type="logical" name="LRHFCALC"> F  </i>
   <i type="logical" name="LTHOMAS"> F  </i>
   <i type="logical" name="LMODELHF"> F  </i>
   <i type="logical" name="LFOCKACE"> F  </i>
   <i name="ENCUT4O">     -1.00000000</i>
   <i type="int" name="EXXOEP">     0</i>
   <i type="int" name="FOURORBIT">     0</i>
   <i name="AEXX">      0.00000000</i>
   <i name="HFALPHA">      0.00000000</i>
   <i name="MCALPHA">      0.00000000</i>
   <i name="ALDAX">      1.00000000</i>
   <i name="AGGAX">      1.00000000</i>
   <i name="AMGGAX">      1.00000000</i>
   <i name="ALDAC">      1.00000000</i>
   <i name="AGGAC">      1.00000000</i>
   <i name="AMGGAC">      1.00000000</i>
   <i type="int" name="NKREDX">     1</i>
   <i type="int" name="NKREDY">     1</i>
   <i type="int" name="NKREDZ">     1</i>
   <i type="logical" name="SHIFTRED"> F  </i>
   <i type="logical" name="ODDONLY"> F  </i>
   <i type="logical" name="EVENONLY"> F  </i>
   <i type="int" name="LMAXFOCK">     0</i>
   <i type="int" name="NMAXFOCKAE">     0</i>
   <i type="logical" name="LFOCKAEDFT"> F  </i>
   <i name="HFSCREEN">      0.00000000</i>
   <i name="HFSCREENC">      0.00000000</i>
   <i type="int" name="NBANDSGWLOW">     0</i>
  </separator>
  <separator name="vdW DFT" >
   <i type="logical" name="LUSE_VDW"> F  </i>
   <i type="int" name="IVDW_NL">    -1</i>
   <i type="logical" name="LSPIN_VDW"> F  </i>
   <i name="ZAB_VDW">     -0.84910000</i>
   <i name="GAMMA_VDW">      1.39626340</i>
   <i name="ALPHA_VDW">      0.00000000</i>
   <i name="PARAM1">      0.12340000</i>
   <i name="PARAM2">      1.00000000</i>
   <i name="BPARAM">      6.30000000</i>
   <i name="CPARAM">      0.00930000</i>
  </separator>
  <separator name="model GW" >
   <i type="int" name="MODEL_GW">     0</i>
   <i name="MODEL_EPS0">     13.31282379</i>
   <i name="MODEL_ALPHA">      1.00000000</i>
  </separator>
  <separator name="linear response parameters" >
   <i type="logical" name="LEPSILON"> F  </i>
   <i type="logical" name="LRPA"> F  </i>
   <i type="logical" name="LNABLA"> F  </i>
   <i type="logical" name="LVEL"> F  </i>
   <i name="CSHIFT">      0.10000000</i>
   <i name="OMEGAMAX">     -1.00000000</i>
   <i name="DEG_THRESHOLD">      0.00200000</i>
   <i name="RTIME">     -0.10000000</i>
   <i name="WPLASMAI">      0.00000000</i>
   <v name="DFIELD">      0.00000000      0.00000000      0.00000000</v>
   <v name="WPLASMA">      0.00000000      0.00000000      0.00000000      0.00000000      0.00000000      0.00000000      0.00000000      0.00000000      0.00000000</v>
  </separator>
  <separator name="orbital magnetization" >
   <i type="logical" name="NUCIND"> F  </i>
   <v name="MAGPOS">      0.00000000      0.00000000      0.00000000</v>
   <i type="logical" name="LNICSALL"> T  </i>
   <i type="logical" name="ORBITALMAG"> F  </i>
   <i type="logical" name="LMAGBLOCH"> F  </i>
   <i type="logical" name="LCHIMAG"> F  </i>
   <i type="logical" name="LGAUGE"> T  </i>
   <i type="int" name="MAGATOM">     0</i>
   <v name="MAGDIPOL">      0.00000000      0.00000000      0.00000000</v>
   <v name="AVECCONST">      0.00000000      0.00000000      0.00000000</v>
  </separator>
  <separator name="response functions" >
   <i type="logical" name="LALL_IN_ONE"> F  </i>
   <i type="int" name="IALL_IN_ONE">    -1</i>
   <i type="int" name="NBANDS_WAVE">    -1</i>
   <i type="logical" name="LFINITE_TEMPERATURE"> F  </i>
   <i type="logical" name="LADDER"> F  </i>
   <i type="logical" name="LRPAFORCE"> F  </i>
   <i type="logical" name="LFXC"> F  </i>
   <i type="logical" name="LHARTREE"> T  </i>
   <i type="int" name="IBSE">     0</i>
   <v type="int" name="KPOINT">    -1     0     0     0</v>
   <i type="logical" name="LTCTC"> F  </i>
   <i type="logical" name="LTCTE"> F  </i>
   <i type="logical" name="LTETE"> F  </i>
   <i type="logical" name="LTRIPLET"> F  </i>
   <i type="logical" name="LFXCEPS"> F  </i>
   <i type="logical" name="LFXHEG"> F  </i>
   <i type="int" name="NATURALO">     2</i>
   <i type="logical" name="LHOLEGF"> F  </i>
   <i type="logical" name="L2ORDER"> F  </i>
   <i type="logical" name="LDMP1"> F  </i>
   <i type="logical" name="LMP2LT"> F  </i>
   <i type="logical" name="LSMP2LT"> F  </i>
   <i type="logical" name="LGWLF"> F  </i>
   <i name="ENCUTGW">     -1.60000002</i>
   <i name="ENCUTGWSOFT">     -1.60000002</i>
   <i name="ENCUTLF">     -1.00000000</i>
   <i type="logical" name="ESF_SPLINES"> F  </i>
   <i name="ESF_CONV">      0.01000000</i>
   <i type="int" name="ESF_NINTER">    15</i>
   <i type="int" name="LMAXMP2">    -1</i>
   <i name="SCISSOR">      0.00000000</i>
   <i type="int" name="NOMEGA">     0</i>
   <i type="int" name="NOMEGAR">     0</i>
   <i type="int" name="NBANDSGW">    -1</i>
   <i type="int" name="NBANDSO">    -1</i>
   <i type="int" name="NBANDSV">    -1</i>
   <i type="int" name="NELMGW">     1</i>
   <i type="int" name="NELMHF">     1</i>
   <i type="int" name="DIM">     3</i>
   <i type="int" name="IESPILON">     4</i>
   <i type="int" name="ANTIRES">     0</i>
   <i name="OMEGAMAX">    -30.00000000</i>
   <i name="OMEGAMIN">    -30.00000000</i>
   <i name="OMEGATL">   -200.00000000</i>
   <i type="int" name="OMEGAGRID">     0</i>
   <i name="CSHIFT">     -0.10000000</i>
   <i type="logical" name="LSELFENERGY"> F  </i>
   <i type="logical" name="LSPECTRAL"> F  </i>
   <i type="logical" name="LSPECTRALGW"> F  </i>
   <i type="logical" name="LSINGLES"> F  </i>
   <i type="logical" name="LFERMIGW"> F  </i>
   <i type="logical" name="ODDONLYGW"> F  </i>
   <i type="logical" name="EVENONLYGW"> F  </i>
   <i type="int" name="NKREDLFX">     1</i>
   <i type="int" name="NKREDLFY">     1</i>
   <i type="int" name="NKREDLFZ">     1</i>
   <i type="int" name="MAXMEM">  2800</i>
   <i type="int" name="TELESCOPE">     0</i>
   <i type="int" name="NTAUPAR">    -1</i>
   <i type="int" name="NOMEGAPAR">    -1</i>
   <i name="DAMP_NEWTON">      0.80000001</i>
   <i name="LAMBDA">      1.00000000</i>
  </separator>
  <separator name="External order field" >
   <i name="OFIELD_KAPPA">      0.00000000</i>
   <v name="OFIELD_K">      0.00000000      0.00000000      0.00000000</v>
   <i name="OFIELD_Q6_NEAR">      0.00000000</i>
   <i name="OFIELD_Q6_FAR">      0.00000000</i>
   <i name="OFIELD_A">      0.00000000</i>
  </separator>
  <separator name="optional k-points parameters" >
   <i type="int" name="KPOINTS_OPT_MODE">     1</i>
   <i type="logical" name="LKPOINTS_OPT"> F  </i>
  </separator>
  <separator name="solvation model" >
   <i type="logical" name="LSOL"> F  </i>
  </separator>
 </parameters>
 <atominfo>
  <atoms>      64 </atoms>
  <types>       7 </types>
  <array name="atoms" >
   <dimension dim="1">ion</dimension>
   <field type="string">element</field>
   <field type="int">atomtype</field>
   <set>
    <rc><c>Ti</c><c>   1</c></rc>
    <rc><c>Ti</c><c>   1</c></rc>
    <rc><c>Ti</c><c>   1</c></rc>
    <rc><c>Ti</c><c>   1</c></rc>
    <rc><c>Ti</c><c>   1</c></rc>
    <rc><c>Ti</c><c>   1</c></rc>
    <rc><c>Ti</c><c>   1</c></rc>
    <rc><c>Nb</c><c>   2</c></rc>
    <rc><c>Nb</c><c>   2</c></rc>
    <rc><c>Nb</c><c>   2</c></rc>
    <rc><c>Nb</c><c>   2</c></rc>
    <rc><c>Nb</c><c>   2</c></rc>
    <rc><c>Nb</c><c>   2</c></rc>
    <rc><c>Hf</c><c>   3</c></rc>
    <rc><c>Hf</c><c>   3</c></rc>
    <rc><c>Hf</c><c>   3</c></rc>
    <rc><c>Hf</c><c>   3</c></rc>
    <rc><c>Hf</c><c>   3</c></rc>
    <rc><c>Hf</c><c>   3</c></rc>
    <rc><c>N </c><c>   4</c></rc>
    <rc><c>N </c><c>   4</c></rc>
    <rc><c>N </c><c>   4</c></rc>
    <rc><c>N </c><c>   4</c></rc>
    <rc><c>N </c><c>   4</c></rc>
    <rc><c>N </c><c>   4</c></rc>
    <rc><c>N </c><c>   4</c></rc>
    <rc><c>N </c><c>   4</c></rc>
    <rc><c>N </c><c>   4</c></rc>
    <rc><c>N </c><c>   4</c></rc>
    <rc><c>N </c><c>   4</c></rc>
    <rc><c>N </c><c>   4</c></rc>
    <rc><c>N </c><c>   4</c></rc>
    <rc><c>C </c><c>   5</c></rc>
    <rc><c>C </c><c>   5</c></rc>
    <rc><c>C </c><c>   5</c></rc>
    <rc><c>C </c><c>   5</c></rc>
    <rc><c>C </c><c>   5</c></rc>
    <rc><c>C </c><c>   5</c></rc>
    <rc><c>C </c><c>   5</c></rc>
    <rc><c>C </c><c>   5</c></rc>
    <rc><c>C </c><c>   5</c></rc>
    <rc><c>C </c><c>   5</c></rc>
    <rc><c>C </c><c>   5</c></rc>
    <rc><c>C </c><c>   5</c></rc>
    <rc><c>C </c><c>   5</c></rc>
    <rc><c>C </c><c>   5</c></rc>
    <rc><c>C </c><c>   5</c></rc>
    <rc><c>C </c><c>   5</c></rc>
    <rc><c>C </c><c>   5</c></rc>
    <rc><c>C </c><c>   5</c></rc>
    <rc><c>C </c><c>   5</c></rc>
    <rc><c>Zr</c><c>   6</c></rc>
    <rc><c>Zr</c><c>   6</c></rc>
    <rc><c>Zr</c><c>   6</c></rc>
    <rc><c>Zr</c><c>   6</c></rc>
    <rc><c>Zr</c><c>   6</c></rc>
    <rc><c>Zr</c><c>   6</c></rc>
    <rc><c>Zr</c><c>   6</c></rc>
    <rc><c>Mo</c><c>   7</c></rc>
    <rc><c>Mo</c><c>   7</c></rc>
    <rc><c>Mo</c><c>   7</c></rc>
    <rc><c>Mo</c><c>   7</c></rc>
    <rc><c>Mo</c><c>   7</c></rc>
    <rc><c>Mo</c><c>   7</c></rc>
   </set>
  </array>
  <array name="atomtypes" >
   <dimension dim="1">type</dimension>
   <field type="int">atomspertype</field>
   <field type="string">element</field>
   <field>mass</field>
   <field>valence</field>
   <field type="string">pseudopotential</field>
   <set>
    <rc><c>   7</c><c>Ti</c><c>     47.88000000</c><c>     10.00000000</c><c> PAW_PBE Ti_pv 07Sep2000                </c></rc>
    <rc><c>   6</c><c>Nb</c><c>     92.00000000</c><c>     11.00000000</c><c> PAW_PBE Nb_pv 08Apr2002                </c></rc>
    <rc><c>   6</c><c>Hf</c><c>    178.49000000</c><c>     10.00000000</c><c> PAW_PBE Hf_pv 06Sep2000                </c></rc>
    <rc><c>  13</c><c>N </c><c>     14.00100000</c><c>      5.00000000</c><c> PAW_PBE N 08Apr2002                    </c></rc>
    <rc><c>  19</c><c>C </c><c>     12.01100000</c><c>      4.00000000</c><c> PAW_PBE C 08Apr2002                    </c></rc>
    <rc><c>   7</c><c>Zr</c><c>     91.22400000</c><c>      4.00000000</c><c> PAW_PBE Zr 08Apr2002                   </c></rc>
    <rc><c>   6</c><c>Mo</c><c>     95.94000000</c><c>     12.00000000</c><c> PAW_PBE Mo_pv 08Apr2002                </c></rc>
   </set>
  </array>
 </atominfo>
 <structure name="initialpos" >
  <crystal>
   <varray name="basis" >
    <v>      11.23999977       0.00000000       0.00000000 </v>
    <v>       0.00000000      11.23999977       0.00000000 </v>
    <v>       0.00000000       0.00000000      11.23999977 </v>
   </varray>
   <i name="volume">   1420.03453724 </i>
   <varray name="rec_basis" >
    <v>       0.08896797       0.00000000       0.00000000 </v>
    <v>       0.00000000       0.08896797       0.00000000 </v>
    <v>       0.00000000       0.00000000       0.08896797 </v>
   </varray>
  </crystal>
  <varray name="positions" >
   <v>       0.00000000       0.00000000       0.00000000 </v>
   <v>       0.25000000       0.00000000       0.25000000 </v>
   <v>       0.25000000       0.50000000       0.25000000 </v>
   <v>       0.50000000       0.50000000       0.00000000 </v>
   <v>       0.50000000       0.25000000       0.75000004 </v>
   <v>       0.00000000       0.50000000       0.50000000 </v>
   <v>       0.50000000       0.75000004       0.75000004 </v>
   <v>       0.00000000       0.25000000       0.25000000 </v>
   <v>       0.75000004       0.75000004       0.00000000 </v>
   <v>       0.00000000       0.25000000       0.75000004 </v>
   <v>       0.75000004       0.25000000       0.50000000 </v>
   <v>       0.00000000       0.75000004       0.75000004 </v>
   <v>       0.25000000       0.50000000       0.75000004 </v>
   <v>       0.25000000       0.25000000       0.00000000 </v>
   <v>       0.50000000       0.25000000       0.25000000 </v>
   <v>       0.75000004       0.00000000       0.25000000 </v>
   <v>       0.75000004       0.25000000       0.00000000 </v>
   <v>       0.25000000       0.75000004       0.00000000 </v>
   <v>       0.25000000       0.25000000       0.50000000 </v>
   <v>       0.25000000       0.25000000       0.25000000 </v>
   <v>       0.25000000       0.00000000       0.00000000 </v>
   <v>       0.00000000       0.25000000       0.00000000 </v>
   <v>       0.75000004       0.25000000       0.25000000 </v>
   <v>       0.75000004       0.00000000       0.00000000 </v>
   <v>       0.50000000       0.00000000       0.25000000 </v>
   <v>       0.00000000       0.50000000       0.25000000 </v>
   <v>       0.50000000       0.75000004       0.00000000 </v>
   <v>       0.00000000       0.00000000       0.75000004 </v>
   <v>       0.75000004       0.25000000       0.75000004 </v>
   <v>       0.75000004       0.00000000       0.50000000 </v>
   <v>       0.50000000       0.25000000       0.50000000 </v>
   <v>       0.50000000       0.00000000       0.75000004 </v>
   <v>       0.00000000       0.00000000       0.25000000 </v>
   <v>       0.50000000       0.25000000       0.00000000 </v>
   <v>       0.25000000       0.75000004       0.25000000 </v>
   <v>       0.25000000       0.50000000       0.00000000 </v>
   <v>       0.00000000       0.75000004       0.00000000 </v>
   <v>       0.75000004       0.75000004       0.25000000 </v>
   <v>       0.75000004       0.50000000       0.00000000 </v>
   <v>       0.50000000       0.50000000       0.25000000 </v>
   <v>       0.25000000       0.25000000       0.75000004 </v>
   <v>       0.25000000       0.00000000       0.50000000 </v>
   <v>       0.00000000       0.25000000       0.50000000 </v>
   <v>       0.25000000       0.75000004       0.75000004 </v>
   <v>       0.25000000       0.50000000       0.50000000 </v>
   <v>       0.00000000       0.75000004       0.50000000 </v>
   <v>       0.00000000       0.50000000       0.75000004 </v>
   <v>       0.75000004       0.75000004       0.75000004 </v>
   <v>       0.75000004       0.50000000       0.50000000 </v>
   <v>       0.50000000       0.75000004       0.50000000 </v>
   <v>       0.50000000       0.50000000       0.75000004 </v>
   <v>       0.50000000       0.00000000       0.00000000 </v>
   <v>       0.00000000       0.50000000       0.00000000 </v>
   <v>       0.50000000       0.75000004       0.25000000 </v>
   <v>       0.25000000       0.00000000       0.75000004 </v>
   <v>       0.50000000       0.00000000       0.50000000 </v>
   <v>       0.75000004       0.00000000       0.75000004 </v>
   <v>       0.25000000       0.75000004       0.50000000 </v>
   <v>       0.00000000       0.75000004       0.25000000 </v>
   <v>       0.75000004       0.50000000       0.25000000 </v>
   <v>       0.00000000       0.00000000       0.50000000 </v>
   <v>       0.50000000       0.50000000       0.50000000 </v>
   <v>       0.75000004       0.50000000       0.75000004 </v>
   <v>       0.75000004       0.75000004       0.50000000 </v>
  </varray>
 </structure>
 <calculation>
  <scstep>
   <time name="dav">   51.77   52.21</time>
   <time name="total">   51.82   52.27</time>
   <energy>
    <i name="alphaZ">   1668.42098788 </i>
    <i name="ewald"> -23815.05943141 </i>
    <i name="hartreedc">  -8218.83647781 </i>
    <i name="XCdc">    502.31873494 </i>
    <i name="pawpsdc">  20952.03581292 </i>
    <i name="pawaedc"> -19975.18679130 </i>
    <i name="eentropy">     -0.13454168 </i>
    <i name="bandstr">   -606.70159186 </i>
    <i name="atom">  33198.94408275 </i>
    <i name="e_fr_energy">   3705.80078443 </i>
    <i name="e_wo_entrp">   3705.93532611 </i>
    <i name="e_0_energy">   3705.86805527 </i>
   </energy>
  </scstep>
  <scstep>
   <time name="dav">   50.71   51.72</time>
   <time name="total">   50.71   51.72</time>
   <energy>
    <i name="e_fr_energy">    138.81081643 </i>
    <i name="e_wo_entrp">    139.06692619 </i>
    <i name="e_0_energy">    138.93887131 </i>
   </energy>
  </scstep>
  <scstep>
   <time name="dav">   72.24   73.36</time>
   <time name="total">   72.24   73.36</time>
   <energy>
    <i name="e_fr_energy">   -555.27688955 </i>
    <i name="e_wo_entrp">   -555.07537112 </i>
    <i name="e_0_energy">   -555.17613034 </i>
   </energy>
  </scstep>
  <scstep>
   <time name="dav">   68.17   69.01</time>
   <time name="total">   68.17   69.01</time>
   <energy>
    <i name="e_fr_energy">   -628.02070134 </i>
    <i name="e_wo_entrp">   -627.80213267 </i>
    <i name="e_0_energy">   -627.91141700 </i>
   </energy>
  </scstep>
  <scstep>
   <time name="dav">   72.72   73.73</time>
   <time name="total">   73.11   74.13</time>
   <energy>
    <i name="e_fr_energy">   -636.43376188 </i>
    <i name="e_wo_entrp">   -636.19376111 </i>
    <i name="e_0_energy">   -636.31376150 </i>
   </energy>
  </scstep>
  <scstep>
   <time name="diag">    1.96    1.98</time>
   <time name="diis">   47.20   48.01</time>
   <time name="orth">    0.53    0.54</time>
   <time name="total">   50.09   50.93</time>
   <energy>
    <i name="e_fr_energy">   -508.48102035 </i>
    <i name="e_wo_entrp">   -508.16587580 </i>
    <i name="e_0_energy">   -508.32344807 </i>
   </energy>
  </scstep>
  <scstep>
   <time name="diag">    1.95    1.97</time>
   <time name="diis">   48.50   49.29</time>
   <time name="orth">    0.49    0.49</time>
   <time name="total">   51.35   52.16</time>
   <energy>
    <i name="e_fr_energy">   -486.81078086 </i>
    <i name="e_wo_entrp">   -486.52845170 </i>
    <i name="e_0_energy">   -486.66961628 </i>
   </energy>
  </scstep>
  <scstep>
   <time name="diag">    2.02    2.05</time>
   <time name="diis">   50.49   51.44</time>
   <time name="orth">    0.48    0.51</time>
   <time name="total">   53.42   54.43</time>
   <energy>
    <i name="e_fr_energy">   -474.21512921 </i>
    <i name="e_wo_entrp">   -473.87053364 </i>
    <i name="e_0_energy">   -474.04283142 </i>
   </energy>
  </scstep>
  <scstep>
   <time name="diag">    2.02    2.04</time>
   <time name="diis">   51.12   52.02</time>
   <time name="orth">    0.48    0.49</time>
   <time name="total">   54.05   54.98</time>
   <energy>
    <i name="e_fr_energy">   -475.10686017 </i>
    <i name="e_wo_entrp">   -474.73782110 </i>
    <i name="e_0_energy">   -474.92234063 </i>
   </energy>
  </scstep>
  <scstep>
   <time name="diag">    2.00    2.03</time>
   <time name="diis">   49.98   50.78</time>
   <time name="orth">    0.54    0.55</time>
   <time name="total">   52.94   53.78</time>
   <energy>
    <i name="e_fr_energy">   -475.66855717 </i>
    <i name="e_wo_entrp">   -475.32242545 </i>
    <i name="e_0_energy">   -475.49549131 </i>
   </energy>
  </scstep>
  <scstep>
   <time name="diag">    2.04    2.08</time>
   <time name="diis">   48.55   49.37</time>
   <time name="orth">    0.49    0.50</time>
   <time name="total">   51.53   52.39</time>
   <energy>
    <i name="e_fr_energy">   -474.76951217 </i>
    <i name="e_wo_entrp">   -474.44461941 </i>
    <i name="e_0_energy">   -474.60706579 </i>
   </energy>
  </scstep>
  <scstep>
   <time name="diag">    1.95    1.97</time>
   <time name="diis">   50.46   51.42</time>
   <time name="orth">    0.47    0.48</time>
   <time name="total">   53.37   54.35</time>
   <energy>
    <i name="e_fr_energy">   -475.16718728 </i>
    <i name="e_wo_entrp">   -474.83069298 </i>
    <i name="e_0_energy">   -474.99894013 </i>
   </energy>
  </scstep>
  <scstep>
   <time name="diag">    2.02    2.04</time>
   <time name="diis">   47.93   48.90</time>
   <time name="orth">    0.52    0.53</time>
   <time name="total">   50.90   51.91</time>
   <energy>
    <i name="e_fr_energy">   -474.69085547 </i>
    <i name="e_wo_entrp">   -474.33775259 </i>
    <i name="e_0_energy">   -474.51430403 </i>
   </energy>
  </scstep>
  <scstep>
   <time name="diag">    1.94    2.02</time>
   <time name="diis">   48.68   49.39</time>
   <time name="orth">    0.48    0.48</time>
   <time name="total">   51.51   52.32</time>
   <energy>
    <i name="e_fr_energy">   -474.44825266 </i>
    <i name="e_wo_entrp">   -474.04527275 </i>
    <i name="e_0_energy">   -474.24676270 </i>
   </energy>
  </scstep>
  <scstep>
   <time name="diag">    2.23    2.28</time>
   <time name="diis">   49.56   50.41</time>
   <time name="orth">    0.48    0.48</time>
   <time name="total">   52.71   53.61</time>
   <energy>
    <i name="e_fr_energy">   -474.53583943 </i>
    <i name="e_wo_entrp">   -474.13366649 </i>
    <i name="e_0_energy">   -474.33475296 </i>
   </energy>
  </scstep>
  <scstep>
   <time name="diag">    2.02    2.04</time>
   <time name="diis">   50.42   51.14</time>
   <time name="orth">    0.48    0.49</time>
   <time name="total">   53.33   54.10</time>
   <energy>
    <i name="e_fr_energy">   -474.60420887 </i>
    <i name="e_wo_entrp">   -474.20246838 </i>
    <i name="e_0_energy">   -474.40333863 </i>
   </energy>
  </scstep>
  <scstep>
   <time name="diag">    1.99    2.07</time>
   <time name="diis">   49.99   50.83</time>
   <time name="orth">    0.48    0.49</time>
   <time name="total">   52.89   53.82</time>
   <energy>
    <i name="e_fr_energy">   -474.64976849 </i>
    <i name="e_wo_entrp">   -474.25975324 </i>
    <i name="e_0_energy">   -474.45476086 </i>
   </energy>
  </scstep>
  <scstep>
   <time name="diag">    2.04    2.06</time>
   <time name="diis">   50.42   51.26</time>
   <time name="orth">    0.48    0.48</time>
   <time name="total">   53.37   54.24</time>
   <energy>
    <i name="e_fr_energy">   -474.69427173 </i>
    <i name="e_wo_entrp">   -474.29788001 </i>
    <i name="e_0_energy">   -474.49607587 </i>
   </energy>
  </scstep>
  <scstep>
   <time name="diag">    2.01    2.03</time>
   <time name="diis">   50.74   51.57</time>
   <time name="orth">    0.56    0.57</time>
   <time name="total">   53.75   54.61</time>
   <energy>
    <i name="e_fr_energy">   -474.72968876 </i>
    <i name="e_wo_entrp">   -474.32140442 </i>
    <i name="e_0_energy">   -474.52554659 </i>
   </energy>
  </scstep>
  <scstep>
   <time name="diag">    1.97    1.99</time>
   <time name="diis">   52.24   53.03</time>
   <time name="orth">    0.53    0.54</time>
   <time name="total">   55.19   56.01</time>
   <energy>
    <i name="e_fr_energy">   -474.75191314 </i>
    <i name="e_wo_entrp">   -474.34010569 </i>
    <i name="e_0_energy">   -474.54600941 </i>
   </energy>
  </scstep>
  <scstep>
   <time name="diag">    1.96    1.99</time>
   <time name="diis">   50.29   51.05</time>
   <time name="orth">    0.51    0.52</time>
   <time name="total">   53.20   53.99</time>
   <energy>
    <i name="e_fr_energy">   -474.74430984 </i>
    <i name="e_wo_entrp">   -474.33717098 </i>
    <i name="e_0_energy">   -474.54074041 </i>
   </energy>
  </scstep>
  <scstep>
   <time name="diag">    1.99    2.02</time>
   <time name="diis">   52.58   53.55</time>
   <time name="orth">    0.50    0.50</time>
   <time name="total">   55.50   56.52</time>
   <energy>
    <i name="e_fr_energy">   -474.75672927 </i>
    <i name="e_wo_entrp">   -474.34771685 </i>
    <i name="e_0_energy">   -474.55222306 </i>
   </energy>
  </scstep>
  <scstep>
   <time name="diag">    2.07    2.11</time>
   <time name="diis">   51.91   52.92</time>
   <time name="orth">    0.48    0.49</time>
   <time name="total">   54.89   55.96</time>
   <energy>
    <i name="e_fr_energy">   -474.76830486 </i>
    <i name="e_wo_entrp">   -474.35896091 </i>
    <i name="e_0_energy">   -474.56363289 </i>
   </energy>
  </scstep>
  <scstep>
   <time name="diag">    2.04    2.07</time>
   <time name="diis">   51.84   52.76</time>
   <time name="orth">    0.48    0.49</time>
   <time name="total">   54.80   55.77</time>
   <energy>
    <i name="e_fr_energy">   -474.78086547 </i>
    <i name="e_wo_entrp">   -474.37105357 </i>
    <i name="e_0_energy">   -474.57595952 </i>
   </energy>
  </scstep>
  <scstep>
   <time name="diag">    1.97    2.00</time>
   <time name="diis">   49.76   50.77</time>
   <time name="orth">    0.48    0.49</time>
   <time name="total">   52.70   53.76</time>
   <energy>
    <i name="e_fr_energy">   -474.78909399 </i>
    <i name="e_wo_entrp">   -474.37782490 </i>
    <i name="e_0_energy">   -474.58345944 </i>
   </energy>
  </scstep>
  <scstep>
   <time name="diag">    2.01    2.05</time>
   <time name="diis">   49.71   50.71</time>
   <time name="orth">    0.48    0.49</time>
   <time name="total">   52.64   53.70</time>
   <energy>
    <i name="e_fr_energy">   -474.79597038 </i>
    <i name="e_wo_entrp">   -474.38437234 </i>
    <i name="e_0_energy">   -474.59017136 </i>
   </energy>
  </scstep>
  <scstep>
   <time name="diag">    1.95    1.98</time>
   <time name="diis">   50.63   51.41</time>
   <time name="orth">    0.55    0.56</time>
   <time name="total">   53.57   54.40</time>
   <energy>
    <i name="e_fr_energy">   -474.80089060 </i>
    <i name="e_wo_entrp">   -474.38869549 </i>
    <i name="e_0_energy">   -474.59479304 </i>
   </energy>
  </scstep>
  <scstep>
   <time name="diag">    1.99    2.02</time>
   <time name="diis">   50.96   52.84</time>
   <time name="orth">    3.48    3.52</time>
   <time name="total">   57.06   59.01</time>
   <energy>
    <i name="e_fr_energy">   -474.80589805 </i>
    <i name="e_wo_entrp">   -474.39171692 </i>
    <i name="e_0_energy">   -474.59880749 </i>
   </energy>
  </scstep>
  <scstep>
   <time name="diag">   10.05   11.04</time>
   <time name="diis">   48.29   51.70</time>
   <time name="orth">    0.53    0.53</time>
   <time name="total">   59.68   64.08</time>
   <energy>
    <i name="e_fr_energy">   -474.80947771 </i>
    <i name="e_wo_entrp">   -474.39514088 </i>
    <i name="e_0_energy">   -474.60230929 </i>
   </energy>
  </scstep>
  <scstep>
   <time name="diag">    2.00    2.01</time>
   <time name="diis">   40.19   45.93</time>
   <time name="orth">    2.31    2.64</time>
   <time name="total">   45.10   51.18</time>
   <energy>
    <i name="e_fr_energy">   -474.81261944 </i>
    <i name="e_wo_entrp">   -474.39763179 </i>
    <i name="e_0_energy">   -474.60512562 </i>
   </energy>
  </scstep>
  <scstep>
   <time name="diag">    8.56    9.48</time>
   <time name="diis">   44.38   47.46</time>
   <time name="orth">    2.59    2.66</time>
   <time name="total">   56.18   60.38</time>
   <energy>
    <i name="e_fr_energy">   -474.81485883 </i>
    <i name="e_wo_entrp">   -474.39954482 </i>
    <i name="e_0_energy">   -474.60720183 </i>
   </energy>
  </scstep>
  <scstep>
   <time name="diag">   10.11   10.68</time>
   <time name="diis">   48.85   49.44</time>
   <time name="orth">    2.65    2.67</time>
   <time name="total">   62.27   63.44</time>
   <energy>
    <i name="e_fr_energy">   -474.81724059 </i>
    <i name="e_wo_entrp">   -474.40155552 </i>
    <i name="e_0_energy">   -474.60939806 </i>
   </energy>
  </scstep>
  <scstep>
   <time name="diag">   10.23   11.78</time>
   <time name="diis">   44.37   45.90</time>
   <time name="orth">    2.22    2.64</time>
   <time name="total">   57.63   61.14</time>
   <energy>
    <i name="e_fr_energy">   -474.81879878 </i>
    <i name="e_wo_entrp">   -474.40264291 </i>
    <i name="e_0_energy">   -474.61072084 </i>
   </energy>
  </scstep>
  <scstep>
   <time name="diag">   11.40   11.60</time>
   <time name="diis">   39.72   43.88</time>
   <time name="orth">    2.57    2.82</time>
   <time name="total">   54.22   59.18</time>
   <energy>
    <i name="e_fr_energy">   -474.82042162 </i>
    <i name="e_wo_entrp">   -474.40374567 </i>
    <i name="e_0_energy">   -474.61208364 </i>
   </energy>
  </scstep>
  <scstep>
   <time name="diag">   10.65   11.99</time>
   <time name="diis">   41.54   43.35</time>
   <time name="orth">    3.43    3.49</time>
   <time name="total">   56.27   59.64</time>
   <energy>
    <i name="e_fr_energy">   -474.82143932 </i>
    <i name="e_wo_entrp">   -474.40453532 </i>
    <i name="e_0_energy">   -474.61298732 </i>
   </energy>
  </scstep>
  <scstep>
   <time name="diag">   14.65   15.22</time>
   <time name="diis">   44.48   46.31</time>
   <time name="orth">    3.28    4.32</time>
   <time name="total">   63.27   66.92</time>
   <energy>
    <i name="e_fr_energy">   -474.82258156 </i>
    <i name="e_wo_entrp">   -474.40521407 </i>
    <i name="e_0_energy">   -474.61389782 </i>
   </energy>
  </scstep>
  <scstep>
   <time name="diag">    9.57    9.77</time>
   <time name="diis">   42.34   43.71</time>
   <time name="orth">    3.84    4.33</time>
   <time name="total">   56.69   58.76</time>
   <energy>
    <i name="e_fr_energy">   -474.82332388 </i>
    <i name="e_wo_entrp">   -474.40565719 </i>
    <i name="e_0_energy">   -474.61449054 </i>
   </energy>
  </scstep>
  <scstep>
   <time name="diag">   11.00   11.14</time>
   <time name="diis">   35.73   36.50</time>
   <time name="orth">    2.87    2.88</time>
   <time name="total">   50.64   51.57</time>
   <energy>
    <i name="e_fr_energy">   -474.82414419 </i>
    <i name="e_wo_entrp">   -474.40615737 </i>
    <i name="e_0_energy">   -474.61515078 </i>
   </energy>
  </scstep>
  <scstep>
   <time name="diag">   12.42   12.48</time>
   <time name="diis">   28.17   28.82</time>
   <time name="orth">    2.39    2.60</time>
   <time name="total">   43.96   44.87</time>
   <energy>
    <i name="e_fr_energy">   -474.82466473 </i>
    <i name="e_wo_entrp">   -474.40646751 </i>
    <i name="e_0_energy">   -474.61556612 </i>
   </energy>
  </scstep>
  <scstep>
   <time name="diag">    9.44   10.11</time>
   <time name="diis">   27.29   28.47</time>
   <time name="orth">    2.79    2.80</time>
   <time name="total">   40.22   42.12</time>
   <energy>
    <i name="e_fr_energy">   -474.82523338 </i>
    <i name="e_wo_entrp">   -474.40686159 </i>
    <i name="e_0_energy">   -474.61604748 </i>
   </energy>
  </scstep>
  <scstep>
   <time name="diag">    1.97    1.98</time>
   <time name="diis">   25.71   27.49</time>
   <time name="orth">    2.35    2.58</time>
   <time name="total">   30.61   32.77</time>
   <energy>
    <i name="e_fr_energy">   -474.82561089 </i>
    <i name="e_wo_entrp">   -474.40700228 </i>
    <i name="e_0_energy">   -474.61630659 </i>
   </energy>
  </scstep>
  <scstep>
   <time name="diag">   16.94   19.32</time>
   <time name="diis">   25.26   28.26</time>
   <time name="orth">    3.15    3.42</time>
   <time name="total">   46.41   52.29</time>
   <energy>
    <i name="e_fr_energy">   -474.82601597 </i>
    <i name="e_wo_entrp">   -474.40728536 </i>
    <i name="e_0_energy">   -474.61665067 </i>
   </energy>
  </scstep>
  <scstep>
   <time name="diag">   13.70   14.77</time>
   <time name="diis">   27.19   27.42</time>
   <time name="orth">    3.26    3.28</time>
   <time name="total">   45.10   46.47</time>
   <energy>
    <i name="e_fr_energy">   -474.82629287 </i>
    <i name="e_wo_entrp">   -474.40741155 </i>
    <i name="e_0_energy">   -474.61685221 </i>
   </energy>
  </scstep>
  <scstep>
   <time name="diag">   12.39   12.47</time>
   <time name="diis">   25.06   25.30</time>
   <time name="orth">    0.50    0.51</time>
   <time name="total">   38.77   39.08</time>
   <energy>
    <i name="e_fr_energy">   -474.82658920 </i>
    <i name="e_wo_entrp">   -474.40747755 </i>
    <i name="e_0_energy">   -474.61703337 </i>
   </energy>
  </scstep>
  <scstep>
   <time name="diag">    2.01    2.02</time>
   <time name="diis">   24.62   25.01</time>
   <time name="orth">    3.28    3.33</time>
   <time name="total">   30.71   31.17</time>
   <energy>
    <i name="e_fr_energy">   -474.82679052 </i>
    <i name="e_wo_entrp">   -474.40756588 </i>
    <i name="e_0_energy">   -474.61717820 </i>
   </energy>
  </scstep>
  <scstep>
   <time name="diag">    9.96   10.27</time>
   <time name="diis">   24.53   25.45</time>
   <time name="orth">    0.53    0.53</time>
   <time name="total">   35.65   36.89</time>
   <energy>
    <i name="e_fr_energy">   -474.82700181 </i>
    <i name="e_wo_entrp">   -474.40765603 </i>
    <i name="e_0_energy">   -474.61732892 </i>
   </energy>
  </scstep>
  <scstep>
   <time name="diag">    1.98    1.99</time>
   <time name="diis">   24.25   24.64</time>
   <time name="orth">    2.76    2.83</time>
   <time name="total">   29.61   30.08</time>
   <energy>
    <i name="e_fr_energy">   -474.82714938 </i>
    <i name="e_wo_entrp">   -474.40771783 </i>
    <i name="e_0_energy">   -474.61743361 </i>
   </energy>
  </scstep>
  <scstep>
   <time name="diag">   10.78   11.03</time>
   <time name="diis">   23.72   24.07</time>
   <time name="orth">    0.55    0.56</time>
   <time name="total">   35.63   36.28</time>
   <energy>
    <i name="e_fr_energy">   -474.82730287 </i>
    <i name="e_wo_entrp">   -474.40776148 </i>
    <i name="e_0_energy">   -474.61753218 </i>
   </energy>
  </scstep>
  <scstep>
   <time name="diag">    2.04    2.11</time>
   <time name="diis">   21.42   23.66</time>
   <time name="orth">    2.45    2.51</time>
   <time name="total">   26.70   29.07</time>
   <energy>
    <i name="e_fr_energy">   -474.82741398 </i>
    <i name="e_wo_entrp">   -474.40775590 </i>
    <i name="e_0_energy">   -474.61758494 </i>
   </energy>
  </scstep>
  <scstep>
   <time name="diag">   12.75   12.94</time>
   <time name="diis">   22.79   23.29</time>
   <time name="orth">    3.07    3.73</time>
   <time name="total">   39.83   41.23</time>
   <energy>
    <i name="e_fr_energy">   -474.82752614 </i>
    <i name="e_wo_entrp">   -474.40777835 </i>
    <i name="e_0_energy">   -474.61765224 </i>
   </energy>
  </scstep>
  <scstep>
   <time name="diag">   15.74   15.90</time>
   <time name="diis">   22.45   23.27</time>
   <time name="orth">    0.48    0.48</time>
   <time name="total">   39.90   40.89</time>
   <energy>
    <i name="e_fr_energy">   -474.82760718 </i>
    <i name="e_wo_entrp">   -474.40781156 </i>
    <i name="e_0_energy">   -474.61770937 </i>
   </energy>
  </scstep>
  <scstep>
   <time name="diag">    2.09    2.11</time>
   <time name="diis">   22.80   23.24</time>
   <time name="orth">    3.79    3.81</time>
   <time name="total">   29.35   29.83</time>
   <energy>
    <i name="e_fr_energy">   -474.82768877 </i>
    <i name="e_wo_entrp">   -474.40783646 </i>
    <i name="e_0_energy">   -474.61776262 </i>
   </energy>
  </scstep>
  <scstep>
   <time name="diag">   15.86   15.94</time>
   <time name="diis">   21.57   22.19</time>
   <time name="orth">    2.86    2.88</time>
   <time name="total">   41.08   41.80</time>
   <energy>
    <i name="e_fr_energy">   -474.82774969 </i>
    <i name="e_wo_entrp">   -474.40784744 </i>
    <i name="e_0_energy">   -474.61779856 </i>
   </energy>
  </scstep>
  <scstep>
   <time name="diag">   11.15   11.78</time>
   <time name="diis">   19.18   22.01</time>
   <time name="orth">    2.22    2.48</time>
   <time name="total">   33.32   37.06</time>
   <energy>
    <i name="e_fr_energy">   -474.82781048 </i>
    <i name="e_wo_entrp">   -474.40784775 </i>
    <i name="e_0_energy">   -474.61782912 </i>
   </energy>
  </scstep>
  <scstep>
   <time name="diag">    2.60    2.90</time>
   <time name="diis">   20.01   22.14</time>
   <time name="orth">    3.32    3.42</time>
   <time name="total">   26.65   29.34</time>
   <energy>
    <i name="e_fr_energy">   -474.82785848 </i>
    <i name="e_wo_entrp">   -474.40783151 </i>
    <i name="e_0_energy">   -474.61784499 </i>
   </energy>
  </scstep>
  <scstep>
   <time name="diag">   11.32   12.11</time>
   <time name="diis">   20.66   21.83</time>
   <time name="orth">    0.48    0.48</time>
   <time name="total">   33.08   35.04</time>
   <energy>
    <i name="e_fr_energy">   -474.82790351 </i>
    <i name="e_wo_entrp">   -474.40783243 </i>
    <i name="e_0_energy">   -474.61786797 </i>
   </energy>
  </scstep>
  <scstep>
   <time name="diag">    2.07    2.11</time>
   <time name="diis">   18.44   21.20</time>
   <time name="orth">    2.27    2.52</time>
   <time name="total">   23.30   26.43</time>
   <energy>
    <i name="e_fr_energy">   -474.82793823 </i>
    <i name="e_wo_entrp">   -474.40782528 </i>
    <i name="e_0_energy">   -474.61788175 </i>
   </energy>
  </scstep>
  <scstep>
   <time name="diag">   11.95   12.04</time>
   <time name="diis">   22.48   22.99</time>
   <time name="orth">    0.55    0.56</time>
   <time name="total">   35.52   36.20</time>
   <energy>
    <i name="e_fr_energy">   -474.82797123 </i>
    <i name="e_wo_entrp">   -474.40783219 </i>
    <i name="e_0_energy">   -474.61790171 </i>
   </energy>
  </scstep>
  <scstep>
   <time name="diag">    1.94    1.96</time>
   <time name="diis">   20.33   21.41</time>
   <time name="orth">    2.55    2.77</time>
   <time name="total">   25.44   26.76</time>
   <energy>
    <i name="e_fr_energy">   -474.82799730 </i>
    <i name="e_wo_entrp">   -474.40782929 </i>
    <i name="e_0_energy">   -474.61791330 </i>
   </energy>
  </scstep>
  <scstep>
   <time name="diag">   11.61   12.13</time>
   <time name="diis">   21.58   21.93</time>
   <time name="orth">    0.51    0.52</time>
   <time name="total">   33.87   34.75</time>
   <energy>
    <i name="alphaZ">   1668.42098788 </i>
    <i name="ewald"> -23815.05943141 </i>
    <i name="hartreedc">  -7734.77575882 </i>
    <i name="XCdc">    493.47440717 </i>
    <i name="pawpsdc">  19581.13353390 </i>
    <i name="pawaedc"> -18640.16811564 </i>
    <i name="eentropy">     -0.42020664 </i>
    <i name="bandstr">  -5226.37752182 </i>
    <i name="atom">  33198.94408275 </i>
    <i name="e_fr_energy">   -474.82802263 </i>
    <i name="e_wo_entrp">   -474.40781599 </i>
    <i name="e_0_energy">   -474.61791931 </i>
   </energy>
  </scstep>
  <structure>
   <crystal>
    <varray name="basis" >
     <v>      11.23999977       0.00000000       0.00000000 </v>
     <v>       0.00000000      11.23999977       0.00000000 </v>
     <v>       0.00000000       0.00000000      11.23999977 </v>
    </varray>
    <i name="volume">   1420.03453724 </i>
    <varray name="rec_basis" >
     <v>       0.08896797       0.00000000       0.00000000 </v>
     <v>       0.00000000       0.08896797       0.00000000 </v>
     <v>       0.00000000       0.00000000       0.08896797 </v>
    </varray>
   </crystal>
   <varray name="positions" >
    <v>       0.00000000       0.00000000       0.00000000 </v>
    <v>       0.25000000       0.00000000       0.25000000 </v>
    <v>       0.25000000       0.50000000       0.25000000 </v>
    <v>       0.50000000       0.50000000       0.00000000 </v>
    <v>       0.50000000       0.25000000       0.75000004 </v>
    <v>       0.00000000       0.50000000       0.50000000 </v>
    <v>       0.50000000       0.75000004       0.75000004 </v>
    <v>       0.00000000       0.25000000       0.25000000 </v>
    <v>       0.75000004       0.75000004       0.00000000 </v>
    <v>       0.00000000       0.25000000       0.75000004 </v>
    <v>       0.75000004       0.25000000       0.50000000 </v>
    <v>       0.00000000       0.75000004       0.75000004 </v>
    <v>       0.25000000       0.50000000       0.75000004 </v>
    <v>       0.25000000       0.25000000       0.00000000 </v>
    <v>       0.50000000       0.25000000       0.25000000 </v>
    <v>       0.75000004       0.00000000       0.25000000 </v>
    <v>       0.75000004       0.25000000       0.00000000 </v>
    <v>       0.25000000       0.75000004       0.00000000 </v>
    <v>       0.25000000       0.25000000       0.50000000 </v>
    <v>       0.25000000       0.25000000       0.25000000 </v>
    <v>       0.25000000       0.00000000       0.00000000 </v>
    <v>       0.00000000       0.25000000       0.00000000 </v>
    <v>       0.75000004       0.25000000       0.25000000 </v>
    <v>       0.75000004       0.00000000       0.00000000 </v>
    <v>       0.50000000       0.00000000       0.25000000 </v>
    <v>       0.00000000       0.50000000       0.25000000 </v>
    <v>       0.50000000       0.75000004       0.00000000 </v>
    <v>       0.00000000       0.00000000       0.75000004 </v>
    <v>       0.75000004       0.25000000       0.75000004 </v>
    <v>       0.75000004       0.00000000       0.50000000 </v>
    <v>       0.50000000       0.25000000       0.50000000 </v>
    <v>       0.50000000       0.00000000       0.75000004 </v>
    <v>       0.00000000       0.00000000       0.25000000 </v>
    <v>       0.50000000       0.25000000       0.00000000 </v>
    <v>       0.25000000       0.75000004       0.25000000 </v>
    <v>       0.25000000       0.50000000       0.00000000 </v>
    <v>       0.00000000       0.75000004       0.00000000 </v>
    <v>       0.75000004       0.75000004       0.25000000 </v>
    <v>       0.75000004       0.50000000       0.00000000 </v>
    <v>       0.50000000       0.50000000       0.25000000 </v>
    <v>       0.25000000       0.25000000       0.75000004 </v>
    <v>       0.25000000       0.00000000       0.50000000 </v>
    <v>       0.00000000       0.25000000       0.50000000 </v>
    <v>       0.25000000       0.75000004       0.75000004 </v>
    <v>       0.25000000       0.50000000       0.50000000 </v>
    <v>       0.00000000       0.75000004       0.50000000 </v>
    <v>       0.00000000       0.50000000       0.75000004 </v>
    <v>       0.75000004       0.75000004       0.75000004 </v>
    <v>       0.75000004       0.50000000       0.50000000 </v>
    <v>       0.50000000       0.75000004       0.50000000 </v>
    <v>       0.50000000       0.50000000       0.75000004 </v>
    <v>       0.50000000       0.00000000       0.00000000 </v>
    <v>       0.00000000       0.50000000       0.00000000 </v>
    <v>       0.50000000       0.75000004       0.25000000 </v>
    <v>       0.25000000       0.00000000       0.75000004 </v>
    <v>       0.50000000       0.00000000       0.50000000 </v>
    <v>       0.75000004       0.00000000       0.75000004 </v>
    <v>       0.25000000       0.75000004       0.50000000 </v>
    <v>       0.00000000       0.75000004       0.25000000 </v>
    <v>       0.75000004       0.50000000       0.25000000 </v>
    <v>       0.00000000       0.00000000       0.50000000 </v>
    <v>       0.50000000       0.50000000       0.50000000 </v>
    <v>       0.75000004       0.50000000       0.75000004 </v>
    <v>       0.75000004       0.75000004       0.50000000 </v>
   </varray>
  </structure>
  <varray name="forces" >
   <v>      -0.06394292      -0.49232870       0.37423977 </v>
   <v>      -0.70888932      -0.44770003       0.46263320 </v>
   <v>       0.30804374       0.45710135       0.07696346 </v>
   <v>       0.16033077      -0.19857941      -0.03850839 </v>
   <v>      -0.26985231       0.58911843       0.17304678 </v>
   <v>       0.02402677       0.04819758       0.22066323 </v>
   <v>       0.09962477      -0.58051116      -0.47244042 </v>
   <v>      -0.22571942      -0.50283857       0.80636959 </v>
   <v>       0.64819038      -0.77887717      -0.00720368 </v>
   <v>       0.34834954       0.56201952      -0.79591263 </v>
   <v>       0.73688895       0.66135978       0.09922518 </v>
   <v>      -0.14289583      -0.55389897      -0.11918411 </v>
   <v>       0.12073885       0.00672593      -0.12637852 </v>
   <v>       0.19754150       0.40421113      -0.35477947 </v>
   <v>       0.09854649       0.70464134      -0.15396751 </v>
   <v>       0.71504715      -0.48698855       0.31307907 </v>
   <v>      -0.24886163       0.60236961      -0.10346605 </v>
   <v>      -0.37832060      -0.37723225       0.06179039 </v>
   <v>      -0.39648138       0.09010967       0.33321704 </v>
   <v>       0.38614013      -0.08419439      -0.04376183 </v>
   <v>       0.43745622       0.07506914      -0.31925794 </v>
   <v>       0.02010923       0.30205907       0.03639948 </v>
   <v>      -0.39362179      -0.64415142      -0.30833369 </v>
   <v>      -0.40580086       0.45213914       0.12906819 </v>
   <v>       0.61562918       0.27644185      -0.09314120 </v>
   <v>      -0.02420204      -0.32536695      -0.32573306 </v>
   <v>      -0.34142685       0.48306166       0.34386615 </v>
   <v>      -0.16684723       0.04218598       0.11863815 </v>
   <v>       0.12287616      -0.56476119       0.32345672 </v>
   <v>      -0.44993885       0.34243732      -0.15075687 </v>
   <v>      -0.25233994      -0.48283031      -0.58688076 </v>
   <v>       0.18795708       0.03401059       0.08468751 </v>
   <v>      -0.47754964       0.22041685       0.12446105 </v>
   <v>       0.05372981      -0.46809600       0.51262950 </v>
   <v>       0.17824235       0.05497031      -0.20398588 </v>
   <v>      -0.32467501      -0.09297256      -0.21887692 </v>
   <v>       0.06729363      -0.21482435      -0.16153476 </v>
   <v>      -0.12522997       0.27872379      -0.14026475 </v>
   <v>       0.27239788      -0.16684791       0.02645348 </v>
   <v>       0.21549528      -0.22843785       0.17405823 </v>
   <v>      -0.25205383      -0.09591925       0.05444927 </v>
   <v>       0.24292400       0.22812402       0.22556173 </v>
   <v>       0.03444477      -0.12322554      -0.03218807 </v>
   <v>      -0.20570592       0.08929406       0.19917673 </v>
   <v>       0.09699431      -0.22452655       0.25692927 </v>
   <v>       0.01827122       0.11279009       0.13938677 </v>
   <v>       0.07113060      -0.02744994       0.17722392 </v>
   <v>       0.20391161       0.18465206       0.14843065 </v>
   <v>      -0.12461335      -0.13009129      -0.01515351 </v>
   <v>      -0.03058050       0.15715231      -0.20959407 </v>
   <v>      -0.05922633       0.00369982      -0.19843878 </v>
   <v>       0.02540615       0.23376538      -0.13033584 </v>
   <v>      -0.14739998       0.42968700      -0.07446909 </v>
   <v>       0.03990159      -0.68910959       0.38917627 </v>
   <v>      -0.29123637      -0.02034417      -0.42689797 </v>
   <v>      -0.37162836      -0.45757968       0.13646404 </v>
   <v>       0.29456641      -0.44158724      -0.33296706 </v>
   <v>      -0.07615161      -0.07984983      -0.05186367 </v>
   <v>      -0.13604677       0.57349595       0.09927080 </v>
   <v>      -0.50748200       0.65288265      -0.03719565 </v>
   <v>       0.38128018       0.03822713      -0.50211182 </v>
   <v>       0.13463203       0.59945344       0.06057417 </v>
   <v>      -0.08059422       0.59946298       0.05540567 </v>
   <v>       0.12119613      -0.60893611      -0.00141153 </v>
  </varray>
  <varray name="stress" >
   <v>    -415.67867717       0.80861564       0.07875685 </v>
   <v>       0.80861589    -413.87149310       0.08862474 </v>
   <v>       0.07875653       0.08862465    -416.81872316 </v>
  </varray>
  <energy>
   <i name="e_fr_energy">   -474.82802263 </i>
   <i name="e_wo_entrp">   -474.40781599 </i>
   <i name="e_0_energy">   -474.61791931 </i>
  </energy>
  <time name="totalsc"> 2965.96 3067.76</time>
 </calculation>
 <calculation>
  <scstep>
   <time name="dav">  117.13  123.16</time>
   <time name="total">  118.13  124.15</time>
   <energy>
    <i name="alphaZ">   4424.97268988 </i>
    <i name="ewald"> -32949.55371229 </i>
    <i name="hartreedc"> -10717.41060882 </i>
    <i name="XCdc">   1040.28630787 </i>
    <i name="pawpsdc">  19581.13211642 </i>
    <i name="pawaedc"> -18640.16673446 </i>
    <i name="eentropy">     -0.08446290 </i>
    <i name="bandstr">   1542.99040427 </i>
    <i name="atom">  33198.94408275 </i>
    <i name="e_fr_energy">  -2518.88991729 </i>
    <i name="e_wo_entrp">  -2518.80545439 </i>
    <i name="e_0_energy">  -2518.84768584 </i>
   </energy>
  </scstep>
  <scstep>
   <time name="diag">    2.00    2.01</time>
   <time name="diis">   51.29   54.48</time>
   <time name="orth">    2.42    2.42</time>
   <time name="total">   56.28   59.49</time>
   <energy>
    <i name="e_fr_energy">   -886.51859270 </i>
    <i name="e_wo_entrp">   -886.46595240 </i>
    <i name="e_0_energy">   -886.49227255 </i>
   </energy>
  </scstep>
  <scstep>
   <time name="diag">    6.99    7.05</time>
   <time name="diis">   47.86   50.72</time>
   <time name="orth">    3.38    3.53</time>
   <time name="total">   58.86   62.08</time>
   <energy>
    <i name="e_fr_energy">   -563.12613285 </i>
    <i name="e_wo_entrp">   -563.07438156 </i>
    <i name="e_0_energy">   -563.10025721 </i>
   </energy>
  </scstep>
  <scstep>
   <time name="diag">    8.87    9.65</time>
   <time name="diis">   49.61   50.18</time>
   <time name="orth">    2.67    2.67</time>
   <time name="total">   62.07   63.42</time>
   <energy>
    <i name="e_fr_energy">   -561.46458410 </i>
    <i name="e_wo_entrp">   -561.39351525 </i>
    <i name="e_0_energy">   -561.42904968 </i>
   </energy>
  </scstep>
  <scstep>
   <time name="diag">   10.98   11.06</time>
   <time name="diis">   46.75   47.80</time>
   <time name="orth">    2.59    2.64</time>
   <time name="total">   61.25   62.43</time>
   <energy>
    <i name="e_fr_energy">   -564.73926172 </i>
    <i name="e_wo_entrp">   -564.65860843 </i>
    <i name="e_0_energy">   -564.69893508 </i>
   </energy>
  </scstep>
  <scstep>
   <time name="diag">   10.07   10.19</time>
   <time name="diis">   49.02   50.77</time>
   <time name="orth">    2.34    2.47</time>
   <time name="total">   62.16   64.19</time>
   <energy>
    <i name="e_fr_energy">   -566.69552887 </i>
    <i name="e_wo_entrp">   -566.60210834 </i>
    <i name="e_0_energy">   -566.64881860 </i>
   </energy>
  </scstep>
  <scstep>
   <time name="diag">   12.05   12.31</time>
   <time name="diis">   46.90   49.25</time>
   <time name="orth">    2.61    2.62</time>
   <time name="total">   62.26   64.89</time>
   <energy>
    <i name="e_fr_energy">   -566.89578880 </i>
    <i name="e_wo_entrp">   -566.79468180 </i>
    <i name="e_0_energy">   -566.84523530 </i>
   </energy>
  </scstep>
  <scstep>
   <time name="diag">   10.50   10.56</time>
   <time name="diis">   47.78   50.49</time>
   <time name="orth">    2.49    2.50</time>
   <time name="total">   61.56   64.35</time>
   <energy>
    <i name="e_fr_energy">   -567.12675984 </i>
    <i name="e_wo_entrp">   -567.01911475 </i>
    <i name="e_0_energy">   -567.07293729 </i>
   </energy>
  </scstep>
  <scstep>
   <time name="diag">    9.94   10.07</time>
   <time name="diis">   44.45   47.05</time>
   <time name="orth">    2.72    2.73</time>
   <time name="total">   57.86   60.60</time>
   <energy>
    <i name="e_fr_energy">   -567.25334725 </i>
    <i name="e_wo_entrp">   -567.13848587 </i>
    <i name="e_0_energy">   -567.19591656 </i>
   </energy>
  </scstep>
  <scstep>
   <time name="diag">    9.60    9.67</time>
   <time name="diis">   49.55   51.25</time>
   <time name="orth">    2.86    2.90</time>
   <time name="total">   62.88   64.71</time>
   <energy>
    <i name="e_fr_energy">   -567.30618561 </i>
    <i name="e_wo_entrp">   -567.19098726 </i>
    <i name="e_0_energy">   -567.24858644 </i>
   </energy>
  </scstep>
  <scstep>
   <time name="diag">   11.48   12.13</time>
   <time name="diis">   46.84   49.75</time>
   <time name="orth">    2.59    2.60</time>
   <time name="total">   61.68   65.26</time>
   <energy>
    <i name="e_fr_energy">   -567.33775458 </i>
    <i name="e_wo_entrp">   -567.21994139 </i>
    <i name="e_0_energy">   -567.27884799 </i>
   </energy>
  </scstep>
  <scstep>
   <time name="diag">   10.92   11.04</time>
   <time name="diis">   45.86   46.47</time>
   <time name="orth">    2.80    2.83</time>
   <time name="total">   60.30   61.07</time>
   <energy>
    <i name="e_fr_energy">   -567.34947995 </i>
    <i name="e_wo_entrp">   -567.23107144 </i>
    <i name="e_0_energy">   -567.29027570 </i>
   </energy>
  </scstep>
  <scstep>
   <time name="diag">   11.23   11.33</time>
   <time name="diis">   43.41   47.56</time>
   <time name="orth">    3.28    3.76</time>
   <time name="total">   58.65   63.45</time>
   <energy>
    <i name="e_fr_energy">   -567.35492702 </i>
    <i name="e_wo_entrp">   -567.23646989 </i>
    <i name="e_0_energy">   -567.29569845 </i>
   </energy>
  </scstep>
  <scstep>
   <time name="diag">   12.82   13.58</time>
   <time name="diis">   44.40   46.50</time>
   <time name="orth">    2.23    2.83</time>
   <time name="total">   60.05   63.68</time>
   <energy>
    <i name="e_fr_energy">   -567.35765279 </i>
    <i name="e_wo_entrp">   -567.23875419 </i>
    <i name="e_0_energy">   -567.29820349 </i>
   </energy>
  </scstep>
  <scstep>
   <time name="diag">   11.36   12.37</time>
   <time name="diis">   41.86   45.08</time>
   <time name="orth">    2.68    3.40</time>
   <time name="total">   56.68   61.63</time>
   <energy>
    <i name="e_fr_energy">   -567.35889777 </i>
    <i name="e_wo_entrp">   -567.23976688 </i>
    <i name="e_0_energy">   -567.29933233 </i>
   </energy>
  </scstep>
  <scstep>
   <time name="diag">   14.56   15.87</time>
   <time name="diis">   39.75   42.92</time>
   <time name="orth">    3.74    4.02</time>
   <time name="total">   58.92   63.73</time>
   <energy>
    <i name="e_fr_energy">   -567.35955551 </i>
    <i name="e_wo_entrp">   -567.24027440 </i>
    <i name="e_0_energy">   -567.29991495 </i>
   </energy>
  </scstep>
  <scstep>
   <time name="diag">   10.47   11.30</time>
   <time name="diis">   32.42   33.29</time>
   <time name="orth">    3.62    5.13</time>
   <time name="total">   47.65   50.88</time>
   <energy>
    <i name="e_fr_energy">   -567.35987366 </i>
    <i name="e_wo_entrp">   -567.24056040 </i>
    <i name="e_0_energy">   -567.30021703 </i>
   </energy>
  </scstep>
  <scstep>
   <time name="diag">   13.96   14.78</time>
   <time name="diis">   28.23   28.53</time>
   <time name="orth">    2.68    2.98</time>
   <time name="total">   46.25   47.68</time>
   <energy>
    <i name="e_fr_energy">   -567.36003735 </i>
    <i name="e_wo_entrp">   -567.24068717 </i>
    <i name="e_0_energy">   -567.30036226 </i>
   </energy>
  </scstep>
  <scstep>
   <time name="diag">   13.65   14.22</time>
   <time name="diis">   22.53   25.89</time>
   <time name="orth">    3.13    3.50</time>
   <time name="total">   40.71   45.02</time>
   <energy>
    <i name="e_fr_energy">   -567.36011996 </i>
    <i name="e_wo_entrp">   -567.24074953 </i>
    <i name="e_0_energy">   -567.30043474 </i>
   </energy>
  </scstep>
  <scstep>
   <time name="diag">   11.03   13.13</time>
   <time name="diis">   23.35   25.25</time>
   <time name="orth">    2.96    3.00</time>
   <time name="total">   38.34   42.38</time>
   <energy>
    <i name="e_fr_energy">   -567.36016640 </i>
    <i name="e_wo_entrp">   -567.24077920 </i>
    <i name="e_0_energy">   -567.30047280 </i>
   </energy>
  </scstep>
  <scstep>
   <time name="diag">    1.94    1.96</time>
   <time name="diis">   23.58   24.47</time>
   <time name="orth">    2.34    2.38</time>
   <time name="total">   28.41   29.37</time>
   <energy>
    <i name="e_fr_energy">   -567.36019025 </i>
    <i name="e_wo_entrp">   -567.24078699 </i>
    <i name="e_0_energy">   -567.30048862 </i>
   </energy>
  </scstep>
  <scstep>
   <time name="diag">    9.34    9.84</time>
   <time name="diis">   22.36   23.80</time>
   <time name="orth">    0.60    0.62</time>
   <time name="total">   32.93   34.92</time>
   <energy>
    <i name="e_fr_energy">   -567.36020373 </i>
    <i name="e_wo_entrp">   -567.24079007 </i>
    <i name="e_0_energy">   -567.30049690 </i>
   </energy>
  </scstep>
  <scstep>
   <time name="diag">    2.05    2.07</time>
   <time name="diis">   22.83   23.53</time>
   <time name="orth">    3.98    4.27</time>
   <time name="total">   28.92   29.92</time>
   <energy>
    <i name="alphaZ">   4424.97268988 </i>
    <i name="ewald"> -32949.55371229 </i>
    <i name="hartreedc">  -4746.08059408 </i>
    <i name="XCdc">    679.21228169 </i>
    <i name="pawpsdc">  27691.11588346 </i>
    <i name="pawaedc"> -26847.12619905 </i>
    <i name="eentropy">     -0.11941769 </i>
    <i name="bandstr">  -2018.72522549 </i>
    <i name="atom">  33198.94408275 </i>
    <i name="e_fr_energy">   -567.36021081 </i>
    <i name="e_wo_entrp">   -567.24079312 </i>
    <i name="e_0_energy">   -567.30050196 </i>
   </energy>
  </scstep>
  <structure>
   <crystal>
    <varray name="basis" >
     <v>       8.11849794       0.00607223       0.00059142 </v>
     <v>       0.00607223       8.13206883       0.00066552 </v>
     <v>       0.00059142       0.00066552       8.10993687 </v>
    </varray>
    <i name="volume">    535.41921985 </i>
    <varray name="rec_basis" >
     <v>       0.12317556      -0.00009197      -0.00000897 </v>
     <v>      -0.00009197       0.12297001      -0.00001008 </v>
     <v>      -0.00000898      -0.00001008       0.12330552 </v>
    </varray>
   </crystal>
   <varray name="positions" >
    <v>       0.99972555       0.99788690       0.00160626 </v>
    <v>       0.24695741       0.99807845       0.25198565 </v>
    <v>       0.25132214       0.50196190       0.25033033 </v>
    <v>       0.50068815       0.49914769       0.99983472 </v>
    <v>       0.49884178       0.25252853       0.75074277 </v>
    <v>       0.00010312       0.50020687       0.50094710 </v>
    <v>       0.50042759       0.74750846       0.74797230 </v>
    <v>       0.99903120       0.24784179       0.25346098 </v>
    <v>       0.75278211       0.74665706       0.99996908 </v>
    <v>       0.00149513       0.25241222       0.74658394 </v>
    <v>       0.75316281       0.25283859       0.50042588 </v>
    <v>       0.99938668       0.74762268       0.74948850 </v>
    <v>       0.25051822       0.50002887       0.74945762 </v>
    <v>       0.25084786       0.25173489       0.99847727 </v>
    <v>       0.50042297       0.25302436       0.24933916 </v>
    <v>       0.75306906       0.99790982       0.25134375 </v>
    <v>       0.74893192       0.25258540       0.99955592 </v>
    <v>       0.24837623       0.74838094       0.00026521 </v>
    <v>       0.24829828       0.25038676       0.50143018 </v>
    <v>       0.25165733       0.24963863       0.24981217 </v>
    <v>       0.25187758       0.00032220       0.99862973 </v>
    <v>       0.00008631       0.25129645       0.00015623 </v>
    <v>       0.74831060       0.24723527       0.24867662 </v>
    <v>       0.74825832       0.00194060       0.00055397 </v>
    <v>       0.50264231       0.00118650       0.24960023 </v>
    <v>       0.99989612       0.49860351       0.24860194 </v>
    <v>       0.49853458       0.75207337       0.00147589 </v>
    <v>       0.99928388       0.00018106       0.75050924 </v>
    <v>       0.75052743       0.24757602       0.75138833 </v>
    <v>       0.74806888       0.00146976       0.49935294 </v>
    <v>       0.49891694       0.24792767       0.49748108 </v>
    <v>       0.50080672       0.00014598       0.75036353 </v>
    <v>       0.99795033       0.00094604       0.25053419 </v>
    <v>       0.50023061       0.24799091       0.00220023 </v>
    <v>       0.25076503       0.75023598       0.24912448 </v>
    <v>       0.24860648       0.49960096       0.99906057 </v>
    <v>       0.00028883       0.74907800       0.99930668 </v>
    <v>       0.74946255       0.75119634       0.24939798 </v>
    <v>       0.75116919       0.49928388       0.00011354 </v>
    <v>       0.50092492       0.49901953       0.25074707 </v>
    <v>       0.24891817       0.24958831       0.75023374 </v>
    <v>       0.25104264       0.00097912       0.50096812 </v>
    <v>       0.00014784       0.24947111       0.49986185 </v>
    <v>       0.24911710       0.75038330       0.75085492 </v>
    <v>       0.25041630       0.49903632       0.50110275 </v>
    <v>       0.00007842       0.75048414       0.50059826 </v>
    <v>       0.00030530       0.49988218       0.75076070 </v>
    <v>       0.75087524       0.75079258       0.75063711 </v>
    <v>       0.74946520       0.49944164       0.49993496 </v>
    <v>       0.49986875       0.75067455       0.49910041 </v>
    <v>       0.49974580       0.50001588       0.74914833 </v>
    <v>       0.50010904       0.00100333       0.99944059 </v>
    <v>       0.99936735       0.50184424       0.99968037 </v>
    <v>       0.50017126       0.74704235       0.25167036 </v>
    <v>       0.24875000       0.99991268       0.74816777 </v>
    <v>       0.49840495       0.99803604       0.50058571 </v>
    <v>       0.75126434       0.99810468       0.74857093 </v>
    <v>       0.24967315       0.74965732       0.49977740 </v>
    <v>       0.99941608       0.75246152       0.25042608 </v>
    <v>       0.74782190       0.50280221       0.24984035 </v>
    <v>       0.00163647       0.00016407       0.49784491 </v>
    <v>       0.50057785       0.50257288       0.50025999 </v>
    <v>       0.74965413       0.50257293       0.75023785 </v>
    <v>       0.75052022       0.74738646       0.49999394 </v>
   </varray>
  </structure>
  <varray name="forces" >
   <v>       0.19910931       0.06374842       0.86586176 </v>
   <v>      -1.01713806       0.23623686      -0.47364668 </v>
   <v>       0.30006523      -0.39093615      -0.03796761 </v>
   <v>       0.30851533       0.55684230      -0.22621293 </v>
   <v>       0.23162134       0.56875818      -0.28111219 </v>
   <v>       0.13719774      -0.34987524      -0.44229399 </v>
   <v>       0.48090784      -0.77241800       0.38753985 </v>
   <v>       0.33412141      -0.59450645       0.38435530 </v>
   <v>      -0.86242388       0.40386424      -0.09694376 </v>
[...]
      </set>
     </set>
    </set>
   </array>
  </eigenvalues>
  <separator name="orbital magnetization" >
   <v name="MAGDIPOLOUT">      0.00000000      0.00000000      0.00000000</v>
  </separator>
  <dos>
   <i name="efermi">      7.76418747 </i>
   <total>
    <array>
     <dimension dim="1">gridpoints</dimension>
     <dimension dim="2">spin</dimension>
     <field>energy</field>
     <field>total</field>
     <field>integrated</field>
     <set>
      <set comment="spin 1">
       <r>   -30.4778     0.0000     0.0000 </r>
       <r>   -30.3337     0.0000     0.0000 </r>
       <r>   -30.1895     0.0000     0.0000 </r>
       <r>   -30.0453     0.0000     0.0000 </r>
       <r>   -29.9011     0.0000     0.0000 </r>
       <r>   -29.7570     0.0000     0.0000 </r>
       <r>   -29.6128     0.0000     0.0000 </r>
       <r>   -29.4686     0.0000     0.0000 </r>
       <r>   -29.3244     0.0000     0.0000 </r>
       <r>   -29.1803     0.0000     0.0000 </r>
       <r>   -29.0361     0.0000     0.0000 </r>
       <r>   -28.8919     0.0000     0.0000 </r>
       <r>   -28.7477     0.0058     0.0008 </r>
       <r>   -28.6036     1.5252     0.2207 </r>
       <r>   -28.4594    21.2023     3.2775 </r>
       <r>   -28.3152    61.4772    12.1409 </r>
       <r>   -28.1711    95.2980    25.8803 </r>
       <r>   -28.0269    63.3166    35.0089 </r>
       <r>   -27.8827     6.8366    35.9946 </r>
       <r>   -27.7385     0.0377    36.0000 </r>
       <r>   -27.5944     0.0000    36.0000 </r>
       <r>   -27.4502     0.0000    36.0000 </r>
       <r>   -27.3060     0.0000    36.0000 </r>
       <r>   -27.1618     0.0000    36.0000 </r>
       <r>   -27.0177     0.0000    36.0000 </r>
       <r>   -26.8735     0.0000    36.0000 </r>
       <r>   -26.7293     0.0003    36.0000 </r>
       <r>   -26.5851     0.2621    36.0378 </r>
       <r>   -26.4410     7.4758    37.1156 </r>
       <r>   -26.2968    30.9319    41.5752 </r>
       <r>   -26.1526    67.6242    51.3248 </r>
       <r>   -26.0085   106.5487    66.6863 </r>
       <r>   -25.8643    67.3740    76.3998 </r>
       <r>   -25.7201    10.8440    77.9633 </r>
       <r>   -25.5759     0.2546    78.0000 </r>
       <r>   -25.4318     0.0002    78.0000 </r>
       <r>   -25.2876     0.0000    78.0000 </r>
       <r>   -25.1434     0.0000    78.0000 </r>
       <r>   -24.9992     0.0000    78.0000 </r>
       <r>   -24.8551     0.0014    78.0002 </r>
       <r>   -24.7109     0.6724    78.0971 </r>
       <r>   -24.5667    13.7475    80.0792 </r>
       <r>   -24.4225    42.5513    86.2139 </r>
       <r>   -24.2784    40.8828    92.1082 </r>
       <r>   -24.1342    57.5218   100.4013 </r>
       <r>   -23.9900    52.2845   107.9393 </r>
       <r>   -23.8459    31.2737   112.4481 </r>
       <r>   -23.7017    10.4073   113.9486 </r>
       <r>   -23.5575     2.2943   114.2794 </r>
       <r>   -23.4133    17.0171   116.7328 </r>
       <r>   -23.2692    50.1312   123.9604 </r>
       <r>   -23.1250    45.7834   130.5611 </r>
       <r>   -22.9808    12.7028   132.3925 </r>
       <r>   -22.8366    29.1766   136.5990 </r>
       <r>   -22.6925    41.2822   142.5508 </r>
       <r>   -22.5483    40.1824   148.3440 </r>
       <r>   -22.4041    11.2764   149.9698 </r>
       <r>   -22.2599     0.2095   150.0000 </r>
       <r>   -22.1158     0.0001   150.0000 </r>
       <r>   -21.9716     0.0000   150.0000 </r>
       <r>   -21.8274     0.0000   150.0000 </r>
       <r>   -21.6833     0.0000   150.0000 </r>
       <r>   -21.5391     0.0000   150.0000 </r>
       <r>   -21.3949     0.0000   150.0000 </r>
       <r>   -21.2507     0.0000   150.0000 </r>
       <r>   -21.1066     0.0000   150.0000 </r>
       <r>   -20.9624     0.0000   150.0000 </r>
       <r>   -20.8182     0.0000   150.0000 </r>
       <r>   -20.6740     0.0000   150.0000 </r>
       <r>   -20.5299     0.0000   150.0000 </r>
       <r>   -20.3857     0.0000   150.0000 </r>
       <r>   -20.2415     0.0000   150.0000 </r>
       <r>   -20.0973     0.0000   150.0000 </r>
       <r>   -19.9532     0.0000   150.0000 </r>
       <r>   -19.8090     0.0000   150.0000 </r>
       <r>   -19.6648     0.0000   150.0000 </r>
       <r>   -19.5207     0.0000   150.0000 </r>
       <r>   -19.3765     0.0000   150.0000 </r>
       <r>   -19.2323     0.0000   150.0000 </r>
       <r>   -19.0881     0.0000   150.0000 </r>
       <r>   -18.9440     0.0000   150.0000 </r>
       <r>   -18.7998     0.0000   150.0000 </r>
       <r>   -18.6556     0.0000   150.0000 </r>
       <r>   -18.5114     0.0000   150.0000 </r>
       <r>   -18.3673     0.0000   150.0000 </r>
       <r>   -18.2231     0.0000   150.0000 </r>
       <r>   -18.0789     0.0000   150.0000 </r>
       <r>   -17.9347     0.0000   150.0000 </r>
       <r>   -17.7906     0.0000   150.0000 </r>
       <r>   -17.6464     0.0000   150.0000 </r>
       <r>   -17.5022     0.0000   150.0000 </r>
       <r>   -17.3581     0.0000   150.0000 </r>
       <r>   -17.2139     0.0000   150.0000 </r>
       <r>   -17.0697     0.0000   150.0000 </r>
       <r>   -16.9255     0.0000   150.0000 </r>
       <r>   -16.7814     0.0000   150.0000 </r>
       <r>   -16.6372     0.0000   150.0000 </r>
       <r>   -16.4930     0.0000   150.0000 </r>
       <r>   -16.3488     0.0000   150.0000 </r>
       <r>   -16.2047     0.0000   150.0000 </r>
       <r>   -16.0605     0.0000   150.0000 </r>
       <r>   -15.9163     0.0000   150.0000 </r>
       <r>   -15.7721     0.0000   150.0000 </r>
       <r>   -15.6280     0.0000   150.0000 </r>
       <r>   -15.4838     0.0000   150.0000 </r>
       <r>   -15.3396     0.0000   150.0000 </r>
       <r>   -15.1955     0.0000   150.0000 </r>
       <r>   -15.0513     0.0000   150.0000 </r>
       <r>   -14.9071     0.0000   150.0000 </r>
       <r>   -14.7629     0.0000   150.0000 </r>
       <r>   -14.6188     0.0000   150.0000 </r>
       <r>   -14.4746     0.0000   150.0000 </r>
       <r>   -14.3304     0.0000   150.0000 </r>
       <r>   -14.1862     0.0000   150.0000 </r>
       <r>   -14.0421     0.0000   150.0000 </r>
       <r>   -13.8979     0.0000   150.0000 </r>
       <r>   -13.7537     0.0000   150.0000 </r>
       <r>   -13.6095     0.0000   150.0000 </r>
       <r>   -13.4654     0.0000   150.0000 </r>
       <r>   -13.3212     0.0000   150.0000 </r>
       <r>   -13.1770     0.0000   150.0000 </r>
       <r>   -13.0329     0.0000   150.0000 </r>
       <r>   -12.8887     0.0000   150.0000 </r>
       <r>   -12.7445     0.0000   150.0000 </r>
       <r>   -12.6003     0.0000   150.0000 </r>
       <r>   -12.4562     0.0000   150.0000 </r>
       <r>   -12.3120     0.0000   150.0000 </r>
       <r>   -12.1678     0.0000   150.0000 </r>
       <r>   -12.0236     0.0000   150.0000 </r>
       <r>   -11.8795     0.0000   150.0000 </r>
       <r>   -11.7353     0.0000   150.0000 </r>
       <r>   -11.5911     0.0000   150.0000 </r>
       <r>   -11.4469     0.0000   150.0000 </r>
       <r>   -11.3028     0.0000   150.0000 </r>
       <r>   -11.1586     0.0000   150.0000 </r>
       <r>   -11.0144     0.0000   150.0000 </r>
       <r>   -10.8703     0.0000   150.0000 </r>
       <r>   -10.7261     0.0000   150.0000 </r>
       <r>   -10.5819     0.0000   150.0000 </r>
       <r>   -10.4377     0.0000   150.0000 </r>
       <r>   -10.2936     0.0000   150.0000 </r>
       <r>   -10.1494     0.0000   150.0000 </r>
       <r>   -10.0052     0.0000   150.0000 </r>
       <r>    -9.8610     0.0000   150.0000 </r>
       <r>    -9.7169     0.0000   150.0000 </r>
       <r>    -9.5727     0.0000   150.0000 </r>
       <r>    -9.4285     0.0000   150.0000 </r>
       <r>    -9.2843     0.0000   150.0000 </r>
       <r>    -9.1402     0.0000   150.0000 </r>
       <r>    -8.9960     0.0000   150.0000 </r>
       <r>    -8.8518     0.0000   150.0000 </r>
       <r>    -8.7077     0.0000   150.0000 </r>
       <r>    -8.5635     0.0000   150.0000 </r>
       <r>    -8.4193     0.0002   150.0000 </r>
       <r>    -8.2751     0.0706   150.0102 </r>
       <r>    -8.1310     1.6290   150.2451 </r>
       <r>    -7.9868     5.9274   151.0996 </r>
       <r>    -7.8426     5.5499   151.8998 </r>
       <r>    -7.6984     2.5427   152.2664 </r>
       <r>    -7.5543    11.7541   153.9610 </r>
       <r>    -7.4101    17.5595   156.4926 </r>
       <r>    -7.2659    24.1593   159.9757 </r>
       <r>    -7.1217    29.1729   164.1817 </r>
       <r>    -6.9776    34.1479   169.1049 </r>
       <r>    -6.8334    20.5847   172.0727 </r>
       <r>    -6.6892    18.0854   174.6801 </r>
       <r>    -6.5450     8.0246   175.8370 </r>
       <r>    -6.4009     1.1105   175.9971 </r>
       <r>    -6.2567     0.0200   176.0000 </r>
       <r>    -6.1125     0.0000   176.0000 </r>
       <r>    -5.9684     0.0000   176.0000 </r>
       <r>    -5.8242     0.0000   176.0000 </r>
       <r>    -5.6800     0.0000   176.0000 </r>
       <r>    -5.5358     0.0000   176.0000 </r>
       <r>    -5.3917     0.0000   176.0000 </r>
       <r>    -5.2475     0.0000   176.0000 </r>
       <r>    -5.1033     0.0000   176.0000 </r>
       <r>    -4.9591     0.0000   176.0000 </r>
       <r>    -4.8150     0.0135   176.0019 </r>
       <r>    -4.6708     0.6777   176.0997 </r>
       <r>    -4.5266     4.2363   176.7104 </r>
       <r>    -4.3824     6.5251   177.6512 </r>
       <r>    -4.2383     3.6859   178.1826 </r>
       <r>    -4.0941     9.0997   179.4945 </r>
       <r>    -3.9499    11.2335   181.1141 </r>
       <r>    -3.8058    17.0488   183.5721 </r>
       <r>    -3.6616    18.3613   186.2193 </r>
       <r>    -3.5174    21.5090   189.3203 </r>
       <r>    -3.3732    26.6789   193.1667 </r>
       <r>    -3.2291    22.4557   196.4042 </r>
       <r>    -3.0849    25.0131   200.0104 </r>
       <r>    -2.9407    23.6399   203.4187 </r>
       <r>    -2.7965    22.1399   206.6107 </r>
       <r>    -2.6524    20.3830   209.5493 </r>
       <r>    -2.5082    13.1782   211.4493 </r>
       <r>    -2.3640    10.6883   212.9902 </r>
       <r>    -2.2198     5.2790   213.7513 </r>
       <r>    -2.0757     1.4812   213.9649 </r>
       <r>    -1.9315     0.2379   213.9992 </r>
       <r>    -1.7873     0.0057   214.0000 </r>
       <r>    -1.6432     0.0000   214.0000 </r>
       <r>    -1.4990     0.0000   214.0000 </r>
       <r>    -1.3548     0.0000   214.0000 </r>
       <r>    -1.2106     0.0000   214.0000 </r>
       <r>    -1.0665     0.0000   214.0000 </r>
       <r>    -0.9223     0.0000   214.0000 </r>
       <r>    -0.7781     0.0000   214.0000 </r>
       <r>    -0.6339     0.0000   214.0000 </r>
       <r>    -0.4898     0.0000   214.0000 </r>
       <r>    -0.3456     0.0000   214.0000 </r>
       <r>    -0.2014     0.0000   214.0000 </r>
       <r>    -0.0572     0.0002   214.0000 </r>
       <r>     0.0869     0.0517   214.0075 </r>
       <r>     0.2311     0.6870   214.1065 </r>
       <r>     0.3753     1.4091   214.3097 </r>
       <r>     0.5194     4.3733   214.9402 </r>
       <r>     0.6636     9.4174   216.2979 </r>
       <r>     0.8078    10.3092   217.7842 </r>
       <r>     0.9520    11.2479   219.4059 </r>
       <r>     1.0961    13.8025   221.3958 </r>
       <r>     1.2403    14.9799   223.5555 </r>
       <r>     1.3845    22.6081   226.8150 </r>
       <r>     1.5287    30.0148   231.1423 </r>
       <r>     1.6728    38.2048   236.6505 </r>
       <r>     1.8170    28.5766   240.7705 </r>
       <r>     1.9612    23.2353   244.1204 </r>
       <r>     2.1054    29.7800   248.4138 </r>
       <r>     2.2495    38.3307   253.9401 </r>
       <r>     2.3937    36.3038   259.1741 </r>
       <r>     2.5379    37.1464   264.5297 </r>
       <r>     2.6820    43.7288   270.8342 </r>
       <r>     2.8262    53.3433   278.5249 </r>
       <r>     2.9704    61.6887   287.4187 </r>
       <r>     3.1146    66.1928   296.9620 </r>
       <r>     3.2587    67.3238   306.6683 </r>
       <r>     3.4029    69.2997   316.6594 </r>
       <r>     3.5471    67.5822   326.4030 </r>
       <r>     3.6913    64.7329   335.7357 </r>
       <r>     3.8354    63.4767   344.8874 </r>
       <r>     3.9796    60.7797   353.6502 </r>
       <r>     4.1238    53.8050   361.4075 </r>
       <r>     4.2680    50.7683   368.7269 </r>
       <r>     4.4121    40.2316   374.5272 </r>
       <r>     4.5563    37.4810   379.9310 </r>
       <r>     4.7005    30.6303   384.3471 </r>
       <r>     4.8446    26.0380   388.1010 </r>
       <r>     4.9888    29.1219   392.2996 </r>
       <r>     5.1330    26.0362   396.0534 </r>
       <r>     5.2772    21.5572   399.1613 </r>
       <r>     5.4213    16.4375   401.5312 </r>
       <r>     5.5655    15.3666   403.7466 </r>
       <r>     5.7097    12.3188   405.5227 </r>
       <r>     5.8539     5.6223   406.3333 </r>
       <r>     5.9980     9.2641   407.6689 </r>
       <r>     6.1422    13.3878   409.5991 </r>
       <r>     6.2864    15.6939   411.8617 </r>
       <r>     6.4306    20.1679   414.7694 </r>
       <r>     6.5747    19.0570   417.5169 </r>
       <r>     6.7189    13.4553   419.4568 </r>
       <r>     6.8631    12.7192   421.2905 </r>
       <r>     7.0072    17.9551   423.8792 </r>
       <r>     7.1514    16.8887   426.3141 </r>
       <r>     7.2956    16.1354   428.6404 </r>
       <r>     7.4398    18.6070   431.3230 </r>
       <r>     7.5839    16.9883   433.7723 </r>
       <r>     7.7281    17.1949   436.2513 </r>
       <r>     7.8723    22.3435   439.4727 </r>
       <r>     8.0165    25.8708   443.2025 </r>
       <r>     8.1606    28.0805   447.2510 </r>
       <r>     8.3048    29.1494   451.4536 </r>
       <r>     8.4490    32.4499   456.1320 </r>
       <r>     8.5932    37.3818   461.5214 </r>
       <r>     8.7373    38.6397   467.0922 </r>
       <r>     8.8815    41.4845   473.0732 </r>
       <r>     9.0257    45.2631   479.5990 </r>
       <r>     9.1698    44.8151   486.0601 </r>
       <r>     9.3140    45.9394   492.6833 </r>
       <r>     9.4582    50.8073   500.0084 </r>
       <r>     9.6024    51.9727   507.5015 </r>
       <r>     9.7465    51.9394   514.9897 </r>
       <r>     9.8907    51.9585   522.4808 </r>
       <r>    10.0349    49.6234   529.6351 </r>
       <r>    10.1791    47.9438   536.5474 </r>
       <r>    10.3232    48.1453   543.4886 </r>
       <r>    10.4674    49.5100   550.6267 </r>
       <r>    10.6116    39.2644   556.2875 </r>
       <r>    10.7558    19.2663   559.0652 </r>
       <r>    10.8999     6.1060   559.9455 </r>
       <r>    11.0441     0.3766   559.9998 </r>
       <r>    11.1883     0.0011   560.0000 </r>
       <r>    11.3324     0.0000   560.0000 </r>
       <r>    11.4766     0.0000   560.0000 </r>
       <r>    11.6208     0.0000   560.0000 </r>
       <r>    11.7650     0.0000   560.0000 </r>
       <r>    11.9091     0.0000   560.0000 </r>
       <r>    12.0533     0.0000   560.0000 </r>
       <r>    12.1975     0.0000   560.0000 </r>
       <r>    12.3417     0.0000   560.0000 </r>
       <r>    12.4858     0.0000   560.0000 </r>
       <r>    12.6300     0.0000   560.0000 </r>
       <r>    12.7742     0.0000   560.0000 </r>
      </set>
     </set>
    </array>
   </total>
  </dos>
 </calculation>
 <structure name="finalpos" >
  <crystal>
   <varray name="basis" >
    <v>       8.99477303       0.00681023      -0.00055470 </v>
    <v>       0.00679358       9.07069047      -0.00722552 </v>
    <v>      -0.00054857      -0.00722519       8.94936901 </v>
   </varray>
   <i name="volume">    730.16740932 </i>
   <varray name="rec_basis" >
    <v>       0.11117574      -0.00008326       0.00000675 </v>
    <v>      -0.00008346       0.11024532       0.00008900 </v>
    <v>       0.00000682       0.00008900       0.11173979 </v>
   </varray>
  </crystal>
  <varray name="positions" >
   <v>       0.99637821       0.99377619       0.00713935 </v>
   <v>       0.24009564       0.99350141       0.25166830 </v>
   <v>       0.26244131       0.50468213       0.24993451 </v>
   <v>       0.49913870       0.50066558       0.99880970 </v>
   <v>       0.49419794       0.26288290       0.74957289 </v>
   <v>       0.01302701       0.49739547       0.49113350 </v>
   <v>       0.50237742       0.73642108       0.74813300 </v>
   <v>       0.99635739       0.24100926       0.26056111 </v>
   <v>       0.75704468       0.74451852       0.00339091 </v>
   <v>       0.00375408       0.26839343       0.73907873 </v>
   <v>       0.75530356       0.27343861       0.50466653 </v>
   <v>       0.99498963       0.73180272       0.74142272 </v>
   <v>       0.25834835       0.50057833       0.74943211 </v>
   <v>       0.24604863       0.25137167       0.00250776 </v>
   <v>       0.50258966       0.25483090       0.25043736 </v>
   <v>       0.75518884       0.99525427       0.25779821 </v>
   <v>       0.75228875       0.25246902       0.99341867 </v>
   <v>       0.24530502       0.74998250       0.00054969 </v>
   <v>       0.25004350       0.25157166       0.49751464 </v>
   <v>       0.25209922       0.24834888       0.24984757 </v>
   <v>       0.24623061       0.00090568       0.00626555 </v>
   <v>       0.00020337       0.24582062       0.00146993 </v>
   <v>       0.74923766       0.24609108       0.25018572 </v>
   <v>       0.75523149       0.00343809       0.00085382 </v>
   <v>       0.50256533       0.00401602       0.24834602 </v>
   <v>       0.00438429       0.49542412       0.25857179 </v>
   <v>       0.49713714       0.74684003       0.99443828 </v>
   <v>       0.99712184       0.00219074       0.75515389 </v>
   <v>       0.74539616       0.24673083       0.74938746 </v>
   <v>       0.75072343       0.00890875       0.49744646 </v>
   <v>       0.50145021       0.24935201       0.50274847 </v>
   <v>       0.50335577       0.00005446       0.75062465 </v>
   <v>       0.00302391       0.00204287       0.24577826 </v>
   <v>       0.50035456       0.25333077       0.99627694 </v>
   <v>       0.24409409       0.75118758       0.24799816 </v>
   <v>       0.25428103       0.49980557       0.00514391 </v>
   <v>       0.99797754       0.75625878       0.00226142 </v>
   <v>       0.75483352       0.74315181       0.25161326 </v>
   <v>       0.74287855       0.50007468       0.00235687 </v>
   <v>       0.49518962       0.49848995       0.24737168 </v>
   <v>       0.25343113       0.25297312       0.74975740 </v>
   <v>       0.24643362       0.00300077       0.49233058 </v>
   <v>       0.00070765       0.25391653       0.50007187 </v>
   <v>       0.25162354       0.74693966       0.75248656 </v>
   <v>       0.25250997       0.49817049       0.49457056 </v>
   <v>       0.99389460       0.75140277       0.49831587 </v>
   <v>       0.99738950       0.49978172       0.74312849 </v>
   <v>       0.74496024       0.74262769       0.75005547 </v>
   <v>       0.75775780       0.50138626       0.49893641 </v>
   <v>       0.50524626       0.74383822       0.50788678 </v>
   <v>       0.50211936       0.49941300       0.75224456 </v>
   <v>       0.50097565       0.99959217       0.99570789 </v>
   <v>       0.99972585       0.50313402       0.01013882 </v>
   <v>       0.50012316       0.74569464       0.25041295 </v>
   <v>       0.24208322       0.99958342       0.75037013 </v>
   <v>       0.49464002       0.99525655       0.50346754 </v>
   <v>       0.75699518       0.99063342       0.74095027 </v>
   <v>       0.24696318       0.74816058       0.50026349 </v>
   <v>       0.99855218       0.77047223       0.25971623 </v>
   <v>       0.72843292       0.50613419       0.24028423 </v>
   <v>       0.01203897       0.00515403       0.48673801 </v>
   <v>       0.49901635       0.50643427       0.50190993 </v>
   <v>       0.73808564       0.50814496       0.76338718 </v>
   <v>       0.75360703       0.72114701       0.49555965 </v>
  </varray>
 </structure>
</modeling>
