  64  64   0   0
  0.1153890E+02  0.9031530E-09  0.9071330E-09  0.9014085E-09  0.5000000E-15
  1.000000000000000E-004
  CAR 
 HECN                                    
     14.87387334    -49.99227249  301      8.75273368      1.00000000
    -49.992  0.0000E+00  0.0000E+00
    -49.776  0.0000E+00  0.0000E+00
    -49.560  0.0000E+00  0.0000E+00
    -49.344  0.0000E+00  0.0000E+00
    -49.127  0.0000E+00  0.0000E+00
    -48.911  0.0000E+00  0.0000E+00
    -48.695  0.0000E+00  0.0000E+00
    -48.479  0.0000E+00  0.0000E+00
    -48.263  0.0000E+00  0.0000E+00
    -48.046  0.0000E+00  0.0000E+00
    -47.830  0.0000E+00  0.0000E+00
    -47.614  0.3594E-16  0.7772E-17
    -47.398  0.3073E-07  0.6644E-08
    -47.181  0.4210E-02  0.9103E-03
    -46.965  0.3147E+00  0.6896E-01
    -46.749  0.2244E+00  0.1175E+00
    -46.533  0.1166E-01  0.1200E+00
    -46.317  0.1160E-05  0.1200E+00
    -46.100  0.1639E-13  0.1200E+00
    -45.884  0.0000E+00  0.1200E+00
    -45.668  0.0000E+00  0.1200E+00
    -45.452  0.0000E+00  0.1200E+00
    -45.235  0.0000E+00  0.1200E+00
    -45.019  0.0000E+00  0.1200E+00
    -44.803  0.0000E+00  0.1200E+00
    -44.587  0.0000E+00  0.1200E+00
    -44.371  0.0000E+00  0.1200E+00
    -44.154  0.0000E+00  0.1200E+00
    -43.938  0.0000E+00  0.1200E+00
    -43.722  0.0000E+00  0.1200E+00
    -43.506  0.0000E+00  0.1200E+00
    -43.289  0.0000E+00  0.1200E+00
    -43.073  0.0000E+00  0.1200E+00
    -42.857  0.0000E+00  0.1200E+00
    -42.641  0.0000E+00  0.1200E+00
    -42.425  0.0000E+00  0.1200E+00
    -42.208  0.0000E+00  0.1200E+00
    -41.992  0.0000E+00  0.1200E+00
    -41.776  0.0000E+00  0.1200E+00
    -41.560  0.0000E+00  0.1200E+00
    -41.343  0.0000E+00  0.1200E+00
    -41.127  0.3723E-14  0.1200E+00
    -40.911  0.4744E-06  0.1200E+00
    -40.695  0.8129E-02  0.1218E+00
    -40.479  0.8037E-01  0.1391E+00
    -40.262  0.6384E-01  0.1529E+00
    -40.046  0.3253E+00  0.2233E+00
    -39.830  0.1652E+00  0.2590E+00
    -39.614  0.4608E-02  0.2600E+00
    -39.397  0.9978E-07  0.2600E+00
    -39.181  0.2875E-15  0.2600E+00
    -38.965  0.0000E+00  0.2600E+00
    -38.749  0.0000E+00  0.2600E+00
    -38.533  0.0000E+00  0.2600E+00
    -38.316  0.0000E+00  0.2600E+00
    -38.100  0.0000E+00  0.2600E+00
    -37.884  0.0000E+00  0.2600E+00
    -37.668  0.0000E+00  0.2600E+00
    -37.451  0.0000E+00  0.2600E+00
    -37.235  0.0000E+00  0.2600E+00
    -37.019  0.0000E+00  0.2600E+00
    -36.803  0.0000E+00  0.2600E+00
    -36.587  0.0000E+00  0.2600E+00
    -36.370  0.0000E+00  0.2600E+00
    -36.154  0.0000E+00  0.2600E+00
    -35.938  0.0000E+00  0.2600E+00
    -35.722  0.0000E+00  0.2600E+00
    -35.505  0.0000E+00  0.2600E+00
    -35.289  0.0000E+00  0.2600E+00
    -35.073  0.0000E+00  0.2600E+00
    -34.857  0.0000E+00  0.2600E+00
    -34.641  0.0000E+00  0.2600E+00
    -34.424  0.0000E+00  0.2600E+00
    -34.208  0.0000E+00  0.2600E+00
    -33.992  0.0000E+00  0.2600E+00
    -33.776  0.0000E+00  0.2600E+00
    -33.560  0.0000E+00  0.2600E+00
    -33.343  0.0000E+00  0.2600E+00
    -33.127  0.0000E+00  0.2600E+00
    -32.911  0.0000E+00  0.2600E+00
    -32.695  0.0000E+00  0.2600E+00
    -32.478  0.0000E+00  0.2600E+00
    -32.262  0.0000E+00  0.2600E+00
    -32.046  0.0000E+00  0.2600E+00
    -31.830  0.0000E+00  0.2600E+00
    -31.614  0.0000E+00  0.2600E+00
    -31.397  0.6110E-15  0.2600E+00
    -31.181  0.1568E-06  0.2600E+00
    -30.965  0.5196E-02  0.2611E+00
    -30.749  0.1027E+00  0.2833E+00
    -30.532  0.6186E+00  0.4171E+00
    -30.316  0.8069E+00  0.5916E+00
    -30.100  0.1314E+00  0.6200E+00
    -29.884  0.1458E-03  0.6200E+00
    -29.668  0.6344E-10  0.6200E+00
    -29.451  0.0000E+00  0.6200E+00
    -29.235  0.0000E+00  0.6200E+00
    -29.019  0.0000E+00  0.6200E+00
    -28.803  0.0000E+00  0.6200E+00
    -28.586  0.0000E+00  0.6200E+00
    -28.370  0.0000E+00  0.6200E+00
    -28.154  0.0000E+00  0.6200E+00
    -27.938  0.0000E+00  0.6200E+00
    -27.722  0.0000E+00  0.6200E+00
    -27.505  0.2759E-08  0.6200E+00
    -27.289  0.8630E-03  0.6202E+00
    -27.073  0.1321E+00  0.6488E+00
    -26.857  0.5332E+00  0.7640E+00
    -26.640  0.4716E+00  0.8660E+00
    -26.424  0.3914E+00  0.9506E+00
    -26.208  0.1354E+00  0.9799E+00
    -25.992  0.3680E-03  0.9800E+00
    -25.776  0.3088E-09  0.9800E+00
    -25.559  0.0000E+00  0.9800E+00
    -25.343  0.0000E+00  0.9800E+00
    -25.127  0.0000E+00  0.9800E+00
    -24.911  0.0000E+00  0.9800E+00
    -24.694  0.0000E+00  0.9800E+00
    -24.478  0.0000E+00  0.9800E+00
    -24.262  0.0000E+00  0.9800E+00
    -24.046  0.0000E+00  0.9800E+00
    -23.830  0.1973E-10  0.9800E+00
    -23.613  0.7325E-04  0.9800E+00
    -23.397  0.7608E-01  0.9965E+00
    -23.181  0.5689E+00  0.1119E+01
    -22.965  0.7513E+00  0.1282E+01
    -22.748  0.2717E+00  0.1341E+01
    -22.532  0.1921E+00  0.1382E+01
    -22.316  0.5042E+00  0.1491E+01
    -22.100  0.1637E+00  0.1527E+01
    -21.884  0.5960E+00  0.1655E+01
    -21.667  0.2103E+00  0.1701E+01
    -21.451  0.2212E+00  0.1749E+01
    -21.235  0.5193E-01  0.1760E+01
    -21.019  0.1329E-04  0.1760E+01
    -20.803  0.5838E-12  0.1760E+01
    -20.586  0.0000E+00  0.1760E+01
    -20.370  0.0000E+00  0.1760E+01
    -20.154  0.0000E+00  0.1760E+01
    -19.938  0.0000E+00  0.1760E+01
    -19.721  0.0000E+00  0.1760E+01
    -19.505  0.2054E-16  0.1760E+01
    -19.289  0.2222E-07  0.1760E+01
    -19.073  0.3198E-02  0.1761E+01
    -18.857  0.2059E+00  0.1805E+01
    -18.640  0.1955E+00  0.1847E+01
    -18.424  0.7713E+00  0.2014E+01
    -18.208  0.5661E+00  0.2137E+01
    -17.992  0.1864E+00  0.2177E+01
    -17.775  0.1408E-01  0.2180E+01
    -17.559  0.1911E-05  0.2180E+01
    -17.343  0.3808E-13  0.2180E+01
    -17.127  0.0000E+00  0.2180E+01
    -16.911  0.0000E+00  0.2180E+01
    -16.694  0.0000E+00  0.2180E+01
    -16.478  0.0000E+00  0.2180E+01
    -16.262  0.0000E+00  0.2180E+01
    -16.046  0.0000E+00  0.2180E+01
    -15.829  0.0000E+00  0.2180E+01
    -15.613  0.0000E+00  0.2180E+01
    -15.397  0.0000E+00  0.2180E+01
    -15.181  0.0000E+00  0.2180E+01
    -14.965  0.0000E+00  0.2180E+01
    -14.748  0.0000E+00  0.2180E+01
    -14.532  0.0000E+00  0.2180E+01
    -14.316  0.0000E+00  0.2180E+01
    -14.100  0.0000E+00  0.2180E+01
    -13.883  0.0000E+00  0.2180E+01
    -13.667  0.0000E+00  0.2180E+01
    -13.451  0.0000E+00  0.2180E+01
    -13.235  0.0000E+00  0.2180E+01
    -13.019  0.0000E+00  0.2180E+01
    -12.802  0.0000E+00  0.2180E+01
    -12.586  0.0000E+00  0.2180E+01
    -12.370  0.0000E+00  0.2180E+01
    -12.154  0.0000E+00  0.2180E+01
    -11.937  0.0000E+00  0.2180E+01
    -11.721  0.0000E+00  0.2180E+01
    -11.505  0.0000E+00  0.2180E+01
    -11.289  0.0000E+00  0.2180E+01
    -11.073  0.0000E+00  0.2180E+01
    -10.856  0.0000E+00  0.2180E+01
    -10.640  0.0000E+00  0.2180E+01
    -10.424  0.0000E+00  0.2180E+01
    -10.208  0.0000E+00  0.2180E+01
     -9.991  0.0000E+00  0.2180E+01
     -9.775  0.0000E+00  0.2180E+01
     -9.559  0.0000E+00  0.2180E+01
     -9.343  0.0000E+00  0.2180E+01
     -9.127  0.0000E+00  0.2180E+01
     -8.910  0.0000E+00  0.2180E+01
     -8.694  0.0000E+00  0.2180E+01
     -8.478  0.0000E+00  0.2180E+01
     -8.262  0.3053E-11  0.2180E+01
     -8.045  0.6880E-05  0.2180E+01
     -7.829  0.6069E-02  0.2181E+01
     -7.613  0.6027E-01  0.2194E+01
     -7.397  0.7675E-01  0.2211E+01
     -7.181  0.6252E-01  0.2224E+01
     -6.964  0.1166E+00  0.2250E+01
     -6.748  0.1508E+00  0.2282E+01
     -6.532  0.1725E+00  0.2320E+01
     -6.316  0.2606E+00  0.2376E+01
     -6.100  0.2845E+00  0.2437E+01
     -5.883  0.1188E-01  0.2440E+01
     -5.667  0.8220E-06  0.2440E+01
     -5.451  0.9937E-14  0.2440E+01
     -5.235  0.0000E+00  0.2440E+01
     -5.018  0.0000E+00  0.2440E+01
     -4.802  0.0000E+00  0.2440E+01
     -4.586  0.9273E-10  0.2440E+01
     -4.370  0.5979E-04  0.2440E+01
     -4.154  0.2169E-01  0.2445E+01
     -3.937  0.6785E-01  0.2459E+01
     -3.721  0.5281E-02  0.2461E+01
     -3.505  0.7668E-01  0.2477E+01
     -3.289  0.1165E+00  0.2502E+01
     -3.072  0.1977E+00  0.2545E+01
     -2.856  0.2015E+00  0.2589E+01
     -2.640  0.2405E+00  0.2641E+01
     -2.424  0.2425E+00  0.2693E+01
     -2.208  0.1936E+00  0.2735E+01
     -1.991  0.1809E+00  0.2774E+01
     -1.775  0.1157E+00  0.2799E+01
     -1.559  0.8010E-01  0.2816E+01
     -1.343  0.1630E-01  0.2820E+01
     -1.126  0.6567E-03  0.2820E+01
     -0.910  0.5112E-07  0.2820E+01
     -0.694  0.6561E-15  0.2820E+01
     -0.478  0.0000E+00  0.2820E+01
     -0.262  0.0000E+00  0.2820E+01
     -0.045  0.9520E-14  0.2820E+01
      0.171  0.2733E-06  0.2820E+01
      0.387  0.1404E-02  0.2820E+01
      0.603  0.1025E-01  0.2823E+01
      0.820  0.5188E-01  0.2834E+01
      1.036  0.1023E+00  0.2856E+01
      1.252  0.1177E+00  0.2881E+01
      1.468  0.1288E+00  0.2909E+01
      1.684  0.1902E+00  0.2950E+01
      1.901  0.2475E+00  0.3004E+01
      2.117  0.2407E+00  0.3056E+01
      2.333  0.2559E+00  0.3111E+01
      2.549  0.2830E+00  0.3172E+01
      2.766  0.3219E+00  0.3242E+01
      2.982  0.3303E+00  0.3313E+01
      3.198  0.4016E+00  0.3400E+01
      3.414  0.4687E+00  0.3502E+01
      3.630  0.5476E+00  0.3620E+01
      3.847  0.6311E+00  0.3756E+01
      4.063  0.6659E+00  0.3900E+01
      4.279  0.6453E+00  0.4040E+01
      4.495  0.6041E+00  0.4171E+01
      4.712  0.5455E+00  0.4289E+01
      4.928  0.4685E+00  0.4390E+01
      5.144  0.3948E+00  0.4475E+01
      5.360  0.3254E+00  0.4546E+01
      5.576  0.2425E+00  0.4598E+01
      5.793  0.2313E+00  0.4648E+01
      6.009  0.1728E+00  0.4685E+01
      6.225  0.1674E+00  0.4722E+01
      6.441  0.8346E-01  0.4740E+01
      6.657  0.7941E-01  0.4757E+01
      6.874  0.1708E+00  0.4794E+01
      7.090  0.1452E+00  0.4825E+01
      7.306  0.1427E+00  0.4856E+01
      7.522  0.1434E+00  0.4887E+01
      7.739  0.1577E+00  0.4921E+01
      7.955  0.1543E+00  0.4954E+01
      8.171  0.1760E+00  0.4992E+01
      8.387  0.1822E+00  0.5032E+01
      8.603  0.2175E+00  0.5079E+01
      8.820  0.2046E+00  0.5123E+01
      9.036  0.1830E+00  0.5163E+01
      9.252  0.2266E+00  0.5212E+01
      9.468  0.2718E+00  0.5270E+01
      9.685  0.2906E+00  0.5333E+01
      9.901  0.3255E+00  0.5404E+01
     10.117  0.3838E+00  0.5487E+01
     10.333  0.3755E+00  0.5568E+01
     10.549  0.3666E+00  0.5647E+01
     10.766  0.4108E+00  0.5736E+01
     10.982  0.4282E+00  0.5828E+01
     11.198  0.4389E+00  0.5923E+01
     11.414  0.4640E+00  0.6024E+01
     11.631  0.4033E+00  0.6111E+01
     11.847  0.1897E+00  0.6152E+01
     12.063  0.3694E-01  0.6160E+01
     12.279  0.2873E-03  0.6160E+01
     12.495  0.2131E-08  0.6160E+01
     12.712  0.3043E-17  0.6160E+01
     12.928  0.0000E+00  0.6160E+01
     13.144  0.0000E+00  0.6160E+01
     13.360  0.0000E+00  0.6160E+01
     13.577  0.0000E+00  0.6160E+01
     13.793  0.0000E+00  0.6160E+01
     14.009  0.0000E+00  0.6160E+01
     14.225  0.0000E+00  0.6160E+01
     14.441  0.0000E+00  0.6160E+01
     14.658  0.0000E+00  0.6160E+01
     14.874  0.0000E+00  0.6160E+01
