  64  64   0   0
  0.1129557E+02  0.8932500E-09  0.9055600E-09  0.8937200E-09  0.5000000E-15
  1.000000000000000E-004
  CAR 
 HECN                                    
     14.44275421    -51.75431626  301      8.99769245      1.00000000
    -51.754  0.0000E+00  0.0000E+00
    -51.534  0.0000E+00  0.0000E+00
    -51.313  0.0000E+00  0.0000E+00
    -51.092  0.0000E+00  0.0000E+00
    -50.872  0.0000E+00  0.0000E+00
    -50.651  0.0000E+00  0.0000E+00
    -50.430  0.0000E+00  0.0000E+00
    -50.210  0.0000E+00  0.0000E+00
    -49.989  0.0000E+00  0.0000E+00
    -49.768  0.0000E+00  0.0000E+00
    -49.548  0.0000E+00  0.0000E+00
    -49.327  0.1006E-16  0.2220E-17
    -49.106  0.1487E-07  0.3281E-08
    -48.886  0.2137E-02  0.4715E-03
    -48.665  0.1090E+00  0.2452E-01
    -48.444  0.2194E+00  0.7293E-01
    -48.224  0.2417E+00  0.1263E+00
    -48.003  0.6204E-01  0.1400E+00
    -47.782  0.1966E-03  0.1400E+00
    -47.562  0.1054E-09  0.1400E+00
    -47.341  0.3048E-05  0.1400E+00
    -47.121  0.1916E-01  0.1442E+00
    -46.900  0.1715E+00  0.1821E+00
    -46.679  0.1927E+00  0.2246E+00
    -46.459  0.1386E+00  0.2552E+00
    -46.238  0.2180E-01  0.2600E+00
    -46.017  0.5631E-05  0.2600E+00
    -45.797  0.1562E-12  0.2600E+00
    -45.576  0.0000E+00  0.2600E+00
    -45.355  0.0000E+00  0.2600E+00
    -45.135  0.0000E+00  0.2600E+00
    -44.914  0.0000E+00  0.2600E+00
    -44.693  0.0000E+00  0.2600E+00
    -44.473  0.0000E+00  0.2600E+00
    -44.252  0.0000E+00  0.2600E+00
    -44.031  0.0000E+00  0.2600E+00
    -43.811  0.0000E+00  0.2600E+00
    -43.590  0.0000E+00  0.2600E+00
    -43.369  0.0000E+00  0.2600E+00
    -43.149  0.0000E+00  0.2600E+00
    -42.928  0.0000E+00  0.2600E+00
    -42.707  0.0000E+00  0.2600E+00
    -42.487  0.0000E+00  0.2600E+00
    -42.266  0.0000E+00  0.2600E+00
    -42.045  0.0000E+00  0.2600E+00
    -41.825  0.0000E+00  0.2600E+00
    -41.604  0.0000E+00  0.2600E+00
    -41.383  0.0000E+00  0.2600E+00
    -41.163  0.0000E+00  0.2600E+00
    -40.942  0.0000E+00  0.2600E+00
    -40.721  0.0000E+00  0.2600E+00
    -40.501  0.0000E+00  0.2600E+00
    -40.280  0.0000E+00  0.2600E+00
    -40.060  0.0000E+00  0.2600E+00
    -39.839  0.0000E+00  0.2600E+00
    -39.618  0.0000E+00  0.2600E+00
    -39.398  0.0000E+00  0.2600E+00
    -39.177  0.0000E+00  0.2600E+00
    -38.956  0.0000E+00  0.2600E+00
    -38.736  0.0000E+00  0.2600E+00
    -38.515  0.0000E+00  0.2600E+00
    -38.294  0.0000E+00  0.2600E+00
    -38.074  0.0000E+00  0.2600E+00
    -37.853  0.0000E+00  0.2600E+00
    -37.632  0.0000E+00  0.2600E+00
    -37.412  0.0000E+00  0.2600E+00
    -37.191  0.0000E+00  0.2600E+00
    -36.970  0.0000E+00  0.2600E+00
    -36.750  0.0000E+00  0.2600E+00
    -36.529  0.0000E+00  0.2600E+00
    -36.308  0.0000E+00  0.2600E+00
    -36.088  0.0000E+00  0.2600E+00
    -35.867  0.0000E+00  0.2600E+00
    -35.646  0.0000E+00  0.2600E+00
    -35.426  0.8050E-16  0.2600E+00
    -35.205  0.6078E-07  0.2600E+00
    -34.984  0.3934E-02  0.2609E+00
    -34.764  0.1130E+00  0.2858E+00
    -34.543  0.8125E+00  0.4651E+00
    -34.322  0.6798E+00  0.6151E+00
    -34.102  0.2227E-01  0.6200E+00
    -33.881  0.2117E-05  0.6200E+00
    -33.660  0.2781E-13  0.6200E+00
    -33.440  0.0000E+00  0.6200E+00
    -33.219  0.0000E+00  0.6200E+00
    -32.998  0.0000E+00  0.6200E+00
    -32.778  0.0000E+00  0.6200E+00
    -32.557  0.0000E+00  0.6200E+00
    -32.337  0.0000E+00  0.6200E+00
    -32.116  0.0000E+00  0.6200E+00
    -31.895  0.0000E+00  0.6200E+00
    -31.675  0.0000E+00  0.6200E+00
    -31.454  0.0000E+00  0.6200E+00
    -31.233  0.0000E+00  0.6200E+00
    -31.013  0.0000E+00  0.6200E+00
    -30.792  0.2028E-08  0.6200E+00
    -30.571  0.1261E-02  0.6203E+00
    -30.351  0.2534E+00  0.6762E+00
    -30.130  0.8950E+00  0.8737E+00
    -29.909  0.4472E+00  0.9724E+00
    -29.689  0.3460E-01  0.9800E+00
    -29.468  0.7145E-05  0.9800E+00
    -29.247  0.2207E-12  0.9800E+00
    -29.027  0.0000E+00  0.9800E+00
    -28.806  0.0000E+00  0.9800E+00
    -28.585  0.0000E+00  0.9800E+00
    -28.365  0.0000E+00  0.9800E+00
    -28.144  0.0000E+00  0.9800E+00
    -27.923  0.0000E+00  0.9800E+00
    -27.703  0.0000E+00  0.9800E+00
    -27.482  0.0000E+00  0.9800E+00
    -27.261  0.0000E+00  0.9800E+00
    -27.041  0.0000E+00  0.9800E+00
    -26.820  0.0000E+00  0.9800E+00
    -26.599  0.0000E+00  0.9800E+00
    -26.379  0.0000E+00  0.9800E+00
    -26.158  0.0000E+00  0.9800E+00
    -25.937  0.0000E+00  0.9800E+00
    -25.717  0.4503E-14  0.9800E+00
    -25.496  0.7496E-06  0.9800E+00
    -25.275  0.1507E-01  0.9833E+00
    -25.055  0.3308E+00  0.1056E+01
    -24.834  0.5895E+00  0.1186E+01
    -24.614  0.7672E+00  0.1356E+01
    -24.393  0.1999E+00  0.1400E+01
    -24.172  0.8907E-03  0.1400E+01
    -23.952  0.1345E-08  0.1400E+01
    -23.731  0.4530E-07  0.1400E+01
    -23.510  0.3500E-02  0.1401E+01
    -23.290  0.1402E+00  0.1432E+01
    -23.069  0.4268E+00  0.1526E+01
    -22.848  0.6204E+00  0.1663E+01
    -22.628  0.3229E+00  0.1734E+01
    -22.407  0.1174E+00  0.1760E+01
    -22.186  0.7766E-02  0.1762E+01
    -21.966  0.1941E+00  0.1804E+01
    -21.745  0.2294E+00  0.1855E+01
    -21.524  0.7264E+00  0.2015E+01
    -21.304  0.6006E+00  0.2148E+01
    -21.083  0.1395E+00  0.2179E+01
    -20.862  0.6024E-02  0.2180E+01
    -20.642  0.1704E-06  0.2180E+01
    -20.421  0.4346E-15  0.2180E+01
    -20.200  0.0000E+00  0.2180E+01
    -19.980  0.0000E+00  0.2180E+01
    -19.759  0.0000E+00  0.2180E+01
    -19.538  0.0000E+00  0.2180E+01
    -19.318  0.0000E+00  0.2180E+01
    -19.097  0.0000E+00  0.2180E+01
    -18.876  0.0000E+00  0.2180E+01
    -18.656  0.0000E+00  0.2180E+01
    -18.435  0.0000E+00  0.2180E+01
    -18.214  0.0000E+00  0.2180E+01
    -17.994  0.0000E+00  0.2180E+01
    -17.773  0.0000E+00  0.2180E+01
    -17.552  0.0000E+00  0.2180E+01
    -17.332  0.0000E+00  0.2180E+01
    -17.111  0.0000E+00  0.2180E+01
    -16.891  0.0000E+00  0.2180E+01
    -16.670  0.0000E+00  0.2180E+01
    -16.449  0.0000E+00  0.2180E+01
    -16.229  0.0000E+00  0.2180E+01
    -16.008  0.0000E+00  0.2180E+01
    -15.787  0.0000E+00  0.2180E+01
    -15.567  0.0000E+00  0.2180E+01
    -15.346  0.0000E+00  0.2180E+01
    -15.125  0.0000E+00  0.2180E+01
    -14.905  0.0000E+00  0.2180E+01
    -14.684  0.0000E+00  0.2180E+01
    -14.463  0.0000E+00  0.2180E+01
    -14.243  0.0000E+00  0.2180E+01
    -14.022  0.0000E+00  0.2180E+01
    -13.801  0.0000E+00  0.2180E+01
    -13.581  0.0000E+00  0.2180E+01
    -13.360  0.0000E+00  0.2180E+01
    -13.139  0.0000E+00  0.2180E+01
    -12.919  0.0000E+00  0.2180E+01
    -12.698  0.0000E+00  0.2180E+01
    -12.477  0.0000E+00  0.2180E+01
    -12.257  0.0000E+00  0.2180E+01
    -12.036  0.0000E+00  0.2180E+01
    -11.815  0.0000E+00  0.2180E+01
    -11.595  0.0000E+00  0.2180E+01
    -11.374  0.0000E+00  0.2180E+01
    -11.153  0.0000E+00  0.2180E+01
    -10.933  0.0000E+00  0.2180E+01
    -10.712  0.0000E+00  0.2180E+01
    -10.491  0.0000E+00  0.2180E+01
    -10.271  0.0000E+00  0.2180E+01
    -10.050  0.0000E+00  0.2180E+01
     -9.830  0.0000E+00  0.2180E+01
     -9.609  0.0000E+00  0.2180E+01
     -9.388  0.0000E+00  0.2180E+01
     -9.168  0.0000E+00  0.2180E+01
     -8.947  0.0000E+00  0.2180E+01
     -8.726  0.0000E+00  0.2180E+01
     -8.506  0.0000E+00  0.2180E+01
     -8.285  0.0000E+00  0.2180E+01
     -8.064  0.0000E+00  0.2180E+01
     -7.844  0.4924E-14  0.2180E+01
     -7.623  0.2059E-06  0.2180E+01
     -7.402  0.1684E-02  0.2180E+01
     -7.182  0.5135E-01  0.2192E+01
     -6.961  0.7632E-01  0.2209E+01
     -6.740  0.7776E-01  0.2226E+01
     -6.520  0.1413E+00  0.2257E+01
     -6.299  0.8366E-01  0.2275E+01
     -6.078  0.1889E+00  0.2317E+01
     -5.858  0.2256E+00  0.2367E+01
     -5.637  0.2128E+00  0.2414E+01
     -5.416  0.1104E+00  0.2438E+01
     -5.196  0.8545E-02  0.2440E+01
     -4.975  0.4226E-06  0.2440E+01
     -4.754  0.1991E-14  0.2440E+01
     -4.534  0.1451E-08  0.2440E+01
     -4.313  0.2013E-03  0.2440E+01
     -4.092  0.2295E-01  0.2445E+01
     -3.872  0.6047E-01  0.2458E+01
     -3.651  0.1362E-01  0.2461E+01
     -3.430  0.7764E-01  0.2479E+01
     -3.210  0.7752E-01  0.2496E+01
     -2.989  0.1293E+00  0.2524E+01
     -2.768  0.1845E+00  0.2565E+01
     -2.548  0.1972E+00  0.2608E+01
     -2.327  0.2362E+00  0.2661E+01
     -2.107  0.2114E+00  0.2707E+01
     -1.886  0.1723E+00  0.2745E+01
     -1.665  0.1484E+00  0.2778E+01
     -1.445  0.1208E+00  0.2805E+01
     -1.224  0.5455E-01  0.2817E+01
     -1.003  0.1499E-01  0.2820E+01
     -0.783  0.2399E-03  0.2820E+01
     -0.562  0.3854E-08  0.2820E+01
     -0.341  0.6709E-17  0.2820E+01
     -0.121  0.0000E+00  0.2820E+01
      0.100  0.0000E+00  0.2820E+01
      0.321  0.3350E-13  0.2820E+01
      0.541  0.7084E-06  0.2820E+01
      0.762  0.1824E-02  0.2820E+01
      0.983  0.6676E-02  0.2822E+01
      1.203  0.4086E-01  0.2831E+01
      1.424  0.8338E-01  0.2849E+01
      1.645  0.9301E-01  0.2870E+01
      1.865  0.1535E+00  0.2904E+01
      2.086  0.1708E+00  0.2941E+01
      2.307  0.2636E+00  0.3000E+01
      2.527  0.2877E+00  0.3063E+01
      2.748  0.2740E+00  0.3123E+01
      2.969  0.2847E+00  0.3186E+01
      3.189  0.3355E+00  0.3260E+01
      3.410  0.3637E+00  0.3341E+01
      3.631  0.4075E+00  0.3431E+01
      3.851  0.4978E+00  0.3540E+01
      4.072  0.5772E+00  0.3668E+01
      4.293  0.6087E+00  0.3802E+01
      4.513  0.6014E+00  0.3935E+01
      4.734  0.5970E+00  0.4066E+01
      4.955  0.5495E+00  0.4188E+01
      5.175  0.4941E+00  0.4297E+01
      5.396  0.4375E+00  0.4393E+01
      5.616  0.3673E+00  0.4474E+01
      5.837  0.3037E+00  0.4541E+01
      6.058  0.2769E+00  0.4602E+01
      6.278  0.2459E+00  0.4657E+01
      6.499  0.1646E+00  0.4693E+01
      6.720  0.1504E+00  0.4726E+01
      6.940  0.7026E-01  0.4742E+01
      7.161  0.1191E+00  0.4768E+01
      7.382  0.1565E+00  0.4802E+01
      7.602  0.1621E+00  0.4838E+01
      7.823  0.2172E+00  0.4886E+01
      8.044  0.2286E+00  0.4937E+01
      8.264  0.1832E+00  0.4977E+01
      8.485  0.2421E+00  0.5030E+01
      8.706  0.2913E+00  0.5095E+01
      8.926  0.2675E+00  0.5154E+01
      9.147  0.2459E+00  0.5208E+01
      9.368  0.3005E+00  0.5274E+01
      9.588  0.3947E+00  0.5361E+01
      9.809  0.4282E+00  0.5456E+01
     10.030  0.4734E+00  0.5560E+01
     10.250  0.5079E+00  0.5672E+01
     10.471  0.5141E+00  0.5786E+01
     10.692  0.5188E+00  0.5900E+01
     10.912  0.5039E+00  0.6012E+01
     11.133  0.5113E+00  0.6124E+01
     11.354  0.4330E+00  0.6220E+01
     11.574  0.9058E-01  0.6240E+01
     11.795  0.4028E-03  0.6240E+01
     12.016  0.1475E-08  0.6240E+01
     12.236  0.0000E+00  0.6240E+01
     12.457  0.0000E+00  0.6240E+01
     12.677  0.0000E+00  0.6240E+01
     12.898  0.0000E+00  0.6240E+01
     13.119  0.0000E+00  0.6240E+01
     13.339  0.0000E+00  0.6240E+01
     13.560  0.0000E+00  0.6240E+01
     13.781  0.0000E+00  0.6240E+01
     14.001  0.0000E+00  0.6240E+01
     14.222  0.0000E+00  0.6240E+01
     14.443  0.0000E+00  0.6240E+01
