 vasp.6.4.3 19Mar24 (build Sep 18 2024 11:30:23) complex                        
  
 executed on             LinuxIFC date 2026.07.07  16:46:00
 running   28 mpi-ranks, on    1 nodes
 distrk:  each k-point on   28 cores,    1 groups
 distr:  one band on NCORE=   1 cores,   28 groups


--------------------------------------------------------------------------------------------------------


 INCAR:
   SYSTEM = HECN
   ISTART = 0
   ICHARG = 2
   PREC = Normal
   LREAL = .F.
   IBRION = 2
   ISIF = 3
   NSW = 100
   POTIM = 0.5
   EDIFFG = -0.01
   ENCUT = 400
   NELM = 60
   EDIFF = 1E-5
   LCHARG = .F.
   LWAVE = .F.
   ISMEAR = 0
   SIGMA = 0.1
   ALGO = Fast

 POTCAR:   PAW_PBE Mo_pv 08Apr2002                
 -----------------------------------------------------------------------------
|                                                                             |
|           W    W    AA    RRRRR   N    N  II  N    N   GGGG   !!!           |
|           W    W   A  A   R    R  NN   N  II  NN   N  G    G  !!!           |
|           W    W  A    A  R    R  N N  N  II  N N  N  G       !!!           |
|           W WW W  AAAAAA  RRRRR   N  N N  II  N  N N  G  GGG   !            |
|           WW  WW  A    A  R   R   N   NN  II  N   NN  G    G                |
|           W    W  A    A  R    R  N    N  II  N    N   GGGG   !!!           |
|                                                                             |
|     For optimal performance we recommend to set                             |
|       NCORE = 2 up to number-of-cores-per-socket                            |
|     NCORE specifies how many cores store one orbital (NPAR=cpu/NCORE).      |
|     This setting can greatly improve the performance of VASP for DFT.       |
|     The default, NCORE=1 might be grossly inefficient on modern             |
|     multi-core architectures or massively parallel machines. Do your        |
|     own testing! More info at https://www.vasp.at/wiki/index.php/NCORE      |
|     Unfortunately you need to use the default for GW and RPA                |
|     calculations (for HF NCORE is supported but not extensively tested      |
|     yet).                                                                   |
|                                                                             |
 -----------------------------------------------------------------------------

 POTCAR:   PAW_PBE Mo_pv 08Apr2002                
   VRHFIN =Mo: 4p5s4d                                                                               
   LEXCH  = PE                                                                                      
   EATOM  =  1284.3009 eV,   94.3935 Ry                                                             
                                                                                                    
   TITEL  = PAW_PBE Mo_pv 08Apr2002                                                                 
   LULTRA =        F    use ultrasoft PP ?                                                          
   IUNSCR =        1    unscreen: 0-lin 1-nonlin 2-no                                               
   RPACOR =    2.200    partial core radius                                                         
   POMASS =   95.940; ZVAL   =   12.000    mass and valenz                                          
   RCORE  =    2.600    outmost cutoff radius                                                       
   RWIGS  =    2.750; RWIGS  =    1.455    wigner-seitz radius (au A)                               
   ENMAX  =  224.584; ENMIN  =  168.438 eV                                                          
   RCLOC  =    1.902    cutoff for local pot                                                        
   LCOR   =        T    correct aug charges                                                         
   LPAW   =        T    paw PP                                                                      
   EAUG   =  392.427                                                                                
   DEXC   =    -.006                                                                                
   RMAX   =    3.077    core radius for proj-oper                                                   
   RAUG   =    1.300    factor for augmentation sphere                                              
   RDEP   =    2.641    radius for radial grids                                                     
   QCUT   =   -4.063; QGAM   =    8.126    optimization parameters                                  
                                                                                                    
   Description                                                                                      
     l     E      TYP  RCUT    TYP  RCUT                                                            
     1   .000     23  2.500                                                                         
     1  -.200     23  2.500                                                                         
     2   .000     23  2.500                                                                         
     2   .000     23  2.500                                                                         
     0   .000     23  2.600                                                                         
     0  1.000     23  2.600                                                                         
     3   .000      7   .000                                                                         
  local pseudopotential read in
  partial core-charges read in
  atomic valenz-charges read in
  non local Contribution for L=           1  read in
    real space projection operators read in
  non local Contribution for L=           1  read in
    real space projection operators read in
  non local Contribution for L=           2  read in
    real space projection operators read in
  non local Contribution for L=           2  read in
    real space projection operators read in
  non local Contribution for L=           0  read in
    real space projection operators read in
  non local Contribution for L=           0  read in
    real space projection operators read in
    PAW grid and wavefunctions read in
 
   number of l-projection  operators is LMAX  =           6
   number of lm-projection operators is LMMAX =          18
 
 PAW_PBE Mo_pv 08Apr2002                :
 energy of atom  1       EATOM=-1284.3009
 kinetic energy error for atom=    0.0049 (will be added to EATOM!!)
 
 
 POSCAR: Mo
  positions in direct lattice
  No initial velocities read in


 exchange-correlation table for PE
   RHO(1)=    0.500       N(1)  =     2000
   RHO(2)=  100.500       N(2)  =     4000
 


--------------------------------------------------------------------------------------------------------


 ion  position               nearest neighbor table
   1  0.000  0.000  0.000-   2 2.73   2 2.73   2 2.73   2 2.73   2 2.73   2 2.73   2 2.73   2 2.73

   2  0.500  0.500  0.500-   1 2.73   1 2.73   1 2.73   1 2.73   1 2.73   1 2.73   1 2.73   1 2.73

 
  LATTYP: Found a simple cubic cell.
 ALAT       =     3.1468999386
  
  Lattice vectors:
  
 A1 = (   3.1468999386,   0.0000000000,   0.0000000000)
 A2 = (   0.0000000000,   3.1468999386,   0.0000000000)
 A3 = (   0.0000000000,   0.0000000000,   3.1468999386)


Analysis of symmetry for initial positions (statically):
=====================================================================
 Subroutine PRICEL returns following result:
 
  LATTYP: Found a body centered cubic cell.
 ALAT       =     3.1468999386
  
  Lattice vectors:
  
 A1 = (   1.5734499693,   1.5734499693,  -1.5734499693)
 A2 = (  -1.5734499693,   1.5734499693,   1.5734499693)
 A3 = (   1.5734499693,  -1.5734499693,   1.5734499693)
 
   2 primitive cells build up your supercell.
 

 Routine SETGRP: Setting up the symmetry group for a 
 simple cubic supercell.


 Subroutine GETGRP returns: Found 48 space group operations
 (whereof 48 operations were pure point group operations)
 out of a pool of 48 trial point group operations.


The static configuration has the point symmetry O_h .


Analysis of symmetry for dynamics (positions and initial velocities):
=====================================================================
 Subroutine PRICEL returns following result:
 
  LATTYP: Found a body centered cubic cell.
 ALAT       =     3.1468999386
  
  Lattice vectors:
  
 A1 = (   1.5734499693,   1.5734499693,  -1.5734499693)
 A2 = (  -1.5734499693,   1.5734499693,   1.5734499693)
 A3 = (   1.5734499693,  -1.5734499693,   1.5734499693)
 
   2 primitive cells build up your supercell.
 

 Routine SETGRP: Setting up the symmetry group for a 
 simple cubic supercell.


 Subroutine GETGRP returns: Found 48 space group operations
 (whereof 48 operations were pure point group operations)
 out of a pool of 48 trial point group operations.


The dynamic configuration has the point symmetry O_h .


 Subroutine INISYM returns: Found 48 space group operations
 (whereof 48 operations are pure point group operations),
 and found     2 'primitive' translations


----------------------------------------------------------------------------------------

                                     Primitive cell                                     

  volume of cell :      15.5818

  direct lattice vectors                    reciprocal lattice vectors
     1.573449969  1.573449969 -1.573449969     0.317773053  0.317773053 -0.000000000
    -1.573449969  1.573449969  1.573449969    -0.000000000  0.317773053  0.317773053
     1.573449969 -1.573449969  1.573449969     0.317773053 -0.000000000  0.317773053

  length of vectors
     2.725295290  2.725295290  2.725295290     0.449398961  0.449398961  0.449398961

  position of ions in fractional coordinates (direct lattice)
     0.000000000  0.000000000  0.000000000

  ion indices of the primitive-cell ions
   primitive index   ion index
                 1           1

----------------------------------------------------------------------------------------

 
 
 KPOINTS: HECN                                    

Automatic generation of k-mesh.
 Grid dimensions read from file:
 generate k-points for:    3    3    3

 Generating k-lattice:

  Cartesian coordinates                     Fractional coordinates (reciprocal lattice)
     0.105924351  0.000000000  0.000000000     0.333333333  0.000000000  0.000000000
     0.000000000  0.105924351  0.000000000     0.000000000  0.333333333  0.000000000
     0.000000000  0.000000000  0.105924351     0.000000000  0.000000000  0.333333333

  Length of vectors
     0.105924351  0.105924351  0.105924351

  Shift w.r.t. Gamma in fractional coordinates (k-lattice)
     0.000000000  0.000000000  0.000000000

 
 Subroutine IBZKPT returns following result:
 ===========================================
 
 Found      4 irreducible k-points:
 
 Following reciprocal coordinates:
            Coordinates               Weight
  0.000000  0.000000  0.000000      1.000000
  0.333333  0.000000  0.000000      6.000000
  0.333333  0.333333  0.000000     12.000000
  0.333333  0.333333  0.333333      8.000000
 
 Following cartesian coordinates:
            Coordinates               Weight
  0.000000  0.000000  0.000000      1.000000
  0.105924  0.000000  0.000000      6.000000
  0.105924  0.105924  0.000000     12.000000
  0.105924  0.105924  0.105924      8.000000
 


--------------------------------------------------------------------------------------------------------




 Dimension of arrays:
   k-points           NKPTS =      4   k-points in BZ     NKDIM =      4   number of bands    NBANDS=     28
   number of dos      NEDOS =    301   number of ions     NIONS =      2
   non local maximal  LDIM  =      6   non local SUM 2l+1 LMDIM =     18
   total plane-waves  NPLWV =   4096
   max r-space proj   IRMAX =      1   max aug-charges    IRDMAX=   7163
   dimension x,y,z NGX =    16 NGY =   16 NGZ =   16
   dimension x,y,z NGXF=    32 NGYF=   32 NGZF=   32
   support grid    NGXF=    32 NGYF=   32 NGZF=   32
   ions per type =               2
   NGX,Y,Z   is equivalent  to a cutoff of   8.45,  8.45,  8.45 a.u.
   NGXF,Y,Z  is equivalent  to a cutoff of  16.91, 16.91, 16.91 a.u.

 SYSTEM =  HECN                                    
 POSCAR =  Mo                                      

 Startparameter for this run:
   NWRITE =      2    write-flag & timer
   PREC   = normal    normal or accurate (medium, high low for compatibility)
   ISTART =      0    job   : 0-new  1-cont  2-samecut
   ICHARG =      2    charge: 1-file 2-atom 10-const
   ISPIN  =      1    spin polarized calculation?
   LNONCOLLINEAR =      F non collinear calculations
   LSORBIT =      F    spin-orbit coupling
   INIWAV =      1    electr: 0-lowe 1-rand  2-diag
   LASPH  =      F    aspherical Exc in radial PAW
 Electronic Relaxation 1
   ENCUT  =  400.0 eV  29.40 Ry    5.42 a.u.   5.13  5.13  5.13*2*pi/ulx,y,z
   ENINI  =  400.0     initial cutoff
   ENAUG  =  392.4 eV  augmentation charge cutoff
   NELM   =     60;   NELMIN=  2; NELMDL= -5     # of ELM steps 
   EDIFF  = 0.1E-04   stopping-criterion for ELM
   LREAL  =      F    real-space projection
   NLSPLINE    = F    spline interpolate recip. space projectors
   LCOMPAT=      F    compatible to vasp.4.4
   GGA_COMPAT  = T    GGA compatible to vasp.4.4-vasp.4.6
   LMAXPAW     = -100 max onsite density
   LMAXMIX     =    2 max onsite mixed and CHGCAR
   VOSKOWN=      0    Vosko Wilk Nusair interpolation
   ROPT   =    0.00000
 Ionic relaxation
   EDIFFG = -.1E-01   stopping-criterion for IOM
   NSW    =    100    number of steps for IOM
   NBLOCK =      1;   KBLOCK =    100    inner block; outer block 
   IBRION =      2    ionic relax: 0-MD 1-quasi-New 2-CG
   NFREE  =      1    steps in history (QN), initial steepest desc. (CG)
   ISIF   =      3    stress and relaxation
   IWAVPR =     11    prediction:  0-non 1-charg 2-wave 3-comb
   ISYM   =      2    0-nonsym 1-usesym 2-fastsym
   LCORR  =      T    Harris-Foulkes like correction to forces

   POTIM  = 0.5000    time-step for ionic-motion
   TEIN   =    0.0    initial temperature
   TEBEG  =    0.0;   TEEND  =   0.0 temperature during run
   SMASS  =  -3.00    Nose mass-parameter (am)
   estimated Nose-frequenzy (Omega)   =  0.10E-29 period in steps = 0.13E+47 mass=  -0.226E-27a.u.
   SCALEE = 1.0000    scale energy and forces
   NPACO  =    256;   APACO  = 10.0  distance and # of slots for P.C.
   PSTRESS=    0.0 pullay stress

  Mass of Ions in am
   POMASS =  95.94
  Ionic Valenz
   ZVAL   =  12.00
  Atomic Wigner-Seitz radii
   RWIGS  =  -1.00
  virtual crystal weights 
   VCA    =   1.00
   NELECT =      24.0000    total number of electrons
   NUPDOWN=      -1.0000    fix difference up-down

 DOS related values:
   EMIN   =  10.00;   EMAX   =-10.00  energy-range for DOS
   EFERMI =   0.00;   METHOD = LEGACY      
   ISMEAR =     0;   SIGMA  =   0.10  broadening in eV -4-tet -1-fermi 0-gaus

 Electronic relaxation 2 (details)
   IALGO  =     68    algorithm
   LDIAG  =      T    sub-space diagonalisation (order eigenvalues)
   LSUBROT=      F    optimize rotation matrix (better conditioning)
   TURBO    =      0    0=normal 1=particle mesh
   IRESTART =      0    0=no restart 2=restart with 2 vectors
   NREBOOT  =      0    no. of reboots
   NMIN     =      0    reboot dimension
   EREF     =   0.00    reference energy to select bands
   IMIX   =      4    mixing-type and parameters
     AMIX     =   0.40;   BMIX     =  1.00
     AMIX_MAG =   1.60;   BMIX_MAG =  1.00
     AMIN     =   0.10
     WC   =   100.;   INIMIX=   1;  MIXPRE=   1;  MAXMIX= -45

 Intra band minimization:
   WEIMIN = 0.0010     energy-eigenvalue tresh-hold
   EBREAK =  0.89E-07  absolut break condition
   DEPER  =   0.30     relativ break condition  

   TIME   =   0.40     timestep for ELM

  volume/ion in A,a.u.               =      15.58       105.15
  Fermi-wavevector in a.u.,A,eV,Ry     =   1.500591  2.835706 30.637233  2.251773
  Thomas-Fermi vector in A             =   2.612071
 
 Write flags
   LWAVE        =      F    write WAVECAR
   LDOWNSAMPLE  =      F    k-point downsampling of WAVECAR
   LCHARG       =      F    write CHGCAR
   LVTOT        =      F    write LOCPOT, total local potential
   LVHAR        =      F    write LOCPOT, Hartree potential only
   WRT_POTENTIAL= false  ! write potential to hdf5 file
   LELF         =      F    write electronic localiz. function (ELF)
   LORBIT       =      0    0 simple, 1 ext, 2 COOP (PROOUT), +10 PAW based schemes


 Dipole corrections
   LMONO      =      F    monopole corrections only (constant potential shift)
   LDIPOL     =      F    correct potential (dipole corrections)
   IDIPOL     =      0    1-x, 2-y, 3-z, 4-all directions 
   EPSILON    =  1.0000000 bulk dielectric constant
   LVACPOTAV  =      F  vacuum potentials using an averaging scheme for the charge density
   VACPOTFLAT =  0.1000000 required flatness to determine vacuum potential
 Exchange correlation treatment:
   GGA     = PE    functional components
   XC_C    = 1    coefficients multiplying the functional components
   LIBXC   =     F    Libxc                    
   VOSKOWN =     0    Vosko Wilk Nusair interpolation
   LHFCALC =     F    Hartree Fock is set to
   LHFONE  =     F    Hartree Fock one center treatment
   AEXX    =    0.0000 exact exchange contribution

 Parameters of functionals:
   PE:
     No parameter
 
 Van der Waals corrections
   IVDW    =     0    specifies the selected vdW correction

 Linear response parameters
   LEPSILON=     F    determine dielectric tensor
   LRPA    =     F    only Hartree local field effects (RPA)
   LNABLA  =     F    use nabla operator in PAW spheres
   LVEL    =     F    velocity operator in full k-point grid
   CSHIFT  =0.1000    complex shift for real part using Kramers Kronig
   OMEGAMAX=  -1.0    maximum frequency
   DEG_THRESHOLD= 0.2000000E-02 threshold for treating states as degnerate
   RTIME   =   -0.100 relaxation time in fs
  (WPLASMAI=    0.000 imaginary part of plasma frequency in eV, 0.658/RTIME)
   DFIELD  = 0.0000000 0.0000000 0.0000000 field for delta impulse in time
 
  Optional k-point grid parameters
   LKPOINTS_OPT  =     F    use optional k-point grid
   KPOINTS_OPT_MODE=     1    mode for optional k-point grid
 
 Orbital magnetization related:
   ORBITALMAG=     F  switch on orbital magnetization
   LCHIMAG   =     F  perturbation theory with respect to B field
   DQ        =  0.001000  dq finite difference perturbation B field
   LLRAUG    =     F  two centre corrections for induced B field
   LBONE     =     F  B-component reconstruction in AE one-centre
   LVGVCALC  =     T  calculate vGv susceptibility
   LVGVAPPL  =     F  apply vGv susceptibility instead of pGv for G=0

 Random number generation:
   RANDOM_GENERATOR = DEFAULT
   PCG_SEED         = not used


--------------------------------------------------------------------------------------------------------


 conjugate gradient relaxation of ions
 charge density and potential will be updated during run
 non-spin polarized calculation
 RMM-DIIS sequential band-by-band and
  variant of blocked Davidson during initial phase
 perform sub-space diagonalisation
    before iterative eigenvector-optimisation
 modified Broyden-mixing scheme, WC =      100.0
 initial mixing is a Kerker type mixing with AMIX =  0.4000 and BMIX =      1.0000
 Hartree-type preconditioning will be used
 using additional bands           16
 reciprocal scheme for non local part
 use partial core corrections
 calculate Harris-corrections to forces 
   (improved forces if not selfconsistent)
 use gradient corrections 
 use of overlap-Matrix (Vanderbilt PP)
 Gauss-broadening in eV      SIGMA  =   0.10


--------------------------------------------------------------------------------------------------------


  energy-cutoff  :      400.00
  volume of cell :       31.16
      direct lattice vectors                 reciprocal lattice vectors
     3.146899939  0.000000000  0.000000000     0.317773053  0.000000000  0.000000000
     0.000000000  3.146899939  0.000000000     0.000000000  0.317773053  0.000000000
     0.000000000  0.000000000  3.146899939     0.000000000  0.000000000  0.317773053

  length of vectors
     3.146899939  3.146899939  3.146899939     0.317773053  0.317773053  0.317773053


 
 k-points in units of 2pi/SCALE and weight: HECN                                    
   0.00000000  0.00000000  0.00000000       0.037
   0.10592435  0.00000000  0.00000000       0.222
   0.10592435  0.10592435  0.00000000       0.444
   0.10592435  0.10592435  0.10592435       0.296
 
 k-points in reciprocal lattice and weights: HECN                                    
   0.00000000  0.00000000  0.00000000       0.037
   0.33333333  0.00000000  0.00000000       0.222
   0.33333333  0.33333333  0.00000000       0.444
   0.33333333  0.33333333  0.33333333       0.296
 
 position of ions in fractional coordinates (direct lattice) 
   0.00000000  0.00000000  0.00000000
   0.50000000  0.50000000  0.50000000
 
 position of ions in cartesian coordinates  (Angst):
   0.00000000  0.00000000  0.00000000
   1.57344997  1.57344997  1.57344997
 


--------------------------------------------------------------------------------------------------------


 k-point     1 :   0.0000 0.0000 0.0000  plane waves:     587
 k-point     2 :   0.3333 0.0000 0.0000  plane waves:     554
 k-point     3 :   0.3333 0.3333 0.0000  plane waves:     571
 k-point     4 :   0.3333 0.3333 0.3333  plane waves:     582

 maximum and minimum number of plane-waves per node :       587      554

 maximum number of plane-waves:       587
 maximum index in each direction: 
   IXMAX=    5   IYMAX=    5   IZMAX=    5
   IXMIN=   -5   IYMIN=   -5   IZMIN=   -5


 serial   3D FFT for wavefunctions
 parallel 3D FFT for charge:
    minimum data exchange during FFTs selected (reduces bandwidth)


 total amount of memory used by VASP MPI-rank0    30785. kBytes
=======================================================================

   base      :      30000. kBytes
   nonl-proj :        357. kBytes
   fftplans  :         86. kBytes
   grid      :        270. kBytes
   one-center:         31. kBytes
   wavefun   :         41. kBytes
 
     INWAV:  cpu time      0.0000: real time      0.0000
 Broyden mixing: mesh for mixing (old mesh)
   NGX = 11   NGY = 11   NGZ = 11
  (NGX  = 32   NGY  = 32   NGZ  = 32)
  gives a total of   1331 points

 initial charge density was supplied:
 charge density of overlapping atoms calculated
 number of electron      24.0000000 magnetization 
 keeping initial charge density in first step


--------------------------------------------------------------------------------------------------------


 Maximum index for augmentation-charges          814 (set IRDMAX)


--------------------------------------------------------------------------------------------------------


 First call to EWALD:  gamma=   0.563
 Maximum number of real-space cells 3x 3x 3
 Maximum number of reciprocal cells 3x 3x 3

    FEWALD:  cpu time      0.0011: real time      0.0016


--------------------------------------- Ionic step        1  -------------------------------------------




--------------------------------------- Iteration      1(   1)  ---------------------------------------


    POTLOK:  cpu time      0.0062: real time      0.0155
    SETDIJ:  cpu time      0.0027: real time      0.0043
     EDDAV:  cpu time      0.0340: real time      0.0407
       DOS:  cpu time      0.0011: real time      0.0037
    --------------------------------------------
      LOOP:  cpu time      0.0441: real time      0.0642

 eigenvalue-minimisations  :   224
 total energy-change (2. order) : 0.2789586E+02  (-0.1317411E+04)
 number of electron      24.0000000 magnetization 
 augmentation part       24.0000000 magnetization 

 Free energy of the ion-electron system (eV)
  ---------------------------------------------------
  alpha Z        PSCENC =       263.35262201
  Ewald energy   TEWEN  =     -2397.97995971
  -Hartree energ DENC   =      -351.56674812
  -exchange      EXHF   =         0.00000000
  -V(xc)+E(xc)   XCENC  =        75.47337879
  PAW double counting   =      1791.35723434    -1752.26985979
  entropy T*S    EENTRO =        -0.00014397
  eigenvalues    EBANDS =      -169.06263233
  atomic energy  EATOM  =      2568.59197227
  Solvation  Ediel_sol  =         0.00000000
  ---------------------------------------------------
  free energy    TOTEN  =        27.89586348 eV

  energy without entropy =       27.89600745  energy(sigma->0) =       27.89593546


--------------------------------------------------------------------------------------------------------




--------------------------------------- Iteration      1(   2)  ---------------------------------------


     EDDAV:  cpu time      0.0720: real time      0.3872
       DOS:  cpu time      0.0002: real time      0.0002
    --------------------------------------------
      LOOP:  cpu time      0.0722: real time      0.3874

 eigenvalue-minimisations  :   336
 total energy-change (2. order) :-0.5071196E+02  (-0.5071167E+02)
 number of electron      24.0000000 magnetization 
 augmentation part       24.0000000 magnetization 

 Free energy of the ion-electron system (eV)
  ---------------------------------------------------
  alpha Z        PSCENC =       263.35262201
  Ewald energy   TEWEN  =     -2397.97995971
  -Hartree energ DENC   =      -351.56674812
  -exchange      EXHF   =         0.00000000
  -V(xc)+E(xc)   XCENC  =        75.47337879
  PAW double counting   =      1791.35723434    -1752.26985979
  entropy T*S    EENTRO =        -0.00000000
  eigenvalues    EBANDS =      -219.77473161
  atomic energy  EATOM  =      2568.59197227
  Solvation  Ediel_sol  =         0.00000000
  ---------------------------------------------------
  free energy    TOTEN  =       -22.81609183 eV

  energy without entropy =      -22.81609183  energy(sigma->0) =      -22.81609183


--------------------------------------------------------------------------------------------------------




--------------------------------------- Iteration      1(   3)  ---------------------------------------


     EDDAV:  cpu time      0.0237: real time      0.0244
       DOS:  cpu time      0.0002: real time      0.0002
    --------------------------------------------
      LOOP:  cpu time      0.0239: real time      0.0246

 eigenvalue-minimisations  :   224
 total energy-change (2. order) :-0.1497430E+00  (-0.1497430E+00)
 number of electron      24.0000000 magnetization 
 augmentation part       24.0000000 magnetization 

 Free energy of the ion-electron system (eV)
  ---------------------------------------------------
  alpha Z        PSCENC =       263.35262201
  Ewald energy   TEWEN  =     -2397.97995971
  -Hartree energ DENC   =      -351.56674812
  -exchange      EXHF   =         0.00000000
  -V(xc)+E(xc)   XCENC  =        75.47337879
  PAW double counting   =      1791.35723434    -1752.26985979
  entropy T*S    EENTRO =        -0.00000000
  eigenvalues    EBANDS =      -219.92447463
  atomic energy  EATOM  =      2568.59197227
  Solvation  Ediel_sol  =         0.00000000
  ---------------------------------------------------
  free energy    TOTEN  =       -22.96583485 eV

  energy without entropy =      -22.96583485  energy(sigma->0) =      -22.96583485


--------------------------------------------------------------------------------------------------------




--------------------------------------- Iteration      1(   4)  ---------------------------------------


     EDDAV:  cpu time      0.0488: real time      0.0503
       DOS:  cpu time      0.0002: real time      0.0002
    --------------------------------------------
      LOOP:  cpu time      0.0490: real time      0.0505

 eigenvalue-minimisations  :   336
 total energy-change (2. order) :-0.7323149E-04  (-0.7323057E-04)
 number of electron      24.0000000 magnetization 
 augmentation part       24.0000000 magnetization 

 Free energy of the ion-electron system (eV)
  ---------------------------------------------------
  alpha Z        PSCENC =       263.35262201
  Ewald energy   TEWEN  =     -2397.97995971
  -Hartree energ DENC   =      -351.56674812
  -exchange      EXHF   =         0.00000000
  -V(xc)+E(xc)   XCENC  =        75.47337879
  PAW double counting   =      1791.35723434    -1752.26985979
  entropy T*S    EENTRO =        -0.00000000
  eigenvalues    EBANDS =      -219.92454786
  atomic energy  EATOM  =      2568.59197227
  Solvation  Ediel_sol  =         0.00000000
  ---------------------------------------------------
  free energy    TOTEN  =       -22.96590808 eV

  energy without entropy =      -22.96590808  energy(sigma->0) =      -22.96590808


--------------------------------------------------------------------------------------------------------




--------------------------------------- Iteration      1(   5)  ---------------------------------------


     EDDAV:  cpu time      0.0551: real time      0.0603
       DOS:  cpu time      0.0002: real time      0.0002
    CHARGE:  cpu time      0.0047: real time      0.0183
    MIXING:  cpu time      0.0016: real time      0.0067
    --------------------------------------------
      LOOP:  cpu time      0.0617: real time      0.0856

 eigenvalue-minimisations  :   224
 total energy-change (2. order) :-0.3087507E-07  (-0.3085519E-07)
 number of electron      23.9999911 magnetization 
 augmentation part        8.8313604 magnetization 

 Broyden mixing:
  rms(total) = 0.64691E+00    rms(broyden)= 0.64690E+00
  rms(prec ) = 0.20256E+01
  weight for this iteration     100.00

 Free energy of the ion-electron system (eV)
  ---------------------------------------------------
  alpha Z        PSCENC =       263.35262201
  Ewald energy   TEWEN  =     -2397.97995971
  -Hartree energ DENC   =      -351.56674812
  -exchange      EXHF   =         0.00000000
  -V(xc)+E(xc)   XCENC  =        75.47337879
  PAW double counting   =      1791.35723434    -1752.26985979
  entropy T*S    EENTRO =        -0.00000000
  eigenvalues    EBANDS =      -219.92454789
  atomic energy  EATOM  =      2568.59197227
  Solvation  Ediel_sol  =         0.00000000
  ---------------------------------------------------
  free energy    TOTEN  =       -22.96590811 eV

  energy without entropy =      -22.96590811  energy(sigma->0) =      -22.96590811


--------------------------------------------------------------------------------------------------------




--------------------------------------- Iteration      1(   6)  ---------------------------------------


    POTLOK:  cpu time      0.0029: real time      0.0031
    SETDIJ:  cpu time      0.0023: real time      0.0023
    EDDIAG:  cpu time      0.0211: real time      0.0300
  RMM-DIIS:  cpu time      0.0017: real time      0.0051
    ORTHCH:  cpu time      0.0018: real time      0.0018
       DOS:  cpu time      0.0002: real time      0.0002
    CHARGE:  cpu time      0.0019: real time      0.0019
    MIXING:  cpu time      0.0008: real time      0.0015
    --------------------------------------------
      LOOP:  cpu time      0.0327: real time      0.0458

 eigenvalue-minimisations  :   224
 total energy-change (2. order) : 0.1221066E+01  (-0.8078885E-01)
 number of electron      23.9999909 magnetization 
 augmentation part        9.0377520 magnetization 

 Broyden mixing:
  rms(total) = 0.28337E+00    rms(broyden)= 0.28337E+00
  rms(prec ) = 0.87374E+00
  weight for this iteration     100.00

 eigenvalues of (default mixing * dielectric matrix)
  average eigenvalue GAMMA=   1.7365
  1.7365

 Free energy of the ion-electron system (eV)
  ---------------------------------------------------
  alpha Z        PSCENC =       263.35262201
  Ewald energy   TEWEN  =     -2397.97995971
  -Hartree energ DENC   =      -324.70776100
  -exchange      EXHF   =         0.00000000
  -V(xc)+E(xc)   XCENC  =        74.13044267
  PAW double counting   =      1806.09097981    -1772.69094817
  entropy T*S    EENTRO =        -0.00000192
  eigenvalues    EBANDS =      -238.53218811
  atomic energy  EATOM  =      2568.59197227
  Solvation  Ediel_sol  =         0.00000000
  ---------------------------------------------------
  free energy    TOTEN  =       -21.74484216 eV

  energy without entropy =      -21.74484024  energy(sigma->0) =      -21.74484120


--------------------------------------------------------------------------------------------------------




--------------------------------------- Iteration      1(   7)  ---------------------------------------


    POTLOK:  cpu time      0.0024: real time      0.0024
    SETDIJ:  cpu time      0.0016: real time      0.0016
    EDDIAG:  cpu time      0.0092: real time      0.0092
  RMM-DIIS:  cpu time      0.0009: real time      0.0009
    ORTHCH:  cpu time      0.0010: real time      0.0010
       DOS:  cpu time      0.0002: real time      0.0002
    CHARGE:  cpu time      0.0012: real time      0.0012
    MIXING:  cpu time      0.0002: real time      0.0002
    --------------------------------------------
      LOOP:  cpu time      0.0167: real time      0.0167

 eigenvalue-minimisations  :   224
 total energy-change (2. order) : 0.2692500E+00  (-0.5608217E-01)
 number of electron      23.9999907 magnetization 
 augmentation part        9.1909854 magnetization 

 Broyden mixing:
  rms(total) = 0.48385E-01    rms(broyden)= 0.48383E-01
  rms(prec ) = 0.94429E-01
  weight for this iteration     100.00

 eigenvalues of (default mixing * dielectric matrix)
  average eigenvalue GAMMA=   2.1398
  1.8126  2.4669

 Free energy of the ion-electron system (eV)
  ---------------------------------------------------
  alpha Z        PSCENC =       263.35262201
  Ewald energy   TEWEN  =     -2397.97995971
  -Hartree energ DENC   =      -305.79192342
  -exchange      EXHF   =         0.00000000
  -V(xc)+E(xc)   XCENC  =        73.19412761
  PAW double counting   =      1847.09230529    -1818.45216995
  entropy T*S    EENTRO =        -0.00214149
  eigenvalues    EBANDS =      -251.48042473
  atomic energy  EATOM  =      2568.59197227
  Solvation  Ediel_sol  =         0.00000000
  ---------------------------------------------------
  free energy    TOTEN  =       -21.47559213 eV

  energy without entropy =      -21.47345064  energy(sigma->0) =      -21.47452138


--------------------------------------------------------------------------------------------------------




--------------------------------------- Iteration      1(   8)  ---------------------------------------


    POTLOK:  cpu time      0.0018: real time      0.0021
    SETDIJ:  cpu time      0.0012: real time      0.0012
    EDDIAG:  cpu time      0.0079: real time      0.0085
  RMM-DIIS:  cpu time      0.0009: real time      0.0009
    ORTHCH:  cpu time      0.0010: real time      0.0010
       DOS:  cpu time      0.0002: real time      0.0002
    CHARGE:  cpu time      0.0012: real time      0.0012
    MIXING:  cpu time      0.0002: real time      0.0002
    --------------------------------------------
      LOOP:  cpu time      0.0144: real time      0.0152

 eigenvalue-minimisations  :   224
 total energy-change (2. order) : 0.4660940E-02  (-0.4286677E-02)
 number of electron      23.9999907 magnetization 
 augmentation part        9.1679827 magnetization 

 Broyden mixing:
  rms(total) = 0.15658E-01    rms(broyden)= 0.15658E-01
  rms(prec ) = 0.47925E-01
  weight for this iteration     100.00

 eigenvalues of (default mixing * dielectric matrix)
  average eigenvalue GAMMA=   1.8431
  1.4574  1.4574  2.6143

 Free energy of the ion-electron system (eV)
  ---------------------------------------------------
  alpha Z        PSCENC =       263.35262201
  Ewald energy   TEWEN  =     -2397.97995971
  -Hartree energ DENC   =      -307.05302937
  -exchange      EXHF   =         0.00000000
  -V(xc)+E(xc)   XCENC  =        73.25655015
  PAW double counting   =      1896.05561301    -1868.24880430
  entropy T*S    EENTRO =        -0.00173106
  eigenvalues    EBANDS =      -249.44416418
  atomic energy  EATOM  =      2568.59197227
  Solvation  Ediel_sol  =         0.00000000
  ---------------------------------------------------
  free energy    TOTEN  =       -21.47093119 eV

  energy without entropy =      -21.46920013  energy(sigma->0) =      -21.47006566


--------------------------------------------------------------------------------------------------------




--------------------------------------- Iteration      1(   9)  ---------------------------------------


    POTLOK:  cpu time      0.0019: real time      0.0020
    SETDIJ:  cpu time      0.0012: real time      0.0012
    EDDIAG:  cpu time      0.0074: real time      0.0075
  RMM-DIIS:  cpu time      0.0009: real time      0.0009
    ORTHCH:  cpu time      0.0010: real time      0.0010
       DOS:  cpu time      0.0002: real time      0.0002
    CHARGE:  cpu time      0.0012: real time      0.0012
    MIXING:  cpu time      0.0002: real time      0.0002
    --------------------------------------------
      LOOP:  cpu time      0.0139: real time      0.0141

 eigenvalue-minimisations  :   224
 total energy-change (2. order) : 0.2399890E-03  (-0.7675144E-03)
 number of electron      23.9999907 magnetization 
 augmentation part        9.1819133 magnetization 

 Broyden mixing:
  rms(total) = 0.50836E-02    rms(broyden)= 0.50835E-02
  rms(prec ) = 0.14492E-01
  weight for this iteration     100.00

 eigenvalues of (default mixing * dielectric matrix)
  average eigenvalue GAMMA=   1.8858
  2.9477  2.1543  0.9479  1.4935

 Free energy of the ion-electron system (eV)
  ---------------------------------------------------
  alpha Z        PSCENC =       263.35262201
  Ewald energy   TEWEN  =     -2397.97995971
  -Hartree energ DENC   =      -305.97226725
  -exchange      EXHF   =         0.00000000
  -V(xc)+E(xc)   XCENC  =        73.20371078
  PAW double counting   =      1896.73825460    -1869.07502886
  entropy T*S    EENTRO =        -0.00239635
  eigenvalues    EBANDS =      -250.32759867
  atomic energy  EATOM  =      2568.59197227
  Solvation  Ediel_sol  =         0.00000000
  ---------------------------------------------------
  free energy    TOTEN  =       -21.47069120 eV

  energy without entropy =      -21.46829484  energy(sigma->0) =      -21.46949302


--------------------------------------------------------------------------------------------------------




--------------------------------------- Iteration      1(  10)  ---------------------------------------


    POTLOK:  cpu time      0.0018: real time      0.0019
    SETDIJ:  cpu time      0.0012: real time      0.0012
    EDDIAG:  cpu time      0.0072: real time      0.0072
  RMM-DIIS:  cpu time      0.0009: real time      0.0009
    ORTHCH:  cpu time      0.0010: real time      0.0010
       DOS:  cpu time      0.0002: real time      0.0002
    CHARGE:  cpu time      0.0013: real time      0.0013
    MIXING:  cpu time      0.0002: real time      0.0002
    --------------------------------------------
      LOOP:  cpu time      0.0138: real time      0.0139

 eigenvalue-minimisations  :   222
 total energy-change (2. order) :-0.2001187E-04  (-0.1070303E-03)
 number of electron      23.9999907 magnetization 
 augmentation part        9.1763664 magnetization 

 Broyden mixing:
  rms(total) = 0.37950E-02    rms(broyden)= 0.37949E-02
  rms(prec ) = 0.11260E-01
  weight for this iteration     100.00

 eigenvalues of (default mixing * dielectric matrix)
  average eigenvalue GAMMA=   1.8133
  2.5758  2.5758  1.8063  1.1745  0.9341

 Free energy of the ion-electron system (eV)
  ---------------------------------------------------
  alpha Z        PSCENC =       263.35262201
  Ewald energy   TEWEN  =     -2397.97995971
  -Hartree energ DENC   =      -306.50513765
  -exchange      EXHF   =         0.00000000
  -V(xc)+E(xc)   XCENC  =        73.22999301
  PAW double counting   =      1899.64108620    -1871.84879824
  entropy T*S    EENTRO =        -0.00204786
  eigenvalues    EBANDS =      -249.95044123
  atomic energy  EATOM  =      2568.59197227
  Solvation  Ediel_sol  =         0.00000000
  ---------------------------------------------------
  free energy    TOTEN  =       -21.47071121 eV

  energy without entropy =      -21.46866335  energy(sigma->0) =      -21.46968728


--------------------------------------------------------------------------------------------------------




--------------------------------------- Iteration      1(  11)  ---------------------------------------


    POTLOK:  cpu time      0.0018: real time      0.0023
    SETDIJ:  cpu time      0.0012: real time      0.0012
    EDDIAG:  cpu time      0.0072: real time      0.0072
  RMM-DIIS:  cpu time      0.0010: real time      0.0010
    ORTHCH:  cpu time      0.0010: real time      0.0010
       DOS:  cpu time      0.0002: real time      0.0002
    CHARGE:  cpu time      0.0012: real time      0.0012
    MIXING:  cpu time      0.0002: real time      0.0002
    --------------------------------------------
      LOOP:  cpu time      0.0138: real time      0.0142

 eigenvalue-minimisations  :   221
 total energy-change (2. order) : 0.5406693E-04  (-0.3080204E-04)
 number of electron      23.9999907 magnetization 
 augmentation part        9.1792294 magnetization 

 Broyden mixing:
  rms(total) = 0.58136E-03    rms(broyden)= 0.58115E-03
  rms(prec ) = 0.14937E-02
  weight for this iteration     100.00

 eigenvalues of (default mixing * dielectric matrix)
  average eigenvalue GAMMA=   1.6251
  2.6400  2.6400  1.8308  1.3022  0.9161  0.4216

 Free energy of the ion-electron system (eV)
  ---------------------------------------------------
  alpha Z        PSCENC =       263.35262201
  Ewald energy   TEWEN  =     -2397.97995971
  -Hartree energ DENC   =      -306.26982623
  -exchange      EXHF   =         0.00000000
  -V(xc)+E(xc)   XCENC  =        73.21845762
  PAW double counting   =      1898.27605862    -1870.49090604
  entropy T*S    EENTRO =        -0.00217894
  eigenvalues    EBANDS =      -250.16689672
  atomic energy  EATOM  =      2568.59197227
  Solvation  Ediel_sol  =         0.00000000
  ---------------------------------------------------
  free energy    TOTEN  =       -21.47065714 eV

  energy without entropy =      -21.46847820  energy(sigma->0) =      -21.46956767


--------------------------------------------------------------------------------------------------------




--------------------------------------- Iteration      1(  12)  ---------------------------------------


    POTLOK:  cpu time      0.0018: real time      0.0020
    SETDIJ:  cpu time      0.0012: real time      0.0012
    EDDIAG:  cpu time      0.0071: real time      0.0071
  RMM-DIIS:  cpu time      0.0009: real time      0.0009
    ORTHCH:  cpu time      0.0009: real time      0.0009
       DOS:  cpu time      0.0003: real time      0.0003
    --------------------------------------------
      LOOP:  cpu time      0.0122: real time      0.0124

 eigenvalue-minimisations  :   163
 total energy-change (2. order) :-0.5423473E-05  (-0.5564970E-05)
 number of electron      23.9999907 magnetization 
 augmentation part        9.1792294 magnetization 

 Free energy of the ion-electron system (eV)
  ---------------------------------------------------
  alpha Z        PSCENC =       263.35262201
  Ewald energy   TEWEN  =     -2397.97995971
  -Hartree energ DENC   =      -306.27956833
  -exchange      EXHF   =         0.00000000
  -V(xc)+E(xc)   XCENC  =        73.21894492
  PAW double counting   =      1898.31839266    -1870.53372635
  entropy T*S    EENTRO =        -0.00217081
  eigenvalues    EBANDS =      -250.15716922
  atomic energy  EATOM  =      2568.59197227
  Solvation  Ediel_sol  =         0.00000000
  ---------------------------------------------------
  free energy    TOTEN  =       -21.47066257 eV

  energy without entropy =      -21.46849176  energy(sigma->0) =      -21.46957716


--------------------------------------------------------------------------------------------------------




 average (electrostatic) potential at core
  the test charge radii are     1.1533
  (the norm of the test charge is              1.0000)
       1 -48.6347       2 -48.6347
 
 
 
 E-fermi :   8.1546     XC(G=0): -13.3176     alpha+bet :-16.0827

 val. band max:        7.9785393230   @ k =   0.3333   0.3333   0.0000
 cond. band min:       8.3123816005   @ k =   0.3333   0.0000   0.0000
 fundamental gap:      0.3338422775
 Fermi energy:         8.1545532080

 k-point     1 :       0.0000    0.0000    0.0000
  band No.  band energies     occupation 
      1     -26.9693      2.00000
      2     -26.9693      2.00000
      3     -26.9693      2.00000
      4     -26.0046      2.00000
      5     -26.0046      2.00000
      6     -26.0046      2.00000
      7       1.4355      2.00000
      8       3.2043      2.00000
      9       3.2043      2.00000
     10       7.2433      2.00000
     11       7.2433      2.00000
     12       7.2433      2.00000
     13      10.2820      0.00000
     14      10.2820      0.00000
     15      12.5831      0.00000
     16      12.5831      0.00000
     17      12.5831      0.00000
     18      18.0469      0.00000
     19      18.0469      0.00000
     20      18.0469      0.00000
     21      24.6816      0.00000
     22      24.6816      0.00000
     23      24.6816      0.00000
     24      25.2891      0.00000
     25      25.2894      0.00000
     26      28.4606      0.00000
     27      29.8443      0.00000
     28      29.8443      0.00000

 k-point     2 :       0.3333    0.0000    0.0000
  band No.  band energies     occupation 
      1     -26.9290      2.00000
      2     -26.7221      2.00000
      3     -26.7221      2.00000
      4     -26.4562      2.00000
      5     -26.2389      2.00000
      6     -26.2389      2.00000
      7       3.5421      2.00000
      8       4.4963      2.00000
      9       4.7734      2.00000
     10       7.3725      2.00000
     11       7.3725      2.00000
     12       7.8381      1.99999
     13       8.3124      0.02561
     14       9.3538      0.00000
     15       9.3538      0.00000
     16      10.9080      0.00000
     17      11.2280      0.00000
     18      13.8206      0.00000
     19      23.9203      0.00000
     20      23.9203      0.00000
     21      25.2894      0.00000
     22      25.2899      0.00000
     23      25.6458      0.00000
     24      26.3896      0.00000
     25      26.6272      0.00000
     26      28.0253      0.00000
     27      28.0254      0.00000
     28      28.7498      0.00000

 k-point     3 :       0.3333    0.3333    0.0000
  band No.  band energies     occupation 
      1     -27.2971      2.00000
      2     -27.0734      2.00000
      3     -26.5847      2.00000
      4     -26.3423      2.00000
      5     -26.2659      2.00000
      6     -26.0130      2.00000
      7       3.6303      2.00000
      8       4.0772      2.00000
      9       5.6476      2.00000
     10       6.4364      2.00000
     11       6.8347      2.00000
     12       7.9785      1.98720
     13       9.0065      0.00000
     14      10.0756      0.00000
     15      10.6469      0.00000
     16      11.2615      0.00000
     17      13.1439      0.00000
     18      14.6644      0.00000
     19      19.9147      0.00000
     20      23.0074      0.00000
     21      23.3433      0.00000
     22      24.2862      0.00000
     23      24.9715      0.00000
     24      25.2894      0.00000
     25      25.2901      0.00000
     26      30.3266      0.00000
     27      30.5569      0.00000
     28      31.3098      0.00000

 k-point     4 :       0.3333    0.3333    0.3333
  band No.  band energies     occupation 
      1     -27.1126      2.00000
      2     -26.9762      2.00000
      3     -26.9762      2.00000
      4     -26.3333      2.00000
      5     -26.3333      2.00000
      6     -26.1831      2.00000
      7       4.8161      2.00000
      8       5.5124      2.00000
      9       5.5124      2.00000
     10       5.8521      2.00000
     11       6.3192      2.00000
     12       6.3192      2.00000
     13      10.6736      0.00000
     14      10.6736      0.00000
     15      10.7685      0.00000
     16      10.7685      0.00000
     17      14.8503      0.00000
     18      19.0278      0.00000
     19      19.2208      0.00000
     20      19.2208      0.00000
     21      22.6620      0.00000
     22      23.1617      0.00000
     23      23.1617      0.00000
     24      25.2895      0.00000
     25      25.2896      0.00000
     26      26.7802      0.00000
     27      29.6860      0.00000
     28      31.1251      0.00000


--------------------------------------------------------------------------------------------------------


 soft charge-density along one line, spin component           1
         0         1         2         3         4         5         6         7         8         9
 total charge-density along one line
 
 pseudopotential strength for first ion, spin component:           1
-27.181   0.000  -0.000  13.046  -0.000   0.000   0.000   0.000
  0.000 -27.181  -0.000  -0.000  13.046   0.000   0.000   0.000
 -0.000  -0.000 -27.181   0.000   0.000  13.046   0.000   0.000
 13.046  -0.000   0.000  -0.616   0.000  -0.000  -0.000  -0.000
 -0.000  13.046   0.000   0.000  -0.616  -0.000  -0.000  -0.000
  0.000   0.000  13.046  -0.000  -0.000  -0.616  -0.000  -0.000
  0.000   0.000   0.000  -0.000  -0.000  -0.000  -4.849  -0.000
  0.000   0.000   0.000  -0.000  -0.000  -0.000  -0.000  -4.849
 -0.000   0.000   0.000   0.000  -0.000   0.000   0.000   0.000
  0.000  -0.000   0.000  -0.000  -0.000  -0.000  -0.000  -0.000
 -0.000   0.000   0.000   0.000  -0.000  -0.000  -0.000  -0.000
 -0.000  -0.000  -0.000  -0.000   0.000   0.000  -0.225   0.000
 -0.000  -0.000  -0.000   0.000   0.000   0.000   0.000  -0.225
  0.000  -0.000   0.000  -0.000   0.000  -0.000  -0.000  -0.000
 -0.000  -0.000  -0.000   0.000   0.000   0.000   0.000   0.000
  0.000  -0.000  -0.000  -0.000   0.000  -0.000   0.000   0.000
 -0.000  -0.000  -0.000   0.000   0.000  -0.000   0.000  -0.000
  0.000   0.000   0.000  -0.000  -0.000  -0.000  -0.000   0.000
 total augmentation occupancy for first ion, spin component:           1
  2.007  -0.000   0.000   0.070   0.000  -0.000   0.000   0.000  -0.000  -0.000   0.000   0.000   0.000   0.000   0.000  -0.000
  0.000   2.007   0.000  -0.000   0.070   0.000   0.000   0.000   0.000   0.000   0.000  -0.000   0.000   0.000   0.000   0.000
  0.000  -0.000   2.007  -0.000  -0.000   0.070   0.000   0.000  -0.000   0.000   0.000   0.000   0.000   0.000   0.000  -0.000
  0.070  -0.000   0.000   0.318  -0.000  -0.000   0.000   0.000  -0.000  -0.000  -0.000   0.000   0.000   0.000   0.000   0.000
 -0.000   0.070  -0.000  -0.000   0.318  -0.000   0.000   0.000   0.000   0.000   0.000  -0.000   0.000  -0.000   0.000   0.000
 -0.000   0.000   0.070   0.000   0.000   0.318   0.000  -0.000  -0.000   0.000   0.000   0.000  -0.000  -0.000   0.000   0.000
  0.000   0.000   0.000   0.000   0.000   0.000   1.032  -0.000   0.000   0.000  -0.000   0.735  -0.000   0.000   0.000   0.000
  0.000   0.000   0.000   0.000   0.000   0.000  -0.000   1.032  -0.000  -0.000  -0.000   0.000   0.735   0.000  -0.000  -0.000
  0.000  -0.000  -0.000   0.000   0.000   0.000  -0.000   0.000   0.818   0.000  -0.000   0.000  -0.000   0.637  -0.000   0.000
  0.000   0.000   0.000   0.000   0.000   0.000   0.000  -0.000  -0.000   1.032   0.000   0.000   0.000  -0.000   0.735   0.000
 -0.000   0.000   0.000   0.000  -0.000   0.000  -0.000   0.000  -0.000  -0.000   0.818  -0.000  -0.000  -0.000  -0.000   0.637
  0.000  -0.000   0.000   0.000   0.000   0.000   0.735   0.000   0.000   0.000   0.000   0.660   0.000  -0.000   0.000  -0.000
  0.000   0.000   0.000   0.000   0.000  -0.000  -0.000   0.735  -0.000  -0.000   0.000   0.000   0.660   0.000  -0.000  -0.000
 -0.000   0.000  -0.000   0.000   0.000   0.000  -0.000  -0.000   0.637   0.000   0.000  -0.000   0.000   0.643  -0.000  -0.000
 -0.000   0.000   0.000  -0.000   0.000   0.000   0.000  -0.000   0.000   0.735   0.000  -0.000   0.000   0.000   0.660  -0.000
 -0.000  -0.000  -0.000   0.000   0.000   0.000   0.000  -0.000  -0.000   0.000   0.637  -0.000   0.000  -0.000  -0.000   0.643
 -0.000  -0.000  -0.000   0.000   0.000  -0.000  -0.000  -0.000  -0.000   0.000   0.000  -0.000   0.000   0.000   0.000   0.000
  0.000   0.000   0.000   0.000   0.000   0.000  -0.000   0.000  -0.000  -0.000  -0.000  -0.000  -0.000   0.000  -0.000  -0.000


------------------------ aborting loop because EDIFF is reached ----------------------------------------


    CHARGE:  cpu time      0.0015: real time      0.0018
    FORLOC:  cpu time      0.0001: real time      0.0010
    FORNL :  cpu time      0.0013: real time      0.0032
    STRESS:  cpu time      0.0070: real time      0.0096
    FORCOR:  cpu time      0.0015: real time      0.0038
    FORHAR:  cpu time      0.0003: real time      0.0008
    MIXING:  cpu time      0.0003: real time      0.0003
    OFIELD:  cpu time      0.0001: real time      0.0006

  FORCE on cell =-STRESS in cart. coord.  units (eV):
  Direction    XX          YY          ZZ          XY          YZ          ZX
  --------------------------------------------------------------------------------------
  Alpha Z   263.35262   263.35262   263.35262
  Ewald    -799.32659  -799.32659  -799.32659    -0.00000     0.00000     0.00000
  Hartree   102.10144   102.10144   102.10144    -0.00000    -0.00000    -0.00000
  E(xc)    -109.27741  -109.27741  -109.27741     0.00000    -0.00000    -0.00000
  Local     219.21534   219.21534   219.21534     0.00000     0.00000    -0.00000
  n-local   -52.63606   -49.44041   -43.58302     2.27352    -0.36127    -0.36134
  augment   102.81446   102.81446   102.81446     0.00000     0.00000    -0.00000
  Kinetic   268.33317   266.50148   279.55785     6.38610    -0.77069    -0.77072
  Fock        0.00000     0.00000     0.00000     0.00000     0.00000     0.00000
  -------------------------------------------------------------------------------------
  Total       1.79087     1.79087     1.79087     0.00000     0.00000    -0.00000
  in kB      92.07169    92.07169    92.07169     0.00000     0.00000    -0.00000
  external pressure =       92.07 kB  Pullay stress =        0.00 kB


 VOLUME and BASIS-vectors are now :
 -----------------------------------------------------------------------------
  energy-cutoff  :      400.00
  volume of cell :       31.16
      direct lattice vectors                 reciprocal lattice vectors
     3.146899939  0.000000000  0.000000000     0.317773053  0.000000000  0.000000000
     0.000000000  3.146899939  0.000000000     0.000000000  0.317773053  0.000000000
     0.000000000  0.000000000  3.146899939     0.000000000  0.000000000  0.317773053

  length of vectors
     3.146899939  3.146899939  3.146899939     0.317773053  0.317773053  0.317773053


 FORCES acting on ions
    electron-ion (+dipol)            ewald-force                    non-local-force                 convergence-correction
 -----------------------------------------------------------------------------------------------
   0.578E-15 -.294E-15 0.100E-13   -.123E-13 -.242E-14 -.321E-14   -.473E-27 -.152E-25 0.390E-26   -.950E-14 -.912E-15 0.113E-13
   0.844E-13 0.114E-11 0.205E-12   0.103E-13 0.379E-14 0.252E-14   0.463E-26 0.160E-26 0.592E-27   0.935E-15 0.253E-14 0.150E-13
 -----------------------------------------------------------------------------------------------
   0.849E-13 0.114E-11 0.215E-12   -.202E-14 0.138E-14 -.683E-15   0.415E-26 -.136E-25 0.449E-26   -.856E-14 0.162E-14 0.262E-13
 
 
 POSITION                                       TOTAL-FORCE (eV/Angst)
 -----------------------------------------------------------------------------------
      0.00000      0.00000      0.00000        -0.000000     -0.000000     -0.000000
      1.57345      1.57345      1.57345         0.000000      0.000000      0.000000
 -----------------------------------------------------------------------------------
    total drift:                                0.000000      0.000000      0.000000


--------------------------------------------------------------------------------------------------------



  FREE ENERGIE OF THE ION-ELECTRON SYSTEM (eV)
  ---------------------------------------------------
  free  energy   TOTEN  =       -21.47066257 eV

  energy  without entropy=      -21.46849176  energy(sigma->0) =      -21.46957716
 


--------------------------------------------------------------------------------------------------------


    POTLOK:  cpu time      0.0040: real time      0.0043


--------------------------------------------------------------------------------------------------------




--------------------------------------------------------------------------------------------------------


    WAVPRE:  cpu time      0.0029: real time      0.0087
    FEWALD:  cpu time      0.0001: real time      0.0005
    GENKIN:  cpu time      0.0002: real time      0.0002
    ORTHCH:  cpu time      0.0011: real time      0.0011
     LOOP+:  cpu time      0.3942: real time      0.7905


--------------------------------------- Ionic step        2  -------------------------------------------




--------------------------------------- Iteration      2(   1)  ---------------------------------------


    POTLOK:  cpu time      0.0015: real time      0.0016
    SETDIJ:  cpu time      0.0013: real time      0.0013
     EDDAV:  cpu time      0.0257: real time      0.0259
       DOS:  cpu time      0.0004: real time      0.0004
    CHARGE:  cpu time      0.0014: real time      0.0017
    MIXING:  cpu time      0.0001: real time      0.0001
    --------------------------------------------
      LOOP:  cpu time      0.0305: real time      0.0311

 eigenvalue-minimisations  :   224
 total energy-change (2. order) :-0.3664310E+01  (-0.8559760E+01)
 number of electron      24.0000095 magnetization 
 augmentation part        9.9861364 magnetization 

 Broyden mixing:
  rms(total) = 0.10769E+01    rms(broyden)= 0.10769E+01
  rms(prec ) = 0.31113E+01
  weight for this iteration     100.00

 Free energy of the ion-electron system (eV)
  ---------------------------------------------------
  alpha Z        PSCENC =       231.97285942
  Ewald energy   TEWEN  =     -2298.68110362
  -Hartree energ DENC   =      -293.59363793
  -exchange      EXHF   =         0.00000000
  -V(xc)+E(xc)   XCENC  =        69.58941829
  PAW double counting   =      1898.29179734    -1870.50761421
  entropy T*S    EENTRO =        -0.03839682
  eigenvalues    EBANDS =      -330.76026155
  atomic energy  EATOM  =      2568.59197227
  Solvation  Ediel_sol  =         0.00000000
  ---------------------------------------------------
  free energy    TOTEN  =       -25.13496683 eV

  energy without entropy =      -25.09657001  energy(sigma->0) =      -25.11576842


--------------------------------------------------------------------------------------------------------




--------------------------------------- Iteration      2(   2)  ---------------------------------------


    POTLOK:  cpu time      0.0021: real time      0.0023
    SETDIJ:  cpu time      0.0013: real time      0.0013
    EDDIAG:  cpu time      0.0077: real time      0.0077
  RMM-DIIS:  cpu time      0.0010: real time      0.0010
    ORTHCH:  cpu time      0.0009: real time      0.0009
       DOS:  cpu time      0.0002: real time      0.0002
    CHARGE:  cpu time      0.0012: real time      0.0012
    MIXING:  cpu time      0.0002: real time      0.0002
    --------------------------------------------
      LOOP:  cpu time      0.0146: real time      0.0149

 eigenvalue-minimisations  :   224
 total energy-change (2. order) : 0.3748390E+01  (-0.3165419E+00)
 number of electron      24.0000092 magnetization 
 augmentation part        9.3529482 magnetization 

 Broyden mixing:
  rms(total) = 0.28321E+00    rms(broyden)= 0.28320E+00
  rms(prec ) = 0.66596E+00
  weight for this iteration     100.00

 eigenvalues of (default mixing * dielectric matrix)
  average eigenvalue GAMMA=   1.2793
  1.2793

 Free energy of the ion-electron system (eV)
  ---------------------------------------------------
  alpha Z        PSCENC =       231.97285942
  Ewald energy   TEWEN  =     -2298.68110362
  -Hartree energ DENC   =      -335.14551879
  -exchange      EXHF   =         0.00000000
  -V(xc)+E(xc)   XCENC  =        71.60416690
  PAW double counting   =      1938.31328712    -1906.39674048
  entropy T*S    EENTRO =        -0.01663437
  eigenvalues    EBANDS =      -291.62886531
  atomic energy  EATOM  =      2568.59197227
  Solvation  Ediel_sol  =         0.00000000
  ---------------------------------------------------
  free energy    TOTEN  =       -21.38657687 eV

  energy without entropy =      -21.36994251  energy(sigma->0) =      -21.37825969


--------------------------------------------------------------------------------------------------------




--------------------------------------- Iteration      2(   3)  ---------------------------------------


    POTLOK:  cpu time      0.0018: real time      0.0020
    SETDIJ:  cpu time      0.0011: real time      0.0012
    EDDIAG:  cpu time      0.0072: real time      0.0072
  RMM-DIIS:  cpu time      0.0009: real time      0.0009
    ORTHCH:  cpu time      0.0010: real time      0.0010
       DOS:  cpu time      0.0002: real time      0.0002
    CHARGE:  cpu time      0.0012: real time      0.0012
    MIXING:  cpu time      0.0002: real time      0.0002
    --------------------------------------------
      LOOP:  cpu time      0.0136: real time      0.0138

 eigenvalue-minimisations  :   224
 total energy-change (2. order) : 0.1418476E+00  (-0.4959959E-01)
 number of electron      24.0000090 magnetization 
 augmentation part        9.1966768 magnetization 

 Broyden mixing:
  rms(total) = 0.95601E-01    rms(broyden)= 0.95599E-01
  rms(prec ) = 0.19245E+00
  weight for this iteration     100.00

 eigenvalues of (default mixing * dielectric matrix)
  average eigenvalue GAMMA=   1.7317
  1.2438  2.2196

 Free energy of the ion-electron system (eV)
  ---------------------------------------------------
  alpha Z        PSCENC =       231.97285942
  Ewald energy   TEWEN  =     -2298.68110362
  -Hartree energ DENC   =      -344.75532618
  -exchange      EXHF   =         0.00000000
  -V(xc)+E(xc)   XCENC  =        72.06802832
  PAW double counting   =      1900.37354283    -1868.82022862
  entropy T*S    EENTRO =        -0.00219791
  eigenvalues    EBANDS =      -281.99227576
  atomic energy  EATOM  =      2568.59197227
  Solvation  Ediel_sol  =         0.00000000
  ---------------------------------------------------
  free energy    TOTEN  =       -21.24472926 eV

  energy without entropy =      -21.24253135  energy(sigma->0) =      -21.24363030


--------------------------------------------------------------------------------------------------------




--------------------------------------- Iteration      2(   4)  ---------------------------------------


    POTLOK:  cpu time      0.0019: real time      0.0019
    SETDIJ:  cpu time      0.0011: real time      0.0014
    EDDIAG:  cpu time      0.0071: real time      0.0071
  RMM-DIIS:  cpu time      0.0009: real time      0.0009
    ORTHCH:  cpu time      0.0010: real time      0.0010
       DOS:  cpu time      0.0002: real time      0.0002
    CHARGE:  cpu time      0.0013: real time      0.0013
    MIXING:  cpu time      0.0002: real time      0.0002
    --------------------------------------------
      LOOP:  cpu time      0.0136: real time      0.0139

 eigenvalue-minimisations  :   224
 total energy-change (2. order) :-0.2904432E-01  (-0.5329874E-02)
 number of electron      24.0000089 magnetization 
 augmentation part        9.1649473 magnetization 

 Broyden mixing:
  rms(total) = 0.22558E-01    rms(broyden)= 0.22557E-01
  rms(prec ) = 0.68214E-01
  weight for this iteration     100.00

 eigenvalues of (default mixing * dielectric matrix)
  average eigenvalue GAMMA=   1.7289
  1.0903  1.5239  2.5724

 Free energy of the ion-electron system (eV)
  ---------------------------------------------------
  alpha Z        PSCENC =       231.97285942
  Ewald energy   TEWEN  =     -2298.68110362
  -Hartree energ DENC   =      -343.94843637
  -exchange      EXHF   =         0.00000000
  -V(xc)+E(xc)   XCENC  =        72.02991325
  PAW double counting   =      1836.41754547    -1806.52611318
  entropy T*S    EENTRO =        -0.00233334
  eigenvalues    EBANDS =      -281.12807748
  atomic energy  EATOM  =      2568.59197227
  Solvation  Ediel_sol  =         0.00000000
  ---------------------------------------------------
  free energy    TOTEN  =       -21.27377358 eV

  energy without entropy =      -21.27144024  energy(sigma->0) =      -21.27260691


--------------------------------------------------------------------------------------------------------




--------------------------------------- Iteration      2(   5)  ---------------------------------------


    POTLOK:  cpu time      0.0020: real time      0.0022
    SETDIJ:  cpu time      0.0012: real time      0.0012
    EDDIAG:  cpu time      0.0071: real time      0.0071
  RMM-DIIS:  cpu time      0.0009: real time      0.0009
    ORTHCH:  cpu time      0.0010: real time      0.0010
       DOS:  cpu time      0.0002: real time      0.0002
    CHARGE:  cpu time      0.0012: real time      0.0014
    MIXING:  cpu time      0.0004: real time      0.0004
    --------------------------------------------
      LOOP:  cpu time      0.0139: real time      0.0142

 eigenvalue-minimisations  :   224
 total energy-change (2. order) :-0.2465136E-03  (-0.4650885E-03)
 number of electron      24.0000089 magnetization 
 augmentation part        9.1773541 magnetization 

 Broyden mixing:
  rms(total) = 0.32715E-02    rms(broyden)= 0.32690E-02
  rms(prec ) = 0.79225E-02
  weight for this iteration     100.00

 eigenvalues of (default mixing * dielectric matrix)
  average eigenvalue GAMMA=   1.7569
  2.6995  1.0029  1.3499  1.9752

 Free energy of the ion-electron system (eV)
  ---------------------------------------------------
  alpha Z        PSCENC =       231.97285942
  Ewald energy   TEWEN  =     -2298.68110362
  -Hartree energ DENC   =      -342.16715501
  -exchange      EXHF   =         0.00000000
  -V(xc)+E(xc)   XCENC  =        71.94424511
  PAW double counting   =      1822.35385810    -1793.03345715
  entropy T*S    EENTRO =        -0.00272261
  eigenvalues    EBANDS =      -282.25251659
  atomic energy  EATOM  =      2568.59197227
  Solvation  Ediel_sol  =         0.00000000
  ---------------------------------------------------
  free energy    TOTEN  =       -21.27402009 eV

  energy without entropy =      -21.27129748  energy(sigma->0) =      -21.27265878


--------------------------------------------------------------------------------------------------------




--------------------------------------- Iteration      2(   6)  ---------------------------------------


    POTLOK:  cpu time      0.0019: real time      0.0020
    SETDIJ:  cpu time      0.0012: real time      0.0012
    EDDIAG:  cpu time      0.0071: real time      0.0074
  RMM-DIIS:  cpu time      0.0009: real time      0.0009
    ORTHCH:  cpu time      0.0009: real time      0.0009
       DOS:  cpu time      0.0003: real time      0.0003
    CHARGE:  cpu time      0.0012: real time      0.0012
    MIXING:  cpu time      0.0002: real time      0.0002
    --------------------------------------------
      LOOP:  cpu time      0.0136: real time      0.0141

 eigenvalue-minimisations  :   224
 total energy-change (2. order) : 0.1610603E-04  (-0.3898799E-04)
 number of electron      24.0000089 magnetization 
 augmentation part        9.1763913 magnetization 

 Broyden mixing:
  rms(total) = 0.20449E-02    rms(broyden)= 0.20435E-02
  rms(prec ) = 0.59606E-02
  weight for this iteration     100.00

 eigenvalues of (default mixing * dielectric matrix)
  average eigenvalue GAMMA=   1.6299
  2.4320  2.4320  1.3986  1.0221  0.8649

 Free energy of the ion-electron system (eV)
  ---------------------------------------------------
  alpha Z        PSCENC =       231.97285942
  Ewald energy   TEWEN  =     -2298.68110362
  -Hartree energ DENC   =      -342.14675453
  -exchange      EXHF   =         0.00000000
  -V(xc)+E(xc)   XCENC  =        71.94333257
  PAW double counting   =      1823.02342692    -1793.77959968
  entropy T*S    EENTRO =        -0.00271228
  eigenvalues    EBANDS =      -282.19542505
  atomic energy  EATOM  =      2568.59197227
  Solvation  Ediel_sol  =         0.00000000
  ---------------------------------------------------
  free energy    TOTEN  =       -21.27400398 eV

  energy without entropy =      -21.27129171  energy(sigma->0) =      -21.27264785


--------------------------------------------------------------------------------------------------------




--------------------------------------- Iteration      2(   7)  ---------------------------------------


    POTLOK:  cpu time      0.0018: real time      0.0020
    SETDIJ:  cpu time      0.0012: real time      0.0012
    EDDIAG:  cpu time      0.0070: real time      0.0071
  RMM-DIIS:  cpu time      0.0010: real time      0.0010
    ORTHCH:  cpu time      0.0009: real time      0.0009
       DOS:  cpu time      0.0002: real time      0.0002
    --------------------------------------------
      LOOP:  cpu time      0.0122: real time      0.0123

 eigenvalue-minimisations  :   193
 total energy-change (2. order) :-0.8902058E-05  (-0.7809188E-05)
 number of electron      24.0000089 magnetization 
 augmentation part        9.1763913 magnetization 

 Free energy of the ion-electron system (eV)
  ---------------------------------------------------
  alpha Z        PSCENC =       231.97285942
  Ewald energy   TEWEN  =     -2298.68110362
  -Hartree energ DENC   =      -342.27156934
  -exchange      EXHF   =         0.00000000
  -V(xc)+E(xc)   XCENC  =        71.94933507
  PAW double counting   =      1824.75213324    -1795.48039520
  entropy T*S    EENTRO =        -0.00267809
  eigenvalues    EBANDS =      -282.10456663
  atomic energy  EATOM  =      2568.59197227
  Solvation  Ediel_sol  =         0.00000000
  ---------------------------------------------------
  free energy    TOTEN  =       -21.27401289 eV

  energy without entropy =      -21.27133480  energy(sigma->0) =      -21.27267384


--------------------------------------------------------------------------------------------------------




 average (electrostatic) potential at core
  the test charge radii are     1.1533
  (the norm of the test charge is              1.0000)
       1 -50.2942       2 -50.2942
 
 
 
 E-fermi :   6.7448     XC(G=0): -12.6230     alpha+bet :-14.1664

 val. band max:        6.5952362134   @ k =   0.3333   0.0000   0.0000
 cond. band min:       6.8943668845   @ k =   0.3333   0.0000   0.0000
 fundamental gap:      0.2991306711
 Fermi energy:         6.7448045675

 k-point     1 :       0.0000    0.0000    0.0000
  band No.  band energies     occupation 
      1     -28.3999      2.00000
      2     -28.3999      2.00000
      3     -28.3999      2.00000
      4     -27.7482      2.00000
      5     -27.7482      2.00000
      6     -27.7482      2.00000
      7       0.4146      2.00000
      8       2.6243      2.00000
      9       2.6243      2.00000
     10       5.9818      2.00000
     11       5.9818      2.00000
     12       5.9818      2.00000
     13       8.5658      0.00000
     14       8.5658      0.00000
     15      10.4230      0.00000
     16      10.4230      0.00000
     17      10.4230      0.00000
     18      15.5668      0.00000
     19      15.5668      0.00000
     20      15.5668      0.00000
     21      22.7511      0.00000
     22      22.7511      0.00000
     23      22.7511      0.00000
     24      23.6760      0.00000
     25      23.6769      0.00000
     26      24.4764      0.00000
     27      25.9512      0.00000
     28      25.9512      0.00000

 k-point     2 :       0.3333    0.0000    0.0000
  band No.  band energies     occupation 
      1     -28.3608      2.00000
      2     -28.2320      2.00000
      3     -28.2320      2.00000
      4     -28.0395      2.00000
      5     -27.9057      2.00000
      6     -27.9057      2.00000
      7       2.2936      2.00000
      8       3.7508      2.00000
      9       3.7944      2.00000
     10       6.0914      2.00000
     11       6.0914      2.00000
     12       6.5952      1.96559
     13       6.8944      0.03442
     14       7.7476      0.00000
     15       7.7476      0.00000
     16       9.0668      0.00000
     17       9.2962      0.00000
     18      11.5035      0.00000
     19      20.6324      0.00000
     20      20.6324      0.00000
     21      22.6866      0.00000
     22      23.6380      0.00000
     23      23.6769      0.00000
     24      23.6791      0.00000
     25      23.9792      0.00000
     26      25.1717      0.00000
     27      25.3826      0.00000
     28      25.3826      0.00000

 k-point     3 :       0.3333    0.3333    0.0000
  band No.  band energies     occupation 
      1     -28.6074      2.00000
      2     -28.4535      2.00000
      3     -28.1403      2.00000
      4     -27.9768      2.00000
      5     -27.9200      2.00000
      6     -27.7512      2.00000
      7       2.6829      2.00000
      8       3.2450      2.00000
      9       4.6552      2.00000
     10       5.3113      2.00000
     11       5.5795      2.00000
     12       6.4173      2.00000
     13       7.4930      0.00000
     14       8.3560      0.00000
     15       8.8510      0.00000
     16       9.3344      0.00000
     17      10.8736      0.00000
     18      12.2443      0.00000
     19      16.7316      0.00000
     20      20.0909      0.00000
     21      20.8739      0.00000
     22      21.6890      0.00000
     23      21.7982      0.00000
     24      23.6781      0.00000
     25      23.6779      0.00000
     26      26.7011      0.00000
     27      27.4825      0.00000
     28      28.2911      0.00000

 k-point     4 :       0.3333    0.3333    0.3333
  band No.  band energies     occupation 
      1     -28.4815      2.00000
      2     -28.3908      2.00000
      3     -28.3908      2.00000
      4     -27.9622      2.00000
      5     -27.9622      2.00000
      6     -27.8662      2.00000
      7       3.8979      2.00000
      8       4.4899      2.00000
      9       4.4899      2.00000
     10       4.4906      2.00000
     11       5.1079      2.00000
     12       5.1079      2.00000
     13       8.8560      0.00000
     14       8.8560      0.00000
     15       8.9264      0.00000
     16       8.9264      0.00000
     17      12.3539      0.00000
     18      16.1474      0.00000
     19      16.3171      0.00000
     20      16.3171      0.00000
     21      19.4168      0.00000
     22      20.3444      0.00000
     23      20.3444      0.00000
     24      23.6623      0.00000
     25      23.6771      0.00000
     26      23.6801      0.00000
     27      27.3455      0.00000
     28      28.2308      0.00000


--------------------------------------------------------------------------------------------------------


 soft charge-density along one line, spin component           1
         0         1         2         3         4         5         6         7         8         9
 total charge-density along one line
 
 pseudopotential strength for first ion, spin component:           1
-28.143   0.000  -0.000  13.860  -0.000   0.000   0.000   0.000
  0.000 -28.143   0.000  -0.000  13.860  -0.000  -0.000   0.000
 -0.000   0.000 -28.143   0.000  -0.000  13.860   0.000  -0.000
 13.860  -0.000   0.000  -1.182   0.000  -0.000  -0.000  -0.000
 -0.000  13.860  -0.000   0.000  -1.182   0.000   0.000  -0.000
  0.000  -0.000  13.860  -0.000   0.000  -1.182  -0.000   0.000
  0.000  -0.000   0.000  -0.000   0.000  -0.000  -5.296   0.000
  0.000   0.000  -0.000  -0.000  -0.000   0.000   0.000  -5.296
 -0.000   0.000  -0.000   0.000  -0.000   0.000  -0.000   0.000
 -0.000   0.000   0.000   0.000  -0.000  -0.000   0.000  -0.000
 -0.000  -0.000   0.000   0.000   0.000  -0.000   0.000  -0.000
 -0.000   0.000  -0.000   0.000  -0.000   0.000  -0.180  -0.000
 -0.000  -0.000   0.000   0.000   0.000  -0.000  -0.000  -0.180
  0.000  -0.000   0.000  -0.000   0.000  -0.000   0.000  -0.000
  0.000  -0.000  -0.000  -0.000   0.000   0.000  -0.000   0.000
  0.000   0.000  -0.000  -0.000  -0.000   0.000  -0.000   0.000
 -0.000  -0.000  -0.000   0.000   0.000   0.000   0.000  -0.000
  0.000   0.000   0.000  -0.000  -0.000  -0.000  -0.000   0.000
 total augmentation occupancy for first ion, spin component:           1
  1.993   0.000   0.000   0.043   0.000   0.000   0.000   0.000   0.000  -0.000  -0.000   0.000   0.000   0.000   0.000  -0.000
  0.000   1.993   0.000  -0.000   0.043   0.000   0.000   0.000  -0.000   0.000  -0.000  -0.000   0.000   0.000   0.000   0.000
  0.000   0.000   1.993   0.000   0.000   0.043   0.000   0.000   0.000   0.000   0.000   0.000  -0.000  -0.000   0.000   0.000
  0.043  -0.000  -0.000   0.260   0.000   0.000   0.000   0.000   0.000  -0.000   0.000   0.000   0.000  -0.000  -0.000  -0.000
  0.000   0.043   0.000   0.000   0.260  -0.000   0.000   0.000   0.000   0.000   0.000   0.000   0.000   0.000   0.000   0.000
 -0.000   0.000   0.043   0.000   0.000   0.260   0.000  -0.000   0.000   0.000   0.000   0.000  -0.000   0.000   0.000   0.000
  0.000  -0.000   0.000   0.000   0.000   0.000   1.011   0.000  -0.000   0.000   0.000   0.603   0.000   0.000   0.000   0.000
  0.000   0.000  -0.000   0.000   0.000   0.000   0.000   1.011  -0.000   0.000  -0.000   0.000   0.603  -0.000   0.000  -0.000
  0.000   0.000  -0.000   0.000   0.000   0.000  -0.000  -0.000   0.780   0.000   0.000   0.000  -0.000   0.507   0.000  -0.000
  0.000   0.000   0.000  -0.000   0.000   0.000   0.000   0.000   0.000   1.011   0.000   0.000   0.000   0.000   0.603   0.000
  0.000  -0.000   0.000   0.000   0.000  -0.000   0.000  -0.000  -0.000   0.000   0.780   0.000  -0.000  -0.000   0.000   0.507
  0.000   0.000   0.000   0.000   0.000   0.000   0.603   0.000  -0.000  -0.000   0.000   0.450   0.000  -0.000  -0.000   0.000
  0.000   0.000  -0.000   0.000   0.000  -0.000   0.000   0.603  -0.000   0.000  -0.000   0.000   0.450   0.000   0.000   0.000
  0.000   0.000  -0.000   0.000   0.000  -0.000  -0.000  -0.000   0.507  -0.000  -0.000   0.000   0.000   0.435   0.000   0.000
  0.000   0.000   0.000  -0.000   0.000   0.000   0.000   0.000   0.000   0.603   0.000   0.000   0.000   0.000   0.450   0.000
  0.000   0.000   0.000   0.000  -0.000   0.000   0.000  -0.000  -0.000   0.000   0.507   0.000  -0.000  -0.000   0.000   0.435
  0.000   0.000   0.000   0.000   0.000   0.000   0.000   0.000   0.000   0.000   0.000  -0.000  -0.000  -0.000   0.000  -0.000
  0.000  -0.000   0.000   0.000   0.000  -0.000  -0.000  -0.000   0.000   0.000  -0.000  -0.000  -0.000   0.000  -0.000  -0.000


------------------------ aborting loop because EDIFF is reached ----------------------------------------


    CHARGE:  cpu time      0.0012: real time      0.0012
    FORLOC:  cpu time      0.0000: real time      0.0000
    FORNL :  cpu time      0.0009: real time      0.0009
    STRESS:  cpu time      0.0055: real time      0.0055
    FORCOR:  cpu time      0.0011: real time      0.0017
    FORHAR:  cpu time      0.0002: real time      0.0002
[...]


--------------------------------------------------------------------------------------------------------




--------------------------------------- Iteration      4(   2)  ---------------------------------------


    POTLOK:  cpu time      0.0019: real time      0.0021
    SETDIJ:  cpu time      0.0012: real time      0.0012
    EDDIAG:  cpu time      0.0076: real time      0.0079
  RMM-DIIS:  cpu time      0.0010: real time      0.0010
    ORTHCH:  cpu time      0.0009: real time      0.0009
       DOS:  cpu time      0.0002: real time      0.0002
    CHARGE:  cpu time      0.0012: real time      0.0012
    MIXING:  cpu time      0.0002: real time      0.0002
    --------------------------------------------
      LOOP:  cpu time      0.0143: real time      0.0147

 eigenvalue-minimisations  :   222
 total energy-change (2. order) : 0.2837840E-03  (-0.2150069E-04)
 number of electron      23.9999968 magnetization 
 augmentation part        9.1745469 magnetization 

 Broyden mixing:
  rms(total) = 0.34909E-02    rms(broyden)= 0.34909E-02
  rms(prec ) = 0.90711E-02
  weight for this iteration     100.00

 eigenvalues of (default mixing * dielectric matrix)
  average eigenvalue GAMMA=   1.5727
  1.5727

 Free energy of the ion-electron system (eV)
  ---------------------------------------------------
  alpha Z        PSCENC =       255.12041252
  Ewald energy   TEWEN  =     -2372.72862619
  -Hartree energ DENC   =      -315.21434542
  -exchange      EXHF   =         0.00000000
  -V(xc)+E(xc)   XCENC  =        72.88895826
  PAW double counting   =      1876.75399027    -1848.60111788
  entropy T*S    EENTRO =        -0.00085113
  eigenvalues    EBANDS =      -258.30917299
  atomic energy  EATOM  =      2568.59197227
  Solvation  Ediel_sol  =         0.00000000
  ---------------------------------------------------
  free energy    TOTEN  =       -21.49878031 eV

  energy without entropy =      -21.49792918  energy(sigma->0) =      -21.49835474


--------------------------------------------------------------------------------------------------------




--------------------------------------- Iteration      4(   3)  ---------------------------------------


    POTLOK:  cpu time      0.0018: real time      0.0020
    SETDIJ:  cpu time      0.0012: real time      0.0012
    EDDIAG:  cpu time      0.0070: real time      0.0070
  RMM-DIIS:  cpu time      0.0009: real time      0.0009
    ORTHCH:  cpu time      0.0010: real time      0.0010
       DOS:  cpu time      0.0002: real time      0.0002
    CHARGE:  cpu time      0.0012: real time      0.0012
    MIXING:  cpu time      0.0002: real time      0.0002
    --------------------------------------------
      LOOP:  cpu time      0.0134: real time      0.0136

 eigenvalue-minimisations  :   212
 total energy-change (2. order) : 0.3531410E-04  (-0.8743213E-05)
 number of electron      23.9999968 magnetization 
 augmentation part        9.1766753 magnetization 

 Broyden mixing:
  rms(total) = 0.71910E-03    rms(broyden)= 0.71906E-03
  rms(prec ) = 0.15656E-02
  weight for this iteration     100.00

 eigenvalues of (default mixing * dielectric matrix)
  average eigenvalue GAMMA=   2.0154
  1.6369  2.3939

 Free energy of the ion-electron system (eV)
  ---------------------------------------------------
  alpha Z        PSCENC =       255.12041252
  Ewald energy   TEWEN  =     -2372.72862619
  -Hartree energ DENC   =      -315.04594532
  -exchange      EXHF   =         0.00000000
  -V(xc)+E(xc)   XCENC  =        72.88067435
  PAW double counting   =      1877.03838784    -1848.89101163
  entropy T*S    EENTRO =        -0.00091599
  eigenvalues    EBANDS =      -258.46369283
  atomic energy  EATOM  =      2568.59197227
  Solvation  Ediel_sol  =         0.00000000
  ---------------------------------------------------
  free energy    TOTEN  =       -21.49874499 eV

  energy without entropy =      -21.49782900  energy(sigma->0) =      -21.49828699


--------------------------------------------------------------------------------------------------------




--------------------------------------- Iteration      4(   4)  ---------------------------------------


    POTLOK:  cpu time      0.0019: real time      0.0021
    SETDIJ:  cpu time      0.0012: real time      0.0012
    EDDIAG:  cpu time      0.0083: real time      0.0086
  RMM-DIIS:  cpu time      0.0008: real time      0.0008
    ORTHCH:  cpu time      0.0009: real time      0.0009
       DOS:  cpu time      0.0002: real time      0.0002
    --------------------------------------------
      LOOP:  cpu time      0.0133: real time      0.0138

 eigenvalue-minimisations  :   132
 total energy-change (2. order) :-0.5625023E-05  (-0.6816229E-06)
 number of electron      23.9999968 magnetization 
 augmentation part        9.1766753 magnetization 

 Free energy of the ion-electron system (eV)
  ---------------------------------------------------
  alpha Z        PSCENC =       255.12041252
  Ewald energy   TEWEN  =     -2372.72862619
  -Hartree energ DENC   =      -315.07623174
  -exchange      EXHF   =         0.00000000
  -V(xc)+E(xc)   XCENC  =        72.88212110
  PAW double counting   =      1877.62100567    -1849.45890730
  entropy T*S    EENTRO =        -0.00091905
  eigenvalues    EBANDS =      -258.44957790
  atomic energy  EATOM  =      2568.59197227
  Solvation  Ediel_sol  =         0.00000000
  ---------------------------------------------------
  free energy    TOTEN  =       -21.49875062 eV

  energy without entropy =      -21.49783157  energy(sigma->0) =      -21.49829109


--------------------------------------------------------------------------------------------------------




 average (electrostatic) potential at core
  the test charge radii are     1.1533
  (the norm of the test charge is              1.0000)
       1 -49.0665       2 -49.0665
 
 
 
 E-fermi :   7.7623     XC(G=0): -13.1414     alpha+bet :-15.5800

 val. band max:        7.5614240652   @ k =   0.3333   0.3333   0.0000
 cond. band min:       7.9453114454   @ k =   0.3333   0.0000   0.0000
 fundamental gap:      0.3838873803
 Fermi energy:         7.7622527962

 k-point     1 :       0.0000    0.0000    0.0000
  band No.  band energies     occupation 
      1     -27.3365      2.00000
      2     -27.3365      2.00000
      3     -27.3365      2.00000
      4     -26.4606      2.00000
      5     -26.4606      2.00000
      6     -26.4606      2.00000
      7       1.1584      2.00000
      8       3.0586      2.00000
      9       3.0586      2.00000
     10       6.9173      2.00000
     11       6.9173      2.00000
     12       6.9173      2.00000
     13       9.8371      0.00000
     14       9.8371      0.00000
     15      12.0184      0.00000
     16      12.0184      0.00000
     17      12.0184      0.00000
     18      17.3941      0.00000
     19      17.3941      0.00000
     20      17.3941      0.00000
     21      24.1864      0.00000
     22      24.1864      0.00000
     23      24.1864      0.00000
     24      24.8663      0.00000
     25      24.8667      0.00000
     26      27.4254      0.00000
     27      28.8184      0.00000
     28      28.8184      0.00000

 k-point     2 :       0.3333    0.0000    0.0000
  band No.  band energies     occupation 
      1     -27.2958      2.00000
      2     -27.1117      2.00000
      3     -27.1117      2.00000
      4     -26.8659      2.00000
      5     -26.6730      2.00000
      6     -26.6730      2.00000
      7       3.2048      2.00000
      8       4.3078      2.00000
      9       4.5177      2.00000
     10       7.0407      2.00000
     11       7.0407      2.00000
     12       7.5200      1.99939
     13       7.9453      0.00963
     14       8.9348      0.00000
     15       8.9348      0.00000
     16      10.4290      0.00000
     17      10.7237      0.00000
     18      13.2101      0.00000
     19      23.0559      0.00000
     20      23.0559      0.00000
     21      24.8593      0.00000
     22      24.8665      0.00000
     23      24.8874      0.00000
     24      25.6737      0.00000
     25      25.9475      0.00000
     26      27.3441      0.00000
     27      27.3441      0.00000
     28      27.8098      0.00000

 k-point     3 :       0.3333    0.3333    0.0000
  band No.  band energies     occupation 
      1     -27.6295      2.00000
      2     -27.4254      2.00000
      3     -26.9873      2.00000
      4     -26.7673      2.00000
      5     -26.6961      2.00000
      6     -26.4673      2.00000
      7       3.3838      2.00000
      8       3.8620      2.00000
      9       5.3930      2.00000
     10       6.1460      2.00000
     11       6.5060      2.00000
     12       7.5614      1.99549
     13       8.6143      0.00000
     14       9.6278      0.00000
     15      10.1805      0.00000
     16      10.7584      0.00000
     17      12.5493      0.00000
     18      14.0241      0.00000
     19      19.0793      0.00000
     20      22.4569      0.00000
     21      22.4945      0.00000
     22      23.6109      0.00000
     23      24.1423      0.00000
     24      24.8667      0.00000
     25      24.8668      0.00000
     26      29.5454      0.00000
     27      29.5900      0.00000
     28      30.5338      0.00000

 k-point     4 :       0.3333    0.3333    0.3333
  band No.  band energies     occupation 
      1     -27.4615      2.00000
      2     -27.3380      2.00000
      3     -27.3380      2.00000
      4     -26.7562      2.00000
      5     -26.7562      2.00000
      6     -26.6217      2.00000
      7       4.5792      2.00000
      8       5.2468      2.00000
      9       5.2468      2.00000
     10       5.4886      2.00000
     11       6.0007      2.00000
     12       6.0007      2.00000
     13      10.2007      0.00000
     14      10.2007      0.00000
     15      10.2883      0.00000
     16      10.2883      0.00000
     17      14.1943      0.00000
     18      18.2756      0.00000
     19      18.4579      0.00000
     20      18.4579      0.00000
     21      21.8094      0.00000
     22      22.4313      0.00000
     23      22.4313      0.00000
     24      24.8667      0.00000
     25      24.8668      0.00000
     26      25.9693      0.00000
     27      29.0849      0.00000
     28      30.3734      0.00000


--------------------------------------------------------------------------------------------------------


 soft charge-density along one line, spin component           1
         0         1         2         3         4         5         6         7         8         9
 total charge-density along one line
 
 pseudopotential strength for first ion, spin component:           1
-27.431   0.000   0.000  13.258  -0.000  -0.000   0.000   0.000
  0.000 -27.431   0.000  -0.000  13.258  -0.000  -0.000   0.000
  0.000   0.000 -27.431  -0.000  -0.000  13.258   0.000  -0.000
 13.258  -0.000  -0.000  -0.763   0.000   0.000  -0.000  -0.000
 -0.000  13.258  -0.000   0.000  -0.763   0.000   0.000  -0.000
 -0.000  -0.000  13.258   0.000   0.000  -0.763  -0.000   0.000
  0.000  -0.000   0.000  -0.000   0.000  -0.000  -4.965   0.000
  0.000   0.000  -0.000  -0.000  -0.000   0.000   0.000  -4.965
 -0.000   0.000  -0.000   0.000  -0.000  -0.000  -0.000   0.000
 -0.000   0.000   0.000   0.000  -0.000  -0.000   0.000   0.000
 -0.000   0.000   0.000   0.000  -0.000  -0.000  -0.000  -0.000
  0.000   0.000  -0.000  -0.000  -0.000   0.000  -0.213  -0.000
 -0.000  -0.000   0.000   0.000   0.000  -0.000  -0.000  -0.213
  0.000  -0.000   0.000  -0.000   0.000   0.000   0.000  -0.000
  0.000  -0.000  -0.000  -0.000   0.000   0.000  -0.000  -0.000
  0.000  -0.000  -0.000  -0.000   0.000  -0.000   0.000   0.000
 -0.000  -0.000   0.000   0.000   0.000   0.000  -0.000  -0.000
  0.000   0.000   0.000  -0.000  -0.000  -0.000   0.000   0.000
 total augmentation occupancy for first ion, spin component:           1
  2.003   0.000   0.000   0.063  -0.000  -0.000   0.000   0.000  -0.000   0.000   0.000   0.000   0.000   0.000   0.000   0.000
  0.000   2.003   0.000  -0.000   0.063  -0.000   0.000   0.000   0.000   0.000   0.000   0.000   0.000  -0.000   0.000   0.000
  0.000   0.000   2.003   0.000  -0.000   0.063   0.000   0.000  -0.000   0.000  -0.000   0.000   0.000   0.000   0.000  -0.000
  0.063  -0.000   0.000   0.303  -0.000   0.000   0.000   0.000  -0.000   0.000  -0.000   0.000   0.000   0.000   0.000  -0.000
 -0.000   0.063   0.000  -0.000   0.303   0.000   0.000   0.000   0.000   0.000   0.000   0.000   0.000  -0.000   0.000   0.000
  0.000  -0.000   0.063  -0.000   0.000   0.303   0.000   0.000   0.000   0.000  -0.000   0.000   0.000  -0.000   0.000   0.000
  0.000   0.000   0.000   0.000   0.000   0.000   1.025   0.000   0.000   0.000  -0.000   0.701  -0.000  -0.000   0.000  -0.000
  0.000   0.000   0.000   0.000   0.000   0.000   0.000   1.025   0.000   0.000  -0.000   0.000   0.701   0.000  -0.000  -0.000
 -0.000   0.000   0.000   0.000   0.000  -0.000  -0.000  -0.000   0.808   0.000   0.000  -0.000   0.000   0.603   0.000   0.000
  0.000   0.000   0.000  -0.000   0.000   0.000   0.000   0.000   0.000   1.025   0.000   0.000   0.000  -0.000   0.701   0.000
  0.000   0.000   0.000   0.000   0.000   0.000   0.000  -0.000   0.000   0.000   0.808  -0.000  -0.000   0.000   0.000   0.603
  0.000   0.000   0.000   0.000   0.000   0.000   0.701   0.000  -0.000  -0.000   0.000   0.602  -0.000   0.000   0.000   0.000
  0.000   0.000  -0.000   0.000   0.000   0.000   0.000   0.701   0.000   0.000  -0.000  -0.000   0.602  -0.000   0.000  -0.000
 -0.000  -0.000   0.000  -0.000   0.000  -0.000   0.000   0.000   0.603   0.000   0.000   0.000  -0.000   0.585   0.000   0.000
  0.000   0.000   0.000  -0.000   0.000   0.000   0.000  -0.000  -0.000   0.701  -0.000  -0.000  -0.000   0.000   0.602   0.000
  0.000  -0.000   0.000   0.000   0.000   0.000  -0.000  -0.000   0.000  -0.000   0.603   0.000  -0.000   0.000   0.000   0.585
  0.000   0.000   0.000   0.000   0.000   0.000  -0.000  -0.000   0.000   0.000  -0.000  -0.000   0.000  -0.000  -0.000  -0.000
  0.000   0.000   0.000   0.000   0.000   0.000  -0.000  -0.000   0.000   0.000   0.000  -0.000   0.000   0.000   0.000   0.000


------------------------ aborting loop because EDIFF is reached ----------------------------------------


    CHARGE:  cpu time      0.0012: real time      0.0012
    FORLOC:  cpu time      0.0000: real time      0.0000
    FORNL :  cpu time      0.0010: real time      0.0010
    STRESS:  cpu time      0.0056: real time      0.0056
    FORCOR:  cpu time      0.0010: real time      0.0010
    FORHAR:  cpu time      0.0002: real time      0.0002
    MIXING:  cpu time      0.0002: real time      0.0002
    OFIELD:  cpu time      0.0000: real time      0.0000

  FORCE on cell =-STRESS in cart. coord.  units (eV):
  Direction    XX          YY          ZZ          XY          YZ          ZX
  --------------------------------------------------------------------------------------
  Alpha Z   255.12041   255.12041   255.12041
  Ewald    -790.90948  -790.90948  -790.90948    -0.00000     0.00000     0.00000
  Hartree   105.02277   105.02277   105.02277    -0.00000    -0.00000    -0.00000
  E(xc)    -108.93978  -108.93978  -108.93978     0.00000     0.00000    -0.00000
  Local     215.84223   215.84223   215.84223    -0.00000    -0.00000    -0.00000
  n-local   -53.40503   -50.27501   -44.57676     2.27138    -0.31416    -0.31417
  augment   102.97008   102.97008   102.97008     0.00000     0.00000     0.00000
  Kinetic   267.40203   265.56567   277.96462     6.16007    -0.81254    -0.81256
  Fock        0.00000     0.00000     0.00000     0.00000     0.00000     0.00000
  -------------------------------------------------------------------------------------
  Total      -0.00192    -0.00192    -0.00192    -0.00000    -0.00000     0.00000
  in kB      -0.09576    -0.09576    -0.09576    -0.00000    -0.00000     0.00000
  external pressure =       -0.10 kB  Pullay stress =        0.00 kB


 VOLUME and BASIS-vectors are now :
 -----------------------------------------------------------------------------
  energy-cutoff  :      400.00
  volume of cell :       32.17
      direct lattice vectors                 reciprocal lattice vectors
     3.180390250  0.000000000 -0.000000000     0.314426822 -0.000000000 -0.000000000
     0.000000000  3.180390250 -0.000000000    -0.000000000  0.314426822 -0.000000000
     0.000000000  0.000000000  3.180390250     0.000000000  0.000000000  0.314426822

  length of vectors
     3.180390250  3.180390250  3.180390250     0.314426822  0.314426822  0.314426822


 FORCES acting on ions
    electron-ion (+dipol)            ewald-force                    non-local-force                 convergence-correction
 -----------------------------------------------------------------------------------------------
   0.268E-14 -.604E-16 0.447E-14   -.792E-14 -.742E-14 -.220E-14   -.341E-26 -.806E-26 -.150E-26   -.189E-14 -.389E-14 0.104E-13
   0.879E-13 0.116E-11 0.207E-12   0.448E-14 0.554E-14 0.245E-14   0.518E-26 0.644E-26 -.206E-26   0.206E-13 -.823E-14 0.828E-14
 -----------------------------------------------------------------------------------------------
   0.906E-13 0.116E-11 0.211E-12   -.344E-14 -.188E-14 0.247E-15   0.177E-26 -.162E-26 -.356E-26   0.187E-13 -.121E-13 0.187E-13
 
 
 POSITION                                       TOTAL-FORCE (eV/Angst)
 -----------------------------------------------------------------------------------
      0.00000      0.00000      0.00000        -0.000000     -0.000000     -0.000000
      1.59020      1.59020      1.59020         0.000000      0.000000      0.000000
 -----------------------------------------------------------------------------------
    total drift:                                0.000000      0.000000      0.000000


--------------------------------------------------------------------------------------------------------



  FREE ENERGIE OF THE ION-ELECTRON SYSTEM (eV)
  ---------------------------------------------------
  free  energy   TOTEN  =       -21.49875062 eV

  energy  without entropy=      -21.49783157  energy(sigma->0) =      -21.49829109
 
 d Force =-0.2545215E-63[-0.308E-63,-0.201E-63]  d Energy = 0.3608142E-04-0.361E-04
 d Force =-0.1462595E-47[-0.157E-47,-0.135E-47]  d Ewald  = 0.9748140E+00-0.975E+00


--------------------------------------------------------------------------------------------------------


    POTLOK:  cpu time      0.0037: real time      0.0037


--------------------------------------------------------------------------------------------------------




--------------------------------------------------------------------------------------------------------


  
 reached required accuracy - stopping structural energy minimisation
     LOOP+:  cpu time      0.0881: real time      0.0896
    4ORBIT:  cpu time      0.0000: real time      0.0000

 total amount of memory used by VASP MPI-rank0    30785. kBytes
=======================================================================

   base      :      30000. kBytes
   nonl-proj :        357. kBytes
   fftplans  :         86. kBytes
   grid      :        270. kBytes
   one-center:         31. kBytes
   wavefun   :         41. kBytes
 
  
  
 General timing and accounting informations for this job:
 ========================================================
  
                  Total CPU time used (sec):        1.464
                            User time (sec):        1.230
                          System time (sec):        0.233
                         Elapsed time (sec):        2.279
  
                   Maximum memory used (kb):       63200.
                   Average memory used (kb):          N/A
  
                          Minor page faults:        14007
                          Major page faults:            0
                 Voluntary context switches:         1273
