  64  64   0   0
  0.1129557E+02  0.8932500E-09  0.9055600E-09  0.8937200E-09  0.5000000E-15
  1.000000000000000E-004
  CAR 
 HECN                                    
     14.92383527    -50.20951364  301      8.76125512      1.00000000
    -50.210  0.0000E+00  0.0000E+00
    -49.992  0.0000E+00  0.0000E+00
    -49.775  0.0000E+00  0.0000E+00
    -49.558  0.0000E+00  0.0000E+00
    -49.341  0.0000E+00  0.0000E+00
    -49.124  0.0000E+00  0.0000E+00
    -48.907  0.0000E+00  0.0000E+00
    -48.690  0.0000E+00  0.0000E+00
    -48.473  0.0000E+00  0.0000E+00
    -48.256  0.0000E+00  0.0000E+00
    -48.038  0.0000E+00  0.0000E+00
    -47.821  0.2557E-16  0.5551E-17
    -47.604  0.2327E-07  0.5052E-08
    -47.387  0.2339E-02  0.5079E-03
    -47.170  0.9973E-01  0.2216E-01
    -46.953  0.3348E+00  0.9485E-01
    -46.736  0.2062E+00  0.1396E+00
    -46.519  0.1770E-02  0.1400E+00
    -46.302  0.9047E-08  0.1400E+00
    -46.084  0.0000E+00  0.1400E+00
    -45.867  0.0000E+00  0.1400E+00
    -45.650  0.0000E+00  0.1400E+00
    -45.433  0.0000E+00  0.1400E+00
    -45.216  0.0000E+00  0.1400E+00
    -44.999  0.0000E+00  0.1400E+00
    -44.782  0.0000E+00  0.1400E+00
    -44.565  0.0000E+00  0.1400E+00
    -44.348  0.0000E+00  0.1400E+00
    -44.130  0.0000E+00  0.1400E+00
    -43.913  0.0000E+00  0.1400E+00
    -43.696  0.0000E+00  0.1400E+00
    -43.479  0.0000E+00  0.1400E+00
    -43.262  0.0000E+00  0.1400E+00
    -43.045  0.0000E+00  0.1400E+00
    -42.828  0.0000E+00  0.1400E+00
    -42.611  0.0000E+00  0.1400E+00
    -42.394  0.0000E+00  0.1400E+00
    -42.176  0.0000E+00  0.1400E+00
    -41.959  0.0000E+00  0.1400E+00
    -41.742  0.0000E+00  0.1400E+00
    -41.525  0.0000E+00  0.1400E+00
    -41.308  0.0000E+00  0.1400E+00
    -41.091  0.0000E+00  0.1400E+00
    -40.874  0.1243E-08  0.1400E+00
    -40.657  0.6065E-03  0.1401E+00
    -40.440  0.9841E-01  0.1615E+00
    -40.222  0.1685E+00  0.1981E+00
    -40.005  0.5864E-01  0.2108E+00
    -39.788  0.2161E+00  0.2577E+00
    -39.571  0.1857E-01  0.2618E+00
    -39.354  0.8005E-01  0.2791E+00
    -39.137  0.3951E-02  0.2800E+00
    -38.920  0.7739E-07  0.2800E+00
    -38.703  0.1841E-15  0.2800E+00
    -38.486  0.0000E+00  0.2800E+00
    -38.268  0.0000E+00  0.2800E+00
    -38.051  0.0000E+00  0.2800E+00
    -37.834  0.0000E+00  0.2800E+00
    -37.617  0.0000E+00  0.2800E+00
    -37.400  0.0000E+00  0.2800E+00
    -37.183  0.0000E+00  0.2800E+00
    -36.966  0.0000E+00  0.2800E+00
    -36.749  0.0000E+00  0.2800E+00
    -36.532  0.0000E+00  0.2800E+00
    -36.314  0.0000E+00  0.2800E+00
    -36.097  0.0000E+00  0.2800E+00
    -35.880  0.0000E+00  0.2800E+00
    -35.663  0.0000E+00  0.2800E+00
    -35.446  0.1438E-10  0.2800E+00
    -35.229  0.5871E-04  0.2800E+00
    -35.012  0.4836E-01  0.2905E+00
    -34.795  0.6198E+00  0.4251E+00
    -34.578  0.8994E+00  0.6203E+00
    -34.360  0.9040E-01  0.6400E+00
    -34.143  0.1721E-03  0.6400E+00
    -33.926  0.1063E-09  0.6400E+00
    -33.709  0.0000E+00  0.6400E+00
    -33.492  0.0000E+00  0.6400E+00
    -33.275  0.0000E+00  0.6400E+00
    -33.058  0.0000E+00  0.6400E+00
    -32.841  0.0000E+00  0.6400E+00
    -32.624  0.0000E+00  0.6400E+00
    -32.406  0.0000E+00  0.6400E+00
    -32.189  0.0000E+00  0.6400E+00
    -31.972  0.0000E+00  0.6400E+00
    -31.755  0.0000E+00  0.6400E+00
    -31.538  0.0000E+00  0.6400E+00
    -31.321  0.0000E+00  0.6400E+00
    -31.104  0.0000E+00  0.6400E+00
    -30.887  0.0000E+00  0.6400E+00
    -30.670  0.0000E+00  0.6400E+00
    -30.452  0.0000E+00  0.6400E+00
    -30.235  0.0000E+00  0.6400E+00
    -30.018  0.0000E+00  0.6400E+00
    -29.801  0.0000E+00  0.6400E+00
    -29.584  0.0000E+00  0.6400E+00
    -29.367  0.0000E+00  0.6400E+00
    -29.150  0.0000E+00  0.6400E+00
    -28.933  0.0000E+00  0.6400E+00
    -28.716  0.0000E+00  0.6400E+00
    -28.498  0.0000E+00  0.6400E+00
    -28.281  0.0000E+00  0.6400E+00
    -28.064  0.0000E+00  0.6400E+00
    -27.847  0.0000E+00  0.6400E+00
    -27.630  0.0000E+00  0.6400E+00
    -27.413  0.7021E-09  0.6400E+00
    -27.196  0.4660E-03  0.6401E+00
    -26.979  0.1121E+00  0.6644E+00
    -26.762  0.3914E+00  0.7494E+00
    -26.544  0.3838E+00  0.8328E+00
    -26.327  0.5201E+00  0.9457E+00
    -26.110  0.2470E+00  0.9993E+00
    -25.893  0.3210E-02  0.1000E+01
    -25.676  0.2356E-07  0.1000E+01
    -25.459  0.2045E-16  0.1000E+01
    -25.242  0.0000E+00  0.1000E+01
    -25.025  0.0000E+00  0.1000E+01
    -24.808  0.0000E+00  0.1000E+01
    -24.590  0.0000E+00  0.1000E+01
    -24.373  0.0000E+00  0.1000E+01
    -24.156  0.0000E+00  0.1000E+01
    -23.939  0.8468E-12  0.1000E+01
    -23.722  0.1317E-04  0.1000E+01
    -23.505  0.4078E-01  0.1009E+01
    -23.288  0.4248E+00  0.1101E+01
    -23.071  0.1011E+01  0.1321E+01
    -22.854  0.4167E+00  0.1411E+01
    -22.636  0.4107E-01  0.1420E+01
    -22.419  0.2384E-04  0.1420E+01
    -22.202  0.2699E-11  0.1420E+01
    -21.985  0.0000E+00  0.1420E+01
    -21.768  0.0000E+00  0.1420E+01
    -21.551  0.0000E+00  0.1420E+01
    -21.334  0.0000E+00  0.1420E+01
    -21.117  0.0000E+00  0.1420E+01
    -20.900  0.0000E+00  0.1420E+01
    -20.682  0.0000E+00  0.1420E+01
    -20.465  0.0000E+00  0.1420E+01
    -20.248  0.0000E+00  0.1420E+01
    -20.031  0.0000E+00  0.1420E+01
    -19.814  0.0000E+00  0.1420E+01
    -19.597  0.3750E-16  0.1420E+01
    -19.380  0.2895E-07  0.1420E+01
    -19.163  0.2577E-02  0.1421E+01
    -18.946  0.1003E+00  0.1442E+01
    -18.728  0.2785E+00  0.1503E+01
    -18.511  0.3932E+00  0.1588E+01
    -18.294  0.3866E+00  0.1672E+01
    -18.077  0.4893E+00  0.1778E+01
    -17.860  0.1804E+00  0.1818E+01
    -17.643  0.1035E+00  0.1840E+01
    -17.426  0.1145E-03  0.1840E+01
    -17.209  0.2490E-10  0.1840E+01
    -16.992  0.0000E+00  0.1840E+01
    -16.774  0.0000E+00  0.1840E+01
    -16.557  0.0000E+00  0.1840E+01
    -16.340  0.0000E+00  0.1840E+01
    -16.123  0.0000E+00  0.1840E+01
    -15.906  0.0000E+00  0.1840E+01
    -15.689  0.0000E+00  0.1840E+01
    -15.472  0.0000E+00  0.1840E+01
    -15.255  0.0000E+00  0.1840E+01
    -15.038  0.0000E+00  0.1840E+01
    -14.820  0.0000E+00  0.1840E+01
    -14.603  0.0000E+00  0.1840E+01
    -14.386  0.0000E+00  0.1840E+01
    -14.169  0.0000E+00  0.1840E+01
    -13.952  0.0000E+00  0.1840E+01
    -13.735  0.0000E+00  0.1840E+01
    -13.518  0.0000E+00  0.1840E+01
    -13.301  0.0000E+00  0.1840E+01
    -13.084  0.0000E+00  0.1840E+01
    -12.866  0.0000E+00  0.1840E+01
    -12.649  0.0000E+00  0.1840E+01
    -12.432  0.0000E+00  0.1840E+01
    -12.215  0.0000E+00  0.1840E+01
    -11.998  0.0000E+00  0.1840E+01
    -11.781  0.0000E+00  0.1840E+01
    -11.564  0.0000E+00  0.1840E+01
    -11.347  0.0000E+00  0.1840E+01
    -11.130  0.0000E+00  0.1840E+01
    -10.912  0.0000E+00  0.1840E+01
    -10.695  0.0000E+00  0.1840E+01
    -10.478  0.0000E+00  0.1840E+01
    -10.261  0.0000E+00  0.1840E+01
    -10.044  0.0000E+00  0.1840E+01
     -9.827  0.0000E+00  0.1840E+01
     -9.610  0.0000E+00  0.1840E+01
     -9.393  0.0000E+00  0.1840E+01
     -9.176  0.0000E+00  0.1840E+01
     -8.958  0.0000E+00  0.1840E+01
     -8.741  0.0000E+00  0.1840E+01
     -8.524  0.0000E+00  0.1840E+01
     -8.307  0.0000E+00  0.1840E+01
     -8.090  0.0000E+00  0.1840E+01
     -7.873  0.1934E-11  0.1840E+01
     -7.656  0.5660E-05  0.1840E+01
     -7.439  0.7472E-02  0.1842E+01
     -7.222  0.7178E-01  0.1857E+01
     -7.004  0.4387E-01  0.1867E+01
     -6.787  0.1956E+00  0.1909E+01
     -6.570  0.8647E-01  0.1928E+01
     -6.353  0.1512E+00  0.1961E+01
     -6.136  0.1421E+00  0.1992E+01
     -5.919  0.1810E+00  0.2031E+01
     -5.702  0.1849E+00  0.2071E+01
     -5.485  0.1260E+00  0.2098E+01
     -5.268  0.7094E-02  0.2100E+01
     -5.050  0.3202E-06  0.2100E+01
     -4.833  0.1875E-14  0.2100E+01
     -4.616  0.1102E-15  0.2100E+01
     -4.399  0.2144E-07  0.2100E+01
     -4.182  0.5992E-03  0.2100E+01
     -3.965  0.3066E-01  0.2107E+01
     -3.748  0.5723E-01  0.2119E+01
     -3.531  0.4067E-01  0.2128E+01
     -3.314  0.1175E+00  0.2154E+01
     -3.096  0.1673E+00  0.2190E+01
     -2.879  0.2541E+00  0.2245E+01
     -2.662  0.2397E+00  0.2297E+01
     -2.445  0.2107E+00  0.2343E+01
     -2.228  0.2439E+00  0.2396E+01
     -2.011  0.1897E+00  0.2437E+01
     -1.794  0.9315E-01  0.2457E+01
     -1.577  0.7755E-01  0.2474E+01
     -1.360  0.2596E-01  0.2480E+01
     -1.142  0.1576E-02  0.2480E+01
     -0.925  0.9442E-06  0.2480E+01
     -0.708  0.1143E-12  0.2480E+01
     -0.491  0.0000E+00  0.2480E+01
     -0.274  0.0000E+00  0.2480E+01
     -0.057  0.0000E+00  0.2480E+01
      0.160  0.1477E-16  0.2480E+01
      0.377  0.4720E-08  0.2480E+01
      0.594  0.1812E-03  0.2480E+01
      0.812  0.4241E-02  0.2481E+01
      1.029  0.2088E-01  0.2485E+01
      1.246  0.6793E-01  0.2500E+01
      1.463  0.1004E+00  0.2522E+01
      1.680  0.1438E+00  0.2553E+01
      1.897  0.1907E+00  0.2595E+01
      2.114  0.2678E+00  0.2653E+01
      2.331  0.2822E+00  0.2714E+01
      2.548  0.2754E+00  0.2774E+01
      2.766  0.3105E+00  0.2841E+01
      2.983  0.3298E+00  0.2913E+01
      3.200  0.3707E+00  0.2993E+01
      3.417  0.4803E+00  0.3098E+01
      3.634  0.5660E+00  0.3221E+01
      3.851  0.6316E+00  0.3358E+01
      4.068  0.6905E+00  0.3508E+01
      4.285  0.6848E+00  0.3656E+01
      4.502  0.6405E+00  0.3795E+01
      4.720  0.5509E+00  0.3915E+01
      4.937  0.4790E+00  0.4019E+01
      5.154  0.3828E+00  0.4102E+01
      5.371  0.3127E+00  0.4170E+01
      5.588  0.3281E+00  0.4241E+01
      5.805  0.2710E+00  0.4300E+01
      6.022  0.2056E+00  0.4345E+01
      6.239  0.1504E+00  0.4377E+01
      6.456  0.9474E-01  0.4398E+01
      6.674  0.9813E-01  0.4419E+01
      6.891  0.1730E+00  0.4457E+01
      7.108  0.2083E+00  0.4502E+01
      7.325  0.1834E+00  0.4542E+01
      7.542  0.1968E+00  0.4584E+01
      7.759  0.2026E+00  0.4628E+01
      7.976  0.2435E+00  0.4681E+01
      8.193  0.2651E+00  0.4739E+01
      8.411  0.3094E+00  0.4806E+01
      8.628  0.2714E+00  0.4865E+01
      8.845  0.2560E+00  0.4921E+01
      9.062  0.2908E+00  0.4984E+01
      9.279  0.3745E+00  0.5065E+01
      9.496  0.4246E+00  0.5157E+01
      9.713  0.4641E+00  0.5258E+01
      9.930  0.4677E+00  0.5359E+01
     10.147  0.4446E+00  0.5456E+01
     10.365  0.4322E+00  0.5550E+01
     10.582  0.4331E+00  0.5644E+01
     10.799  0.4524E+00  0.5742E+01
     11.016  0.4410E+00  0.5838E+01
     11.233  0.4432E+00  0.5934E+01
     11.450  0.4337E+00  0.6028E+01
     11.667  0.4669E+00  0.6130E+01
     11.884  0.4088E+00  0.6218E+01
     12.101  0.9899E-01  0.6240E+01
     12.319  0.6485E-03  0.6240E+01
     12.536  0.3506E-08  0.6240E+01
     12.753  0.1515E-17  0.6240E+01
     12.970  0.0000E+00  0.6240E+01
     13.187  0.0000E+00  0.6240E+01
     13.404  0.0000E+00  0.6240E+01
     13.621  0.0000E+00  0.6240E+01
     13.838  0.0000E+00  0.6240E+01
     14.055  0.0000E+00  0.6240E+01
     14.273  0.0000E+00  0.6240E+01
     14.490  0.0000E+00  0.6240E+01
     14.707  0.0000E+00  0.6240E+01
     14.924  0.0000E+00  0.6240E+01
