HECN                                    
           1
     8.932500    0.000000    0.000000
     0.005753    9.055598    0.000000
     0.032102   -0.015743    8.937128
   Nb   Ta   Zr   N    C    Cr   Mo
   7   6   7  13  19   6   6
Direct configuration=     1
   0.99688001  0.99204997  0.99924002
   0.25398003  0.99714995  0.24912000
   0.24803003  0.50165000  0.24955001
   0.50501006  0.49745998  0.99834003
   0.50479003  0.24631001  0.74710002
   0.99427992  0.50449999  0.49779000
   0.49950005  0.75481999  0.74817004
   0.99437004  0.23617001  0.26379999
   0.75718000  0.74102998  0.01100000
   0.00201000  0.25541000  0.73894001
   0.75307001  0.26163001  0.50533002
   0.99514004  0.74492004  0.74511997
   0.25679999  0.49462002  0.74545002
   0.24788999  0.24839000  0.99657997
   0.50833000  0.25676999  0.25376001
   0.74879004  0.98787999  0.26967001
   0.75719000  0.25603001  0.99591997
   0.24762001  0.74973999  0.99974006
   0.25272001  0.24823001  0.50015003
   0.24457999  0.75048999  0.49983999
   0.24982001  0.24942998  0.24825000
   0.26146999  0.99984002  0.99295996
   0.00281000  0.25024000  0.00130000
   0.75313998  0.24617000  0.25492002
   0.74767001  0.99748000  0.01202000
   0.50714994  0.99977000  0.24673000
   0.99051999  0.48088002  0.24100998
   0.50519005  0.76130999  0.00855000
   0.98896989  0.00202000  0.73708999
   0.75744996  0.24437997  0.74896999
   0.73632001  0.00417000  0.51063000
   0.50563996  0.23264999  0.49544997
   0.50008998  0.00061000  0.73471998
   0.99720000  0.99771992  0.25899999
   0.50427997  0.24673000  0.00262000
   0.25133999  0.74958002  0.24910999
   0.24328000  0.50072997  0.99510994
   0.99837005  0.74313996  0.00460000
   0.75633000  0.73891003  0.25767000
   0.75839004  0.50315998  0.00288000
   0.50700002  0.50333002  0.25878999
   0.24900999  0.25315000  0.74854000
   0.24446000  0.99823996  0.50287998
   0.99804009  0.24229999  0.50128003
   0.24177002  0.75340997  0.75018002
   0.25841001  0.50062002  0.50129001
   0.99000004  0.76215003  0.49746000
   0.99203996  0.50055999  0.75138002
   0.75036005  0.74888000  0.74756004
   0.74036002  0.50197000  0.50067003
   0.50575006  0.74958002  0.49720000
   0.50501003  0.50217998  0.73912003
   0.51588997  0.01358000  0.98075008
   0.99841994  0.50976998  0.98613004
   0.50379003  0.73926997  0.25905001
   0.23780002  0.01082000  0.74607998
   0.47957999  0.98308000  0.49717999
   0.74279003  0.97869994  0.76450995
   0.99864998  0.77573999  0.26102000
   0.73551001  0.51468004  0.26666001
   0.02362000  0.99783001  0.49557002
   0.50539000  0.52833005  0.49917999
   0.73876003  0.52828003  0.73814999
   0.75400003  0.72937999  0.49116997
HECN                                    
           1
     8.707018    0.000706   -0.005380
     0.006323    8.762807    0.004632
     0.025907   -0.010657    8.723789
   Nb   Ta   Zr   N    C    Cr   Mo
   7   6   7  13  19   6   6
Direct configuration=     2
   0.99731458  0.99000793  0.99739011
   0.25424321  0.99234041  0.24799095
   0.25083373  0.50626263  0.24726462
   0.50410295  0.49505072  0.99777821
   0.50186987  0.24223855  0.75067011
   0.99540771  0.50201728  0.50136483
   0.49931874  0.75998154  0.74805010
   0.99683365  0.23726229  0.26093372
   0.75400608  0.74449267  0.00957786
   0.00362635  0.25321648  0.74073400
   0.75017324  0.25734993  0.50816145
   0.99790171  0.74760813  0.74777375
   0.25528442  0.49736759  0.74934762
   0.25024404  0.24682320  0.99704532
   0.50551016  0.25112791  0.25207483
   0.74158254  0.98992678  0.26808771
   0.75486254  0.25369822  0.99363108
   0.25198226  0.75211994  0.00025819
   0.25614702  0.24840491  0.49961183
   0.24857616  0.75018694  0.49889979
   0.24775130  0.24987743  0.24885825
   0.25928460  0.00013765  0.99389054
   0.00229469  0.24809537  0.00194253
   0.75654919  0.24686736  0.25703325
   0.74796370  0.99420138  0.00542305
   0.49943395  0.99785947  0.24829474
   0.99492340  0.47976389  0.24437623
   0.50811798  0.75918897  0.00589648
   0.98807686  0.00233134  0.74331562
   0.75544189  0.24358879  0.74599973
   0.73649084  0.00549281  0.51275392
   0.50779520  0.23208361  0.50093773
   0.50311061  0.00037267  0.73780888
   0.00238061  0.00257525  0.25192375
   0.50409288  0.24795910 -0.00313811
   0.25342768  0.74876742  0.24980919
   0.24529333  0.49989722  0.99703166
   0.99564933  0.74333060  0.00328823
   0.75202652  0.74055854  0.25203288
   0.75760810  0.50555369  0.00306434
   0.49832795  0.50926560  0.25292122
   0.25057242  0.25025858  0.74850524
   0.25463556  0.99792844  0.50547820
   0.99608479  0.24714640  0.50074068
   0.24470625  0.75334307  0.75018964
   0.25388378  0.50029723  0.49841703
   0.99189174  0.75678969  0.50178158
   0.99445105  0.50075321  0.75126970
   0.74778756  0.75836700  0.75012701
   0.74751020  0.49676208  0.50262807
   0.50439441  0.75778435  0.49547085
   0.50081453  0.50042252  0.74499042
   0.51754670  0.01697586  0.97696496
   0.99900221  0.51489002  0.98171445
   0.50464486  0.73550771  0.25948044
   0.23671853  0.01114771  0.74763417
   0.47730751  0.98232302  0.49840628
   0.73919274  0.97434422  0.76657871
   0.00162760  0.77503505  0.25621827
   0.73535989  0.51245205  0.25913247
   0.02035650  0.00041522  0.49752270
   0.50093532  0.52556801  0.49766029
   0.73998690  0.52210274  0.74517822
   0.75472774  0.73413332  0.49380055
HECN                                    
           1
     8.791413    0.000442   -0.003366
     0.006110    8.872396    0.002898
     0.028226   -0.012561    8.803640
   Nb   Ta   Zr   N    C    Cr   Mo
   7   6   7  13  19   6   6
Direct configuration=     3
   0.99714809  0.99079741  0.99809892
   0.25414227  0.99420049  0.24842282
   0.24975786  0.50447810  0.24814122
   0.50445132  0.49598247  0.99799336
   0.50299017  0.24381402  0.74930104
   0.99497372  0.50297835  0.49999331
   0.49938856  0.75798505  0.74809720
   0.99588839  0.23683929  0.26203241
   0.75522526  0.74315293  0.01012463
   0.00300520  0.25406534  0.74004528
   0.75128473  0.25900594  0.50707557
   0.99684074  0.74656902  0.74675608
   0.25586553  0.49630560  0.74785404
   0.24933996  0.24742940  0.99686601
   0.50659315  0.25330981  0.25272051
   0.74435053  0.98913454  0.26869656
   0.75575671  0.25459960  0.99450881
   0.25030719  0.75119963  0.00005897
   0.25483125  0.24833725  0.49981742
   0.24704192  0.75030409  0.49925930
   0.24854552  0.24970442  0.24862560
   0.26012353  0.00002265  0.99353429
   0.00249234  0.24892502  0.00169584
   0.75523964  0.24659817  0.25622228
   0.74785240  0.99546818  0.00795186
   0.50239631  0.99859854  0.24769619
   0.99323173  0.48019644  0.24308419
   0.50699428  0.76000891  0.00691282
   0.98841829  0.00221217  0.74092872
   0.75621363  0.24389414  0.74713897
   0.73642478  0.00498160  0.51193975
   0.50696630  0.23230388  0.49883286
   0.50195000  0.00046520  0.73662370
   0.00039321  0.00069593  0.25463686
   0.50416614  0.24748249 -0.00092991
   0.25262585  0.74908194  0.24954042
   0.24451977  0.50021978  0.99629414
   0.99669436  0.74325651  0.00379190
   0.75368038  0.73991961  0.25419575
   0.75790839  0.50462782  0.00299433
   0.50165947  0.50696827  0.25517483
   0.24997239  0.25137701  0.74851760
   0.25072770  0.99804978  0.50447945
   0.99683588  0.24527166  0.50094895
   0.24357879  0.75336904  0.75018524
   0.25562244  0.50042135  0.49951966
   0.99116415  0.75886399  0.50012295
   0.99352527  0.50067853  0.75131147
   0.74877505  0.75469792  0.74914528
   0.74476402  0.49877710  0.50187451
   0.50491564  0.75461055  0.49613589
   0.50242406  0.50110338  0.74274009
   0.51691156  0.01566163  0.97841664
   0.99877985  0.51290872  0.98340849
   0.50431639  0.73696305  0.25931442
   0.23713344  0.01102124  0.74703855
   0.47817978  0.98261600  0.49793645
   0.74057339  0.97602931  0.76578542
   0.00048538  0.77530682  0.25805861
   0.73541926  0.51331227  0.26201843
   0.02160924 -0.00058442  0.49677526
   0.50264610  0.52663590  0.49824349
   0.73951392  0.52449357  0.74248174
   0.75444784  0.73229532  0.49279268
HECN                                    
           1
     8.861533    0.000725   -0.006425
     0.006444    8.889308    0.006253
     0.025415   -0.009277    8.874858
   Nb   Ta   Zr   N    C    Cr   Mo
   7   6   7  13  19   6   6
Direct configuration=     4
   0.99869223  0.98899263  0.99496297
   0.25438475  0.98910410  0.24794690
   0.25268377  0.50964561  0.24507154
   0.50322888  0.49341246  0.99734960
   0.49891568  0.23868236  0.75311616
   0.99769928  0.49993480  0.50432793
   0.49922989  0.76384969  0.74715883
   0.99975338  0.23953570  0.25750882
   0.75030861  0.74838412  0.00758683
   0.00578948  0.24990744  0.74371165
   0.74780923  0.25286843  0.51012306
   0.99954121  0.75051327  0.75079379
   0.25290592  0.49946706  0.75211516
   0.25114519  0.24543239  0.99781458
   0.50298079  0.24828053  0.25062145
   0.73871150  0.99141171  0.26563278
   0.75378624  0.25153429  0.99230616
   0.25548707  0.75405179  0.00056920
   0.25799078  0.24856009  0.49929686
   0.25023762  0.75039662  0.49880512
   0.24647914  0.25017923  0.24913368
   0.25799449  0.00019694  0.99430316
   0.00185731  0.24698798  0.00258924
   0.75750628  0.24754071  0.25777983
   0.74734298  0.99207459 -0.00025195
   0.49345528  0.99575806  0.24889730
   0.99823607  0.48115048  0.24692738
   0.50979950  0.75817422  0.00341438
   0.98741691  0.00256675  0.74815082
   0.75359290  0.24354855  0.74447177
   0.73791907  0.00568479  0.51529931
   0.50923688  0.23272091  0.50435954
   0.50579612  0.00008170  0.74131606
   0.00401310  0.00463951  0.24702277
   0.50365977  0.24852044 -0.00609644
   0.25610001  0.74821750  0.24971911
   0.24610070  0.49956714  0.99874103
   0.99592019  0.74294320  0.00288095
   0.74837754  0.74245685  0.24937895
   0.75799239  0.50568511  0.00361407
   0.49234673  0.51288677  0.24871853
   0.25196153  0.24744818  0.74869808
   0.26116602  0.99806312  0.50857794
   0.99598606  0.25097996  0.50024636
   0.24751414  0.75442791  0.75037688
   0.25053442  0.49997563  0.49677662
   0.99402387  0.75303136  0.50369289
   0.99672013  0.50094030  0.75196213
   0.74661560  0.76374392  0.75087964
   0.75103023  0.49458032  0.50302367
   0.50429905  0.76428770  0.49335669
   0.49837291  0.49943096  0.74856595
   0.51866438  0.01929540  0.97331061
   0.99926327  0.51916390  0.97727417
   0.50474551  0.73243032  0.26024006
   0.23488025  0.01034173  0.74885020
   0.47656320  0.98264471  0.49919004
   0.73517127  0.97261754  0.76925204
   0.00330113  0.77216403  0.25198195
   0.73415639  0.50911170  0.25234515
   0.01814098  0.00327445  0.49880207
   0.49895064  0.52144713  0.49586657
   0.74158438  0.51780458  0.75314432
   0.75393009  0.73724837  0.49639724
HECN                                    
           1
     8.852167    0.000687   -0.006016
     0.006400    8.887049    0.005805
     0.025790   -0.009715    8.865345
   Nb   Ta   Zr   N    C    Cr   Mo
   7   6   7  13  19   6   6
Direct configuration=     5
   0.99848774  0.98923309  0.99537833
   0.25435262  0.98978353  0.24800970
   0.25229620  0.50895654  0.24547840
   0.50339089  0.49375505  0.99743483
   0.49945542  0.23936669  0.75261058
   0.99733789  0.50034080  0.50375331
   0.49925099  0.76306777  0.74728346
   0.99924142  0.23917600  0.25810816
   0.75096029  0.74768655  0.00792358
   0.00542033  0.25046196  0.74322552
   0.74826962  0.25368682  0.50971911
   0.99918319  0.74998764  0.75025886
   0.25329794  0.49904578  0.75155085
   0.25090592  0.24569868  0.99768871
   0.50345956  0.24895091  0.25089949
   0.73945891  0.99110794  0.26603911
   0.75404745  0.25194284  0.99259795
   0.25480064  0.75367159  0.00050151
   0.25757212  0.24853037  0.49936570
   0.24981416  0.75038427  0.49886516
   0.24675295  0.25011595  0.24906647
   0.25827659  0.00017373  0.99420139
   0.00194141  0.24724626  0.00247079
   0.75720585  0.24741514  0.25757340
   0.74741085  0.99252660  0.00083492
   0.49464005  0.99613678  0.24873841
   0.99757274  0.48102350  0.24641797
   0.50942792  0.75841866  0.00387771
   0.98754929  0.00251984  0.74719395
   0.75394031  0.24359448  0.74482528
   0.73772090  0.00559121  0.51485413
   0.50893574  0.23266560  0.50362716
   0.50528623  0.00013308  0.74069412
   0.00353377  0.00411339  0.24803168
   0.50372711  0.24838180 -0.00541179
   0.25563961  0.74833277  0.24969523
   0.24589108  0.49965428  0.99841671
   0.99602282  0.74298492  0.00300167
   0.74908049  0.74211832  0.25001755
   0.75798124  0.50554419  0.00353200
   0.49358114  0.51209735  0.24957472
   0.25169791  0.24797198  0.74867388
   0.25978259  0.99806159  0.50803442
   0.99609874  0.25021889  0.50033978
   0.24699264  0.75428677  0.75035136
   0.25120879  0.50003490  0.49714029
   0.99364472  0.75380916  0.50321945
   0.99629673  0.50090545  0.75187578
   0.74690172  0.76253799  0.75065038
   0.75019979  0.49513991  0.50287091
   0.50438093  0.76299740  0.49372545
   0.49890948  0.49965421  0.74779411
   0.51843235  0.01881070  0.97398727
   0.99919952  0.51832966  0.97808727
   0.50468858  0.73303467  0.26011717
   0.23517875  0.01043240  0.74861022
   0.47677736  0.98264094  0.49902402
   0.73588697  0.97307254  0.76879278
   0.00292826  0.77258273  0.25278683
   0.73432416  0.50967123  0.25362672
   0.01860050  0.00276008  0.49853387
   0.49944044  0.52213876  0.49618142
   0.74130950  0.51869689  0.75173108
   0.75399856  0.73658821  0.49591991
HECN                                    
           1
     8.862521    0.001421   -0.006943
     0.007139    8.931166    0.006141
     0.024894   -0.009427    8.868805
   Nb   Ta   Zr   N    C    Cr   Mo
   7   6   7  13  19   6   6
Direct configuration=     6
   0.00015113  0.98822449  0.99443806
   0.25311001  0.98843901  0.25041552
   0.25169543  0.51056545  0.24504765
   0.50357158  0.49263152  0.99661356
   0.49706910  0.23810064  0.75272803
   0.99889782  0.49983172  0.50600173
   0.50021276  0.76281913  0.74427766
   0.00045626  0.24147201  0.25719237
   0.74949695  0.74780437  0.00696188
   0.00770696  0.24760655  0.74408976
   0.74824342  0.25171511  0.51064939
   0.99915272  0.75079028  0.75125174
   0.25231262  0.49918872  0.75171282
   0.24959605  0.24499840  0.99820208
   0.50253973  0.25011674  0.25035970
   0.74019791  0.99065036  0.26480733
   0.75446220  0.25102891  0.99236730
   0.25625854  0.75424858  0.00036554
   0.25672501  0.24861316  0.49991323
   0.24834920  0.75067691  0.49944788
   0.24657318  0.25004573  0.24921525
   0.25729380  0.00019660  0.99474122
   0.00156629  0.24662207  0.00263492
   0.75613390  0.24723980  0.25730518
   0.74659389  0.99282142 -0.00214809
   0.49402395  0.99551824  0.24902326
   0.99906539  0.48300258  0.24883501
   0.50949957  0.75795156  0.00125307
   0.98799798  0.00277680  0.74825436
   0.75357356  0.24490071  0.74508684
   0.74077975  0.00555987  0.51445827
   0.50931965  0.23523475  0.50345823
   0.50744741 -0.00006664  0.74378328
   0.00182555  0.00162867  0.24766540
   0.50339499  0.24820835 -0.00412769
   0.25759281  0.74868015  0.24924213
   0.24540099  0.50033057  0.99867791
   0.99754241  0.74275054  0.00324253
   0.74753531  0.74146726  0.25142199
   0.75915876  0.50485009  0.00437189
   0.49485999  0.51121213  0.24864416
   0.25161375  0.24719845  0.74910878
   0.25938730  0.99887495  0.51044272
   0.99711275  0.25079739  0.50028910
   0.24817553  0.75559970  0.75048667
   0.25043763  0.50005619  0.49774126
   0.99425333  0.75340424  0.50215143
   0.99735849  0.50102124  0.75307057
   0.74820160  0.75984719  0.74921038
   0.74912830  0.49689499  0.50214759
   0.50612380  0.76299103  0.49135852
   0.49951035  0.50006243  0.74742577
   0.51968022  0.02006052  0.97104856
   0.99883942  0.52212260  0.97379680
   0.50471316  0.73075340  0.26279506
   0.23170343  0.00869970  0.74869592
   0.47719066  0.98416324  0.49950998
   0.73149245  0.97462089  0.77163607
   0.00207881  0.77250494  0.25147309
   0.72978290  0.51024289  0.25037550
   0.01971787  0.00413159  0.49783352
   0.50102210  0.52121282  0.49488042
   0.74210085  0.52002852  0.75605536
   0.75299110  0.73425750  0.49658472
HECN                                    
           1
     8.868523    0.001846   -0.007480
     0.007568    8.956736    0.006336
     0.024375   -0.009260    8.870810
   Nb   Ta   Zr   N    C    Cr   Mo
   7   6   7  13  19   6   6
Direct configuration=     7
   0.00111406  0.98764276  0.99389344
   0.25239087  0.98766363  0.25180929
   0.25134754  0.51149337  0.24479803
   0.50367619  0.49198357  0.99613779
   0.49568773  0.23737060  0.75279595
   0.99980102  0.49953801  0.50730446
   0.50076937  0.76267575  0.74253631
   0.00115937  0.24279611  0.25666183
   0.74864977  0.74787241  0.00640463
   0.00903087  0.24595968  0.74459066
   0.74822840  0.25057799  0.51118838
   0.99913511  0.75125315  0.75182695
   0.25174222  0.49927120  0.75180660
   0.24883783  0.24459459  0.99849943
   0.50200716  0.25078915  0.25004690
   0.74062566  0.99038646  0.26409376
   0.75470233  0.25050182  0.99223372
   0.25710248  0.75458127  0.00028685
   0.25623465  0.24866093  0.50023038
   0.24750116  0.75084574  0.49978538
   0.24646913  0.25000524  0.24930143
   0.25672489  0.00020983  0.99505392
   0.00134918  0.24626211  0.00273000
   0.75551334  0.24713873  0.25714973
   0.74612076  0.99299154 -0.00387635
   0.49366733  0.99516155  0.24918826
   0.99992953  0.48414382  0.25023536
   0.50954092  0.75768222 -0.00026749
   0.98825777  0.00292494  0.74886873
   0.75336120  0.24565404  0.74523832
   0.74255049  0.00554166  0.51422912
   0.50954176  0.23671640  0.50336033
   0.50869871 -0.00018198  0.74557312
   0.00083676  0.00019579  0.24745314
   0.50320281  0.24810831 -0.00338377
   0.25872347  0.74888040  0.24897973
   0.24511726  0.50072062  0.99882918
   0.99842212  0.74261530  0.00338217
   0.74664092  0.74109183  0.25223557
   0.75984051  0.50444972  0.00485857
   0.49560030  0.51070157  0.24810514
   0.25156510  0.24675234  0.74936074
   0.25915858  0.99934400  0.51183792
   0.99769973  0.25113098  0.50025980
   0.24886025  0.75635683  0.75056511
   0.24999125  0.50006849  0.49808939
   0.99460561  0.75317071  0.50153272
   0.99797320  0.50108795  0.75376282
   0.74895414  0.75829534  0.74837625
   0.74850790  0.49790723  0.50172843
   0.50713260  0.76298731  0.48998734
   0.49985815  0.50029783  0.74721240
   0.52040238  0.02078130  0.96934607
   0.99863052  0.52431014  0.97131103
   0.50472765  0.72943772  0.26434654
   0.22969166  0.00770059  0.74874540
   0.47742987  0.98504114  0.49979152
   0.72894858  0.97551399  0.77328304
   0.00158699  0.77246015  0.25071193
   0.72715376  0.51057286  0.24849162
   0.02036460  0.00492251  0.49742781
   0.50193769  0.52067877  0.49412679
   0.74255917  0.52079636  0.75856065
   0.75240804  0.73291339  0.49696987
HECN                                    
           1
     8.823577    0.000308   -0.006467
     0.005986    8.898857    0.002595
     0.025240   -0.012889    8.839622
   Nb   Ta   Zr   N    C    Cr   Mo
   7   6   7  13  19   6   6
Direct configuration=     8
   0.00329253  0.98643305  0.99427259
   0.25183856  0.98657130  0.25475127
   0.25080508  0.51271062  0.24576421
   0.50323549  0.49090144  0.99430717
   0.49336992  0.23785820  0.75276661
   0.99921523  0.49921482  0.50944231
   0.50361829  0.76056609  0.73799574
   0.00099699  0.24301366  0.25644788
   0.74783838  0.74733440  0.00562863
   0.01036128  0.24266697  0.74462968
   0.74895269  0.25013758  0.51215068
   0.99880402  0.75258630  0.75120175
   0.25229269  0.50015281  0.75106293
   0.24776280  0.24452880  0.99943641
   0.50105540  0.25077852  0.25064658
   0.74029955  0.98946916  0.26354524
   0.75488993  0.25006222  0.99233011
   0.25947392  0.75526670 -0.00031531
   0.25577231  0.24916590  0.50025935
   0.24790115  0.75132788  0.49977795
   0.24614250  0.25010506  0.24977373
   0.25530428  0.00020140  0.99635743
   0.00092768  0.24500944  0.00278666
   0.75452067  0.24675707  0.25688932
   0.74575916  0.99290656 -0.00515251
   0.49405060  0.99583758  0.25014855
   0.00213236  0.48491180  0.25364136
   0.50980834  0.75665074 -0.00400096
   0.98979106  0.00278902  0.74817585
   0.75324388  0.24676120  0.74548136
   0.74687744  0.00726971  0.51209673
   0.50986737  0.24043491  0.50289146
   0.51066610 -0.00073894  0.74731396
  -0.00099783  0.00136269  0.24831434
   0.50259510  0.24730663 -0.00252922
   0.26038486  0.74957473  0.24962393
   0.24395247  0.50136670  0.99824842
   0.99923541  0.74308416  0.00333946
   0.74543070  0.73994487  0.25251096
   0.76197711  0.50404429  0.00600142
   0.49437702  0.50844414  0.24709903
   0.25170399  0.24629118  0.75024900
   0.25899174  0.99953409  0.51439116
   0.99826343  0.25085158  0.50060227
   0.24960289  0.75761403  0.75041463
   0.25030327  0.50050072  0.49940080
   0.99377954  0.75371765  0.50013500
   0.99815608  0.50076739  0.75421091
   0.75027823  0.75771229  0.74727564
   0.74802981  0.49751202  0.50119675
   0.50762440  0.76276202  0.48699071
   0.50141648  0.50084790  0.74574193
   0.52161762  0.02308808  0.96755918
   0.99746251  0.52887435  0.96855955
   0.50561037  0.72809488  0.26965247
   0.22405122  0.00535672  0.74852797
   0.47674865  0.98734658  0.50041075
   0.72430212  0.97456157  0.77491004
   0.00000264  0.77061303  0.25053985
   0.72554306  0.51207289  0.24604138
   0.01991845  0.00613450  0.49627012
   0.50264995  0.51906624  0.49328718
   0.74412370  0.52219386  0.76094961
   0.75199774  0.72971597  0.49757018
HECN                                    
           1
     8.834716    0.000689   -0.006718
     0.006378    8.913201    0.003522
     0.025026   -0.011990    8.847351
   Nb   Ta   Zr   N    C    Cr   Mo
   7   6   7  13  19   6   6
Direct configuration=     9
   0.00274997  0.98673466  0.99417848
   0.25197625  0.98684349  0.25401971
   0.25094017  0.51240692  0.24552378
   0.50334526  0.49117157  0.99476254
   0.49394723  0.23773668  0.75277380
   0.99936121  0.49929524  0.50891065
   0.50290864  0.76109265  0.73912526
   0.00103742  0.24295943  0.25650106
   0.74804048  0.74746871  0.00582165
   0.01003004  0.24348822  0.74462036
   0.74877232  0.25024730  0.51191142
   0.99888641  0.75225385  0.75135709
   0.25215552  0.49993296  0.75124780
   0.24803061  0.24454516  0.99920336
   0.50129248  0.25078115  0.25049742
   0.74038080  0.98969804  0.26368174
   0.75484322  0.25017185  0.99230619
   0.25888318  0.75509569 -0.00016556
   0.25588745  0.24903996  0.50025208
   0.24780150  0.75120761  0.49977976
   0.24622387  0.25008013  0.24965625
   0.25565817  0.00020343  0.99603321
   0.00103273  0.24532191  0.00277269
   0.75476794  0.24685234  0.25695409
   0.74584920  0.99292791 -0.00483514
   0.49395513  0.99566884  0.24990967
   0.00158373  0.48471980  0.25279428
   0.50974167  0.75690840 -0.00307235
   0.98940913  0.00282293  0.74834822
   0.75327306  0.24648502  0.74542080
   0.74579953  0.00683871  0.51262699
   0.50978610  0.23950742  0.50300769
   0.51017613 -0.00060027  0.74688113
  -0.00054089  0.00107162  0.24809999
   0.50274653  0.24750654 -0.00274168
   0.25997102  0.74940140  0.24946370
   0.24424256  0.50120565  0.99839275
   0.99903281  0.74296718  0.00335005
   0.74573220  0.74023098  0.25244256
   0.76144497  0.50414521  0.00571730
   0.49468179  0.50900738  0.24734945
   0.25166944  0.24640611  0.75002815
   0.25903336  0.99948642  0.51375615
   0.99812305  0.25092121  0.50051714
   0.24941785  0.75730043  0.75045194
   0.25022556  0.50039276  0.49907462
   0.99398524  0.75358140  0.50048253
   0.99811055  0.50084729  0.75409951
   0.74994841  0.75785778  0.74754945
   0.74814889  0.49761068  0.50132900
   0.50750183  0.76281850  0.48773600
   0.50102826  0.50071078  0.74610761
   0.52131477  0.02251282  0.96800337
   0.99775317  0.52773621  0.96924333
   0.50539070  0.72842925  0.26833307
   0.22545626  0.00594162  0.74858213
   0.47691825  0.98677149  0.50025649
   0.72545956  0.97479917  0.77450538
   0.00039735  0.77107385  0.25058280
   0.72594413  0.51169905  0.24665055
   0.02002950  0.00583233  0.49655789
   0.50247259  0.51946852  0.49349617
   0.74373400  0.52184496  0.76035538
   0.75210009  0.73051347  0.49742121
HECN                                    
           1
     8.857499   -0.001841   -0.005216
     0.003840    8.913277   -0.000691
     0.026626   -0.016194    8.883783
   Nb   Ta   Zr   N    C    Cr   Mo
   7   6   7  13  19   6   6
Direct configuration=    10
   0.00437842  0.98604275  0.99551639
   0.25194221  0.98675776  0.25631966
   0.25015293  0.51273732  0.24695943
   0.50259455  0.49064210  0.99308013
   0.49271828  0.23970142  0.75250291
   0.99763282  0.49910039  0.51004518
   0.50564295  0.75808751  0.73494183
  -0.00005229  0.24253874  0.25674757
   0.74769385  0.74725421  0.00523472
   0.00993888  0.24112905  0.74456919
   0.74963242  0.25060317  0.51258676
   0.99890998  0.75388049  0.74980698
   0.25315293  0.50141623  0.75029610
   0.24737601  0.24513849  0.00020180
   0.50064685  0.24960647  0.25146982
   0.73930112  0.98896026  0.26364561
   0.75479563  0.24999814  0.99250974
   0.26153105  0.75564687 -0.00073381
   0.25585337  0.24966814  0.50007503
   0.24883825  0.75151249  0.49967534
   0.24584302  0.25031500  0.25027857
   0.25451149  0.00025983  0.99755003
   0.00068415  0.24398200  0.00278865
   0.75421507  0.24659769  0.25678930
   0.74598787  0.99250572 -0.00450456
   0.49437088  0.99659897  0.25105114
   0.00338641  0.48506826  0.25574538
   0.51013194  0.75566765 -0.00672588
   0.99068575  0.00211861  0.74680451
   0.75327761  0.24706136  0.74565772
   0.74989075  0.00903082  0.51018975
   0.50987040  0.24308635  0.50296889
   0.51089312 -0.00113927  0.74655128
  -0.00150772  0.00313417  0.24889534
   0.50212289  0.24663852 -0.00262171
   0.26118687  0.75008843  0.25033876
   0.24286591  0.50167609  0.99759576
   0.99945124  0.74403975  0.00286887
   0.74501411  0.73964578  0.25154114
   0.76371616  0.50390145  0.00657460
   0.49240729  0.50713072  0.24625208
   0.25189997  0.24597499  0.75078463
   0.25936062  0.99946472  0.51593749
   0.99824108  0.25046674  0.50098014
   0.24982691  0.75839521  0.74991710
   0.25103867  0.50094121  0.50030771
   0.99275186  0.75436994  0.49951471
   0.99785257  0.50035113  0.75392099
   0.75091342  0.75930491  0.74684819
   0.74854274  0.49556022  0.50115275
   0.50715138  0.76331768  0.48559246
   0.50258485  0.50090898  0.74444743
   0.52148935  0.02437033  0.96813176
   0.99645007  0.53062727  0.96881521
   0.50659787  0.72834405  0.27396127
   0.22043792  0.00345219  0.74829812
   0.47593121  0.98951771  0.50104667
   0.72326885  0.97318735  0.77454244
  -0.00097134  0.76848570  0.25139254
   0.72696627  0.51182961  0.24545766
   0.01796295  0.00646551  0.49563449
   0.50209583  0.51644594  0.49297617
   0.74588590  0.52167248  0.76065357
   0.75203603  0.72871595  0.49764664
HECN                                    
           1
     8.859921   -0.002110   -0.005057
     0.003570    8.913285   -0.001138
     0.026796   -0.016641    8.887656
   Nb   Ta   Zr   N    C    Cr   Mo
   7   6   7  13  19   6   6
Direct configuration=    11
   0.00455106  0.98596931  0.99565798
   0.25193855  0.98674876  0.25656318
   0.25006943  0.51277250  0.24711147
   0.50251496  0.49058570  0.99290198
   0.49258802  0.23991025  0.75247435
   0.99744951  0.49907968  0.51016532
   0.50593288  0.75776789  0.73449869
  -0.00016786  0.24249400  0.25677367
   0.74765710  0.74723137  0.00517257
   0.00992914  0.24087823  0.74456365
   0.74972362  0.25064106  0.51265827
   0.99891255  0.75405335  0.74964294
   0.25325876  0.50157390  0.75019539
   0.24730659  0.24520160  0.00030756
   0.50057833  0.24948161  0.25157273
   0.73918661  0.98888179  0.26364176
   0.75479057  0.24997968  0.99253128
   0.26181187  0.75570552 -0.00079399
   0.25584978  0.24973491  0.50005631
   0.24894820  0.75154493  0.49966428
   0.24580263  0.25033999  0.25034448
   0.25438986  0.00026586  0.99771065
   0.00064714  0.24383954  0.00279028
   0.75415644  0.24657059  0.25677185
   0.74600256  0.99246086 -0.00446959
   0.49441497  0.99669793  0.25117203
   0.00357753  0.48510551  0.25605783
   0.51017335  0.75553557 -0.00711278
   0.99082113  0.00204369  0.74664100
   0.75327810  0.24712265  0.74568284
   0.75032471  0.00926388  0.50993173
   0.50987944  0.24346684  0.50296496
   0.51096914 -0.00119657  0.74651632
  -0.00161020  0.00335346  0.24897967
   0.50205672  0.24654623 -0.00260904
   0.26131581  0.75016155  0.25043143
   0.24271996  0.50172603  0.99751142
   0.99949566  0.74415377  0.00281797
   0.74493796  0.73958350  0.25144568
   0.76395698  0.50387565  0.00666532
   0.49216606  0.50693108  0.24613584
   0.25192439  0.24592920  0.75086470
   0.25939529  0.99946253  0.51616845
   0.99825357  0.25041845  0.50102913
   0.24987033  0.75851159  0.74986052
   0.25112489  0.50099960  0.50043828
   0.99262111  0.75445369  0.49941230
   0.99782520  0.50029836  0.75390207
   0.75101580  0.75945875  0.74677399
   0.74858445  0.49534223  0.50113397
   0.50711427  0.76337064  0.48536553
   0.50274995  0.50093002  0.74427163
   0.52150791  0.02456782  0.96814545
   0.99631198  0.53093457  0.96877005
   0.50672578  0.72833531  0.27455715
   0.21990569  0.00318736  0.74826801
   0.47582662  0.98980969  0.50113049
   0.72303650  0.97301593  0.77454633
  -0.00111657  0.76821053  0.25147817
   0.72707469  0.51184346  0.24533135
   0.01774385  0.00653272  0.49553679
   0.50205580  0.51612456  0.49292097
   0.74611408  0.52165422  0.76068509
   0.75202918  0.72852485  0.49767042
HECN                                    
           1
     8.863897   -0.002544   -0.006483
     0.003139    8.931591   -0.000842
     0.025377   -0.016381    8.886276
   Nb   Ta   Zr   N    C    Cr   Mo
   7   6   7  13  19   6   6
Direct configuration=    12
   0.00421235  0.98597816  0.99673371
   0.25170489  0.98720483  0.25697096
   0.24956383  0.51285672  0.24732592