  64  64   0   0
  0.9824210E+01  0.8563101E-09  0.8542697E-09  0.8595153E-09  0.5000000E-15
  1.000000000000000E-004
  CAR 
 HECN                                    
     15.39067895    -58.94438898  301      9.47592987      1.00000000
    -58.944  0.0000E+00  0.0000E+00
    -58.697  0.0000E+00  0.0000E+00
    -58.449  0.0000E+00  0.0000E+00
    -58.201  0.0000E+00  0.0000E+00
    -57.953  0.0000E+00  0.0000E+00
    -57.705  0.0000E+00  0.0000E+00
    -57.458  0.0000E+00  0.0000E+00
    -57.210  0.0000E+00  0.0000E+00
    -56.962  0.0000E+00  0.0000E+00
    -56.714  0.0000E+00  0.0000E+00
    -56.467  0.0000E+00  0.0000E+00
    -56.219  0.0000E+00  0.0000E+00
    -55.971  0.3947E-09  0.9781E-10
    -55.723  0.1078E-02  0.2672E-03
    -55.475  0.2056E+00  0.5121E-01
    -55.228  0.3508E+00  0.1381E+00
    -54.980  0.7541E-02  0.1400E+00
    -54.732  0.3182E-07  0.1400E+00
    -54.484  0.0000E+00  0.1400E+00
    -54.237  0.0000E+00  0.1400E+00
    -53.989  0.0000E+00  0.1400E+00
    -53.741  0.0000E+00  0.1400E+00
    -53.493  0.0000E+00  0.1400E+00
    -53.245  0.0000E+00  0.1400E+00
    -52.998  0.0000E+00  0.1400E+00
    -52.750  0.0000E+00  0.1400E+00
    -52.502  0.0000E+00  0.1400E+00
    -52.254  0.0000E+00  0.1400E+00
    -52.006  0.0000E+00  0.1400E+00
    -51.759  0.0000E+00  0.1400E+00
    -51.511  0.0000E+00  0.1400E+00
    -51.263  0.0000E+00  0.1400E+00
    -51.015  0.0000E+00  0.1400E+00
    -50.768  0.0000E+00  0.1400E+00
    -50.520  0.0000E+00  0.1400E+00
    -50.272  0.0000E+00  0.1400E+00
    -50.024  0.0000E+00  0.1400E+00
    -49.776  0.0000E+00  0.1400E+00
    -49.529  0.0000E+00  0.1400E+00
    -49.281  0.0000E+00  0.1400E+00
    -49.033  0.0000E+00  0.1400E+00
    -48.785  0.0000E+00  0.1400E+00
    -48.537  0.1778E-07  0.1400E+00
    -48.290  0.5949E-02  0.1415E+00
    -48.042  0.2120E+00  0.1940E+00
    -47.794  0.1894E+00  0.2409E+00
    -47.546  0.1089E+00  0.2679E+00
    -47.299  0.4874E-01  0.2800E+00
    -47.051  0.4797E-04  0.2800E+00
    -46.803  0.7286E-03  0.2802E+00
    -46.555  0.1083E+00  0.3070E+00
    -46.307  0.1237E+00  0.3377E+00
    -46.060  0.1680E+00  0.3793E+00
    -45.812  0.8013E-01  0.3992E+00
    -45.564  0.3395E-02  0.4000E+00
    -45.316  0.6786E-08  0.4000E+00
    -45.069  0.0000E+00  0.4000E+00
    -44.821  0.0000E+00  0.4000E+00
    -44.573  0.0000E+00  0.4000E+00
    -44.325  0.0000E+00  0.4000E+00
    -44.077  0.0000E+00  0.4000E+00
    -43.830  0.0000E+00  0.4000E+00
    -43.582  0.0000E+00  0.4000E+00
    -43.334  0.0000E+00  0.4000E+00
    -43.086  0.0000E+00  0.4000E+00
    -42.838  0.0000E+00  0.4000E+00
    -42.591  0.0000E+00  0.4000E+00
    -42.343  0.0000E+00  0.4000E+00
    -42.095  0.0000E+00  0.4000E+00
    -41.847  0.0000E+00  0.4000E+00
    -41.600  0.0000E+00  0.4000E+00
    -41.352  0.0000E+00  0.4000E+00
    -41.104  0.0000E+00  0.4000E+00
    -40.856  0.0000E+00  0.4000E+00
    -40.608  0.0000E+00  0.4000E+00
    -40.361  0.0000E+00  0.4000E+00
    -40.113  0.0000E+00  0.4000E+00
    -39.865  0.0000E+00  0.4000E+00
    -39.617  0.0000E+00  0.4000E+00
    -39.369  0.0000E+00  0.4000E+00
    -39.122  0.0000E+00  0.4000E+00
    -38.874  0.0000E+00  0.4000E+00
    -38.626  0.0000E+00  0.4000E+00
    -38.378  0.0000E+00  0.4000E+00
    -38.131  0.0000E+00  0.4000E+00
    -37.883  0.0000E+00  0.4000E+00
    -37.635  0.0000E+00  0.4000E+00
    -37.387  0.0000E+00  0.4000E+00
    -37.139  0.0000E+00  0.4000E+00
    -36.892  0.0000E+00  0.4000E+00
    -36.644  0.0000E+00  0.4000E+00
    -36.396  0.0000E+00  0.4000E+00
    -36.148  0.0000E+00  0.4000E+00
    -35.901  0.0000E+00  0.4000E+00
    -35.653  0.0000E+00  0.4000E+00
    -35.405  0.0000E+00  0.4000E+00
    -35.157  0.0000E+00  0.4000E+00
    -34.909  0.4976E-11  0.4000E+00
    -34.662  0.1383E-03  0.4000E+00
    -34.414  0.8982E-01  0.4223E+00
    -34.166  0.6656E+00  0.5872E+00
    -33.918  0.6802E+00  0.7558E+00
    -33.670  0.1705E-01  0.7600E+00
    -33.423  0.1124E-06  0.7600E+00
    -33.175  0.0000E+00  0.7600E+00
    -32.927  0.0000E+00  0.7600E+00
    -32.679  0.0000E+00  0.7600E+00
    -32.432  0.0000E+00  0.7600E+00
    -32.184  0.0000E+00  0.7600E+00
    -31.936  0.0000E+00  0.7600E+00
    -31.688  0.0000E+00  0.7600E+00
    -31.440  0.0000E+00  0.7600E+00
    -31.193  0.0000E+00  0.7600E+00
    -30.945  0.0000E+00  0.7600E+00
    -30.697  0.0000E+00  0.7600E+00
    -30.449  0.4469E-09  0.7600E+00
    -30.201  0.1294E-02  0.7603E+00
    -29.954  0.2461E+00  0.8213E+00
    -29.706  0.9236E+00  0.1050E+01
    -29.458  0.8319E+00  0.1256E+01
    -29.210  0.1051E+01  0.1517E+01
    -28.963  0.9371E-01  0.1540E+01
    -28.715  0.1045E-03  0.1540E+01
    -28.467  0.2864E-11  0.1540E+01
    -28.219  0.0000E+00  0.1540E+01
    -27.971  0.0000E+00  0.1540E+01
    -27.724  0.0000E+00  0.1540E+01
    -27.476  0.0000E+00  0.1540E+01
    -27.228  0.0000E+00  0.1540E+01
    -26.980  0.0000E+00  0.1540E+01
    -26.733  0.0000E+00  0.1540E+01
    -26.485  0.0000E+00  0.1540E+01
    -26.237  0.0000E+00  0.1540E+01
    -25.989  0.0000E+00  0.1540E+01
    -25.741  0.0000E+00  0.1540E+01
    -25.494  0.0000E+00  0.1540E+01
    -25.246  0.4281E-16  0.1540E+01
    -24.998  0.2619E-06  0.1540E+01
    -24.750  0.1706E-01  0.1544E+01
    -24.502  0.4461E+00  0.1655E+01
    -24.255  0.5931E+00  0.1802E+01
    -24.007  0.4518E+00  0.1914E+01
    -23.759  0.1861E+00  0.1960E+01
    -23.511  0.8074E-03  0.1960E+01
    -23.264  0.8501E-07  0.1960E+01
    -23.016  0.1050E-01  0.1963E+01
    -22.768  0.2573E+00  0.2026E+01
    -22.520  0.4695E+00  0.2143E+01
    -22.272  0.4364E+00  0.2251E+01
    -22.025  0.2303E+00  0.2308E+01
    -21.777  0.4884E-01  0.2320E+01
    -21.529  0.3420E-05  0.2320E+01
    -21.281  0.2960E-14  0.2320E+01
    -21.034  0.0000E+00  0.2320E+01
    -20.786  0.0000E+00  0.2320E+01
    -20.538  0.0000E+00  0.2320E+01
    -20.290  0.0000E+00  0.2320E+01
    -20.042  0.0000E+00  0.2320E+01
    -19.795  0.0000E+00  0.2320E+01
    -19.547  0.0000E+00  0.2320E+01
    -19.299  0.0000E+00  0.2320E+01
    -19.051  0.0000E+00  0.2320E+01
    -18.803  0.0000E+00  0.2320E+01
    -18.556  0.0000E+00  0.2320E+01
    -18.308  0.0000E+00  0.2320E+01
    -18.060  0.0000E+00  0.2320E+01
    -17.812  0.0000E+00  0.2320E+01
    -17.565  0.0000E+00  0.2320E+01
    -17.317  0.0000E+00  0.2320E+01
    -17.069  0.0000E+00  0.2320E+01
    -16.821  0.0000E+00  0.2320E+01
    -16.573  0.0000E+00  0.2320E+01
    -16.326  0.0000E+00  0.2320E+01
    -16.078  0.0000E+00  0.2320E+01
    -15.830  0.0000E+00  0.2320E+01
    -15.582  0.0000E+00  0.2320E+01
    -15.334  0.0000E+00  0.2320E+01
    -15.087  0.0000E+00  0.2320E+01
    -14.839  0.0000E+00  0.2320E+01
    -14.591  0.0000E+00  0.2320E+01
    -14.343  0.0000E+00  0.2320E+01
    -14.096  0.0000E+00  0.2320E+01
    -13.848  0.0000E+00  0.2320E+01
    -13.600  0.0000E+00  0.2320E+01
    -13.352  0.0000E+00  0.2320E+01
    -13.104  0.0000E+00  0.2320E+01
    -12.857  0.0000E+00  0.2320E+01
    -12.609  0.0000E+00  0.2320E+01
    -12.361  0.0000E+00  0.2320E+01
    -12.113  0.0000E+00  0.2320E+01
    -11.866  0.0000E+00  0.2320E+01
    -11.618  0.0000E+00  0.2320E+01
    -11.370  0.0000E+00  0.2320E+01
    -11.122  0.0000E+00  0.2320E+01
    -10.874  0.0000E+00  0.2320E+01
    -10.627  0.0000E+00  0.2320E+01
    -10.379  0.0000E+00  0.2320E+01
    -10.131  0.0000E+00  0.2320E+01
     -9.883  0.0000E+00  0.2320E+01
     -9.635  0.0000E+00  0.2320E+01
     -9.388  0.0000E+00  0.2320E+01
     -9.140  0.0000E+00  0.2320E+01
     -8.892  0.0000E+00  0.2320E+01
     -8.644  0.0000E+00  0.2320E+01
     -8.397  0.0000E+00  0.2320E+01
     -8.149  0.0000E+00  0.2320E+01
     -7.901  0.0000E+00  0.2320E+01
     -7.653  0.0000E+00  0.2320E+01
     -7.405  0.8435E-09  0.2320E+01
     -7.158  0.2547E-03  0.2320E+01
     -6.910  0.2427E-01  0.2326E+01
     -6.662  0.5538E-01  0.2340E+01
     -6.414  0.7452E-01  0.2358E+01
     -6.166  0.1234E+00  0.2389E+01
     -5.919  0.2043E+00  0.2439E+01
     -5.671  0.2568E+00  0.2503E+01
     -5.423  0.2107E+00  0.2555E+01
     -5.175  0.9566E-01  0.2579E+01
     -4.928  0.4057E-02  0.2580E+01
     -4.680  0.1171E-07  0.2580E+01
     -4.432  0.3295E-12  0.2580E+01
     -4.184  0.1004E-04  0.2580E+01
     -3.936  0.1201E-01  0.2583E+01
     -3.689  0.5992E-01  0.2598E+01
     -3.441  0.1535E-01  0.2602E+01
     -3.193  0.7226E-01  0.2620E+01
     -2.945  0.7909E-01  0.2639E+01
     -2.698  0.1464E+00  0.2675E+01
     -2.450  0.1741E+00  0.2719E+01
     -2.202  0.2104E+00  0.2771E+01
     -1.954  0.2155E+00  0.2824E+01
     -1.706  0.2178E+00  0.2878E+01
     -1.459  0.1697E+00  0.2920E+01
     -1.211  0.1192E+00  0.2950E+01
     -0.963  0.4139E-01  0.2960E+01
     -0.715  0.3032E-03  0.2960E+01
     -0.467  0.4114E-09  0.2960E+01
     -0.220  0.0000E+00  0.2960E+01
      0.028  0.0000E+00  0.2960E+01
      0.276  0.0000E+00  0.2960E+01
      0.524  0.7818E-15  0.2960E+01
      0.771  0.3492E-06  0.2960E+01
      1.019  0.2024E-02  0.2961E+01
      1.267  0.7574E-02  0.2962E+01
      1.515  0.4749E-01  0.2974E+01
      1.763  0.8774E-01  0.2996E+01
      2.010  0.9729E-01  0.3020E+01
      2.258  0.1511E+00  0.3057E+01
      2.506  0.2266E+00  0.3114E+01
      2.754  0.2877E+00  0.3185E+01
      3.002  0.2943E+00  0.3258E+01
      3.249  0.2910E+00  0.3330E+01
      3.497  0.3329E+00  0.3412E+01
      3.745  0.3750E+00  0.3505E+01
      3.993  0.4847E+00  0.3625E+01
      4.240  0.5422E+00  0.3760E+01
      4.488  0.5817E+00  0.3904E+01
      4.736  0.5958E+00  0.4052E+01
      4.984  0.5919E+00  0.4198E+01
      5.232  0.5935E+00  0.4345E+01
      5.479  0.5010E+00  0.4469E+01
      5.727  0.3924E+00  0.4567E+01
      5.975  0.3258E+00  0.4647E+01
      6.223  0.3109E+00  0.4724E+01
      6.470  0.2607E+00  0.4789E+01
      6.718  0.1601E+00  0.4829E+01
      6.966  0.1399E+00  0.4863E+01
      7.214  0.6113E-01  0.4878E+01
      7.462  0.9435E-01  0.4902E+01
      7.709  0.1538E+00  0.4940E+01
      7.957  0.2228E+00  0.4995E+01
      8.205  0.1896E+00  0.5042E+01
      8.453  0.1916E+00  0.5090E+01
      8.701  0.1973E+00  0.5138E+01
      8.948  0.2742E+00  0.5206E+01
      9.196  0.3395E+00  0.5291E+01
      9.444  0.3193E+00  0.5370E+01
      9.692  0.3386E+00  0.5454E+01
      9.939  0.4679E+00  0.5569E+01
     10.187  0.5315E+00  0.5701E+01
     10.435  0.5540E+00  0.5838E+01
     10.683  0.5804E+00  0.5982E+01
     10.931  0.5482E+00  0.6118E+01
     11.178  0.5904E+00  0.6264E+01
     11.426  0.6249E+00  0.6419E+01
     11.674  0.6185E+00  0.6572E+01
     11.922  0.4912E+00  0.6694E+01
     12.169  0.1038E+00  0.6720E+01
     12.417  0.3305E-03  0.6720E+01
     12.665  0.7311E-10  0.6720E+01
     12.913  0.0000E+00  0.6720E+01
     13.161  0.0000E+00  0.6720E+01
     13.408  0.0000E+00  0.6720E+01
     13.656  0.0000E+00  0.6720E+01
     13.904  0.0000E+00  0.6720E+01
     14.152  0.0000E+00  0.6720E+01
     14.400  0.0000E+00  0.6720E+01
     14.647  0.0000E+00  0.6720E+01
     14.895  0.0000E+00  0.6720E+01
     15.143  0.0000E+00  0.6720E+01
     15.391  0.0000E+00  0.6720E+01
