  64  64   0   0
  0.1129557E+02  0.8932500E-09  0.9055600E-09  0.8937200E-09  0.5000000E-15
  1.000000000000000E-004
  CAR 
 HECN                                    
     13.15039991    -38.04825433  301      8.10222329      1.00000000
    -38.048  0.0000E+00  0.0000E+00
    -37.878  0.0000E+00  0.0000E+00
    -37.707  0.0000E+00  0.0000E+00
    -37.536  0.0000E+00  0.0000E+00
    -37.366  0.0000E+00  0.0000E+00
    -37.195  0.0000E+00  0.0000E+00
    -37.024  0.0000E+00  0.0000E+00
    -36.854  0.0000E+00  0.0000E+00
    -36.683  0.0000E+00  0.0000E+00
    -36.512  0.0000E+00  0.0000E+00
    -36.342  0.0000E+00  0.0000E+00
    -36.171  0.1155E-10  0.1972E-11
    -36.000  0.4581E-05  0.7817E-06
    -35.830  0.7383E-02  0.1261E-02
    -35.659  0.1318E+00  0.2375E-01
    -35.488  0.6266E+00  0.1307E+00
    -35.318  0.1012E+01  0.3034E+00
    -35.147  0.3146E+00  0.3571E+00
    -34.976  0.1684E-01  0.3600E+00
    -34.806  0.1888E-04  0.3600E+00
    -34.635  0.1046E-09  0.3600E+00
    -34.464  0.0000E+00  0.3600E+00
    -34.294  0.0000E+00  0.3600E+00
    -34.123  0.0000E+00  0.3600E+00
    -33.952  0.0000E+00  0.3600E+00
    -33.782  0.0000E+00  0.3600E+00
    -33.611  0.0000E+00  0.3600E+00
    -33.440  0.0000E+00  0.3600E+00
    -33.270  0.0000E+00  0.3600E+00
    -33.099  0.0000E+00  0.3600E+00
    -32.928  0.0000E+00  0.3600E+00
    -32.758  0.0000E+00  0.3600E+00
    -32.587  0.0000E+00  0.3600E+00
    -32.416  0.0000E+00  0.3600E+00
    -32.246  0.1041E-15  0.3600E+00
    -32.075  0.1731E-08  0.3600E+00
    -31.904  0.1028E-03  0.3600E+00
    -31.734  0.3046E-01  0.3652E+00
    -31.563  0.1933E+00  0.3982E+00
    -31.392  0.2072E+00  0.4336E+00
    -31.222  0.6529E+00  0.5450E+00
    -31.051  0.8548E+00  0.6909E+00
    -30.880  0.1691E+00  0.7197E+00
    -30.710  0.1593E-02  0.7200E+00
    -30.539  0.1454E-06  0.7200E+00
    -30.368  0.5661E-13  0.7200E+00
    -30.198  0.0000E+00  0.7200E+00
    -30.027  0.0000E+00  0.7200E+00
    -29.856  0.0000E+00  0.7200E+00
    -29.686  0.0000E+00  0.7200E+00
    -29.515  0.0000E+00  0.7200E+00
    -29.344  0.0000E+00  0.7200E+00
    -29.174  0.0000E+00  0.7200E+00
    -29.003  0.0000E+00  0.7200E+00
    -28.832  0.0000E+00  0.7200E+00
    -28.662  0.0000E+00  0.7200E+00
    -28.491  0.0000E+00  0.7200E+00
    -28.321  0.0000E+00  0.7200E+00
    -28.150  0.4995E-10  0.7200E+00
    -27.979  0.1220E-04  0.7200E+00
    -27.809  0.1408E-01  0.7224E+00
    -27.638  0.1934E+00  0.7554E+00
    -27.467  0.1728E+00  0.7849E+00
    -27.297  0.5129E+00  0.8724E+00
    -27.126  0.1107E+01  0.1061E+01
    -26.955  0.4262E+00  0.1134E+01
    -26.785  0.3485E-01  0.1140E+01
    -26.614  0.7836E-04  0.1140E+01
    -26.443  0.9769E-09  0.1140E+01
    -26.273  0.5204E-16  0.1140E+01
    -26.102  0.0000E+00  0.1140E+01
    -25.931  0.0000E+00  0.1140E+01
    -25.761  0.0000E+00  0.1140E+01
    -25.590  0.0000E+00  0.1140E+01
    -25.419  0.0000E+00  0.1140E+01
    -25.249  0.0000E+00  0.1140E+01
    -25.078  0.0000E+00  0.1140E+01
    -24.907  0.0000E+00  0.1140E+01
    -24.737  0.0000E+00  0.1140E+01
    -24.566  0.0000E+00  0.1140E+01
    -24.395  0.0000E+00  0.1140E+01
    -24.225  0.0000E+00  0.1140E+01
    -24.054  0.0000E+00  0.1140E+01
    -23.883  0.2113E-15  0.1140E+01
    -23.713  0.2883E-08  0.1140E+01
    -23.542  0.1383E-03  0.1140E+01
    -23.371  0.3124E-01  0.1145E+01
    -23.201  0.1503E+00  0.1171E+01
    -23.030  0.3603E+00  0.1232E+01
    -22.859  0.4100E+00  0.1302E+01
    -22.689  0.1654E+00  0.1331E+01
    -22.518  0.6776E+00  0.1446E+01
    -22.347  0.3113E+00  0.1499E+01
    -22.177  0.8376E-01  0.1514E+01
    -22.006  0.2511E+00  0.1557E+01
    -21.835  0.1984E-01  0.1560E+01
    -21.665  0.1406E-04  0.1560E+01
    -21.494  0.4384E-10  0.1560E+01
    -21.323  0.0000E+00  0.1560E+01
    -21.153  0.0000E+00  0.1560E+01
    -20.982  0.0000E+00  0.1560E+01
    -20.811  0.0000E+00  0.1560E+01
    -20.641  0.0000E+00  0.1560E+01
    -20.470  0.0000E+00  0.1560E+01
    -20.299  0.0000E+00  0.1560E+01
    -20.129  0.0000E+00  0.1560E+01
    -19.958  0.0000E+00  0.1560E+01
    -19.787  0.0000E+00  0.1560E+01
    -19.617  0.0000E+00  0.1560E+01
    -19.446  0.0000E+00  0.1560E+01
    -19.275  0.0000E+00  0.1560E+01
    -19.105  0.0000E+00  0.1560E+01
    -18.934  0.0000E+00  0.1560E+01
    -18.763  0.0000E+00  0.1560E+01
    -18.593  0.0000E+00  0.1560E+01
    -18.422  0.0000E+00  0.1560E+01
    -18.251  0.0000E+00  0.1560E+01
    -18.081  0.0000E+00  0.1560E+01
    -17.910  0.0000E+00  0.1560E+01
    -17.739  0.0000E+00  0.1560E+01
    -17.569  0.0000E+00  0.1560E+01
    -17.398  0.0000E+00  0.1560E+01
    -17.227  0.0000E+00  0.1560E+01
    -17.057  0.0000E+00  0.1560E+01
    -16.886  0.0000E+00  0.1560E+01
    -16.715  0.0000E+00  0.1560E+01
    -16.545  0.0000E+00  0.1560E+01
    -16.374  0.0000E+00  0.1560E+01
    -16.203  0.0000E+00  0.1560E+01
    -16.033  0.0000E+00  0.1560E+01
    -15.862  0.0000E+00  0.1560E+01
    -15.692  0.0000E+00  0.1560E+01
    -15.521  0.0000E+00  0.1560E+01
    -15.350  0.0000E+00  0.1560E+01
    -15.180  0.0000E+00  0.1560E+01
    -15.009  0.0000E+00  0.1560E+01
    -14.838  0.0000E+00  0.1560E+01
    -14.668  0.0000E+00  0.1560E+01
    -14.497  0.0000E+00  0.1560E+01
    -14.326  0.0000E+00  0.1560E+01
    -14.156  0.0000E+00  0.1560E+01
    -13.985  0.0000E+00  0.1560E+01
    -13.814  0.0000E+00  0.1560E+01
    -13.644  0.0000E+00  0.1560E+01
    -13.473  0.0000E+00  0.1560E+01
    -13.302  0.0000E+00  0.1560E+01
    -13.132  0.0000E+00  0.1560E+01
    -12.961  0.0000E+00  0.1560E+01
    -12.790  0.0000E+00  0.1560E+01
    -12.620  0.0000E+00  0.1560E+01
    -12.449  0.0000E+00  0.1560E+01
    -12.278  0.0000E+00  0.1560E+01
    -12.108  0.0000E+00  0.1560E+01
    -11.937  0.0000E+00  0.1560E+01
    -11.766  0.0000E+00  0.1560E+01
    -11.596  0.0000E+00  0.1560E+01
    -11.425  0.0000E+00  0.1560E+01
    -11.254  0.0000E+00  0.1560E+01
    -11.084  0.0000E+00  0.1560E+01
    -10.913  0.0000E+00  0.1560E+01
    -10.742  0.0000E+00  0.1560E+01
    -10.572  0.0000E+00  0.1560E+01
    -10.401  0.0000E+00  0.1560E+01
    -10.230  0.0000E+00  0.1560E+01
    -10.060  0.0000E+00  0.1560E+01
     -9.889  0.0000E+00  0.1560E+01
     -9.718  0.0000E+00  0.1560E+01
     -9.548  0.0000E+00  0.1560E+01
     -9.377  0.0000E+00  0.1560E+01
     -9.206  0.1467E-15  0.1560E+01
     -9.036  0.8759E-09  0.1560E+01
     -8.865  0.2184E-04  0.1560E+01
     -8.694  0.4607E-02  0.1561E+01
     -8.524  0.4917E-01  0.1569E+01
     -8.353  0.6439E-01  0.1580E+01
     -8.182  0.7506E-01  0.1593E+01
     -8.012  0.6579E-01  0.1604E+01
     -7.841  0.1218E+00  0.1625E+01
     -7.670  0.1184E+00  0.1645E+01
     -7.500  0.7351E-01  0.1658E+01
     -7.329  0.9706E-01  0.1674E+01
     -7.158  0.1765E+00  0.1704E+01
     -6.988  0.1221E+00  0.1725E+01
     -6.817  0.2498E+00  0.1768E+01
     -6.646  0.2073E+00  0.1803E+01
     -6.476  0.9270E-01  0.1819E+01
     -6.305  0.5214E-02  0.1820E+01
     -6.134  0.2333E-05  0.1820E+01
     -5.964  0.4232E-11  0.1820E+01
     -5.793  0.1349E-16  0.1820E+01
     -5.622  0.1985E-09  0.1820E+01
     -5.452  0.1169E-04  0.1820E+01
     -5.281  0.5321E-02  0.1821E+01
     -5.110  0.6752E-01  0.1832E+01
     -4.940  0.4388E-01  0.1840E+01
     -4.769  0.3113E-01  0.1845E+01
     -4.598  0.1202E+00  0.1866E+01
     -4.428  0.1158E+00  0.1885E+01
     -4.257  0.1253E+00  0.1907E+01
     -4.086  0.1962E+00  0.1940E+01
     -3.916  0.2318E+00  0.1980E+01
     -3.745  0.1767E+00  0.2010E+01
     -3.574  0.2231E+00  0.2048E+01
     -3.404  0.2554E+00  0.2092E+01
     -3.233  0.2260E+00  0.2130E+01
     -3.063  0.1612E+00  0.2158E+01
     -2.892  0.1199E+00  0.2178E+01
     -2.721  0.9220E-01  0.2194E+01
     -2.551  0.3044E-01  0.2199E+01
     -2.380  0.4425E-02  0.2200E+01
     -2.209  0.1355E-03  0.2200E+01
     -2.039  0.3921E-07  0.2200E+01
     -1.868  0.4483E-13  0.2200E+01
     -1.697  0.0000E+00  0.2200E+01
     -1.527  0.0000E+00  0.2200E+01
     -1.356  0.0000E+00  0.2200E+01
     -1.185  0.0000E+00  0.2200E+01
     -1.015  0.1813E-11  0.2200E+01
     -0.844  0.4246E-06  0.2200E+01
     -0.673  0.4116E-03  0.2200E+01
     -0.503  0.3614E-02  0.2201E+01
     -0.332  0.1193E-01  0.2203E+01
     -0.161  0.2922E-01  0.2208E+01
      0.009  0.8777E-01  0.2223E+01
      0.180  0.9067E-01  0.2238E+01
      0.351  0.1200E+00  0.2259E+01
      0.521  0.1632E+00  0.2287E+01
      0.692  0.1798E+00  0.2317E+01
      0.863  0.2213E+00  0.2355E+01
      1.033  0.2607E+00  0.2399E+01
      1.204  0.2620E+00  0.2444E+01
      1.375  0.2671E+00  0.2490E+01
      1.545  0.2581E+00  0.2534E+01
      1.716  0.3070E+00  0.2586E+01
      1.887  0.2994E+00  0.2637E+01
      2.057  0.3111E+00  0.2690E+01
      2.228  0.3786E+00  0.2755E+01
      2.399  0.4489E+00  0.2832E+01
      2.569  0.4828E+00  0.2914E+01
      2.740  0.5461E+00  0.3007E+01
      2.911  0.6072E+00  0.3111E+01
      3.081  0.6695E+00  0.3225E+01
      3.252  0.6785E+00  0.3341E+01
      3.423  0.6572E+00  0.3453E+01
      3.593  0.5841E+00  0.3553E+01
      3.764  0.5120E+00  0.3640E+01
      3.935  0.4533E+00  0.3717E+01
      4.105  0.3674E+00  0.3780E+01
      4.276  0.3310E+00  0.3837E+01
      4.447  0.3099E+00  0.3890E+01
      4.617  0.3072E+00  0.3942E+01
      4.788  0.3022E+00  0.3994E+01
      4.959  0.2440E+00  0.4035E+01
      5.129  0.1962E+00  0.4069E+01
      5.300  0.1462E+00  0.4094E+01
      5.471  0.1138E+00  0.4113E+01
      5.641  0.1078E+00  0.4131E+01
      5.812  0.1377E+00  0.4155E+01
      5.983  0.1781E+00  0.4185E+01
      6.153  0.1833E+00  0.4217E+01
      6.324  0.1834E+00  0.4248E+01
      6.495  0.1751E+00  0.4278E+01
      6.665  0.1906E+00  0.4310E+01
      6.836  0.2094E+00  0.4346E+01
      7.007  0.2354E+00  0.4386E+01
      7.177  0.2794E+00  0.4434E+01
      7.348  0.2677E+00  0.4480E+01
      7.519  0.2654E+00  0.4525E+01
      7.689  0.2710E+00  0.4571E+01
      7.860  0.2742E+00  0.4618E+01
      8.031  0.2653E+00  0.4663E+01
      8.201  0.2418E+00  0.4704E+01
      8.372  0.2896E+00  0.4754E+01
      8.543  0.3465E+00  0.4813E+01
      8.713  0.4075E+00  0.4883E+01
      8.884  0.4436E+00  0.4958E+01
      9.055  0.4727E+00  0.5039E+01
      9.225  0.4697E+00  0.5119E+01
      9.396  0.4666E+00  0.5199E+01
      9.566  0.4423E+00  0.5274E+01
      9.737  0.4204E+00  0.5346E+01
      9.908  0.4136E+00  0.5417E+01
     10.078  0.4097E+00  0.5486E+01
     10.249  0.4059E+00  0.5556E+01
     10.420  0.4038E+00  0.5625E+01
     10.590  0.3922E+00  0.5692E+01
     10.761  0.3235E+00  0.5747E+01
     10.932  0.7556E-01  0.5760E+01
     11.102  0.1677E-02  0.5760E+01
     11.273  0.6272E-06  0.5760E+01
     11.444  0.1247E-11  0.5760E+01
     11.614  0.0000E+00  0.5760E+01
     11.785  0.0000E+00  0.5760E+01
     11.956  0.0000E+00  0.5760E+01
     12.126  0.0000E+00  0.5760E+01
     12.297  0.0000E+00  0.5760E+01
     12.468  0.0000E+00  0.5760E+01
     12.638  0.0000E+00  0.5760E+01
     12.809  0.0000E+00  0.5760E+01
     12.980  0.0000E+00  0.5760E+01
     13.150  0.0000E+00  0.5760E+01
