 running on   24 total cores
 distrk:  each k-point on   24 cores,    1 groups
 distr:  one band on    1 cores,   24 groups
 using from now: INCAR     
 vasp.5.4.4.18Apr17-6-g9f103f2a35 (build Oct 18 2021 20:38:43) complex          
  
 POSCAR found type information on POSCAR  Ta W  Hf N  C  Cr Mo
 POSCAR found :  7 types and      64 ions
 scaLAPACK will be used

 ----------------------------------------------------------------------------- 
|                                                                             |
|           W    W    AA    RRRRR   N    N  II  N    N   GGGG   !!!           |
|           W    W   A  A   R    R  NN   N  II  NN   N  G    G  !!!           |
|           W    W  A    A  R    R  N N  N  II  N N  N  G       !!!           |
|           W WW W  AAAAAA  RRRRR   N  N N  II  N  N N  G  GGG   !            |
|           WW  WW  A    A  R   R   N   NN  II  N   NN  G    G                |
|           W    W  A    A  R    R  N    N  II  N    N   GGGG   !!!           |
|                                                                             |
|      For optimal performance we recommend to set                            |
|        NCORE= 4 - approx SQRT( number of cores)                             |
|      NCORE specifies how many cores store one orbital (NPAR=cpu/NCORE).     |
|      This setting can  greatly improve the performance of VASP for DFT.     |
|      The default,   NCORE=1            might be grossly inefficient         |
|      on modern multi-core architectures or massively parallel machines.     |
|      Do your own testing !!!!                                               |
|      Unfortunately you need to use the default for GW and RPA calculations. |
|      (for HF NCORE is supported but not extensively tested yet)             |
|                                                                             |
 ----------------------------------------------------------------------------- 


 ----------------------------------------------------------------------------- 
|                                                                             |
|  ADVICE TO THIS USER RUNNING 'VASP/VAMP'   (HEAR YOUR MASTER'S VOICE ...):  |
|                                                                             |
|      You have a (more or less) 'large supercell' and for larger cells       |
|      it might be more efficient to use real space projection operators      |
|      So try LREAL= Auto  in the INCAR   file.                               |
|      Mind: If you want to do a very accurate calculations keep the          |
|      reciprocal projection scheme          (i.e. LREAL=.FALSE.)             |
|                                                                             |
 ----------------------------------------------------------------------------- 

 LDA part: xc-table for Pade appr. of Perdew
 POSCAR, INCAR and KPOINTS ok, starting setup
 FFT: planning ...
 WAVECAR not read
 entering main loop
       N       E                     dE             d eps       ncg     rms          rms(c)
DAV:   1     0.494480327090E+04    0.49448E+04   -0.19703E+05  8064   0.146E+03
DAV:   2    -0.138921793463E+02   -0.49587E+04   -0.47643E+04  8400   0.500E+02
DAV:   3    -0.732201200694E+03   -0.71831E+03   -0.67775E+03 12096   0.173E+02
DAV:   4    -0.790177829194E+03   -0.57977E+02   -0.55961E+02 13128   0.556E+01
DAV:   5    -0.792930225955E+03   -0.27524E+01   -0.26697E+01 13464   0.120E+01    0.721E+01
RMM:   6    -0.976329910963E+03   -0.18340E+03   -0.25923E+03 11231   0.151E+02    0.123E+02
RMM:   7    -0.666822295167E+03    0.30951E+03   -0.28353E+02 11234   0.406E+01    0.386E+01
RMM:   8    -0.673308984267E+03   -0.64867E+01   -0.56414E+01 12155   0.135E+01    0.396E+01
RMM:   9    -0.666693157679E+03    0.66158E+01   -0.14858E+01 10440   0.993E+00    0.343E+01
RMM:  10    -0.659933071039E+03    0.67601E+01   -0.67818E+00 11132   0.538E+00    0.119E+01
RMM:  11    -0.661687560100E+03   -0.17545E+01   -0.35538E+00 10899   0.381E+00    0.239E+01
RMM:  12    -0.659210025796E+03    0.24775E+01   -0.37495E+00 10615   0.493E+00    0.107E+01
RMM:  13    -0.660037718936E+03   -0.82769E+00   -0.21485E+00 10837   0.335E+00    0.185E+01
RMM:  14    -0.659046278195E+03    0.99144E+00   -0.19516E+00 10739   0.286E+00    0.710E+00
RMM:  15    -0.659212189160E+03   -0.16591E+00   -0.65529E-01 10640   0.174E+00    0.108E+01
RMM:  16    -0.658731636950E+03    0.48055E+00   -0.39986E-01 11097   0.120E+00    0.341E+00
RMM:  17    -0.658647587780E+03    0.84049E-01   -0.48381E-01 11550   0.824E-01    0.181E+00
RMM:  18    -0.658654101962E+03   -0.65142E-02   -0.13077E-01 11278   0.575E-01    0.196E+00
RMM:  19    -0.658645902528E+03    0.81994E-02   -0.77982E-02 11416   0.434E-01    0.527E-01
RMM:  20    -0.658642763468E+03    0.31391E-02   -0.29256E-02 11199   0.267E-01    0.226E-01
RMM:  21    -0.658644009344E+03   -0.12459E-02   -0.17343E-02 11293   0.160E-01    0.250E-01
RMM:  22    -0.658644018544E+03   -0.91997E-05   -0.50389E-03 11238   0.684E-02    0.110E-01
RMM:  23    -0.658644120353E+03   -0.10181E-03   -0.21676E-03  9392   0.424E-02    0.327E-02
RMM:  24    -0.658644198171E+03   -0.77818E-04   -0.10349E-03  7146   0.279E-02    0.183E-02
RMM:  25    -0.658644235143E+03   -0.36972E-04   -0.48718E-04  6059   0.220E-02    0.173E-02
RMM:  26    -0.658644255216E+03   -0.20073E-04   -0.26705E-04  5754   0.145E-02    0.730E-03
RMM:  27    -0.658644265270E+03   -0.10054E-04   -0.12950E-04  5607   0.139E-02    0.543E-03
RMM:  28    -0.658644270430E+03   -0.51596E-05   -0.69747E-05  5455   0.881E-03
   1 F= -.65864427E+03 E0= -.65852371E+03  d E =-.658644E+03
 curvature:   0.00 expect dE= 0.000E+00 dE for cont linesearch  0.000E+00
 trial: gam= 0.00000 g(F)=  0.385E+01 g(S)=  0.102E+02 ort = 0.000E+00 (trialstep = 0.100E+01)
 search vector abs. value=  0.141E+02
 bond charge predicted
       N       E                     dE             d eps       ncg     rms          rms(c)
DAV:   1    -0.720617399327E+03   -0.61973E+02   -0.22706E+03 11376   0.238E+02    0.632E+01
RMM:   2    -0.909677346870E+03   -0.18906E+03   -0.14458E+03  9964   0.151E+02    0.102E+02
RMM:   3    -0.662476812488E+03    0.24720E+03   -0.10973E+02 10256   0.377E+01    0.280E+01
RMM:   4    -0.667204768871E+03   -0.47280E+01   -0.42422E+01 10934   0.177E+01    0.348E+01
RMM:   5    -0.661402523733E+03    0.58022E+01   -0.14734E+01  9788   0.148E+01    0.263E+01
RMM:   6    -0.657556285039E+03    0.38462E+01   -0.11204E+01 11019   0.795E+00    0.184E+01
RMM:   7    -0.657261689912E+03    0.29460E+00   -0.32701E+00 10249   0.578E+00    0.173E+01
RMM:   8    -0.655807419731E+03    0.14543E+01   -0.16257E+00 10664   0.390E+00    0.890E+00
RMM:   9    -0.655536257946E+03    0.27116E+00   -0.68551E-01 10705   0.210E+00    0.512E+00
RMM:  10    -0.655447724033E+03    0.88534E-01   -0.50514E-01 11343   0.116E+00    0.316E+00
RMM:  11    -0.655481247442E+03   -0.33523E-01   -0.15334E-01 10312   0.107E+00    0.410E+00
RMM:  12    -0.655403803107E+03    0.77444E-01   -0.86874E-02 10481   0.834E-01    0.125E+00
RMM:  13    -0.655429166202E+03   -0.25363E-01   -0.74242E-02 10443   0.578E-01    0.262E+00
RMM:  14    -0.655402050424E+03    0.27116E-01   -0.30315E-02 10359   0.514E-01    0.684E-01
RMM:  15    -0.655401278367E+03    0.77206E-03   -0.26500E-02 11317   0.183E-01    0.210E-01
RMM:  16    -0.655401423631E+03   -0.14526E-03   -0.79522E-03 11183   0.115E-01    0.119E-01
RMM:  17    -0.655401508088E+03   -0.84457E-04   -0.24258E-03 10446   0.574E-02    0.544E-02
RMM:  18    -0.655401535587E+03   -0.27499E-04   -0.73387E-04  8203   0.425E-02    0.403E-02
RMM:  19    -0.655401540584E+03   -0.49974E-05   -0.30892E-04  6962   0.291E-02    0.126E-02
RMM:  20    -0.655401549704E+03   -0.91194E-05   -0.13547E-04  6192   0.192E-02    0.660E-03
RMM:  21    -0.655401551873E+03   -0.21696E-05   -0.46127E-05  5365   0.161E-02
   2 F= -.65540155E+03 E0= -.65531644E+03  d E =0.324272E+01
 trial-energy change:    3.242719  1 .order    4.431121  -14.054770   22.917013
 step:   0.4273(harm=  0.3801)  dis= 0.04160  next Energy=  -661.740141 (dE=-0.310E+01)
 bond charge predicted
       N       E                     dE             d eps       ncg     rms          rms(c)
DAV:   1    -0.694882520903E+03   -0.39481E+02   -0.84156E+02 11112   0.131E+02    0.649E+01
RMM:   2    -0.970049905972E+03   -0.27517E+03   -0.26223E+02 11441   0.366E+01    0.831E+01
RMM:   3    -0.714114972300E+03    0.25593E+03   -0.10988E+02 11184   0.301E+01    0.566E+01
RMM:   4    -0.663600081329E+03    0.50515E+02   -0.43644E+01  9832   0.242E+01    0.104E+01
RMM:   5    -0.671478763465E+03   -0.78787E+01   -0.27439E+01 10715   0.135E+01    0.366E+01
RMM:   6    -0.667214507800E+03    0.42643E+01   -0.56263E+00 10524   0.651E+00    0.277E+01
RMM:   7    -0.665097090517E+03    0.21174E+01   -0.57069E+00  9767   0.859E+00    0.226E+01
RMM:   8    -0.664539288916E+03    0.55780E+00   -0.28858E+00 10917   0.324E+00    0.194E+01
RMM:   9    -0.662254479772E+03    0.22848E+01   -0.65343E-01  9946   0.303E+00    0.841E+00
RMM:  10    -0.661915941459E+03    0.33854E+00   -0.37057E-01 10664   0.172E+00    0.499E+00
RMM:  11    -0.661808893247E+03    0.10705E+00   -0.21595E-01 10587   0.126E+00    0.294E+00
RMM:  12    -0.661914799569E+03   -0.10591E+00   -0.77226E-02 10611   0.681E-01    0.565E+00
RMM:  13    -0.661768314117E+03    0.14649E+00   -0.83264E-02  9834   0.105E+00    0.168E+00
RMM:  14    -0.661786131900E+03   -0.17818E-01   -0.64254E-02 10588   0.522E-01    0.254E+00
RMM:  15    -0.661755846178E+03    0.30286E-01   -0.26713E-02 10555   0.458E-01    0.387E-01
RMM:  16    -0.661764886849E+03   -0.90407E-02   -0.37314E-02 10939   0.328E-01    0.127E+00
RMM:  17    -0.661756004627E+03    0.88822E-02   -0.64111E-03  9383   0.288E-01    0.131E-01
RMM:  18    -0.661756452520E+03   -0.44789E-03   -0.53981E-03 10147   0.923E-02    0.159E-01
RMM:  19    -0.661756774382E+03   -0.32186E-03   -0.19149E-03  9187   0.461E-02    0.248E-01
RMM:  20    -0.661756452557E+03    0.32183E-03   -0.56889E-04  7855   0.866E-02    0.601E-02
RMM:  21    -0.661756489352E+03   -0.36795E-04   -0.56077E-04  7727   0.333E-02    0.211E-02
RMM:  22    -0.661756526197E+03   -0.36845E-04   -0.21488E-04  6992   0.311E-02    0.682E-02
RMM:  23    -0.661756501046E+03    0.25150E-04   -0.46513E-05  5558   0.204E-02    0.584E-03
RMM:  24    -0.661756505764E+03   -0.47179E-05   -0.40443E-05  5536   0.116E-02
   3 F= -.66175651E+03 E0= -.66165186E+03  d E =-.311224E+01
 curvature:  -0.19 expect dE=-0.688E+00 dE for cont linesearch -0.403E-02
 trial: gam= 0.22012 g(F)=  0.293E+01 g(S)=  0.711E+00 ort = 0.548E+00 (trialstep = 0.885E+00)
 search vector abs. value=  0.456E+01
 bond charge predicted
       N       E                     dE             d eps       ncg     rms          rms(c)
DAV:   1    -0.657422149295E+03    0.43344E+01   -0.57205E+02  8400   0.102E+02    0.872E+00
RMM:   2    -0.678382084332E+03   -0.20960E+02   -0.75030E+01 12719   0.232E+01    0.362E+01
RMM:   3    -0.664963214246E+03    0.13419E+02   -0.78007E+00  9903   0.127E+01    0.154E+01
RMM:   4    -0.663784253788E+03    0.11790E+01   -0.32693E+00 11240   0.418E+00    0.490E+00
RMM:   5    -0.663987706095E+03   -0.20345E+00   -0.10766E+00 11200   0.201E+00    0.945E+00
RMM:   6    -0.663607929789E+03    0.37978E+00   -0.32661E-01 10734   0.144E+00    0.219E+00
RMM:   7    -0.663660510446E+03   -0.52581E-01   -0.33569E-01 11389   0.101E+00    0.427E+00
RMM:   8    -0.663586907278E+03    0.73603E-01   -0.14395E-01 10439   0.112E+00    0.235E+00
RMM:   9    -0.663554526631E+03    0.32381E-01   -0.13002E-01 11509   0.603E-01    0.117E+00
RMM:  10    -0.663566393495E+03   -0.11867E-01   -0.43914E-02 10583   0.437E-01    0.203E+00
RMM:  11    -0.663550920055E+03    0.15473E-01   -0.21834E-02 10714   0.365E-01    0.803E-01
RMM:  12    -0.663552577907E+03   -0.16579E-02   -0.15426E-02 10578   0.201E-01    0.887E-01
RMM:  13    -0.663549409407E+03    0.31685E-02   -0.80188E-03 10639   0.185E-01    0.204E-01
RMM:  14    -0.663549338209E+03    0.71197E-04   -0.41193E-03  9956   0.710E-02    0.863E-02
RMM:  15    -0.663549386601E+03   -0.48392E-04   -0.16151E-03  9354   0.506E-02    0.472E-02
RMM:  16    -0.663549427787E+03   -0.41186E-04   -0.60827E-04  9106   0.308E-02    0.286E-02
RMM:  17    -0.663549425182E+03    0.26051E-05   -0.19546E-04  6411   0.269E-02    0.166E-02
RMM:  18    -0.663549429952E+03   -0.47705E-05   -0.10220E-04  5763   0.151E-02    0.875E-03
RMM:  19    -0.663549433568E+03   -0.36160E-05   -0.46596E-05  5435   0.144E-02
   4 F= -.66354943E+03 E0= -.66345647E+03  d E =-.179293E+01
 trial-energy change:   -1.792928  1 .order   -1.813013   -3.331036   -0.294990
 step:   0.9754(harm=  0.9715)  dis= 0.09804  next Energy=  -663.564399 (dE=-0.181E+01)
 bond charge predicted
       N       E                     dE             d eps       ncg     rms          rms(c)
DAV:   1    -0.663500229567E+03    0.49200E-01   -0.58702E+00  9072   0.105E+01    0.849E-01
RMM:   2    -0.663755810234E+03   -0.25558E+00   -0.82015E-01 12601   0.243E+00    0.595E+00
RMM:   3    -0.663578063610E+03    0.17775E+00   -0.98334E-02 10083   0.126E+00    0.157E+00
RMM:   4    -0.663568982251E+03    0.90814E-02   -0.33409E-02 10896   0.426E-01    0.835E-01
RMM:   5    -0.663568864319E+03    0.11793E-03   -0.11689E-02 10572   0.211E-01    0.929E-01
RMM:   6    -0.663565322284E+03    0.35420E-02   -0.32068E-03  9300   0.163E-01    0.254E-01
RMM:   7    -0.663565503052E+03   -0.18077E-03   -0.31457E-03 10726   0.100E-01    0.404E-01
RMM:   8    -0.663565136198E+03    0.36685E-03   -0.12566E-03  9101   0.105E-01    0.318E-01
RMM:   9    -0.663565104489E+03    0.31709E-04   -0.14712E-03 10356   0.972E-02    0.338E-01
RMM:  10    -0.663564572404E+03    0.53208E-03   -0.53595E-04  8318   0.677E-02    0.750E-02
RMM:  11    -0.663564590295E+03   -0.17891E-04   -0.47626E-04  8556   0.356E-02    0.686E-02
RMM:  12    -0.663564614179E+03   -0.23884E-04   -0.16591E-04  6196   0.306E-02    0.958E-02
RMM:  13    -0.663564570110E+03    0.44068E-04   -0.77969E-05  5659   0.239E-02    0.145E-02
RMM:  14    -0.663564571884E+03   -0.17734E-05   -0.49428E-05  5625   0.135E-02
   5 F= -.66356457E+03 E0= -.66347262E+03  d E =-.180807E+01
 curvature:  -0.59 expect dE=-0.586E+00 dE for cont linesearch -0.600E-06
 trial: gam= 0.20869 g(F)=  0.908E+00 g(S)=  0.893E-01 ort =-0.216E-02 (trialstep = 0.903E+00)
 search vector abs. value=  0.119E+01
 bond charge predicted
       N       E                     dE             d eps       ncg     rms          rms(c)
DAV:   1    -0.661438044170E+03    0.21265E+01   -0.20830E+02 10800   0.845E+01    0.959E+00
RMM:   2    -0.679343498164E+03   -0.17905E+02   -0.44085E+01 11985   0.173E+01    0.385E+01
RMM:   3    -0.664298156691E+03    0.15045E+02   -0.65296E+00 10098   0.982E+00    0.487E+00
RMM:   4    -0.664790746704E+03   -0.49259E+00   -0.21096E+00 11375   0.312E+00    0.110E+01
RMM:   5    -0.664196166314E+03    0.59458E+00   -0.37042E-01 10230   0.185E+00    0.293E+00
RMM:   6    -0.664229045970E+03   -0.32880E-01   -0.25808E-01 10706   0.115E+00    0.421E+00
RMM:   7    -0.664166340232E+03    0.62706E-01   -0.11276E-01 10854   0.865E-01    0.202E+00
RMM:   8    -0.664171102588E+03   -0.47624E-02   -0.58106E-02 10201   0.748E-01    0.243E+00
RMM:   9    -0.664140922879E+03    0.30180E-01   -0.52751E-02 11021   0.480E-01    0.735E-01
RMM:  10    -0.664149141300E+03   -0.82184E-02   -0.23629E-02 10061   0.374E-01    0.150E+00
RMM:  11    -0.664138238838E+03    0.10902E-01   -0.10366E-02 10215   0.286E-01    0.245E-01
RMM:  12    -0.664140570030E+03   -0.23312E-02   -0.10000E-02 10748   0.142E-01    0.665E-01
RMM:  13    -0.664138906847E+03    0.16632E-02   -0.37536E-03  9113   0.134E-01    0.176E-01
RMM:  14    -0.664138859484E+03    0.47363E-04   -0.23238E-03  9610   0.554E-02    0.569E-02
RMM:  15    -0.664138888878E+03   -0.29394E-04   -0.86870E-04  8456   0.392E-02    0.303E-02
RMM:  16    -0.664138901074E+03   -0.12196E-04   -0.29190E-04  8445   0.268E-02    0.156E-02
RMM:  17    -0.664138906034E+03   -0.49598E-05   -0.10325E-04  5968   0.221E-02    0.865E-03
RMM:  18    -0.664138908476E+03   -0.24416E-05   -0.42333E-05  5477   0.145E-02
   6 F= -.66413891E+03 E0= -.66405208E+03  d E =-.574337E+00
 trial-energy change:   -0.574337  1 .order   -0.569778   -0.900325   -0.239232
 step:   1.2132(harm=  1.2304)  dis= 0.06856  next Energy=  -664.180100 (dE=-0.616E+00)
 bond charge predicted
       N       E                     dE             d eps       ncg     rms          rms(c)
DAV:   1    -0.663851449523E+03    0.28746E+00   -0.23961E+01 11352   0.295E+01    0.323E+00
RMM:   2    -0.666168935697E+03   -0.23175E+01   -0.56190E+00 11265   0.654E+00    0.170E+01
RMM:   3    -0.664287065970E+03    0.18819E+01   -0.90569E-01  9980   0.374E+00    0.437E+00
RMM:   4    -0.664214873074E+03    0.72193E-01   -0.25268E-01 11159   0.129E+00    0.221E+00
RMM:   5    -0.664218071420E+03   -0.31983E-02   -0.76435E-02 10943   0.642E-01    0.273E+00
RMM:   6    -0.664186995259E+03    0.31076E-01   -0.21232E-02  9773   0.477E-01    0.844E-01
RMM:   7    -0.664192033350E+03   -0.50381E-02   -0.23244E-02 11067   0.331E-01    0.136E+00
RMM:   8    -0.664184335061E+03    0.76983E-02   -0.90671E-03 10032   0.308E-01    0.584E-01
RMM:   9    -0.664185557569E+03   -0.12225E-02   -0.85403E-03 10853   0.213E-01    0.868E-01
RMM:  10    -0.664182050256E+03    0.35073E-02   -0.27098E-03  9481   0.164E-01    0.197E-01
RMM:  11    -0.664182771338E+03   -0.72108E-03   -0.28624E-03  9793   0.109E-01    0.398E-01
RMM:  12    -0.664182013576E+03    0.75776E-03   -0.99864E-04  8575   0.760E-02    0.697E-02
RMM:  13    -0.664182041467E+03   -0.27891E-04   -0.78305E-04  8575   0.339E-02    0.384E-02
RMM:  14    -0.664182042320E+03   -0.85292E-06   -0.25003E-04  6746   0.262E-02    0.159E-02
RMM:  15    -0.664182045118E+03   -0.27982E-05   -0.77251E-05  5782   0.175E-02
   7 F= -.66418205E+03 E0= -.66409629E+03  d E =-.617473E+00
 curvature:  -0.74 expect dE=-0.664E+00 dE for cont linesearch -0.380E-04
 trial: gam= 0.86101 g(F)=  0.396E+00 g(S)=  0.506E+00 ort = 0.785E-02 (trialstep = 0.640E+00)
 search vector abs. value=  0.180E+01
 bond charge predicted
       N       E                     dE             d eps       ncg     rms          rms(c)
DAV:   1    -0.662325162433E+03    0.18569E+01   -0.16091E+02 11376   0.791E+01    0.853E+00
RMM:   2    -0.676693679305E+03   -0.14369E+02   -0.42350E+01 10027   0.212E+01    0.373E+01
RMM:   3    -0.664608051233E+03    0.12086E+02   -0.75879E+00  9900   0.117E+01    0.625E+00
RMM:   4    -0.664710412768E+03   -0.10236E+00   -0.21880E+00 11734   0.348E+00    0.577E+00
RMM:   5    -0.664560305319E+03    0.15011E+00   -0.44115E-01 10854   0.163E+00    0.350E+00
RMM:   6    -0.664522816806E+03    0.37489E-01   -0.12879E-01  9954   0.112E+00    0.293E+00
RMM:   7    -0.664495321259E+03    0.27496E-01   -0.13332E-01 11013   0.824E-01    0.239E+00
RMM:   8    -0.664497894836E+03   -0.25736E-02   -0.58116E-02  9893   0.808E-01    0.266E+00
RMM:   9    -0.664472653560E+03    0.25241E-01   -0.52696E-02 10641   0.679E-01    0.164E+00
RMM:  10    -0.664461340655E+03    0.11313E-01   -0.25980E-02 10236   0.392E-01    0.574E-01
RMM:  11    -0.664461236610E+03    0.10405E-03   -0.16073E-02 10991   0.183E-01    0.419E-01
RMM:  12    -0.664461291294E+03   -0.54685E-04   -0.50284E-03  9409   0.143E-01    0.381E-01
RMM:  13    -0.664460642342E+03    0.64895E-03   -0.26969E-03 10248   0.883E-02    0.919E-02
RMM:  14    -0.664460760720E+03   -0.11838E-03   -0.13354E-03  9631   0.443E-02    0.455E-02
RMM:  15    -0.664460797216E+03   -0.36495E-04   -0.43274E-04  7949   0.320E-02    0.240E-02
RMM:  16    -0.664460804722E+03   -0.75064E-05   -0.13310E-04  5958   0.244E-02    0.852E-03
RMM:  17    -0.664460808717E+03   -0.39950E-05   -0.50498E-05  5499   0.140E-02
   8 F= -.66446081E+03 E0= -.66438261E+03  d E =-.278764E+00
 trial-energy change:   -0.278764  1 .order   -0.266037   -0.582055    0.049981
 step:   0.5947(harm=  0.5896)  dis= 0.03976  next Energy=  -664.462581 (dE=-0.281E+00)
 bond charge predicted
       N       E                     dE             d eps       ncg     rms          rms(c)
DAV:   1    -0.664451556212E+03    0.92485E-02   -0.81299E-01 11808   0.570E+00    0.624E-01
RMM:   2    -0.664535214586E+03   -0.83658E-01   -0.20436E-01 10764   0.131E+00    0.333E+00
RMM:   3    -0.664468760452E+03    0.66454E-01   -0.35410E-02  9913   0.745E-01    0.106E+00
RMM:   4    -0.664463715696E+03    0.50448E-02   -0.92480E-03 10261   0.275E-01    0.395E-01
RMM:   5    -0.664464244945E+03   -0.52925E-03   -0.34137E-03 10097   0.146E-01    0.547E-01
RMM:   6    -0.664462782175E+03    0.14628E-02   -0.10072E-03  8869   0.112E-01    0.139E-01
RMM:   7    -0.664462841563E+03   -0.59388E-04   -0.94962E-04 10084   0.710E-02    0.202E-01
RMM:   8    -0.664462663641E+03    0.17792E-03   -0.29098E-04  8324   0.636E-02    0.110E-01
RMM:   9    -0.664462680599E+03   -0.16958E-04   -0.24829E-04  8762   0.472E-02    0.150E-01
RMM:  10    -0.664462573752E+03    0.10685E-03   -0.84182E-05  5898   0.355E-02    0.340E-02
RMM:  11    -0.664462573803E+03   -0.50830E-07   -0.78796E-05  5911   0.217E-02
   9 F= -.66446257E+03 E0= -.66438388E+03  d E =-.280529E+00
 curvature:  -0.58 expect dE=-0.300E+00 dE for cont linesearch -0.773E-12
 trial: gam= 0.48187 g(F)=  0.426E+00 g(S)=  0.940E-01 ort =-0.155E-05 (trialstep = 0.631E+00)
 search vector abs. value=  0.938E+00
 bond charge predicted
       N       E                     dE             d eps       ncg     rms          rms(c)
DAV:   1    -0.663210395877E+03    0.12522E+01   -0.76217E+01  8400   0.487E+01    0.220E+00
RMM:   2    -0.664924697868E+03   -0.17143E+01   -0.14977E+01 12671   0.960E+00    0.775E+00
RMM:   3    -0.664732598980E+03    0.19210E+00   -0.13118E+00 10444   0.474E+00    0.294E+00
RMM:   4    -0.664782010582E+03   -0.49412E-01   -0.34296E-01 11122   0.171E+00    0.364E+00
RMM:   5    -0.664720941638E+03    0.61069E-01   -0.12209E-01 10590   0.950E-01    0.130E+00
RMM:   6    -0.664719102299E+03    0.18393E-02   -0.56949E-02 10973   0.423E-01    0.104E+00
RMM:   7    -0.664716814482E+03    0.22878E-02   -0.27450E-02 11334   0.311E-01    0.103E+00
RMM:   8    -0.664714832630E+03    0.19819E-02   -0.12505E-02 10239   0.349E-01    0.950E-01
RMM:   9    -0.664708896147E+03    0.59365E-02   -0.12919E-02 11091   0.260E-01    0.201E-01
RMM:  10    -0.664710928936E+03   -0.20328E-02   -0.62757E-03 10523   0.151E-01    0.631E-01
RMM:  11    -0.664708948353E+03    0.19806E-02   -0.18013E-03  8581   0.127E-01    0.124E-01
RMM:  12    -0.664709095726E+03   -0.14737E-03   -0.18125E-03  9426   0.666E-02    0.165E-01
RMM:  13    -0.664708989246E+03    0.10648E-03   -0.59669E-04  7573   0.488E-02    0.614E-02
RMM:  14    -0.664708984197E+03    0.50488E-05   -0.30648E-04  7808   0.238E-02    0.212E-02
RMM:  15    -0.664708990842E+03   -0.66448E-05   -0.13493E-04  6052   0.207E-02    0.104E-02
RMM:  16    -0.664708992774E+03   -0.19325E-05   -0.39008E-05  5472   0.155E-02
  10 F= -.66470899E+03 E0= -.66463500E+03  d E =-.246419E+00
 trial-energy change:   -0.246419  1 .order   -0.244020   -0.327907   -0.160133
 step:   1.1520(harm=  1.2335)  dis= 0.06032  next Energy=  -664.776415 (dE=-0.314E+00)
 bond charge predicted
       N       E                     dE             d eps       ncg     rms          rms(c)
DAV:   1    -0.663755509026E+03    0.95348E+00   -0.51819E+01  8400   0.407E+01    0.178E+00
RMM:   2    -0.664858903743E+03   -0.11034E+01   -0.10189E+01 12659   0.788E+00    0.522E+00
RMM:   3    -0.664805010359E+03    0.53893E-01   -0.87139E-01 10636   0.373E+00    0.263E+00
RMM:   4    -0.664826188698E+03   -0.21178E-01   -0.20281E-01 11003   0.138E+00    0.281E+00
RMM:   5    -0.664787908720E+03    0.38280E-01   -0.77627E-02 10445   0.759E-01    0.971E-01
RMM:   6    -0.664788244569E+03   -0.33585E-03   -0.38910E-02 10810   0.351E-01    0.900E-01
RMM:   7    -0.664785409391E+03    0.28352E-02   -0.18286E-02 11353   0.257E-01    0.739E-01
RMM:   8    -0.664785570436E+03   -0.16104E-03   -0.84744E-03 10322   0.278E-01    0.875E-01
RMM:   9    -0.664780939837E+03    0.46306E-02   -0.74894E-03 10893   0.223E-01    0.159E-01
RMM:  10    -0.664781971181E+03   -0.10313E-02   -0.42935E-03 10351   0.113E-01    0.433E-01
RMM:  11    -0.664781077726E+03    0.89346E-03   -0.14108E-03  8461   0.961E-02    0.107E-01
RMM:  12    -0.664781091737E+03   -0.14012E-04   -0.10501E-03  9058   0.451E-02    0.780E-02
RMM:  13    -0.664781104690E+03   -0.12953E-04   -0.33183E-04  6576   0.375E-02    0.744E-02
RMM:  14    -0.664781079799E+03    0.24891E-04   -0.14392E-04  6163   0.244E-02    0.176E-02
RMM:  15    -0.664781084323E+03   -0.45236E-05   -0.86741E-05  5926   0.184E-02
  11 F= -.66478108E+03 E0= -.66471010E+03  d E =-.318511E+00
 curvature:  -1.09 expect dE=-0.281E+00 dE for cont linesearch -0.238E-03
 trial: gam= 0.30496 g(F)=  0.240E+00 g(S)=  0.173E-01 ort = 0.143E-01 (trialstep = 0.735E+00)
 search vector abs. value=  0.353E+00
 bond charge predicted
       N       E                     dE             d eps       ncg     rms          rms(c)
DAV:   1    -0.664528210031E+03    0.25287E+00   -0.33464E+01  9264   0.271E+01    0.292E+00
RMM:   2    -0.666192193117E+03   -0.16640E+01   -0.58716E+00 12447   0.674E+00    0.132E+01
RMM:   3    -0.664974298758E+03    0.12179E+01   -0.77748E-01  9938   0.367E+00    0.358E+00
RMM:   4    -0.664937907745E+03    0.36391E-01   -0.26686E-01 11217   0.125E+00    0.226E+00
RMM:   5    -0.664922270138E+03    0.15638E-01   -0.80824E-02 10929   0.649E-01    0.182E+00
RMM:   6    -0.664907771507E+03    0.14499E-01   -0.24751E-02 10029   0.471E-01    0.854E-01
RMM:   7    -0.664904113122E+03    0.36584E-02   -0.25787E-02 11527   0.265E-01    0.400E-01
RMM:   8    -0.664906713563E+03   -0.26004E-02   -0.92653E-03 10357   0.264E-01    0.915E-01
RMM:   9    -0.664902208567E+03    0.45050E-02   -0.35711E-03  9717   0.196E-01    0.196E-01
RMM:  10    -0.664902991258E+03   -0.78269E-03   -0.37055E-03  9918   0.115E-01    0.385E-01
RMM:  11    -0.664902262311E+03    0.72895E-03   -0.13667E-03  8914   0.887E-02    0.827E-02
RMM:  12    -0.664902317445E+03   -0.55134E-04   -0.93897E-04  9148   0.422E-02    0.100E-01
RMM:  13    -0.664902296091E+03    0.21354E-04   -0.29663E-04  6444   0.347E-02    0.608E-02
RMM:  14    -0.664902277954E+03    0.18137E-04   -0.12534E-04  6205   0.218E-02    0.163E-02
RMM:  15    -0.664902279881E+03   -0.19266E-05   -0.68776E-05  5885   0.162E-02
  12 F= -.66490228E+03 E0= -.66483236E+03  d E =-.121196E+00
 trial-energy change:   -0.121196  1 .order   -0.120911   -0.192474   -0.049348
 step:   0.9888(harm=  0.9888)  dis= 0.02081  next Energy=  -664.910503 (dE=-0.129E+00)
 bond charge predicted
       N       E                     dE             d eps       ncg     rms          rms(c)
DAV:   1    -0.664866204212E+03    0.36074E-01   -0.39637E+00  9456   0.937E+00    0.995E-01
RMM:   2    -0.665060589261E+03   -0.19439E+00   -0.69013E-01 12267   0.237E+00    0.465E+00
RMM:   3    -0.664921889302E+03    0.13870E+00   -0.10607E-01  9913   0.143E+00    0.145E+00
RMM:   4    -0.664915123807E+03    0.67655E-02   -0.34640E-02 10910   0.482E-01    0.732E-01
RMM:   5    -0.664914067230E+03    0.10566E-02   -0.11190E-02 10949   0.241E-01    0.678E-01
RMM:   6    -0.664911849629E+03    0.22176E-02   -0.30554E-03  9659   0.173E-01    0.269E-01
RMM:   7    -0.664911453506E+03    0.39612E-03   -0.32566E-03 11315   0.950E-02    0.139E-01
RMM:   8    -0.664911855377E+03   -0.40187E-03   -0.11675E-03  9861   0.992E-02    0.344E-01
RMM:   9    -0.664911221835E+03    0.63354E-03   -0.46879E-04  8600   0.775E-02    0.650E-02
RMM:  10    -0.664911309076E+03   -0.87241E-04   -0.46476E-04  8066   0.404E-02    0.129E-01
RMM:  11    -0.664911229794E+03    0.79282E-04   -0.15815E-04  6114   0.314E-02    0.320E-02
RMM:  12    -0.664911233386E+03   -0.35920E-05   -0.10173E-04  6050   0.205E-02    0.377E-02
RMM:  13    -0.664911229323E+03    0.40627E-05   -0.37121E-05  5469   0.181E-02
  13 F= -.66491123E+03 E0= -.66484158E+03  d E =-.130145E+00
 curvature:  -0.67 expect dE=-0.116E+00 dE for cont linesearch -0.638E-05
 trial: gam= 0.68542 g(F)=  0.705E-01 g(S)=  0.103E+00 ort = 0.184E-02 (trialstep = 0.786E+00)
 search vector abs. value=  0.342E+00
 bond charge predicted
       N       E                     dE             d eps       ncg     rms          rms(c)
DAV:   1    -0.664806606006E+03    0.10463E+00   -0.38065E+01 10848   0.307E+01    0.534E+00
RMM:   2    -0.669562817053E+03   -0.47562E+01   -0.97328E+00  9930   0.114E+01    0.241E+01
RMM:   3    -0.665113169529E+03    0.44496E+01   -0.22289E+00  9843   0.670E+00    0.509E+00
RMM:   4    -0.665040250407E+03    0.72919E-01   -0.50010E-01 11362   0.199E+00    0.316E+00
RMM:   5    -0.665038727883E+03    0.15225E-02   -0.16180E-01 10747   0.104E+00    0.342E+00
RMM:   6    -0.664980802957E+03    0.57925E-01   -0.52505E-02  9743   0.817E-01    0.115E+00
RMM:   7    -0.664975255468E+03    0.55475E-02   -0.48392E-02 11152   0.441E-01    0.936E-01
RMM:   8    -0.664979118847E+03   -0.38634E-02   -0.14959E-02  9786   0.427E-01    0.135E+00
RMM:   9    -0.664969757409E+03    0.93614E-02   -0.91372E-03 10590   0.294E-01    0.410E-01
RMM:  10    -0.664970052514E+03   -0.29510E-03   -0.59438E-03  9805   0.179E-01    0.440E-01
RMM:  11    -0.664969148766E+03    0.90375E-03   -0.29560E-03  9628   0.109E-01    0.108E-01
RMM:  12    -0.664969334946E+03   -0.18618E-03   -0.11813E-03  9270   0.605E-02    0.204E-01
RMM:  13    -0.664969164651E+03    0.17030E-03   -0.52433E-04  7704   0.484E-02    0.621E-02
RMM:  14    -0.664969189096E+03   -0.24445E-04   -0.31727E-04  8205   0.264E-02    0.222E-02
RMM:  15    -0.664969200236E+03   -0.11140E-04   -0.12163E-04  5989   0.242E-02    0.110E-02
RMM:  16    -0.664969201321E+03   -0.10845E-05   -0.30166E-05  5400   0.127E-02
  14 F= -.66496920E+03 E0= -.66490170E+03  d E =-.579720E-01
 trial-energy change:   -0.057972  1 .order   -0.056309   -0.137732    0.025114
 step:   0.6708(harm=  0.6648)  dis= 0.01509  next Energy=  -664.971036 (dE=-0.598E-01)
 bond charge predicted
       N       E                     dE             d eps       ncg     rms          rms(c)
DAV:   1    -0.664967774362E+03    0.14259E-02   -0.82280E-01 11064   0.450E+00    0.808E-01
RMM:   2    -0.665078007960E+03   -0.11023E+00   -0.18982E-01 10257   0.151E+00    0.381E+00
RMM:   3    -0.664977971654E+03    0.10004E+00   -0.50430E-02  9803   0.990E-01    0.112E+00
RMM:   4    -0.664972355730E+03    0.56159E-02   -0.11437E-02 10611   0.320E-01    0.416E-01
RMM:   5    -0.664972593215E+03   -0.23748E-03   -0.40148E-03 10674   0.159E-01    0.500E-01
RMM:   6    -0.664971214290E+03    0.13789E-02   -0.11344E-03  9116   0.120E-01    0.143E-01
RMM:   7    -0.664971201590E+03    0.12700E-04   -0.10184E-03 10349   0.656E-02    0.151E-01
RMM:   8    -0.664971137943E+03    0.63648E-04   -0.26534E-04  7977   0.628E-02    0.128E-01
RMM:   9    -0.664971033221E+03    0.10472E-03   -0.16784E-04  7635   0.364E-02    0.384E-02
RMM:  10    -0.664971051365E+03   -0.18144E-04   -0.90114E-05  5739   0.294E-02    0.682E-02
RMM:  11    -0.664971024426E+03    0.26939E-04   -0.31387E-05  5196   0.242E-02    0.177E-02
RMM:  12    -0.664971027597E+03   -0.31710E-05   -0.23005E-05  5280   0.140E-02
  15 F= -.66497103E+03 E0= -.66490325E+03  d E =-.597983E-01
 curvature:  -0.65 expect dE=-0.696E-01 dE for cont linesearch -0.917E-07
 trial: gam= 0.59942 g(F)=  0.742E-01 g(S)=  0.332E-01 ort = 0.220E-03 (trialstep = 0.763E+00)
 search vector abs. value=  0.231E+00
 bond charge predicted
       N       E                     dE             d eps       ncg     rms          rms(c)
DAV:   1    -0.664682287350E+03    0.28874E+00   -0.23406E+01  8400   0.236E+01    0.117E+00
RMM:   2    -0.665028604482E+03   -0.34632E+00   -0.34302E+00 12636   0.493E+00    0.221E+00
RMM:   3    -0.665032576629E+03   -0.39721E-02   -0.34853E-01 10713   0.246E+00    0.138E+00
RMM:   4    -0.665041134991E+03   -0.85584E-02   -0.82083E-02 11207   0.888E-01    0.176E+00
RMM:   5    -0.665028166547E+03    0.12968E-01   -0.29344E-02 10119   0.482E-01    0.509E-01
RMM:   6    -0.665030241731E+03   -0.20752E-02   -0.16294E-02 11127   0.239E-01    0.831E-01
RMM:   7    -0.665027492936E+03    0.27488E-02   -0.53895E-03 10241   0.208E-01    0.441E-01
RMM:   8    -0.665027993682E+03   -0.50075E-03   -0.59979E-03 10775   0.191E-01    0.596E-01
RMM:   9    -0.665026023069E+03    0.19706E-02   -0.21311E-03  9075   0.147E-01    0.127E-01
RMM:  10    -0.665026278155E+03   -0.25509E-03   -0.19967E-03  9679   0.728E-02    0.208E-01
RMM:  11    -0.665026114430E+03    0.16373E-03   -0.71701E-04  8160   0.577E-02    0.840E-02
RMM:  12    -0.665026089508E+03    0.24922E-04   -0.38979E-04  7962   0.265E-02    0.309E-02
RMM:  13    -0.665026114662E+03   -0.25154E-04   -0.14151E-04  5845   0.238E-02    0.630E-02
RMM:  14    -0.665026095498E+03    0.19163E-04   -0.54824E-05  5499   0.221E-02    0.131E-02
RMM:  15    -0.665026096863E+03   -0.13642E-05   -0.34635E-05  5542   0.124E-02
  16 F= -.66502610E+03 E0= -.66495892E+03  d E =-.550693E-01
 trial-energy change:   -0.055069  1 .order   -0.054651   -0.082039   -0.027264
 step:   1.1188(harm=  1.1427)  dis= 0.02198  next Energy=  -665.032497 (dE=-0.615E-01)
 bond charge predicted
       N       E                     dE             d eps       ncg     rms          rms(c)
DAV:   1    -0.664957706873E+03    0.68389E-01   -0.50864E+00  8376   0.110E+01    0.543E-01
RMM:   2    -0.665033802174E+03   -0.76095E-01   -0.75588E-01 12655   0.232E+00    0.101E+00
RMM:   3    -0.665034754990E+03   -0.95282E-03   -0.75019E-02 10745   0.110E+00    0.656E-01
RMM:   4    -0.665036688623E+03   -0.19336E-02   -0.17192E-02 10978   0.404E-01    0.854E-01
RMM:   5    -0.665033625896E+03    0.30627E-02   -0.66265E-03  9402   0.230E-01    0.239E-01
RMM:   6    -0.665034090562E+03   -0.46467E-03   -0.37301E-03 10244   0.118E-01    0.388E-01
RMM:   7    -0.665033447704E+03    0.64286E-03   -0.12078E-03  9443   0.101E-01    0.192E-01
RMM:   8    -0.665033584585E+03   -0.13688E-03   -0.13939E-03 10185   0.923E-02    0.278E-01
RMM:   9    -0.665033164131E+03    0.42045E-03   -0.46584E-04  8298   0.737E-02    0.654E-02
RMM:  10    -0.665033227193E+03   -0.63061E-04   -0.43516E-04  8393   0.390E-02    0.111E-01
RMM:  11    -0.665033175206E+03    0.51987E-04   -0.15910E-04  5964   0.307E-02    0.361E-02
RMM:  12    -0.665033172584E+03    0.26215E-05   -0.91368E-05  5970   0.193E-02
  17 F= -.66503317E+03 E0= -.66496621E+03  d E =-.621450E-01
 curvature:  -1.22 expect dE=-0.620E-01 dE for cont linesearch -0.223E-04
 trial: gam= 0.37373 g(F)=  0.475E-01 g(S)=  0.327E-02 ort = 0.205E-02 (trialstep = 0.834E+00)
 search vector abs. value=  0.845E-01
 bond charge predicted
       N       E                     dE             d eps       ncg     rms          rms(c)
DAV:   1    -0.664908367025E+03    0.12481E+00   -0.98728E+00  8064   0.149E+01    0.119E+00
RMM:   2    -0.665208089673E+03   -0.29972E+00   -0.18708E+00 12961   0.371E+00    0.432E+00
RMM:   3    -0.665067120182E+03    0.14097E+00   -0.16158E-01 10252   0.142E+00    0.878E-01
RMM:   4    -0.665077417251E+03   -0.10297E-01   -0.60095E-02 11402   0.487E-01    0.153E+00
RMM:   5    -0.665065419632E+03    0.11998E-01   -0.12732E-02 10490   0.312E-01    0.571E-01
RMM:   6    -0.665065561745E+03   -0.14211E-03   -0.90153E-03 10199   0.199E-01    0.562E-01
RMM:   7    -0.665064108139E+03    0.14536E-02   -0.50773E-03 11125   0.138E-01    0.249E-01
RMM:   8    -0.665064990931E+03   -0.88279E-03   -0.22991E-03  9994   0.141E-01    0.508E-01
RMM:   9    -0.665063511233E+03    0.14797E-02   -0.12143E-03  9515   0.117E-01    0.715E-02
RMM:  10    -0.665063591843E+03   -0.80610E-04   -0.11484E-03  9418   0.463E-02    0.928E-02
RMM:  11    -0.665063599779E+03   -0.79365E-05   -0.31911E-04  6876   0.414E-02    0.943E-02
RMM:  12    -0.665063561861E+03    0.37918E-04   -0.13753E-04  6138   0.264E-02    0.409E-02
RMM:  13    -0.665063563991E+03   -0.21297E-05   -0.76736E-05  5638   0.223E-02
  18 F= -.66506356E+03 E0= -.66499663E+03  d E =-.303914E-01
 trial-energy change:   -0.030391  1 .order   -0.030061   -0.042988   -0.017134
 step:   1.3268(harm=  1.3869)  dis= 0.01514  next Energy=  -665.068692 (dE=-0.355E-01)
 bond charge predicted
       N       E                     dE             d eps       ncg     rms          rms(c)
DAV:   1    -0.665015292409E+03    0.48269E-01   -0.34445E+00  8064   0.878E+00    0.696E-01
RMM:   2    -0.665119392460E+03   -0.10410E+00   -0.65428E-01 12964   0.219E+00    0.254E+00
RMM:   3    -0.665070756741E+03    0.48636E-01   -0.56256E-02 10226   0.840E-01    0.517E-01
RMM:   4    -0.665074337363E+03   -0.35806E-02   -0.21135E-02 11158   0.290E-01    0.901E-01
RMM:   5    -0.665070218567E+03    0.41188E-02   -0.45013E-03 10166   0.189E-01    0.349E-01
RMM:   6    -0.665070220606E+03   -0.20386E-05   -0.32159E-03  9483   0.122E-01    0.326E-01
RMM:   7    -0.665069719011E+03    0.50159E-03   -0.18118E-03 10559   0.831E-02    0.145E-01
RMM:   8    -0.665070064764E+03   -0.34575E-03   -0.83187E-04  9341   0.918E-02    0.311E-01
RMM:   9    -0.665069514839E+03    0.54992E-03   -0.45346E-04  9022   0.735E-02    0.424E-02
RMM:  10    -0.665069549529E+03   -0.34690E-04   -0.41367E-04  8225   0.321E-02    0.648E-02
RMM:  11    -0.665069543363E+03    0.61667E-05   -0.11831E-04  5644   0.257E-02    0.492E-02
RMM:  12    -0.665069534252E+03    0.91100E-05   -0.50767E-05  5628   0.196E-02
  19 F= -.66506953E+03 E0= -.66500259E+03  d E =-.363617E-01
 curvature:  -1.12 expect dE=-0.590E-01 dE for cont linesearch -0.102E-03
 trial: gam= 0.99004 g(F)=  0.230E-01 g(S)=  0.294E-01 ort = 0.276E-02 (trialstep = 0.560E+00)
 search vector abs. value=  0.141E+00
 bond charge predicted
       N       E                     dE             d eps       ncg     rms          rms(c)
DAV:   1    -0.665025660546E+03    0.43883E-01   -0.75517E+00  9936   0.133E+01    0.212E+00
RMM:   2    -0.665854068648E+03   -0.82841E+00   -0.18596E+00 10565   0.468E+00    0.103E+01
RMM:   3    -0.665141660330E+03    0.71241E+00   -0.38107E-01 10070   0.236E+00    0.320E+00
RMM:   4    -0.665098423275E+03    0.43237E-01   -0.80963E-02 11177   0.784E-01    0.112E+00
RMM:   5    -0.665098965969E+03   -0.54269E-03   -0.30320E-02 10806   0.427E-01    0.122E+00
RMM:   6    -0.665090387617E+03    0.85784E-02   -0.90092E-03  9718   0.333E-01    0.395E-01
RMM:   7    -0.665089942826E+03    0.44479E-03   -0.78735E-03 11133   0.159E-01    0.308E-01
RMM:   8    -0.665090612133E+03   -0.66931E-03   -0.22952E-03  9516   0.170E-01    0.506E-01
RMM:   9    -0.665089163945E+03    0.14482E-02   -0.12995E-03  9758   0.121E-01    0.123E-01
RMM:  10    -0.665089305713E+03   -0.14177E-03   -0.10484E-03  8955   0.658E-02    0.180E-01
RMM:  11    -0.665089157709E+03    0.14800E-03   -0.38544E-04  7630   0.460E-02    0.560E-02
RMM:  12    -0.665089196668E+03   -0.38958E-04   -0.20719E-04  6513   0.302E-02    0.928E-02
RMM:  13    -0.665089161817E+03    0.34850E-04   -0.87928E-05  5675   0.258E-02    0.209E-02
RMM:  14    -0.665089169441E+03   -0.76240E-05   -0.55815E-05  5798   0.147E-02
  20 F= -.66508917E+03 E0= -.66502279E+03  d E =-.196352E-01
 trial-energy change:   -0.019635  1 .order   -0.019296   -0.030912   -0.007680
 step:   0.7262(harm=  0.7451)  dis= 0.01054  next Energy=  -665.090318 (dE=-0.208E-01)
 bond charge predicted
       N       E                     dE             d eps       ncg     rms          rms(c)
DAV:   1    -0.665084816610E+03    0.43452E-02   -0.66729E-01 10296   0.394E+00    0.634E-01
RMM:   2    -0.665159602816E+03   -0.74786E-01   -0.15942E-01 10680   0.136E+00    0.314E+00
RMM:   3    -0.665096585686E+03    0.63017E-01   -0.34799E-02  9986   0.712E-01    0.109E+00
RMM:   4    -0.665091172432E+03    0.54133E-02   -0.74185E-03 10333   0.250E-01    0.307E-01
RMM:   5    -0.665091224001E+03   -0.51568E-04   -0.28954E-03 10838   0.127E-01    0.349E-01
RMM:   6    -0.665090546754E+03    0.67725E-03   -0.74031E-04  8663   0.957E-02    0.124E-01
RMM:   7    -0.665090540359E+03    0.63950E-05   -0.69680E-04  9971   0.514E-02    0.115E-01
RMM:   8    -0.665090541171E+03   -0.81175E-06   -0.19335E-04  7476   0.553E-02    0.126E-01
RMM:   9    -0.665090451659E+03    0.89513E-04   -0.12124E-04  6948   0.342E-02    0.333E-02
RMM:  10    -0.665090465790E+03   -0.14132E-04   -0.79766E-05  5737   0.254E-02    0.536E-02
RMM:  11    -0.665090454067E+03    0.11723E-04   -0.29995E-05  5254   0.211E-02    0.160E-02
RMM:  12    -0.665090458481E+03   -0.44139E-05   -0.16079E-05  5115   0.133E-02
  21 F= -.66509046E+03 E0= -.66502425E+03  d E =-.209242E-01
 curvature:  -0.94 expect dE=-0.362E-01 dE for cont linesearch -0.118E-04
 trial: gam= 0.76638 g(F)=  0.231E-01 g(S)=  0.154E-01 ort = 0.133E-02 (trialstep = 0.593E+00)
 search vector abs. value=  0.123E+00
 bond charge predicted
       N       E                     dE             d eps       ncg     rms          rms(c)
DAV:   1    -0.664982993802E+03    0.10746E+00   -0.73420E+00  8064   0.131E+01    0.681E-01
RMM:   2    -0.665130541949E+03   -0.14755E+00   -0.13489E+00 12905   0.302E+00    0.192E+00
RMM:   3    -0.665114573960E+03    0.15968E-01   -0.82058E-02 10825   0.854E-01    0.107E+00
RMM:   4    -0.665117127923E+03   -0.25540E-02   -0.24648E-02 10924   0.355E-01    0.119E+00
RMM:   5    -0.665109732713E+03    0.73952E-02   -0.61979E-03  9740   0.243E-01    0.350E-01
RMM:   6    -0.665109799594E+03   -0.66881E-04   -0.56182E-03  9765   0.153E-01    0.340E-01
RMM:   7    -0.665109263883E+03    0.53571E-03   -0.26929E-03 10692   0.104E-01    0.193E-01
RMM:   8    -0.665109752699E+03   -0.48882E-03   -0.15142E-03  9809   0.107E-01    0.379E-01
RMM:   9    -0.665108952074E+03    0.80062E-03   -0.78627E-04  9281   0.964E-02    0.956E-02
RMM:  10    -0.665109046120E+03   -0.94046E-04   -0.61631E-04  8828   0.519E-02    0.150E-01
RMM:  11    -0.665108940492E+03    0.10563E-03   -0.23203E-04  7026   0.396E-02    0.393E-02
RMM:  12    -0.665108955535E+03   -0.15043E-04   -0.14743E-04  6146   0.235E-02    0.639E-02
RMM:  13    -0.665108937457E+03    0.18077E-04   -0.57748E-05  5541   0.233E-02    0.151E-02
RMM:  14    -0.665108938032E+03   -0.57467E-06   -0.35681E-05  5512   0.108E-02
  22 F= -.66510894E+03 E0= -.66504291E+03  d E =-.184796E-01
 trial-energy change:   -0.018480  1 .order   -0.018230   -0.023462   -0.012997
 step:   1.1678(harm=  1.3299)  dis= 0.01853  next Energy=  -665.115460 (dE=-0.250E-01)
 bond charge predicted
       N       E                     dE             d eps       ncg     rms          rms(c)
DAV:   1    -0.664998756803E+03    0.11018E+00   -0.68915E+00  8064   0.127E+01    0.659E-01
RMM:   2    -0.665136964259E+03   -0.13821E+00   -0.12657E+00 12903   0.293E+00    0.187E+00
RMM:   3    -0.665122606658E+03    0.14358E-01   -0.77189E-02 10851   0.824E-01    0.108E+00
RMM:   4    -0.665124533389E+03   -0.19267E-02   -0.23072E-02 10873   0.346E-01    0.114E+00
RMM:   5    -0.665117664667E+03    0.68687E-02   -0.58518E-03  9713   0.237E-01    0.339E-01
RMM:   6    -0.665117752956E+03   -0.88288E-04   -0.53313E-03  9745   0.149E-01    0.335E-01
RMM:   7    -0.665117253199E+03    0.49976E-03   -0.25067E-03 10670   0.102E-01    0.200E-01
RMM:   8    -0.665117714433E+03   -0.46123E-03   -0.13664E-03  9574   0.105E-01    0.375E-01
RMM:   9    -0.665116950357E+03    0.76408E-03   -0.79881E-04  9362   0.951E-02    0.964E-02
RMM:  10    -0.665117033444E+03   -0.83087E-04   -0.59177E-04  8682   0.521E-02    0.144E-01
RMM:  11    -0.665116934044E+03    0.99401E-04   -0.23561E-04  7042   0.391E-02    0.363E-02
RMM:  12    -0.665116950120E+03   -0.16076E-04   -0.14133E-04  6143   0.233E-02    0.630E-02
RMM:  13    -0.665116932024E+03    0.18096E-04   -0.55776E-05  5526   0.230E-02    0.142E-02
RMM:  14    -0.665116932638E+03   -0.61455E-06   -0.34444E-05  5481   0.105E-02
  23 F= -.66511693E+03 E0= -.66505124E+03  d E =-.264742E-01
 curvature:  -1.97 expect dE=-0.459E-01 dE for cont linesearch -0.357E-03
 ZBRENT: extrapolating
 opt :   1.3256  next Energy=  -665.117305 (dE=-0.268E-01)
 bond charge predicted
       N       E                     dE             d eps       ncg     rms          rms(c)
DAV:   1    -0.665108456975E+03    0.84750E-02   -0.52079E-01  8592   0.350E+00    0.180E-01
RMM:   2    -0.665118732326E+03   -0.10275E-01   -0.95251E-02 12901   0.811E-01    0.484E-01
RMM:   3    -0.665117809355E+03    0.92297E-03   -0.58335E-03 10579   0.227E-01    0.294E-01
RMM:   4    -0.665117964805E+03   -0.15545E-03   -0.17596E-03  9703   0.993E-02    0.318E-01
RMM:   5    -0.665117440177E+03    0.52463E-03   -0.43775E-04  8103   0.696E-02    0.935E-02
RMM:   6    -0.665117448395E+03   -0.82180E-05   -0.41291E-04  7578   0.443E-02    0.932E-02
RMM:   7    -0.665117406370E+03    0.42026E-04   -0.18137E-04  7562   0.322E-02    0.530E-02
RMM:   8    -0.665117446747E+03   -0.40378E-04   -0.11187E-04  7029   0.326E-02    0.106E-01
RMM:   9    -0.665117385492E+03    0.61255E-04   -0.63875E-05  6343   0.298E-02    0.267E-02
RMM:  10    -0.665117391038E+03   -0.55462E-05   -0.43527E-05  5496   0.214E-02
  24 F= -.66511739E+03 E0= -.66505183E+03  d E =-.269326E-01
 curvature:  -2.06 expect dE=-0.578E-01 dE for cont linesearch -0.671E-05
 trial: gam= 0.62449 g(F)=  0.256E-01 g(S)=  0.242E-02 ort = 0.634E-03 (trialstep = 0.740E+00)
 search vector abs. value=  0.769E-01
 bond charge predicted
       N       E                     dE             d eps       ncg     rms          rms(c)
DAV:   1    -0.664989644364E+03    0.12774E+00   -0.77658E+00  8328   0.147E+01    0.734E-01
RMM:   2    -0.665141856137E+03   -0.15221E+00   -0.14312E+00 12767   0.305E+00    0.168E+00
RMM:   3    -0.665135822981E+03    0.60332E-02   -0.12872E-01 10524   0.138E+00    0.967E-01
RMM:   4    -0.665143490283E+03   -0.76673E-02   -0.33845E-02 10961   0.524E-01    0.146E+00
RMM:   5    -0.665133701556E+03    0.97887E-02   -0.11080E-02  9648   0.319E-01    0.284E-01
RMM:   6    -0.665134530849E+03   -0.82929E-03   -0.69664E-03 10304   0.147E-01    0.460E-01
RMM:   7    -0.665133480423E+03    0.10504E-02   -0.25364E-03 10456   0.118E-01    0.197E-01
RMM:   8    -0.665134031035E+03   -0.55061E-03   -0.17540E-03 10096   0.120E-01    0.386E-01
RMM:   9    -0.665133174344E+03    0.85669E-03   -0.78922E-04  9185   0.955E-02    0.758E-02
RMM:  10    -0.665133316057E+03   -0.14171E-03   -0.72836E-04  8474   0.545E-02    0.154E-01
RMM:  11    -0.665133205790E+03    0.11027E-03   -0.27271E-04  6806   0.375E-02    0.294E-02
RMM:  12    -0.665133206796E+03   -0.10065E-05   -0.16117E-04  6352   0.185E-02    0.185E-02
RMM:  13    -0.665133213796E+03   -0.69999E-05   -0.46292E-05  5482   0.184E-02
  25 F= -.66513321E+03 E0= -.66506814E+03  d E =-.158228E-01
 trial-energy change:   -0.015823  1 .order   -0.015547   -0.021038   -0.010056
 step:   1.2770(harm=  1.4170)  dis= 0.02029  next Energy=  -665.136972 (dE=-0.196E-01)
 bond charge predicted
       N       E                     dE             d eps       ncg     rms          rms(c)
DAV:   1    -0.665064398915E+03    0.68808E-01   -0.41243E+00  8400   0.107E+01    0.530E-01
RMM:   2    -0.665141123808E+03   -0.76725E-01   -0.71998E-01 12697   0.217E+00    0.122E+00
RMM:   3    -0.665139330641E+03    0.17932E-02   -0.73756E-02 10437   0.110E+00    0.738E-01
RMM:   4    -0.665143256789E+03   -0.39261E-02   -0.18933E-02 10626   0.422E-01    0.104E+00
RMM:   5    -0.665138325669E+03    0.49311E-02   -0.66897E-03  9441   0.247E-01    0.203E-01
RMM:   6    -0.665138776808E+03   -0.45114E-03   -0.37961E-03 10160   0.109E-01    0.336E-01
RMM:   7    -0.665138231489E+03    0.54532E-03   -0.13472E-03 10008   0.874E-02    0.152E-01
RMM:   8    -0.665138538544E+03   -0.30706E-03   -0.86147E-04  9512   0.905E-02    0.289E-01
RMM:   9    -0.665138056379E+03    0.48217E-03   -0.48292E-04  8974   0.739E-02    0.501E-02
RMM:  10    -0.665138140763E+03   -0.84384E-04   -0.40508E-04  7549   0.411E-02    0.116E-01
RMM:  11    -0.665138077033E+03    0.63730E-04   -0.15076E-04  5890   0.317E-02    0.205E-02
RMM:  12    -0.665138080325E+03   -0.32920E-05   -0.92568E-05  5934   0.158E-02
  26 F= -.66513808E+03 E0= -.66507349E+03  d E =-.206893E-01
 curvature:  -1.83 expect dE=-0.414E-01 dE for cont linesearch -0.275E-03
 trial: gam= 0.63399 g(F)=  0.128E-01 g(S)=  0.977E-02 ort = 0.340E-02 (trialstep = 0.847E+00)
 search vector abs. value=  0.578E-01
 bond charge predicted
       N       E                     dE             d eps       ncg     rms          rms(c)
DAV:   1    -0.665048235448E+03    0.89842E-01   -0.84553E+00 11400   0.164E+01    0.196E+00
RMM:   2    -0.665752860261E+03   -0.70462E+00   -0.19088E+00 10513   0.433E+00    0.911E+00
RMM:   3    -0.665192368453E+03    0.56049E+00   -0.39103E-01  9808   0.272E+00    0.309E+00
RMM:   4    -0.665158554838E+03    0.33814E-01   -0.10503E-01 11112   0.939E-01    0.117E+00
RMM:   5    -0.665159265451E+03   -0.71061E-03   -0.36967E-02 10972   0.439E-01    0.119E+00
RMM:   6    -0.665150902298E+03    0.83632E-02   -0.91841E-03  9740   0.325E-01    0.384E-01
RMM:   7    -0.665150314883E+03    0.58742E-03   -0.76852E-03 11183   0.157E-01    0.293E-01
RMM:   8    -0.665151560760E+03   -0.12459E-02   -0.26165E-03  9619   0.173E-01    0.603E-01
RMM:   9    -0.665149712634E+03    0.18481E-02   -0.16028E-03 10046   0.133E-01    0.151E-01
RMM:  10    -0.665149810359E+03   -0.97725E-04   -0.12158E-03  8902   0.722E-02    0.180E-01
RMM:  11    -0.665149656947E+03    0.15341E-03   -0.50533E-04  8154   0.475E-02    0.419E-02
RMM:  12    -0.665149695920E+03   -0.38972E-04   -0.22651E-04  6508   0.273E-02    0.814E-02
RMM:  13    -0.665149670121E+03    0.25799E-04   -0.96391E-05  5672   0.271E-02    0.248E-02
RMM:  14    -0.665149676483E+03   -0.63625E-05   -0.56792E-05  5741   0.139E-02
  27 F= -.66514968E+03 E0= -.66508628E+03  d E =-.115962E-01
 trial-energy change:   -0.011596  1 .order   -0.011321   -0.020957   -0.001685
 step:   0.9149(harm=  0.9212)  dis= 0.01472  next Energy=  -665.149744 (dE=-0.117E-01)
 bond charge predicted
       N       E                     dE             d eps       ncg     rms          rms(c)
DAV:   1    -0.665149081732E+03    0.58839E-03   -0.54392E-02 11520   0.131E+00    0.157E-01
RMM:   2    -0.665153606924E+03   -0.45252E-02   -0.12423E-02 10688   0.334E-01    0.730E-01
RMM:   3    -0.665150103203E+03    0.35037E-02   -0.23360E-03  9213   0.206E-01    0.275E-01
RMM:   4    -0.665149801755E+03    0.30145E-03   -0.63642E-04  9044   0.806E-02    0.860E-02
RMM:   5    -0.665149800257E+03    0.14983E-05   -0.22029E-04  7672   0.370E-02    0.831E-02
RMM:   6    -0.665149763300E+03    0.36957E-04   -0.55891E-05  5596   0.282E-02    0.346E-02
RMM:   7    -0.665149760080E+03    0.32194E-05   -0.40274E-05  5492   0.207E-02
  28 F= -.66514976E+03 E0= -.66508647E+03  d E =-.116798E-01
 curvature:  -1.07 expect dE=-0.269E-01 dE for cont linesearch -0.102E-04
 trial: gam= 1.19661 g(F)=  0.109E-01 g(S)=  0.142E-01 ort = 0.741E-03 (trialstep = 0.454E+00)
 search vector abs. value=  0.110E+00
 bond charge predicted
       N       E                     dE             d eps       ncg     rms          rms(c)
DAV:   1    -0.665062057929E+03    0.87705E-01   -0.45740E+00  8400   0.123E+01    0.556E-01
RMM:   2    -0.665152241349E+03   -0.90183E-01   -0.88391E-01 12628   0.239E+00    0.117E+00
RMM:   3    -0.665160369859E+03   -0.81285E-02   -0.12022E-01 10604   0.128E+00    0.817E-01
RMM:   4    -0.665164643011E+03   -0.42732E-02   -0.24106E-02 10694   0.481E-01    0.101E+00
RMM:   5    -0.665160191969E+03    0.44510E-02   -0.97711E-03  9263   0.269E-01    0.305E-01
RMM:   6    -0.665160202518E+03   -0.10548E-04   -0.39569E-03  9632   0.109E-01    0.252E-01
RMM:   7    -0.665159842404E+03    0.36011E-03   -0.15795E-03 10883   0.720E-02    0.117E-01
RMM:   8    -0.665159988969E+03   -0.14656E-03   -0.93930E-04 10219   0.773E-02    0.231E-01
RMM:   9    -0.665159736123E+03    0.25285E-03   -0.32367E-04  8322   0.641E-02    0.866E-02
RMM:  10    -0.665159798945E+03   -0.62823E-04   -0.32339E-04  7826   0.434E-02    0.124E-01
RMM:  11    -0.665159713584E+03    0.85361E-04   -0.10552E-04  5796   0.321E-02    0.210E-02
RMM:  12    -0.665159716591E+03   -0.30070E-05   -0.85567E-05  5955   0.166E-02
  29 F= -.66515972E+03 E0= -.66509710E+03  d E =-.995651E-02
 trial-energy change:   -0.009957  1 .order   -0.009629   -0.011814   -0.007443
 step:   0.8683(harm=  1.2258)  dis= 0.02124  next Energy=  -665.163371 (dE=-0.136E-01)
 bond charge predicted
       N       E                     dE             d eps       ncg     rms          rms(c)
DAV:   1    -0.665083172088E+03    0.76541E-01   -0.38285E+00  8400   0.112E+01    0.510E-01
RMM:   2    -0.665159213640E+03   -0.76042E-01   -0.75212E-01 12639   0.218E+00    0.992E-01
RMM:   3    -0.665165779909E+03   -0.65663E-02   -0.93571E-02 10613   0.112E+00    0.767E-01
RMM:   4    -0.665169360004E+03   -0.35801E-02   -0.19210E-02 10607   0.428E-01    0.971E-01
RMM:   5    -0.665165126218E+03    0.42338E-02   -0.79739E-03  9196   0.244E-01    0.210E-01
RMM:   6    -0.665165442265E+03   -0.31605E-03   -0.34662E-03  9732   0.999E-02    0.281E-01
RMM:   7    -0.665165017118E+03    0.42515E-03   -0.13160E-03 10423   0.748E-02    0.111E-01
RMM:   8    -0.665165111010E+03   -0.93892E-04   -0.83230E-04 10061   0.717E-02    0.187E-01
RMM:   9    -0.665164920488E+03    0.19052E-03   -0.26999E-04  7807   0.562E-02    0.558E-02
RMM:  10    -0.665164919394E+03    0.10934E-05   -0.23955E-04  7666   0.262E-02    0.260E-02
RMM:  11    -0.665164932546E+03   -0.13152E-04   -0.75506E-05  5635   0.237E-02    0.538E-02
RMM:  12    -0.665164919583E+03    0.12963E-04   -0.27312E-05  5310   0.171E-02    0.137E-02
RMM:  13    -0.665164922349E+03   -0.27657E-05   -0.14149E-05  5126   0.122E-02
  30 F= -.66516492E+03 E0= -.66510297E+03  d E =-.151623E-01
 curvature:  -2.03 expect dE=-0.272E-01 dE for cont linesearch -0.103E-02
 ZBRENT: increasing intervall
 opt :   1.6979  next Energy=  -665.163704 (dE=-0.139E-01)
 bond charge predicted
       N       E                     dE             d eps       ncg     rms          rms(c)
DAV:   1    -0.664837925204E+03    0.32699E+00   -0.15356E+01  8400   0.224E+01    0.103E+00
RMM:   2    -0.665151258700E+03   -0.31333E+00   -0.30400E+00 12641   0.440E+00    0.242E+00
RMM:   3    -0.665169053422E+03   -0.17795E-01   -0.36682E-01 10571   0.232E+00    0.173E+00
RMM:   4    -0.665180657915E+03   -0.11604E-01   -0.78146E-02 10757   0.908E-01    0.180E+00
RMM:   5    -0.665164606439E+03    0.16051E-01   -0.32500E-02  9801   0.506E-01    0.463E-01
RMM:   6    -0.665165333292E+03   -0.72685E-03   -0.14214E-02 10468   0.189E-01    0.479E-01
RMM:   7    -0.665164060025E+03    0.12733E-02   -0.53082E-03 11329   0.137E-01    0.217E-01
RMM:   8    -0.665164549182E+03   -0.48916E-03   -0.30906E-03 10923   0.123E-01    0.397E-01
RMM:   9    -0.665163710477E+03    0.83871E-03   -0.10742E-03  8913   0.103E-01    0.135E-01
RMM:  10    -0.665163969751E+03   -0.25927E-03   -0.96529E-04  9103   0.698E-02    0.244E-01
RMM:  11    -0.665163668868E+03    0.30088E-03   -0.32781E-04  7278   0.524E-02    0.408E-02
RMM:  12    -0.665163690998E+03   -0.22130E-04   -0.30723E-04  7136   0.251E-02    0.496E-02
RMM:  13    -0.665163686864E+03    0.41335E-05   -0.98318E-05  5720   0.227E-02
  31 F= -.66516369E+03 E0= -.66510299E+03  d E =-.139268E-01
 curvature:   2.39 expect dE= 0.854E-01 dE for cont linesearch  0.311E-02
 ZBRENT: bracketing found
 ZBRENT: interpolating
 opt :   1.1878  next Energy=  -665.166116 (dE=-0.164E-01)
 bond charge predicted
       N       E                     dE             d eps       ncg     rms          rms(c)
DAV:   1    -0.665045139193E+03    0.11855E+00   -0.58167E+00  8400   0.138E+01    0.622E-01
RMM:   2    -0.665160283069E+03   -0.11514E+00   -0.11240E+00 12647   0.267E+00    0.120E+00
RMM:   3    -0.665166376972E+03   -0.60939E-02   -0.13724E-01 10481   0.137E+00    0.739E-01
RMM:   4    -0.665172275896E+03   -0.58989E-02   -0.26267E-02 10790   0.511E-01    0.118E+00
RMM:   5    -0.665166594965E+03    0.56809E-02   -0.11579E-02  9467   0.282E-01    0.206E-01
RMM:   6    -0.665166960518E+03   -0.36555E-03   -0.48273E-03 10544   0.115E-01    0.316E-01
RMM:   7    -0.665166536371E+03    0.42415E-03   -0.13742E-03  9429   0.977E-02    0.185E-01
RMM:   8    -0.665166643063E+03   -0.10669E-03   -0.13175E-03 10456   0.877E-02    0.261E-01
RMM:   9    -0.665166326029E+03    0.31703E-03   -0.40176E-04  8383   0.688E-02    0.881E-02
RMM:  10    -0.665166350566E+03   -0.24537E-04   -0.37613E-04  8118   0.364E-02    0.838E-02
RMM:  11    -0.665166322440E+03    0.28126E-04   -0.13369E-04  5896   0.292E-02    0.383E-02
RMM:  12    -0.665166321508E+03    0.93153E-06   -0.68024E-05  5849   0.191E-02
  32 F= -.66516632E+03 E0= -.66510486E+03  d E =-.165614E-01
 curvature:  -0.92 expect dE=-0.167E-01 dE for cont linesearch -0.144E-04
 trial: gam= 0.52480 g(F)=  0.141E-01 g(S)=  0.396E-02 ort = 0.131E-02 (trialstep = 0.600E+00)
 search vector abs. value=  0.497E-01
 bond charge predicted
       N       E                     dE             d eps       ncg     rms          rms(c)
DAV:   1    -0.665098358657E+03    0.67964E-01   -0.36028E+00  8400   0.111E+01    0.594E-01
RMM:   2    -0.665182967495E+03   -0.84609E-01   -0.75972E-01 12662   0.215E+00    0.149E+00
RMM:   3    -0.665175327212E+03    0.76403E-02   -0.76879E-02 10173   0.109E+00    0.647E-01
RMM:   4    -0.665180874555E+03   -0.55473E-02   -0.21085E-02 10692   0.414E-01    0.112E+00
RMM:   5    -0.665175079839E+03    0.57947E-02   -0.71045E-03  9543   0.254E-01    0.282E-01
RMM:   6    -0.665175346339E+03   -0.26650E-03   -0.34834E-03  9703   0.118E-01    0.354E-01
RMM:   7    -0.665174795327E+03    0.55101E-03   -0.16840E-03 10692   0.944E-02    0.173E-01
RMM:   8    -0.665175014638E+03   -0.21931E-03   -0.85531E-04  9052   0.895E-02    0.293E-01
RMM:   9    -0.665174540740E+03    0.47390E-03   -0.45150E-04  8701   0.729E-02    0.616E-02
RMM:  10    -0.665174611521E+03   -0.70780E-04   -0.38796E-04  7661   0.419E-02    0.111E-01
RMM:  11    -0.665174545910E+03    0.65611E-04   -0.13795E-04  5936   0.327E-02    0.231E-02
RMM:  12    -0.665174548486E+03   -0.25761E-05   -0.86085E-05  6011   0.174E-02
  33 F= -.66517455E+03 E0= -.66511377E+03  d E =-.822698E-02
 trial-energy change:   -0.008227  1 .order   -0.008233   -0.011288   -0.005179
 step:   1.1094(harm=  1.1094)  dis= 0.01922  next Energy=  -665.176750 (dE=-0.104E-01)
 bond charge predicted
       N       E                     dE             d eps       ncg     rms          rms(c)
DAV:   1    -0.665122012801E+03    0.52533E-01   -0.25909E+00  8400   0.945E+00    0.504E-01
RMM:   2    -0.665183167429E+03   -0.61155E-01   -0.55168E-01 12669   0.183E+00    0.125E+00
RMM:   3    -0.665177390199E+03    0.57772E-02   -0.53412E-02 10117   0.920E-01    0.519E-01
RMM:   4    -0.665181491522E+03   -0.41013E-02   -0.14980E-02 10642   0.345E-01    0.960E-01
RMM:   5    -0.665177290023E+03    0.42015E-02   -0.50229E-03  9231   0.214E-01    0.226E-01
RMM:   6    -0.665177583574E+03   -0.29355E-03   -0.26568E-03  9685   0.102E-01    0.321E-01
RMM:   7    -0.665177176111E+03    0.40746E-03   -0.12232E-03 10235   0.842E-02    0.166E-01
RMM:   8    -0.665177265287E+03   -0.89176E-04   -0.66041E-04  8907   0.800E-02    0.226E-01
RMM:   9    -0.665176967199E+03    0.29809E-03   -0.37933E-04  8811   0.619E-02    0.593E-02
RMM:  10    -0.665177016930E+03   -0.49731E-04   -0.28475E-04  6929   0.391E-02    0.975E-02
RMM:  11    -0.665176969284E+03    0.47646E-04   -0.11596E-04  5759   0.311E-02    0.182E-02
RMM:  12    -0.665176970955E+03   -0.16708E-05   -0.66966E-05  5885   0.145E-02
  34 F= -.66517697E+03 E0= -.66511673E+03  d E =-.106494E-01
 curvature:  -1.47 expect dE=-0.222E-01 dE for cont linesearch -0.328E-05
 trial: gam= 0.76788 g(F)=  0.663E-02 g(S)=  0.850E-02 ort = 0.333E-03 (trialstep = 0.702E+00)
 search vector abs. value=  0.449E-01
 bond charge predicted
       N       E                     dE             d eps       ncg     rms          rms(c)
DAV:   1    -0.665120004387E+03    0.56965E-01   -0.45272E+00 10920   0.122E+01    0.125E+00
RMM:   2    -0.665435112679E+03   -0.31511E+00   -0.99168E-01 10982   0.290E+00    0.607E+00
RMM:   3    -0.665207223215E+03    0.22789E+00   -0.17461E-01  9878   0.175E+00    0.231E+00
RMM:   4    -0.665186140005E+03    0.21083E-01   -0.48485E-02 10773   0.656E-01    0.712E-01
RMM:   5    -0.665185421452E+03    0.71855E-03   -0.17606E-02 11141   0.282E-01    0.592E-01
RMM:   6    -0.665183533026E+03    0.18884E-02   -0.37027E-03  9666   0.190E-01    0.307E-01
RMM:   7    -0.665183211350E+03    0.32168E-03   -0.30808E-03 10921   0.113E-01    0.221E-01
RMM:   8    -0.665183594321E+03   -0.38297E-03   -0.12180E-03  9315   0.123E-01    0.361E-01
RMM:   9    -0.665182874229E+03    0.72009E-03   -0.73902E-04  9282   0.912E-02    0.104E-01
RMM:  10    -0.665182931425E+03   -0.57196E-04   -0.57207E-04  8038   0.527E-02    0.129E-01
RMM:  11    -0.665182862484E+03    0.68942E-04   -0.22371E-04  7040   0.326E-02    0.378E-02
RMM:  12    -0.665182882061E+03   -0.19578E-04   -0.10728E-04  5795   0.247E-02    0.618E-02
RMM:  13    -0.665182865513E+03    0.16548E-04   -0.47681E-05  5439   0.205E-02    0.129E-02
RMM:  14    -0.665182869807E+03   -0.42935E-05   -0.27958E-05  5391   0.106E-02
  35 F= -.66518287E+03 E0= -.66512353E+03  d E =-.589885E-02
 trial-energy change:   -0.005899  1 .order   -0.005743   -0.010803   -0.000683
 step:   0.7453(harm=  0.7495)  dis= 0.01235  next Energy=  -665.182891 (dE=-0.592E-02)
 bond charge predicted
       N       E                     dE             d eps       ncg     rms          rms(c)
DAV:   1    -0.665182654636E+03    0.21088E-03   -0.17199E-02 11256   0.747E-01    0.769E-02
RMM:   2    -0.665183848277E+03   -0.11936E-02   -0.37669E-03 10873   0.173E-01    0.375E-01
RMM:   3    -0.665183004369E+03    0.84391E-03   -0.62062E-04  8205   0.105E-01    0.150E-01
RMM:   4    -0.665182908608E+03    0.95762E-04   -0.16845E-04  7149   0.472E-02    0.419E-02
RMM:   5    -0.665182909063E+03   -0.45564E-06   -0.66541E-05  5984   0.227E-02
  36 F= -.66518291E+03 E0= -.66512362E+03  d E =-.593811E-02
 curvature:  -1.09 expect dE=-0.109E-01 dE for cont linesearch -0.261E-05
 trial: gam= 0.60525 g(F)=  0.523E-02 g(S)=  0.478E-02 ort = 0.328E-03 (trialstep = 0.711E+00)
 search vector abs. value=  0.269E-01
 bond charge predicted
       N       E                     dE             d eps       ncg     rms          rms(c)
DAV:   1    -0.665143076083E+03    0.39833E-01   -0.25727E+00  8544   0.856E+00    0.624E-01
RMM:   2    -0.665210566586E+03   -0.67491E-01   -0.49736E-01 12600   0.181E+00    0.186E+00
RMM:   3    -0.665187830624E+03    0.22736E-01   -0.57828E-02  9894   0.102E+00    0.383E-01
RMM:   4    -0.665191798362E+03   -0.39677E-02   -0.18226E-02 11010   0.354E-01    0.851E-01
RMM:   5    -0.665188045788E+03    0.37526E-02   -0.51398E-03  9609   0.220E-01    0.201E-01
RMM:   6    -0.665188659282E+03   -0.61349E-03   -0.30721E-03 10199   0.126E-01    0.377E-01
RMM:   7    -0.665187840907E+03    0.81838E-03   -0.10785E-03  9542   0.110E-01    0.118E-01
RMM:   8    -0.665187881739E+03   -0.40832E-04   -0.88775E-04  9761   0.658E-02    0.165E-01
RMM:   9    -0.665187749973E+03    0.13177E-03   -0.28382E-04  7388   0.512E-02    0.577E-02
RMM:  10    -0.665187745800E+03    0.41732E-05   -0.21428E-04  6782   0.240E-02    0.316E-02
RMM:  11    -0.665187756879E+03   -0.11079E-04   -0.66751E-05  5519   0.225E-02    0.544E-02
RMM:  12    -0.665187747034E+03    0.98445E-05   -0.26457E-05  5224   0.165E-02
  37 F= -.66518775E+03 E0= -.66512877E+03  d E =-.483797E-02
 trial-energy change:   -0.004838  1 .order   -0.004633   -0.007261   -0.002006
 step:   0.9191(harm=  0.9821)  dis= 0.01104  next Energy=  -665.188046 (dE=-0.514E-02)
 bond charge predicted
       N       E                     dE             d eps       ncg     rms          rms(c)
DAV:   1    -0.665184404298E+03    0.33526E-02   -0.22221E-01  8856   0.251E+00    0.185E-01
RMM:   2    -0.665190233107E+03   -0.58288E-02   -0.41731E-02 12539   0.534E-01    0.565E-01
RMM:   3    -0.665188120884E+03    0.21122E-02   -0.51628E-03  9412   0.311E-01    0.113E-01
RMM:   4    -0.665188455644E+03   -0.33476E-03   -0.16717E-03  9666   0.118E-01    0.237E-01
RMM:   5    -0.665188164751E+03    0.29089E-03   -0.48549E-04  7822   0.699E-02    0.724E-02
RMM:   6    -0.665188212980E+03   -0.48229E-04   -0.26946E-04  7584   0.390E-02    0.120E-01
RMM:   7    -0.665188161961E+03    0.51020E-04   -0.10019E-04  6779   0.346E-02    0.776E-02
RMM:   8    -0.665188156598E+03    0.53626E-05   -0.63921E-05  5775   0.305E-02
  38 F= -.66518816E+03 E0= -.66512928E+03  d E =-.524753E-02
 curvature:  -1.22 expect dE=-0.675E-02 dE for cont linesearch -0.471E-04
 trial: gam= 0.43532 g(F)=  0.408E-02 g(S)=  0.144E-02 ort = 0.102E-02 (trialstep = 0.752E+00)
 search vector abs. value=  0.115E-01
 bond charge predicted
       N       E                     dE             d eps       ncg     rms          rms(c)
DAV:   1    -0.665161944311E+03    0.26218E-01   -0.13414E+00  8448   0.706E+00    0.433E-01
RMM:   2    -0.665206239443E+03   -0.44295E-01   -0.31206E-01 12696   0.139E+00    0.158E+00
RMM:   3    -0.665193445438E+03    0.12794E-01   -0.30573E-02  9841   0.764E-01    0.747E-01
RMM:   4    -0.665192807699E+03    0.63774E-03   -0.99785E-03 10220   0.292E-01    0.477E-01
RMM:   5    -0.665191674372E+03    0.11333E-02   -0.31385E-03 10159   0.148E-01    0.183E-01
RMM:   6    -0.665191666064E+03    0.83079E-05   -0.11714E-03  9002   0.776E-02    0.177E-01
RMM:   7    -0.665191570767E+03    0.95297E-04   -0.71578E-04 10278   0.599E-02    0.138E-01
RMM:   8    -0.665191573211E+03   -0.24443E-05   -0.30456E-04  8212   0.663E-02    0.162E-01
RMM:   9    -0.665191425949E+03    0.14726E-03   -0.20548E-04  8049   0.426E-02    0.477E-02
RMM:  10    -0.665191442051E+03   -0.16101E-04   -0.12249E-04  5906   0.287E-02    0.644E-02
RMM:  11    -0.665191421533E+03    0.20518E-04   -0.52069E-05  5447   0.236E-02    0.128E-02
RMM:  12    -0.665191424346E+03   -0.28134E-05   -0.25294E-05  5373   0.130E-02
  39 F= -.66519142E+03 E0= -.66513271E+03  d E =-.326775E-02
 trial-energy change:   -0.003268  1 .order   -0.003268   -0.004490   -0.002046
 step:   1.3824(harm=  1.3824)  dis= 0.00976  next Energy=  -665.192281 (dE=-0.412E-02)
 bond charge predicted
       N       E                     dE             d eps       ncg     rms          rms(c)
DAV:   1    -0.665171716789E+03    0.19705E-01   -0.94161E-01  8496   0.592E+00    0.367E-01
RMM:   2    -0.665203657113E+03   -0.31940E-01   -0.21917E-01 12691   0.116E+00    0.138E+00
RMM:   3    -0.665193937817E+03    0.97193E-02   -0.22008E-02  9801   0.648E-01    0.648E-01
RMM:   4    -0.665193318365E+03    0.61945E-03   -0.70995E-03  9995   0.249E-01    0.392E-01
RMM:   5    -0.665192602848E+03    0.71552E-03   -0.23834E-03  9847   0.124E-01    0.172E-01
RMM:   6    -0.665192541108E+03    0.61739E-04   -0.76703E-04  8667   0.670E-02    0.142E-01
RMM:   7    -0.665192502242E+03    0.38866E-04   -0.51316E-04  9782   0.497E-02    0.125E-01
RMM:   8    -0.665192496661E+03    0.55812E-05   -0.23049E-04  7812   0.597E-02    0.138E-01
RMM:   9    -0.665192387592E+03    0.10907E-03   -0.15963E-04  7855   0.380E-02    0.473E-02
RMM:  10    -0.665192393303E+03   -0.57112E-05   -0.89210E-05  5741   0.275E-02
  40 F= -.66519239E+03 E0= -.66513382E+03  d E =-.423671E-02
 curvature:  -1.33 expect dE=-0.122E-01 dE for cont linesearch -0.976E-07
 trial: gam= 1.67116 g(F)=  0.228E-02 g(S)=  0.684E-02 ort = 0.290E-04 (trialstep = 0.244E+00)
 search vector abs. value=  0.413E-01
 bond charge predicted
       N       E                     dE             d eps       ncg     rms          rms(c)
DAV:   1    -0.665185597782E+03    0.67898E-02   -0.51673E-01 10824   0.435E+00    0.372E-01
RMM:   2    -0.665212057344E+03   -0.26460E-01   -0.11502E-01 11849   0.944E-01    0.155E+00
RMM:   3    -0.665195441196E+03    0.16616E-01   -0.16632E-02  9659   0.553E-01    0.570E-01
RMM:   4    -0.665194625484E+03    0.81571E-03   -0.48492E-03 10182   0.196E-01    0.289E-01
RMM:   5    -0.665194373602E+03    0.25188E-03   -0.16086E-03  9974   0.972E-02    0.175E-01
RMM:   6    -0.665194231094E+03    0.14251E-03   -0.41595E-04  8177   0.647E-02    0.109E-01
RMM:   7    -0.665194174961E+03    0.56134E-04   -0.30956E-04  9063   0.400E-02    0.648E-02
RMM:   8    -0.665194246438E+03   -0.71478E-04   -0.13750E-04  7093   0.461E-02    0.138E-01
RMM:   9    -0.665194149460E+03    0.96979E-04   -0.79832E-05  6402   0.358E-02    0.328E-02
RMM:  10    -0.665194160947E+03   -0.11488E-04   -0.65701E-05  5629   0.250E-02    0.491E-02
RMM:  11    -0.665194150208E+03    0.10739E-04   -0.27014E-05  5204   0.211E-02    0.105E-02
RMM:  12    -0.665194153423E+03   -0.32147E-05   -0.13186E-05  5041   0.125E-02
  41 F= -.66519415E+03 E0= -.66513578E+03  d E =-.176012E-02
 trial-energy change:   -0.001760  1 .order   -0.001769   -0.002241   -0.001298
 step:   0.5809(harm=  0.5809)  dis= 0.00794  next Energy=  -665.195056 (dE=-0.266E-02)
 bond charge predicted
       N       E                     dE             d eps       ncg     rms          rms(c)
DAV:   1    -0.665179008932E+03    0.15141E-01   -0.97930E-01 10848   0.599E+00    0.514E-01
RMM:   2    -0.665229747487E+03   -0.50739E-01   -0.21539E-01 11807   0.131E+00    0.216E+00
RMM:   3    -0.665197605286E+03    0.32142E-01   -0.32326E-02  9747   0.779E-01    0.803E-01
RMM:   4    -0.665195945743E+03    0.16595E-02   -0.96084E-03 10384   0.274E-01    0.392E-01
RMM:   5    -0.665195494054E+03    0.45169E-03   -0.31548E-03 10481   0.134E-01    0.241E-01
RMM:   6    -0.665195222209E+03    0.27184E-03   -0.77765E-04  8655   0.878E-02    0.151E-01
RMM:   7    -0.665195112787E+03    0.10942E-03   -0.57475E-04  9761   0.523E-02    0.910E-02
RMM:   8    -0.665195241384E+03   -0.12860E-03   -0.26614E-04  8064   0.597E-02    0.186E-01
RMM:   9    -0.665195061824E+03    0.17956E-03   -0.15617E-04  7668   0.475E-02    0.461E-02
RMM:  10    -0.665195082240E+03   -0.20416E-04   -0.12261E-04  6426   0.314E-02    0.677E-02
RMM:  11    -0.665195060985E+03    0.21255E-04   -0.50436E-05  5405   0.240E-02    0.150E-02
RMM:  12    -0.665195066328E+03   -0.53429E-05   -0.24508E-05  5317   0.155E-02
  42 F= -.66519507E+03 E0= -.66513694E+03  d E =-.267302E-02
 curvature:  -1.31 expect dE=-0.726E-02 dE for cont linesearch -0.930E-08
 trial: gam= 0.53283 g(F)=  0.313E-02 g(S)=  0.241E-02 ort = 0.171E-04 (trialstep = 0.312E+00)
 search vector abs. value=  0.173E-01
 bond charge predicted
       N       E                     dE             d eps       ncg     rms          rms(c)
DAV:   1    -0.665190909885E+03    0.41511E-02   -0.31875E-01  8496   0.318E+00    0.154E-01
RMM:   2    -0.665196080044E+03   -0.51702E-02   -0.54862E-02 12550   0.664E-01    0.247E-01
RMM:   3    -0.665196908570E+03   -0.82853E-03   -0.68631E-03 10627   0.317E-01    0.303E-01
RMM:   4    -0.665196905486E+03    0.30838E-05   -0.12108E-03  8936   0.136E-01    0.256E-01
RMM:   5    -0.665196595906E+03    0.30958E-03   -0.61744E-04  7790   0.782E-02    0.783E-02
RMM:   6    -0.665196616636E+03   -0.20730E-04   -0.28648E-04  7635   0.401E-02    0.905E-02
RMM:   7    -0.665196568891E+03    0.47744E-04   -0.12546E-04  7191   0.341E-02    0.459E-02
RMM:   8    -0.665196582238E+03   -0.13346E-04   -0.75904E-05  6049   0.298E-02    0.713E-02
RMM:   9    -0.665196553390E+03    0.28848E-04   -0.38730E-05  5317   0.264E-02    0.147E-02
RMM:  10    -0.665196557767E+03   -0.43773E-05   -0.32146E-05  5493   0.159E-02
  43 F= -.66519656E+03 E0= -.66513849E+03  d E =-.149144E-02
 trial-energy change:   -0.001491  1 .order   -0.001476   -0.001730   -0.001222
 step:   1.0614(harm=  1.0614)  dis= 0.00928  next Energy=  -665.198011 (dE=-0.295E-02)
 bond charge predicted
       N       E                     dE             d eps       ncg     rms          rms(c)
DAV:   1    -0.665165410977E+03    0.31142E-01   -0.18420E+00  8400   0.764E+00    0.371E-01
RMM:   2    -0.665195684957E+03   -0.30274E-01   -0.31916E-01 12553   0.160E+00    0.632E-01
RMM:   3    -0.665200037657E+03   -0.43527E-02   -0.39139E-02 10969   0.765E-01    0.715E-01
RMM:   4    -0.665200100277E+03   -0.62620E-04   -0.70826E-03 10064   0.314E-01    0.605E-01
RMM:   5    -0.665198327212E+03    0.17731E-02   -0.34941E-03  8976   0.186E-01    0.190E-01
RMM:   6    -0.665198446855E+03   -0.11964E-03   -0.16705E-03  9689   0.892E-02    0.220E-01
RMM:   7    -0.665198183082E+03    0.26377E-03   -0.77020E-04  9618   0.743E-02    0.123E-01
RMM:   8    -0.665198255026E+03   -0.71944E-04   -0.42808E-04  8516   0.634E-02    0.182E-01
RMM:   9    -0.665198075262E+03    0.17976E-03   -0.21349E-04  7586   0.499E-02    0.529E-02
RMM:  10    -0.665198121908E+03   -0.46646E-04   -0.21272E-04  6542   0.340E-02    0.959E-02
RMM:  11    -0.665198075382E+03    0.46526E-04   -0.71429E-05  5507   0.270E-02    0.151E-02
RMM:  12    -0.665198079922E+03   -0.45402E-05   -0.45058E-05  5623   0.136E-02
  44 F= -.66519808E+03 E0= -.66514013E+03  d E =-.301359E-02
 curvature:  -1.65 expect dE=-0.569E-02 dE for cont linesearch -0.135E-06
 trial: gam= 0.59052 g(F)=  0.153E-02 g(S)=  0.191E-02 ort =-0.376E-04 (trialstep = 0.462E+00)
 search vector abs. value=  0.943E-02
 bond charge predicted
       N       E                     dE             d eps       ncg     rms          rms(c)
DAV:   1    -0.665194728213E+03    0.33472E-02   -0.39714E-01 11400   0.362E+00    0.406E-01
RMM:   2    -0.665222253445E+03   -0.27525E-01   -0.85073E-02 10851   0.902E-01    0.174E+00
RMM:   3    -0.665201266400E+03    0.20987E-01   -0.14447E-02  9796   0.504E-01    0.660E-01
RMM:   4    -0.665199676844E+03    0.15896E-02   -0.40059E-03 10202   0.175E-01    0.247E-01
RMM:   5    -0.665199570828E+03    0.10602E-03   -0.13742E-03 10230   0.879E-02    0.221E-01
RMM:   6    -0.665199309515E+03    0.26131E-03   -0.33838E-04  7861   0.678E-02    0.958E-02
RMM:   7    -0.665199338505E+03   -0.28990E-04   -0.36257E-04  9444   0.440E-02    0.126E-01
RMM:   8    -0.665199265196E+03    0.73309E-04   -0.10665E-04  6526   0.446E-02    0.632E-02
RMM:   9    -0.665199256673E+03    0.85232E-05   -0.85784E-05  5893   0.253E-02
  45 F= -.66519926E+03 E0= -.66514125E+03  d E =-.117675E-02
 trial-energy change:   -0.001177  1 .order   -0.001142   -0.001578   -0.000707
 step:   0.8361(harm=  0.8361)  dis= 0.00547  next Energy=  -665.199509 (dE=-0.143E-02)
 bond charge predicted
       N       E                     dE             d eps       ncg     rms          rms(c)
DAV:   1    -0.665196513504E+03    0.27517E-02   -0.26066E-01 11448   0.294E+00    0.330E-01
RMM:   2    -0.665214503698E+03   -0.17990E-01   -0.55379E-02 10841   0.728E-01    0.140E+00
RMM:   3    -0.665200682412E+03    0.13821E-01   -0.97611E-03  9703   0.422E-01    0.514E-01
RMM:   4    -0.665199770195E+03    0.91222E-03   -0.27076E-03 10012   0.147E-01    0.205E-01
RMM:   5    -0.665199693301E+03    0.76894E-04   -0.91848E-04  9868   0.715E-02    0.179E-01
RMM:   6    -0.665199534142E+03    0.15916E-03   -0.21977E-04  7300   0.557E-02    0.884E-02
RMM:   7    -0.665199554108E+03   -0.19966E-04   -0.23563E-04  8376   0.387E-02    0.111E-01
RMM:   8    -0.665199495287E+03    0.58821E-04   -0.81848E-05  6219   0.375E-02    0.488E-02
RMM:   9    -0.665199482612E+03    0.12676E-04   -0.66957E-05  5663   0.226E-02    0.335E-02
RMM:  10    -0.665199479983E+03    0.26283E-05   -0.25469E-05  5169   0.227E-02
  46 F= -.66519948E+03 E0= -.66514139E+03  d E =-.140006E-02
 curvature:  -1.15 expect dE=-0.418E-02 dE for cont linesearch -0.489E-05
 trial: gam= 1.12713 g(F)=  0.109E-02 g(S)=  0.254E-02 ort =-0.200E-03 (trialstep = 0.334E+00)
 search vector abs. value=  0.151E-01
 bond charge predicted
       N       E                     dE             d eps       ncg     rms          rms(c)
DAV:   1    -0.665193810402E+03    0.56722E-02   -0.33519E-01  8400   0.341E+00    0.184E-01
RMM:   2    -0.665202452962E+03   -0.86426E-02   -0.67506E-02 12670   0.673E-01    0.617E-01
RMM:   3    -0.665200678510E+03    0.17745E-02   -0.70110E-03  9693   0.357E-01    0.304E-01
RMM:   4    -0.665200723146E+03   -0.44636E-04   -0.20032E-03  9464   0.142E-01    0.250E-01
RMM:   5    -0.665200453178E+03    0.26997E-03   -0.71942E-04  8776   0.773E-02    0.975E-02
RMM:   6    -0.665200430016E+03    0.23162E-04   -0.25510E-04  7011   0.421E-02    0.798E-02
RMM:   7    -0.665200407611E+03    0.22405E-04   -0.14552E-04  7308   0.304E-02    0.601E-02
RMM:   8    -0.665200436594E+03   -0.28983E-04   -0.83513E-05  6531   0.329E-02    0.972E-02
RMM:   9    -0.665200383881E+03    0.52713E-04   -0.58479E-05  6450   0.280E-02    0.165E-02
RMM:  10    -0.665200389451E+03   -0.55700E-05   -0.35753E-05  5496   0.203E-02
  47 F= -.66520039E+03 E0= -.66514232E+03  d E =-.909468E-03
 trial-energy change:   -0.000909  1 .order   -0.000908   -0.001134   -0.000681
 step:   0.8362(harm=  0.8362)  dis= 0.00732  next Energy=  -665.200900 (dE=-0.142E-02)
 bond charge predicted
       N       E                     dE             d eps       ncg     rms          rms(c)
DAV:   1    -0.665185962904E+03    0.14421E-01   -0.75795E-01  8400   0.514E+00    0.277E-01
RMM:   2    -0.665205774172E+03   -0.19811E-01   -0.15373E-01 12680   0.101E+00    0.943E-01
RMM:   3    -0.665201546078E+03    0.42281E-02   -0.15725E-02  9865   0.537E-01    0.467E-01
RMM:   4    -0.665201585482E+03   -0.39403E-04   -0.44804E-03  9926   0.207E-01    0.369E-01
RMM:   5    -0.665200977800E+03    0.60768E-03   -0.16135E-03  9269   0.114E-01    0.136E-01
RMM:   6    -0.665200956944E+03    0.20856E-04   -0.60188E-04  8387   0.596E-02    0.126E-01
RMM:   7    -0.665200901413E+03    0.55531E-04   -0.33437E-04  8883   0.405E-02    0.910E-02
RMM:   8    -0.665200951788E+03   -0.50375E-04   -0.16099E-04  7165   0.473E-02    0.137E-01
RMM:   9    -0.665200844656E+03    0.10713E-03   -0.11405E-04  7341   0.367E-02    0.238E-02
RMM:  10    -0.665200855845E+03   -0.11189E-04   -0.77437E-05  5842   0.258E-02    0.422E-02
RMM:  11    -0.665200848760E+03    0.70856E-05   -0.31705E-05  5284   0.211E-02
  48 F= -.66520085E+03 E0= -.66514279E+03  d E =-.136878E-02
 curvature:  -1.86 expect dE=-0.378E-02 dE for cont linesearch -0.290E-05
 trial: gam= 0.46817 g(F)=  0.113E-02 g(S)=  0.899E-03 ort =-0.153E-03 (trialstep = 0.434E+00)
 search vector abs. value=  0.520E-02
 bond charge predicted
       N       E                     dE             d eps       ncg     rms          rms(c)
DAV:   1    -0.665197970158E+03    0.28857E-02   -0.20142E-01  9888   0.261E+00    0.189E-01
RMM:   2    -0.665205132024E+03   -0.71619E-02   -0.41165E-02 12492   0.540E-01    0.743E-01
RMM:   3    -0.665201880918E+03    0.32511E-02   -0.54248E-03  9469   0.323E-01    0.308E-01
RMM:   4    -0.665201705219E+03    0.17570E-03   -0.15423E-03  9297   0.124E-01    0.181E-01
RMM:   5    -0.665201615941E+03    0.89278E-04   -0.56922E-04  8991   0.634E-02    0.128E-01
RMM:   6    -0.665201539476E+03    0.76465E-04   -0.14313E-04  6377   0.414E-02    0.640E-02
RMM:   7    -0.665201531869E+03    0.76076E-05   -0.13853E-04  7664   0.277E-02    0.562E-02
RMM:   8    -0.665201543096E+03   -0.11227E-04   -0.54134E-05  5523   0.303E-02    0.748E-02
RMM:   9    -0.665201514874E+03    0.28222E-04   -0.33904E-05  5173   0.251E-02    0.248E-02
RMM:  10    -0.665201515020E+03   -0.14641E-06   -0.21727E-05  5168   0.183E-02
[...]
RMM:   5    -0.665205178914E+03    0.14604E-04   -0.39104E-05  5315   0.235E-02    0.165E-02
RMM:   6    -0.665205180001E+03   -0.10875E-05   -0.11509E-05  4979   0.117E-02
  73 F= -.66520518E+03 E0= -.66514673E+03  d E =-.285932E-03
 curvature:  -3.60 expect dE=-0.255E-02 dE for cont linesearch -0.318E-04
 ZBRENT: bracketing found
 ZBRENT: interpolating
 opt :   0.6711  next Energy=  -665.205196 (dE=-0.302E-03)
 bond charge predicted
       N       E                     dE             d eps       ncg     rms          rms(c)
DAV:   1    -0.665205039471E+03    0.13944E-03   -0.10227E-02  8736   0.517E-01    0.232E-02
RMM:   2    -0.665205207323E+03   -0.16785E-03   -0.14831E-03 10903   0.962E-02    0.754E-02
RMM:   3    -0.665205192142E+03    0.15181E-04   -0.14555E-04  5668   0.518E-02    0.305E-02
RMM:   4    -0.665205196537E+03   -0.43943E-05   -0.25667E-05  5038   0.242E-02
  74 F= -.66520520E+03 E0= -.66514677E+03  d E =-.302467E-03
 curvature:  -0.27 expect dE=-0.191E-03 dE for cont linesearch -0.437E-05
 ZBRENT: interpolating
 opt :   0.7105  next Energy=  -665.205184 (dE=-0.290E-03)
 bond charge predicted
       N       E                     dE             d eps       ncg     rms          rms(c)
DAV:   1    -0.665205141571E+03    0.50572E-04   -0.33676E-03  9384   0.299E-01    0.166E-02
RMM:   2    -0.665205225764E+03   -0.84193E-04   -0.44999E-04  9506   0.542E-02    0.982E-02
RMM:   3    -0.665205184962E+03    0.40802E-04   -0.63678E-05  5272   0.404E-02    0.171E-02
RMM:   4    -0.665205188769E+03   -0.38066E-05   -0.13482E-05  4907   0.171E-02
  75 F= -.66520519E+03 E0= -.66514674E+03  d E =-.294699E-03
 curvature:  -0.27 expect dE=-0.176E-03 dE for cont linesearch -0.672E-05
 ZBRENT: bisectioning
 opt :   0.6908  next Energy=  -665.205200 (dE=-0.306E-03)
 bond charge predicted
       N       E                     dE             d eps       ncg     rms          rms(c)
DAV:   1    -0.665205178782E+03    0.61801E-05   -0.85110E-04 10248   0.151E-01    0.951E-03
RMM:   2    -0.665205203785E+03   -0.25003E-04   -0.97728E-05  6830   0.268E-02    0.582E-02
RMM:   3    -0.665205188646E+03    0.15140E-04   -0.20172E-05  4783   0.250E-02    0.121E-02
RMM:   4    -0.665205188986E+03   -0.34026E-06   -0.44153E-06  4170   0.994E-03
  76 F= -.66520519E+03 E0= -.66514675E+03  d E =-.294916E-03
 curvature:  -0.14 expect dE=-0.979E-04 dE for cont linesearch -0.456E-06
 ZBRENT: bisectioning
 opt :   0.7007  next Energy=  -665.205190 (dE=-0.296E-03)
 bond charge predicted
       N       E                     dE             d eps       ncg     rms          rms(c)
DAV:   1    -0.665205184811E+03    0.38349E-05   -0.20725E-04 10320   0.754E-02    0.540E-03
RMM:   2    -0.665205192871E+03   -0.80602E-05   -0.21040E-05  4951   0.140E-02
  77 F= -.66520519E+03 E0= -.66514675E+03  d E =-.298801E-03
 curvature:  -0.38 expect dE=-0.236E-03 dE for cont linesearch -0.873E-06
 ZBRENT: interpolating
 opt :   0.6962  next Energy=  -665.205193 (dE=-0.299E-03)
 bond charge predicted
       N       E                     dE             d eps       ncg     rms          rms(c)
DAV:   1    -0.665205187108E+03   -0.22968E-05   -0.70211E-05  7896   0.536E-02    0.522E-03
RMM:   2    -0.665205196590E+03   -0.94820E-05   -0.84247E-06  4382   0.127E-02
  78 F= -.66520520E+03 E0= -.66514676E+03  d E =-.302520E-03
 curvature:  -0.15 expect dE=-0.103E-03 dE for cont linesearch -0.806E-06
 ZBRENT: interpolating
 opt :   0.6989  next Energy=  -665.205193 (dE=-0.299E-03)
 bond charge predicted
       N       E                     dE             d eps       ncg     rms          rms(c)
DAV:   1    -0.665205187418E+03   -0.31086E-06   -0.58843E-05  6192   0.372E-02    0.583E-03
RMM:   2    -0.665205196845E+03   -0.94265E-05   -0.64269E-06  4304   0.112E-02
  79 F= -.66520520E+03 E0= -.66514675E+03  d E =-.302775E-03
 curvature:  -0.03 expect dE=-0.146E-04 dE for cont linesearch -0.337E-06
 ZBRENT: interpolating
 opt :   0.6972  next Energy=  -665.205197 (dE=-0.303E-03)
 bond charge predicted
       N       E                     dE             d eps       ncg     rms          rms(c)
DAV:   1    -0.665205188198E+03   -0.77931E-06   -0.54420E-05  5784   0.322E-02    0.110E-02
RMM:   2    -0.665205230521E+03   -0.42323E-04   -0.20583E-05  5084   0.180E-02    0.949E-02
RMM:   3    -0.665205189724E+03    0.40797E-04   -0.11766E-05  4432   0.178E-02    0.164E-02
RMM:   4    -0.665205187625E+03    0.20988E-05   -0.14984E-06  3280   0.528E-03
  80 F= -.66520519E+03 E0= -.66514675E+03  d E =-.293555E-03
 curvature:  -0.01 expect dE=-0.615E-05 dE for cont linesearch -0.982E-12
 trial: gam= 0.19039 g(F)=  0.491E-03 g(S)=  0.164E-03 ort =-0.104E-05 (trialstep = 0.192E+00)
 search vector abs. value=  0.103E-02
 bond charge predicted
       N       E                     dE             d eps       ncg     rms          rms(c)
DAV:   1    -0.665205205755E+03   -0.16031E-04   -0.77319E-03 10080   0.493E-01    0.522E-02
RMM:   2    -0.665205693398E+03   -0.48764E-03   -0.16666E-03 10607   0.117E-01    0.231E-01
RMM:   3    -0.665205338789E+03    0.35461E-03   -0.25453E-04  7312   0.726E-02    0.926E-02
RMM:   4    -0.665205306164E+03    0.32625E-04   -0.65676E-05  5930   0.318E-02    0.312E-02
RMM:   5    -0.665205302685E+03    0.34791E-05   -0.24145E-05  5229   0.194E-02
  81 F= -.66520530E+03 E0= -.66514685E+03  d E =-.115060E-03
 ZBRENT: can't locate minimum, use default step
 trial-energy change:   -0.000115  1 .order   -0.000110   -0.000126   -0.000094
 step:   0.7682(harm=  0.7695)  dis= 0.00150  next Energy=  -665.205440 (dE=-0.252E-03)
 bond charge predicted
       N       E                     dE             d eps       ncg     rms          rms(c)
DAV:   1    -0.665204634015E+03    0.67215E-03   -0.70122E-02  9984   0.148E+00    0.165E-01
RMM:   2    -0.665209565863E+03   -0.49318E-02   -0.15618E-02 11150   0.357E-01    0.743E-01
RMM:   3    -0.665205864578E+03    0.37013E-02   -0.25161E-03  9183   0.215E-01    0.286E-01
RMM:   4    -0.665205562662E+03    0.30192E-03   -0.78776E-04  8994   0.877E-02    0.102E-01
RMM:   5    -0.665205567907E+03   -0.52446E-05   -0.27474E-04  8269   0.402E-02    0.119E-01
RMM:   6    -0.665205491390E+03    0.76517E-04   -0.66393E-05  5782   0.346E-02    0.457E-02
RMM:   7    -0.665205501710E+03   -0.10321E-04   -0.69225E-05  5889   0.274E-02    0.691E-02
RMM:   8    -0.665205475520E+03    0.26190E-04   -0.35319E-05  5364   0.286E-02    0.235E-02
RMM:   9    -0.665205472502E+03    0.30188E-05   -0.24874E-05  5127   0.171E-02
  82 F= -.66520547E+03 E0= -.66514697E+03  d E =-.284877E-03
 curvature:  -0.60 expect dE=-0.234E-03 dE for cont linesearch -0.125E-04
 ZBRENT: extrapolating
 opt :   1.0110  next Energy=  -665.205490 (dE=-0.303E-03)
 bond charge predicted
       N       E                     dE             d eps       ncg     rms          rms(c)
DAV:   1    -0.665205328066E+03    0.14745E-03   -0.12275E-02 10272   0.624E-01    0.678E-02
RMM:   2    -0.665206159406E+03   -0.83134E-03   -0.27134E-03 10815   0.148E-01    0.300E-01
RMM:   3    -0.665205534249E+03    0.62516E-03   -0.45937E-04  7954   0.964E-02    0.110E-01
RMM:   4    -0.665205493191E+03    0.41058E-04   -0.13255E-04  6978   0.385E-02    0.413E-02
RMM:   5    -0.665205491633E+03    0.15583E-05   -0.42032E-05  5517   0.208E-02
  83 F= -.66520549E+03 E0= -.66514697E+03  d E =-.304008E-03
 curvature:  -0.86 expect dE=-0.218E-03 dE for cont linesearch -0.444E-06
 trial: gam= 0.44626 g(F)=  0.130E-03 g(S)=  0.124E-03 ort =-0.231E-04 (trialstep = 0.356E+00)
 search vector abs. value=  0.438E-03
 bond charge predicted
       N       E                     dE             d eps       ncg     rms          rms(c)
DAV:   1    -0.665205474729E+03    0.18462E-04   -0.10686E-02 10368   0.513E-01    0.639E-02
RMM:   2    -0.665206269578E+03   -0.79485E-03   -0.22255E-03 10719   0.141E-01    0.307E-01
RMM:   3    -0.665205641293E+03    0.62829E-03   -0.37923E-04  7780   0.888E-02    0.111E-01
RMM:   4    -0.665205588538E+03    0.52754E-04   -0.98287E-05  6759   0.370E-02    0.309E-02
RMM:   5    -0.665205596969E+03   -0.84311E-05   -0.38059E-05  5559   0.200E-02
  84 F= -.66520560E+03 E0= -.66514709E+03  d E =-.105337E-03
 ZBRENT: can't locate minimum, use default step
 trial-energy change:   -0.000105  1 .order   -0.000095   -0.000087   -0.000103
 step:   1.4233(harm=  1.4233)  dis= 0.00160  next Energy=  -665.205972 (dE=-0.480E-03)
 bond charge predicted
       N       E                     dE             d eps       ncg     rms          rms(c)
DAV:   1    -0.665204821580E+03    0.76696E-03   -0.94453E-02  9888   0.152E+00    0.206E-01
RMM:   2    -0.665212095471E+03   -0.72739E-02   -0.20326E-02 10947   0.429E-01    0.913E-01
RMM:   3    -0.665206210015E+03    0.58855E-02   -0.35126E-03  9356   0.254E-01    0.337E-01
RMM:   4    -0.665205770069E+03    0.43995E-03   -0.10043E-03  9214   0.956E-02    0.114E-01
RMM:   5    -0.665205780944E+03   -0.10875E-04   -0.36161E-04  8846   0.466E-02    0.132E-01
RMM:   6    -0.665205688762E+03    0.92182E-04   -0.91305E-05  6289   0.390E-02    0.497E-02
RMM:   7    -0.665205700352E+03   -0.11590E-04   -0.10300E-04  6874   0.277E-02    0.691E-02
RMM:   8    -0.665205682407E+03    0.17945E-04   -0.34679E-05  5251   0.257E-02    0.372E-02
RMM:   9    -0.665205681508E+03    0.89862E-06   -0.26279E-05  5130   0.208E-02
  85 F= -.66520568E+03 E0= -.66514722E+03  d E =-.189875E-03
 curvature:  -2.00 expect dE=-0.514E-03 dE for cont linesearch -0.552E-05
 trial: gam= 1.35656 g(F)=  0.142E-03 g(S)=  0.115E-03 ort =-0.348E-04 (trialstep = 0.257E+00)
 search vector abs. value=  0.969E-03
 bond charge predicted
       N       E                     dE             d eps       ncg     rms          rms(c)
DAV:   1    -0.665205502975E+03    0.17943E-03   -0.12996E-02  8592   0.599E-01    0.300E-02
RMM:   2    -0.665205724934E+03   -0.22196E-03   -0.20544E-03 11317   0.116E-01    0.756E-02
RMM:   3    -0.665205715145E+03    0.97891E-05   -0.23422E-04  6320   0.639E-02    0.395E-02
RMM:   4    -0.665205724184E+03   -0.90388E-05   -0.50677E-05  5431   0.301E-02
  86 F= -.66520572E+03 E0= -.66514726E+03  d E =-.426757E-04
 trial-energy change:   -0.000043  1 .order   -0.000025   -0.000054    0.000003
 step:   0.2420(harm=  0.2420)  dis= 0.00054  next Energy=  -665.205707 (dE=-0.254E-04)
 bond charge predicted
       N       E                     dE             d eps       ncg     rms          rms(c)
DAV:   1    -0.665205713720E+03    0.14255E-05   -0.14672E-04 10728   0.614E-02    0.244E-02
RMM:   2    -0.665205924233E+03   -0.21051E-03   -0.11244E-04  6474   0.391E-02    0.215E-01
RMM:   3    -0.665205716762E+03    0.20747E-03   -0.51384E-05  5472   0.347E-02    0.241E-02
RMM:   4    -0.665205712121E+03    0.46409E-05   -0.55217E-06  4221   0.101E-02
  87 F= -.66520571E+03 E0= -.66514725E+03  d E =-.306131E-04
 curvature:  -0.56 expect dE=-0.162E-03 dE for cont linesearch -0.127E-04
 ZBRENT: interpolating
 opt :   0.2562  next Energy=  -665.205724 (dE=-0.427E-04)
 bond charge predicted
       N       E                     dE             d eps       ncg     rms          rms(c)
DAV:   1    -0.665205714996E+03    0.17659E-05   -0.45453E-05  8424   0.382E-02    0.131E-02
RMM:   2    -0.665205761333E+03   -0.46336E-04   -0.32485E-05  5331   0.232E-02    0.911E-02
RMM:   3    -0.665205716422E+03    0.44910E-04   -0.16794E-05  5065   0.229E-02    0.145E-02
RMM:   4    -0.665205714889E+03    0.15335E-05   -0.19531E-06  4059   0.588E-03
  88 F= -.66520571E+03 E0= -.66514725E+03  d E =-.333807E-04
 curvature:  -0.00 expect dE=-0.944E-07 dE for cont linesearch -0.216E-08
 ZBRENT: interpolating
 opt :   0.2573  next Energy=  -665.205724 (dE=-0.427E-04)
 bond charge predicted
       N       E                     dE             d eps       ncg     rms          rms(c)
DAV:   1    -0.665205715079E+03    0.13432E-05   -0.22600E-06  4944   0.825E-03    0.599E-03
RMM:   2    -0.665205728951E+03   -0.13872E-04   -0.63251E-06  4358   0.108E-02    0.552E-02
RMM:   3    -0.665205715393E+03    0.13557E-04   -0.36782E-06  3348   0.100E-02    0.568E-03
RMM:   4    -0.665205715125E+03    0.26822E-06   -0.41353E-07  2638   0.247E-03
  89 F= -.66520572E+03 E0= -.66514726E+03  d E =-.336170E-04
 curvature:  -0.00 expect dE=-0.613E-07 dE for cont linesearch -0.128E-08
 ZBRENT: interpolating
 opt :   0.2575  next Energy=  -665.205724 (dE=-0.427E-04)
 bond charge predicted
       N       E                     dE             d eps       ncg     rms          rms(c)
DAV:   1    -0.665205715187E+03    0.20688E-06   -0.53882E-07  5040   0.373E-03    0.249E-03
RMM:   2    -0.665205716944E+03   -0.17577E-05   -0.10081E-06  3253   0.475E-03
  90 F= -.66520572E+03 E0= -.66514726E+03  d E =-.354360E-04
 curvature:  -0.00 expect dE=-0.127E-07 dE for cont linesearch -0.211E-09
 ZBRENT: interpolating
 opt :   0.2575  next Energy=  -665.205724 (dE=-0.427E-04)
 bond charge predicted
       N       E                     dE             d eps       ncg     rms          rms(c)
DAV:   1    -0.665205715263E+03   -0.76441E-07   -0.56535E-06  5040   0.118E-02    0.215E-03
RMM:   2    -0.665205716258E+03   -0.99534E-06   -0.63244E-07  2839   0.340E-03
  91 F= -.66520572E+03 E0= -.66514726E+03  d E =-.347501E-04
 curvature:  -0.00 expect dE=-0.958E-09 dE for cont linesearch -0.425E-10
 ZBRENT: interpolating
 opt :   0.2575  next Energy=  -665.205724 (dE=-0.427E-04)
 bond charge predicted
       N       E                     dE             d eps       ncg     rms          rms(c)
DAV:   1    -0.665205715267E+03   -0.44529E-08   -0.35655E-06  5040   0.985E-03    0.318E-03
RMM:   2    -0.665205718563E+03   -0.32957E-05   -0.13788E-06  3084   0.515E-03
  92 F= -.66520572E+03 E0= -.66514727E+03  d E =-.370549E-04
 curvature:  -0.00 expect dE=-0.224E-09 dE for cont linesearch -0.263E-11
 trial: gam= 0.71255 g(F)=  0.126E-03 g(S)=  0.349E-03 ort = 0.736E-04 (trialstep = 0.233E+00)
 search vector abs. value=  0.107E-02
 bond charge predicted
       N       E                     dE             d eps       ncg     rms          rms(c)
DAV:   1    -0.665205788492E+03   -0.73224E-04   -0.11572E-02 11352   0.616E-01    0.120E-01
RMM:   2    -0.665207904030E+03   -0.21155E-02   -0.36837E-03  9991   0.213E-01    0.518E-01
RMM:   3    -0.665205925561E+03    0.19785E-02   -0.97079E-04  8355   0.138E-01    0.167E-01
RMM:   4    -0.665205815247E+03    0.11031E-03   -0.18727E-04  7727   0.512E-02    0.666E-02
RMM:   5    -0.665205807011E+03    0.82368E-05   -0.66850E-05  6045   0.263E-02
  93 F= -.66520581E+03 E0= -.66514731E+03  d E =-.884474E-04
 trial-energy change:   -0.000088  1 .order   -0.000103   -0.000123   -0.000082
 step:   0.7067(harm=  0.7067)  dis= 0.00156  next Energy=  -665.205905 (dE=-0.186E-03)
 bond charge predicted
       N       E                     dE             d eps       ncg     rms          rms(c)
DAV:   1    -0.665205768786E+03    0.46461E-04   -0.47963E-02 11472   0.126E+00    0.253E-01
RMM:   2    -0.665215307954E+03   -0.95392E-02   -0.15132E-02 10035   0.433E-01    0.113E+00
RMM:   3    -0.665206488723E+03    0.88192E-02   -0.44075E-03  9143   0.291E-01    0.392E-01
RMM:   4    -0.665205853914E+03    0.63481E-03   -0.90719E-04  8750   0.109E-01    0.152E-01
RMM:   5    -0.665205878995E+03   -0.25081E-04   -0.42324E-04  8915   0.576E-02    0.173E-01
RMM:   6    -0.665205714730E+03    0.16426E-03   -0.15562E-04  7253   0.506E-02    0.680E-02
RMM:   7    -0.665205717530E+03   -0.27995E-05   -0.12273E-04  7338   0.350E-02    0.890E-02
RMM:   8    -0.665205677224E+03    0.40306E-04   -0.45014E-05  5360   0.288E-02    0.362E-02
RMM:   9    -0.665205678177E+03   -0.95307E-06   -0.34843E-05  5256   0.227E-02
  94 F= -.66520568E+03 E0= -.66514715E+03  d E =0.403864E-04
 curvature:  -0.72 expect dE=-0.570E-03 dE for cont linesearch -0.137E-03
 ZBRENT: interpolating
 opt :   0.4410  next Energy=  -665.205844 (dE=-0.125E-03)
 bond charge predicted
       N       E                     dE             d eps       ncg     rms          rms(c)
DAV:   1    -0.665205762086E+03   -0.84863E-04   -0.15485E-02 11400   0.711E-01    0.135E-01
RMM:   2    -0.665208473619E+03   -0.27115E-02   -0.47091E-03 10003   0.241E-01    0.596E-01
RMM:   3    -0.665206002147E+03    0.24715E-02   -0.12437E-03  8501   0.155E-01    0.218E-01
RMM:   4    -0.665205803844E+03    0.19830E-03   -0.25428E-04  7890   0.607E-02    0.737E-02
RMM:   5    -0.665205801789E+03    0.20547E-05   -0.10047E-04  6915   0.307E-02    0.771E-02
RMM:   6    -0.665205770144E+03    0.31645E-04   -0.35691E-05  5387   0.272E-02    0.337E-02
RMM:   7    -0.665205767773E+03    0.23714E-05   -0.23327E-05  5022   0.191E-02
  95 F= -.66520577E+03 E0= -.66514725E+03  d E =-.492095E-04
 curvature:  -0.19 expect dE=-0.118E-03 dE for cont linesearch -0.208E-04
 ZBRENT: interpolating
 opt :   0.3390  next Energy=  -665.205785 (dE=-0.665E-04)
 bond charge predicted
       N       E                     dE             d eps       ncg     rms          rms(c)
DAV:   1    -0.665205773892E+03   -0.37484E-05   -0.21578E-03 11256   0.275E-01    0.597E-02
RMM:   2    -0.665206348891E+03   -0.57500E-03   -0.82490E-04  8704   0.103E-01    0.281E-01
RMM:   3    -0.665205817395E+03    0.53150E-03   -0.26449E-04  7295   0.788E-02    0.948E-02
RMM:   4    -0.665205778400E+03    0.38995E-04   -0.48453E-05  5547   0.287E-02    0.299E-02
RMM:   5    -0.665205785994E+03   -0.75940E-05   -0.19001E-05  5069   0.202E-02
  96 F= -.66520579E+03 E0= -.66514728E+03  d E =-.674310E-04
 curvature:  -0.16 expect dE=-0.930E-04 dE for cont linesearch -0.865E-05
 ZBRENT: bisectioning
 opt :   0.2859  next Energy=  -665.205797 (dE=-0.788E-04)
 bond charge predicted
       N       E                     dE             d eps       ncg     rms          rms(c)
DAV:   1    -0.665205774848E+03    0.35517E-05   -0.61908E-04 10848   0.145E-01    0.327E-02
RMM:   2    -0.665205933715E+03   -0.15887E-03   -0.21544E-04  7206   0.531E-02    0.148E-01
RMM:   3    -0.665205787596E+03    0.14612E-03   -0.67500E-05  5802   0.425E-02    0.520E-02
RMM:   4    -0.665205776435E+03    0.11160E-04   -0.14493E-05  4722   0.182E-02    0.193E-02
RMM:   5    -0.665205779745E+03   -0.33093E-05   -0.76176E-06  4119   0.134E-02
  97 F= -.66520578E+03 E0= -.66514728E+03  d E =-.611816E-04
 curvature:  -0.21 expect dE=-0.618E-04 dE for cont linesearch -0.128E-05
 ZBRENT: interpolating
 opt :   0.2659  next Energy=  -665.205781 (dE=-0.622E-04)
 bond charge predicted
       N       E                     dE             d eps       ncg     rms          rms(c)
DAV:   1    -0.665205776223E+03    0.21272E-06   -0.10546E-04 10896   0.587E-02    0.155E-02
RMM:   2    -0.665205818673E+03   -0.42450E-04   -0.40711E-05  5520   0.248E-02    0.823E-02
RMM:   3    -0.665205778918E+03    0.39755E-04   -0.18119E-05  5168   0.254E-02    0.217E-02
RMM:   4    -0.665205776801E+03    0.21165E-05   -0.34852E-06  3963   0.828E-03
  98 F= -.66520578E+03 E0= -.66514728E+03  d E =-.582382E-04
 curvature:  -0.17 expect dE=-0.261E-04 dE for cont linesearch -0.392E-07
 trial: gam= 0.42397 g(F)=  0.982E-04 g(S)=  0.580E-04 ort = 0.159E-04 (trialstep = 0.239E+00)
 search vector abs. value=  0.362E-03
 bond charge predicted
       N       E                     dE             d eps       ncg     rms          rms(c)
DAV:   1    -0.665205711127E+03    0.67791E-04   -0.49029E-03  9000   0.421E-01    0.221E-02
RMM:   2    -0.665205897381E+03   -0.18625E-03   -0.94305E-04 10414   0.783E-02    0.148E-01
RMM:   3    -0.665205805832E+03    0.91550E-04   -0.13689E-04  5566   0.549E-02    0.225E-02
RMM:   4    -0.665205810219E+03   -0.43872E-05   -0.28136E-05  5195   0.233E-02
  99 F= -.66520581E+03 E0= -.66514731E+03  d E =-.334178E-04
 trial-energy change:   -0.000033  1 .order   -0.000021   -0.000039   -0.000004
 step:   0.2641(harm=  0.2641)  dis= 0.00050  next Energy=  -665.205798 (dE=-0.215E-04)
 reached required accuracy - stopping structural energy minimisation
