<?xml version="1.0" encoding="ISO-8859-1"?>
<modeling>
 <generator>
  <i name="program" type="string">vasp </i>
  <i name="version" type="string">5.4.4.18Apr17-6-g9f103f2a35  </i>
  <i name="subversion" type="string">(build Oct 18 2021 20:38:43) complex            parallel </i>
  <i name="platform" type="string">LinuxIFC </i>
  <i name="date" type="string">2024 06 18 </i>
  <i name="time" type="string">15:46:14 </i>
 </generator>
 <incar>
  <i type="string" name="SYSTEM">HECN</i>
  <i type="int" name="ISTART">     0</i>
  <i type="string" name="PREC">normal</i>
  <i type="string" name="ALGO">Fast</i>
  <i type="int" name="ICHARG">     2</i>
  <i type="int" name="NELM">    60</i>
  <i type="int" name="IBRION">     2</i>
  <i name="EDIFF">      0.00001000</i>
  <i name="EDIFFG">     -0.01000000</i>
  <i type="int" name="NSW">   100</i>
  <i type="int" name="ISIF">     3</i>
  <i name="ENCUT">    400.00000000</i>
  <i name="POTIM">      0.50000000</i>
  <i type="logical" name="LREAL"> F  </i>
  <i type="int" name="ISMEAR">     0</i>
  <i name="SIGMA">      0.10000000</i>
  <i type="logical" name="LWAVE"> F  </i>
  <i type="logical" name="LCHARG"> F  </i>
  <v type="int" name="KPOINT_BSE">    -1     0     0     0</v>
  <i type="int" name="NELM">    60</i>
 </incar>
 <structure name="primitive_cell" >
  <crystal>
   <varray name="basis" >
    <v>       8.93249989       0.00000000       0.00000000 </v>
    <v>       0.00575300       9.05559834       0.00000000 </v>
    <v>       0.03210180      -0.01574346       8.93712807 </v>
   </varray>
   <i name="volume">    722.91652451 </i>
   <varray name="rec_basis" >
    <v>       0.11195074      -0.00007112      -0.00040225 </v>
    <v>       0.00000000       0.11042893       0.00019453 </v>
    <v>       0.00000000       0.00000000       0.11189277 </v>
   </varray>
  </crystal>
  <varray name="positions" >
   <v>      -0.00311999      -0.00795003      -0.00075998 </v>
   <v>      -0.25232999      -0.00252000       0.01202000 </v>
   <v>      -0.00162995      -0.25686004       0.00460000 </v>
   <v>      -0.00280000      -0.00228008       0.25899999 </v>
   <v>       0.00281000       0.25024000       0.00130000 </v>
   <v>      -0.01103011       0.00202000      -0.26291001 </v>
   <v>       0.26146999      -0.00015998      -0.00704004 </v>
   <v>      -0.00135002      -0.22426001       0.26102000 </v>
   <v>      -0.25720997      -0.02130006      -0.23549005 </v>
   <v>       0.23780002       0.01082000      -0.25392002 </v>
   <v>      -0.24282000      -0.25897003       0.01100000 </v>
   <v>       0.24762001      -0.25026001      -0.00025994 </v>
   <v>      -0.00485996      -0.25507996      -0.25488003 </v>
   <v>      -0.24281000       0.25603001      -0.00408003 </v>
   <v>       0.25398003      -0.00285005       0.24912000 </v>
   <v>       0.24788999       0.24839000      -0.00342003 </v>
   <v>      -0.00562996       0.23617001       0.26379999 </v>
   <v>      -0.25120996      -0.01212001       0.26967001 </v>
   <v>       0.00201000       0.25541000      -0.26105999 </v>
   <v>       0.24177002      -0.24659003      -0.24981998 </v>
   <v>      -0.24963995      -0.25112000      -0.25243996 </v>
   <v>      -0.24255004       0.24437997      -0.25103001 </v>
   <v>       0.25133999      -0.25041998       0.24910999 </v>
   <v>      -0.24367000      -0.26108997       0.25767000 </v>
   <v>      -0.24686002       0.24616999       0.25492002 </v>
   <v>       0.24982001       0.24942998       0.24825000 </v>
   <v>       0.24900999       0.25315000      -0.25146000 </v>
   <v>      -0.48411003       0.01358000      -0.01924992 </v>
   <v>      -0.00158006      -0.49023002      -0.01386996 </v>
   <v>       0.02362000      -0.00216999       0.49557002 </v>
   <v>      -0.49480995      -0.23869001       0.00855000 </v>
   <v>      -0.49285006      -0.00023001       0.24673000 </v>
   <v>      -0.24160996      -0.49684002       0.00288000 </v>
   <v>      -0.00999997      -0.23784997       0.49746000 </v>
   <v>      -0.00948001       0.48088003       0.24100999 </v>
   <v>       0.24446000      -0.00176004      -0.49712002 </v>
   <v>      -0.26367999       0.00417000      -0.48937000 </v>
   <v>       0.24328000      -0.49927003      -0.00489006 </v>
   <v>      -0.49572003       0.24673000       0.00262000 </v>
   <v>      -0.00796004      -0.49944001      -0.24861998 </v>
   <v>      -0.00195991       0.24229999      -0.49871997 </v>
   <v>      -0.49991002       0.00061000      -0.26528002 </v>
   <v>      -0.26123997      -0.47171998      -0.26185001 </v>
   <v>       0.49950005      -0.24518001      -0.25182996 </v>
   <v>       0.24457999      -0.24951001       0.49983999 </v>
   <v>      -0.24599997      -0.27062001       0.49116997 </v>
   <v>      -0.49520997       0.24631001      -0.25289998 </v>
   <v>       0.24803003      -0.49835000       0.24955001 </v>
   <v>      -0.26448999      -0.48531996       0.26666001 </v>
   <v>      -0.49167000       0.25676999       0.25376001 </v>
   <v>      -0.49620997      -0.26073003       0.25905001 </v>
   <v>      -0.24692999       0.26163001      -0.49466998 </v>
   <v>       0.25272001       0.24823001      -0.49984997 </v>
   <v>       0.25679999       0.49462002      -0.25454998 </v>
   <v>       0.47957999      -0.01691999       0.49717999 </v>
   <v>      -0.49498994       0.49745998      -0.00165997 </v>
   <v>      -0.00572008      -0.49550001       0.49779000 </v>
   <v>      -0.49436004       0.23264998       0.49544997 </v>
   <v>      -0.49424994      -0.25041998       0.49720000 </v>
   <v>      -0.49299998      -0.49666998       0.25878999 </v>
   <v>      -0.49498997      -0.49782002      -0.26087997 </v>
   <v>      -0.25963999      -0.49803000      -0.49932997 </v>
   <v>       0.25841001      -0.49937998      -0.49870999 </v>
   <v>      -0.49461000      -0.47166995       0.49917999 </v>
  </varray>
 </structure>
 <varray name="primitive_index" >
  <v type="int" >        1 </v>
  <v type="int" >       25 </v>
  <v type="int" >       38 </v>
  <v type="int" >       34 </v>
  <v type="int" >       23 </v>
  <v type="int" >       29 </v>
  <v type="int" >       22 </v>
  <v type="int" >       59 </v>
  <v type="int" >       58 </v>
  <v type="int" >       56 </v>
  <v type="int" >        9 </v>
  <v type="int" >       18 </v>
  <v type="int" >       12 </v>
  <v type="int" >       17 </v>
  <v type="int" >        2 </v>
  <v type="int" >       14 </v>
  <v type="int" >        8 </v>
  <v type="int" >       16 </v>
  <v type="int" >       10 </v>
  <v type="int" >       45 </v>
  <v type="int" >       49 </v>
  <v type="int" >       30 </v>
  <v type="int" >       36 </v>
  <v type="int" >       39 </v>
  <v type="int" >       24 </v>
  <v type="int" >       21 </v>
  <v type="int" >       42 </v>
  <v type="int" >       53 </v>
  <v type="int" >       54 </v>
  <v type="int" >       61 </v>
  <v type="int" >       28 </v>
  <v type="int" >       26 </v>
  <v type="int" >       40 </v>
  <v type="int" >       47 </v>
  <v type="int" >       27 </v>
  <v type="int" >       43 </v>
  <v type="int" >       31 </v>
  <v type="int" >       37 </v>
  <v type="int" >       35 </v>
  <v type="int" >       48 </v>
  <v type="int" >       44 </v>
  <v type="int" >       33 </v>
  <v type="int" >       63 </v>
  <v type="int" >        7 </v>
  <v type="int" >       20 </v>
  <v type="int" >       64 </v>
  <v type="int" >        5 </v>
  <v type="int" >        3 </v>
  <v type="int" >       60 </v>
  <v type="int" >       15 </v>
  <v type="int" >       55 </v>
  <v type="int" >       11 </v>
  <v type="int" >       19 </v>
  <v type="int" >       13 </v>
  <v type="int" >       57 </v>
  <v type="int" >        4 </v>
  <v type="int" >        6 </v>
  <v type="int" >       32 </v>
  <v type="int" >       51 </v>
  <v type="int" >       41 </v>
  <v type="int" >       52 </v>
  <v type="int" >       50 </v>
  <v type="int" >       46 </v>
  <v type="int" >       62 </v>
 </varray>
 <kpoints>
  <generation param="Gamma">
   <v type="int" name="divisions">       3        3        3 </v>
   <v name="usershift">      0.00000000       0.00000000       0.00000000 </v>
   <v name="genvec1">      0.33333333      -0.00000000      -0.00000000 </v>
   <v name="genvec2">      0.00000000       0.33333333       0.00000000 </v>
   <v name="genvec3">      0.00000000       0.00000000       0.33333333 </v>
   <v name="shift">      0.00000000       0.00000000       0.00000000 </v>
  </generation>
  <varray name="kpointlist" >
   <v>       0.00000000       0.00000000       0.00000000 </v>
   <v>       0.33333333       0.00000000       0.00000000 </v>
   <v>       0.00000000       0.33333333       0.00000000 </v>
   <v>       0.33333333       0.33333333       0.00000000 </v>
   <v>      -0.33333333       0.33333333       0.00000000 </v>
   <v>       0.00000000       0.00000000       0.33333333 </v>
   <v>       0.33333333       0.00000000       0.33333333 </v>
   <v>      -0.33333333       0.00000000       0.33333333 </v>
   <v>       0.00000000       0.33333333       0.33333333 </v>
   <v>       0.33333333       0.33333333       0.33333333 </v>
   <v>      -0.33333333       0.33333333       0.33333333 </v>
   <v>       0.00000000      -0.33333333       0.33333333 </v>
   <v>       0.33333333      -0.33333333       0.33333333 </v>
   <v>      -0.33333333      -0.33333333       0.33333333 </v>
  </varray>
  <varray name="weights" >
   <v>       0.03703704 </v>
   <v>       0.07407407 </v>
   <v>       0.07407407 </v>
   <v>       0.07407407 </v>
   <v>       0.07407407 </v>
   <v>       0.07407407 </v>
   <v>       0.07407407 </v>
   <v>       0.07407407 </v>
   <v>       0.07407407 </v>
   <v>       0.07407407 </v>
   <v>       0.07407407 </v>
   <v>       0.07407407 </v>
   <v>       0.07407407 </v>
   <v>       0.07407407 </v>
  </varray>
 </kpoints>
 <parameters>
  <separator name="general" >
   <i type="string" name="SYSTEM">HECN</i>
   <i type="logical" name="LCOMPAT"> F  </i>
  </separator>
  <separator name="electronic" >
   <i type="string" name="PREC">normal</i>
   <i name="ENMAX">    400.00000000</i>
   <i name="ENAUG">    644.87300000</i>
   <i name="EDIFF">      0.00001000</i>
   <i type="int" name="IALGO">    68</i>
   <i type="int" name="IWAVPR">    11</i>
   <i type="int" name="NBANDS">   288</i>
   <i name="NELECT">    468.00000000</i>
   <i type="int" name="TURBO">     0</i>
   <i type="int" name="IRESTART">     0</i>
   <i type="int" name="NREBOOT">     0</i>
   <i type="int" name="NMIN">     0</i>
   <i name="EREF">      0.00000000</i>
   <separator name="electronic smearing" >
    <i type="int" name="ISMEAR">     0</i>
    <i name="SIGMA">      0.10000000</i>
    <i name="KSPACING">      0.50000000</i>
    <i type="logical" name="KGAMMA"> T  </i>
   </separator>
   <separator name="electronic projectors" >
    <i type="logical" name="LREAL"> F  </i>
    <v name="ROPT">      0.00000000      0.00000000      0.00000000      0.00000000      0.00000000      0.00000000      0.00000000</v>
    <i type="int" name="LMAXPAW">  -100</i>
    <i type="int" name="LMAXMIX">     2</i>
    <i type="logical" name="NLSPLINE"> F  </i>
   </separator>
   <separator name="electronic startup" >
    <i type="int" name="ISTART">     0</i>
    <i type="int" name="ICHARG">     2</i>
    <i type="int" name="INIWAV">     1</i>
   </separator>
   <separator name="electronic spin" >
    <i type="int" name="ISPIN">     1</i>
    <i type="logical" name="LNONCOLLINEAR"> F  </i>
    <v name="MAGMOM">      1.00000000      1.00000000      1.00000000      1.00000000      1.00000000      1.00000000      1.00000000      1.00000000      1.00000000      1.00000000      1.00000000      1.00000000      1.00000000      1.00000000      1.00000000      1.00000000      1.00000000      1.00000000      1.00000000      1.00000000
      1.00000000      1.00000000      1.00000000      1.00000000      1.00000000      1.00000000      1.00000000      1.00000000      1.00000000      1.00000000      1.00000000      1.00000000      1.00000000      1.00000000      1.00000000      1.00000000      1.00000000      1.00000000      1.00000000      1.00000000
      1.00000000      1.00000000      1.00000000      1.00000000      1.00000000      1.00000000      1.00000000      1.00000000      1.00000000      1.00000000      1.00000000      1.00000000      1.00000000      1.00000000      1.00000000      1.00000000      1.00000000      1.00000000      1.00000000      1.00000000
      1.00000000      1.00000000      1.00000000      1.00000000</v>
    <i name="NUPDOWN">     -1.00000000</i>
    <i type="logical" name="LSORBIT"> F  </i>
    <v name="SAXIS">      0.00000000      0.00000000      1.00000000</v>
    <i type="logical" name="LSPIRAL"> F  </i>
    <v name="QSPIRAL">      0.00000000      0.00000000      0.00000000</v>
    <i type="logical" name="LZEROZ"> F  </i>
   </separator>
   <separator name="electronic exchange-correlation" >
    <i type="logical" name="LASPH"> F  </i>
    <i type="logical" name="LMETAGGA"> F  </i>
   </separator>
   <separator name="electronic convergence" >
    <i type="int" name="NELM">    60</i>
    <i type="int" name="NELMDL">    -5</i>
    <i type="int" name="NELMIN">     2</i>
    <i name="ENINI">    400.00000000</i>
    <separator name="electronic convergence detail" >
     <i type="logical" name="LDIAG"> T  </i>
     <i type="logical" name="LSUBROT"> F  </i>
     <i name="WEIMIN">      0.00100000</i>
     <i name="EBREAK">      0.00000001</i>
     <i name="DEPER">      0.30000000</i>
     <i type="int" name="NRMM">     4</i>
     <i name="TIME">      0.40000000</i>
    </separator>
   </separator>
   <separator name="electronic mixer" >
    <i name="AMIX">      0.40000000</i>
    <i name="BMIX">      1.00000000</i>
    <i name="AMIN">      0.10000000</i>
    <i name="AMIX_MAG">      1.60000000</i>
    <i name="BMIX_MAG">      1.00000000</i>
    <separator name="electronic mixer details" >
     <i type="int" name="IMIX">     4</i>
     <i type="logical" name="MIXFIRST"> F  </i>
     <i type="int" name="MAXMIX">   -45</i>
     <i name="WC">    100.00000000</i>
     <i type="int" name="INIMIX">     1</i>
     <i type="int" name="MIXPRE">     1</i>
     <i type="int" name="MREMOVE">     5</i>
    </separator>
   </separator>
   <separator name="electronic dipolcorrection" >
    <i type="logical" name="LDIPOL"> F  </i>
    <i type="logical" name="LMONO"> F  </i>
    <i type="int" name="IDIPOL">     0</i>
    <i name="EPSILON">      1.00000000</i>
    <v name="DIPOL">   -100.00000000   -100.00000000   -100.00000000</v>
    <i name="EFIELD">      0.00000000</i>
   </separator>
  </separator>
  <separator name="grids" >
   <i type="int" name="NGX">    48</i>
   <i type="int" name="NGY">    48</i>
   <i type="int" name="NGZ">    48</i>
   <i type="int" name="NGXF">    96</i>
   <i type="int" name="NGYF">    96</i>
   <i type="int" name="NGZF">    96</i>
   <i type="logical" name="ADDGRID"> F  </i>
  </separator>
  <separator name="ionic" >
   <i type="int" name="NSW">   100</i>
   <i type="int" name="IBRION">     2</i>
   <i type="int" name="MDALGO">     0</i>
   <i type="int" name="ISIF">     3</i>
   <i name="PSTRESS">      0.00000000</i>
   <i name="EDIFFG">     -0.01000000</i>
   <i type="int" name="NFREE">     1</i>
   <i name="POTIM">      0.50000000</i>
   <i name="SMASS">     -3.00000000</i>
   <i name="SCALEE">      1.00000000</i>
  </separator>
  <separator name="ionic md" >
   <i name="TEBEG">      0.00010000</i>
   <i name="TEEND">      0.00010000</i>
   <i type="int" name="NBLOCK">     1</i>
   <i type="int" name="KBLOCK">   100</i>
   <i type="int" name="NPACO">   256</i>
   <i name="APACO">     16.00000000</i>
  </separator>
  <separator name="symmetry" >
   <i type="int" name="ISYM">     2</i>
   <i name="SYMPREC">      0.00001000</i>
  </separator>
  <separator name="dos" >
   <i type="int" name="LORBIT">     0</i>
   <v name="RWIGS">     -1.00000000     -1.00000000     -1.00000000     -1.00000000     -1.00000000     -1.00000000     -1.00000000</v>
   <i type="int" name="NEDOS">   301</i>
   <i name="EMIN">     10.00000000</i>
   <i name="EMAX">    -10.00000000</i>
   <i name="EFERMI">      0.00000000</i>
  </separator>
  <separator name="writing" >
   <i type="int" name="NWRITE">     2</i>
   <i type="logical" name="LWAVE"> F  </i>
   <i type="logical" name="LDOWNSAMPLE"> F  </i>
   <i type="logical" name="LCHARG"> F  </i>
   <i type="logical" name="LPARD"> F  </i>
   <i type="logical" name="LVTOT"> F  </i>
   <i type="logical" name="LVHAR"> F  </i>
   <i type="logical" name="LELF"> F  </i>
   <i type="logical" name="LOPTICS"> F  </i>
   <v name="STM">      0.00000000      0.00000000      0.00000000      0.00000000      0.00000000      0.00000000      0.00000000</v>
  </separator>
  <separator name="performance" >
   <i type="int" name="NPAR">    24</i>
   <i type="int" name="NSIM">     4</i>
   <i type="int" name="NBLK">    -1</i>
   <i type="logical" name="LPLANE"> T  </i>
   <i type="logical" name="LSCALAPACK"> T  </i>
   <i type="logical" name="LSCAAWARE"> F  </i>
   <i type="logical" name="LSCALU"> F  </i>
   <i type="logical" name="LASYNC"> F  </i>
   <i type="logical" name="LORBITALREAL"> F  </i>
  </separator>
  <separator name="miscellaneous" >
   <i type="int" name="IDIOT">     3</i>
   <i type="int" name="ISPECIAL">     0</i>
   <i type="logical" name="LMUSIC"> F  </i>
   <v name="POMASS">    180.94800000    183.85000000    178.49000000     14.00100000     12.01100000     51.99600000     95.94000000</v>
   <v name="DARWINR">      0.00000000      0.00000000      0.00000000      0.00000000      0.00000000      0.00000000      0.00000000</v>
   <v name="DARWINV">      1.00000000      1.00000000      1.00000000      1.00000000      1.00000000      1.00000000      1.00000000</v>
   <i type="logical" name="LCORR"> T  </i>
  </separator>
  <i type="logical" name="GGA_COMPAT"> T  </i>
  <i type="logical" name="LBERRY"> F  </i>
  <i type="int" name="ICORELEVEL">     0</i>
  <i type="logical" name="LDAU"> F  </i>
  <i type="int" name="I_CONSTRAINED_M">     0</i>
  <separator name="electronic exchange-correlation" >
   <i type="string" name="GGA">--</i>
   <i type="int" name="VOSKOWN">     0</i>
   <i type="logical" name="LHFCALC"> F  </i>
   <i type="string" name="PRECFOCK"></i>
   <i type="logical" name="LSYMGRAD"> F  </i>
   <i type="logical" name="LHFONE"> F  </i>
   <i type="logical" name="LRHFCALC"> F  </i>
   <i type="logical" name="LTHOMAS"> F  </i>
   <i type="logical" name="LMODELHF"> F  </i>
   <i name="ENCUT4O">     -1.00000000</i>
   <i type="int" name="EXXOEP">     0</i>
   <i type="int" name="FOURORBIT">     0</i>
   <i name="AEXX">      0.00000000</i>
   <i name="HFALPHA">      0.00000000</i>
   <i name="MCALPHA">      0.00000000</i>
   <i name="ALDAX">      1.00000000</i>
   <i name="AGGAX">      1.00000000</i>
   <i name="ALDAC">      1.00000000</i>
   <i name="AGGAC">      1.00000000</i>
   <i type="int" name="NKREDX">     1</i>
   <i type="int" name="NKREDY">     1</i>
   <i type="int" name="NKREDZ">     1</i>
   <i type="logical" name="SHIFTRED"> F  </i>
   <i type="logical" name="ODDONLY"> F  </i>
   <i type="logical" name="EVENONLY"> F  </i>
   <i type="int" name="LMAXFOCK">     0</i>
   <i type="int" name="NMAXFOCKAE">     0</i>
   <i type="logical" name="LFOCKAEDFT"> F  </i>
   <i name="HFSCREEN">      0.00000000</i>
   <i name="HFSCREENC">      0.00000000</i>
   <i type="int" name="NBANDSGWLOW">     0</i>
  </separator>
  <separator name="vdW DFT" >
   <i type="logical" name="LUSE_VDW"> F  </i>
   <i name="Zab_VDW">     -0.84910000</i>
   <i name="PARAM1">      0.12340000</i>
   <i name="PARAM2">      1.00000000</i>
   <i name="PARAM3">      0.00000000</i>
  </separator>
  <separator name="model GW" >
   <i type="int" name="MODEL_GW">     0</i>
   <i name="MODEL_EPS0">      6.77734242</i>
   <i name="MODEL_ALPHA">      1.00000000</i>
  </separator>
  <separator name="linear response parameters" >
   <i type="logical" name="LEPSILON"> F  </i>
   <i type="logical" name="LRPA"> F  </i>
   <i type="logical" name="LNABLA"> F  </i>
   <i type="logical" name="LVEL"> F  </i>
   <i type="int" name="KINTER">     0</i>
   <i name="CSHIFT">      0.10000000</i>
   <i name="OMEGAMAX">     -1.00000000</i>
   <i name="DEG_THRESHOLD">      0.00200000</i>
   <i name="RTIME">     -0.10000000</i>
   <i name="WPLASMAI">      0.00000000</i>
   <v name="DFIELD">      0.00000000      0.00000000      0.00000000</v>
   <v name="WPLASMA">      0.00000000      0.00000000      0.00000000      0.00000000      0.00000000      0.00000000      0.00000000      0.00000000      0.00000000</v>
  </separator>
  <separator name="orbital magnetization" >
   <i type="logical" name="NUCIND"> F  </i>
   <v name="MAGPOS">      0.00000000      0.00000000      0.00000000</v>
   <i type="logical" name="LNICSALL"> T  </i>
   <i type="logical" name="ORBITALMAG"> F  </i>
   <i type="logical" name="LMAGBLOCH"> F  </i>
   <i type="logical" name="LCHIMAG"> F  </i>
   <i type="logical" name="LGAUGE"> T  </i>
   <i type="int" name="MAGATOM">     0</i>
   <v name="MAGDIPOL">      0.00000000      0.00000000      0.00000000</v>
   <v name="AVECCONST">      0.00000000      0.00000000      0.00000000</v>
  </separator>
  <separator name="response functions" >
   <i type="logical" name="LADDER"> F  </i>
   <i type="logical" name="LRPAFORCE"> F  </i>
   <i type="logical" name="LFXC"> F  </i>
   <i type="logical" name="LHARTREE"> T  </i>
   <i type="int" name="IBSE">     0</i>
   <v type="int" name="KPOINT">    -1     0     0     0</v>
   <i type="logical" name="LTCTE"> F  </i>
   <i type="logical" name="LTETE"> F  </i>
   <i type="logical" name="LTRIPLET"> F  </i>
   <i type="logical" name="LFXCEPS"> F  </i>
   <i type="logical" name="LFXHEG"> F  </i>
   <i type="int" name="NATURALO">     2</i>
   <i type="logical" name="L2ORDER"> F  </i>
   <i type="logical" name="LMP2LT"> F  </i>
   <i type="logical" name="LUSEW"> F  </i>
   <i name="ENCUTGW">     -2.00000000</i>
   <i name="ENCUTGWSOFT">     -2.00000000</i>
   <i name="ENCUTLF">     -1.00000000</i>
   <i type="int" name="LMAXMP2">    -1</i>
   <i name="SCISSOR">      0.00000000</i>
   <i type="int" name="NOMEGA">     0</i>
   <i type="int" name="NOMEGAR">     0</i>
   <i type="int" name="NBANDSGW">    -1</i>
   <i type="int" name="NBANDSO">    -1</i>
   <i type="int" name="NBANDSV">    -1</i>
   <i type="int" name="NELM">    60</i>
   <i type="int" name="NELMHF">     1</i>
   <i type="int" name="DIM">     3</i>
   <i type="int" name="ANTIRES">     0</i>
   <i name="OMEGAMAX">    -30.00000000</i>
   <i name="OMEGAMIN">    -30.00000000</i>
   <i name="OMEGATL">   -200.00000000</i>
   <i type="int" name="OMEGAGRID">   140</i>
   <i name="CSHIFT">     -0.10000000</i>
   <i type="logical" name="SELFENERGY"> F  </i>
   <i type="logical" name="LSPECTRAL"> F  </i>
   <i type="logical" name="LSPECTRALGW"> F  </i>
   <i type="logical" name="LSINGLES"> F  </i>
   <i type="logical" name="LFERMIGW"> F  </i>
   <i type="logical" name="ODDONLYGW"> F  </i>
   <i type="logical" name="EVENONLYGW"> F  </i>
   <i type="int" name="NKREDLFX">     1</i>
   <i type="int" name="NKREDLFY">     1</i>
   <i type="int" name="NKREDLFZ">     1</i>
   <i type="int" name="MAXMEM">  2800</i>
   <i type="int" name="TELESCOPE">     0</i>
   <i type="int" name="TAUPAR">     1</i>
   <i type="int" name="OMEGAPAR">    -1</i>
   <i name="LAMBDA">      1.00000000</i>
  </separator>
  <separator name="External order field" >
   <i name="OFIELD_KAPPA">      0.00000000</i>
   <v name="OFIELD_K">      0.00000000      0.00000000      0.00000000</v>
   <i name="OFIELD_Q6_NEAR">      0.00000000</i>
   <i name="OFIELD_Q6_FAR">      0.00000000</i>
   <i name="OFIELD_A">      0.00000000</i>
  </separator>
 </parameters>
 <atominfo>
  <atoms>      64 </atoms>
  <types>       7 </types>
  <array name="atoms" >
   <dimension dim="1">ion</dimension>
   <field type="string">element</field>
   <field type="int">atomtype</field>
   <set>
    <rc><c>Ta</c><c>   1</c></rc>
    <rc><c>Ta</c><c>   1</c></rc>
    <rc><c>Ta</c><c>   1</c></rc>
    <rc><c>Ta</c><c>   1</c></rc>
    <rc><c>Ta</c><c>   1</c></rc>
    <rc><c>Ta</c><c>   1</c></rc>
    <rc><c>Ta</c><c>   1</c></rc>
    <rc><c>W </c><c>   2</c></rc>
    <rc><c>W </c><c>   2</c></rc>
    <rc><c>W </c><c>   2</c></rc>
    <rc><c>W </c><c>   2</c></rc>
    <rc><c>W </c><c>   2</c></rc>
    <rc><c>W </c><c>   2</c></rc>
    <rc><c>Hf</c><c>   3</c></rc>
    <rc><c>Hf</c><c>   3</c></rc>
    <rc><c>Hf</c><c>   3</c></rc>
    <rc><c>Hf</c><c>   3</c></rc>
    <rc><c>Hf</c><c>   3</c></rc>
    <rc><c>Hf</c><c>   3</c></rc>
    <rc><c>Hf</c><c>   3</c></rc>
    <rc><c>N </c><c>   4</c></rc>
    <rc><c>N </c><c>   4</c></rc>
    <rc><c>N </c><c>   4</c></rc>
    <rc><c>N </c><c>   4</c></rc>
    <rc><c>N </c><c>   4</c></rc>
    <rc><c>N </c><c>   4</c></rc>
    <rc><c>N </c><c>   4</c></rc>
    <rc><c>N </c><c>   4</c></rc>
    <rc><c>N </c><c>   4</c></rc>
    <rc><c>N </c><c>   4</c></rc>
    <rc><c>N </c><c>   4</c></rc>
    <rc><c>N </c><c>   4</c></rc>
    <rc><c>N </c><c>   4</c></rc>
    <rc><c>C </c><c>   5</c></rc>
    <rc><c>C </c><c>   5</c></rc>
    <rc><c>C </c><c>   5</c></rc>
    <rc><c>C </c><c>   5</c></rc>
    <rc><c>C </c><c>   5</c></rc>
    <rc><c>C </c><c>   5</c></rc>
    <rc><c>C </c><c>   5</c></rc>
    <rc><c>C </c><c>   5</c></rc>
    <rc><c>C </c><c>   5</c></rc>
    <rc><c>C </c><c>   5</c></rc>
    <rc><c>C </c><c>   5</c></rc>
    <rc><c>C </c><c>   5</c></rc>
    <rc><c>C </c><c>   5</c></rc>
    <rc><c>C </c><c>   5</c></rc>
    <rc><c>C </c><c>   5</c></rc>
    <rc><c>C </c><c>   5</c></rc>
    <rc><c>C </c><c>   5</c></rc>
    <rc><c>C </c><c>   5</c></rc>
    <rc><c>C </c><c>   5</c></rc>
    <rc><c>Cr</c><c>   6</c></rc>
    <rc><c>Cr</c><c>   6</c></rc>
    <rc><c>Cr</c><c>   6</c></rc>
    <rc><c>Cr</c><c>   6</c></rc>
    <rc><c>Cr</c><c>   6</c></rc>
    <rc><c>Cr</c><c>   6</c></rc>
    <rc><c>Mo</c><c>   7</c></rc>
    <rc><c>Mo</c><c>   7</c></rc>
    <rc><c>Mo</c><c>   7</c></rc>
    <rc><c>Mo</c><c>   7</c></rc>
    <rc><c>Mo</c><c>   7</c></rc>
    <rc><c>Mo</c><c>   7</c></rc>
   </set>
  </array>
  <array name="atomtypes" >
   <dimension dim="1">type</dimension>
   <field type="int">atomspertype</field>
   <field type="string">element</field>
   <field>mass</field>
   <field>valence</field>
   <field type="string">pseudopotential</field>
   <set>
    <rc><c>   7</c><c>Ta</c><c>    180.94800000</c><c>     11.00000000</c><c> PAW_PBE Ta_pv 07Sep2000                </c></rc>
    <rc><c>   6</c><c>W </c><c>    183.85000000</c><c>     12.00000000</c><c> PAW_PBE W_pv 06Sep2000                 </c></rc>
    <rc><c>   7</c><c>Hf</c><c>    178.49000000</c><c>     10.00000000</c><c> PAW_PBE Hf_pv 06Sep2000                </c></rc>
    <rc><c>  13</c><c>N </c><c>     14.00100000</c><c>      5.00000000</c><c> PAW_PBE N 08Apr2002                    </c></rc>
    <rc><c>  19</c><c>C </c><c>     12.01100000</c><c>      4.00000000</c><c> PAW_PBE C 08Apr2002                    </c></rc>
    <rc><c>   6</c><c>Cr</c><c>     51.99600000</c><c>     12.00000000</c><c> PAW_PBE Cr_pv 07Sep2000                </c></rc>
    <rc><c>   6</c><c>Mo</c><c>     95.94000000</c><c>      6.00000000</c><c> PAW_PBE Mo 08Apr2002                   </c></rc>
   </set>
  </array>
 </atominfo>
 <structure name="initialpos" >
  <crystal>
   <varray name="basis" >
    <v>       8.93249989       0.00000000       0.00000000 </v>
    <v>       0.00575300       9.05559834       0.00000000 </v>
    <v>       0.03210180      -0.01574346       8.93712807 </v>
   </varray>
   <i name="volume">    722.91652451 </i>
   <varray name="rec_basis" >
    <v>       0.11195074      -0.00007112      -0.00040225 </v>
    <v>       0.00000000       0.11042893       0.00019453 </v>
    <v>       0.00000000       0.00000000       0.11189277 </v>
   </varray>
  </crystal>
  <varray name="positions" >
   <v>       0.99688001       0.99204997       0.99924002 </v>
   <v>       0.25398003       0.99714995       0.24912000 </v>
   <v>       0.24803003       0.50165000       0.24955001 </v>
   <v>       0.50501006       0.49745998       0.99834003 </v>
   <v>       0.50479003       0.24631001       0.74710002 </v>
   <v>       0.99427992       0.50449999       0.49779000 </v>
   <v>       0.49950005       0.75481999       0.74817004 </v>
   <v>       0.99437004       0.23617001       0.26379999 </v>
   <v>       0.75718000       0.74102998       0.01100000 </v>
   <v>       0.00201000       0.25541000       0.73894001 </v>
   <v>       0.75307001       0.26163001       0.50533002 </v>
   <v>       0.99514004       0.74492004       0.74511997 </v>
   <v>       0.25679999       0.49462002       0.74545002 </v>
   <v>       0.24788999       0.24839000       0.99657997 </v>
   <v>       0.50833000       0.25676999       0.25376001 </v>
   <v>       0.74879004       0.98787999       0.26967001 </v>
   <v>       0.75719000       0.25603001       0.99591997 </v>
   <v>       0.24762001       0.74973999       0.99974006 </v>
   <v>       0.25272001       0.24823001       0.50015003 </v>
   <v>       0.24457999       0.75048999       0.49983999 </v>
   <v>       0.24982001       0.24942998       0.24825000 </v>
   <v>       0.26146999       0.99984002       0.99295996 </v>
   <v>       0.00281000       0.25024000       0.00130000 </v>
   <v>       0.75313998       0.24617000       0.25492002 </v>
   <v>       0.74767001       0.99748000       0.01202000 </v>
   <v>       0.50714994       0.99977000       0.24673000 </v>
   <v>       0.99051999       0.48088002       0.24100998 </v>
   <v>       0.50519005       0.76130999       0.00855000 </v>
   <v>       0.98896989       0.00202000       0.73708999 </v>
   <v>       0.75744996       0.24437997       0.74896999 </v>
   <v>       0.73632001       0.00417000       0.51063000 </v>
   <v>       0.50563996       0.23264999       0.49544997 </v>
   <v>       0.50008998       0.00061000       0.73471998 </v>
   <v>       0.99720000       0.99771992       0.25899999 </v>
   <v>       0.50427997       0.24673000       0.00262000 </v>
   <v>       0.25133999       0.74958002       0.24910999 </v>
   <v>       0.24328000       0.50072997       0.99510994 </v>
   <v>       0.99837005       0.74313996       0.00460000 </v>
   <v>       0.75633000       0.73891003       0.25767000 </v>
   <v>       0.75839004       0.50315998       0.00288000 </v>
   <v>       0.50700002       0.50333002       0.25878999 </v>
   <v>       0.24900999       0.25315000       0.74854000 </v>
   <v>       0.24446000       0.99823996       0.50287998 </v>
   <v>       0.99804009       0.24229999       0.50128003 </v>
   <v>       0.24177002       0.75340997       0.75018002 </v>
   <v>       0.25841001       0.50062002       0.50129001 </v>
   <v>       0.99000004       0.76215003       0.49746000 </v>
   <v>       0.99203996       0.50055999       0.75138002 </v>
   <v>       0.75036005       0.74888000       0.74756004 </v>
   <v>       0.74036002       0.50197000       0.50067003 </v>
   <v>       0.50575006       0.74958002       0.49720000 </v>
   <v>       0.50501003       0.50217998       0.73912003 </v>
   <v>       0.51588997       0.01358000       0.98075008 </v>
   <v>       0.99841994       0.50976998       0.98613004 </v>
   <v>       0.50379003       0.73926997       0.25905001 </v>
   <v>       0.23780002       0.01082000       0.74607998 </v>
   <v>       0.47957999       0.98308000       0.49717999 </v>
   <v>       0.74279003       0.97869994       0.76450995 </v>
   <v>       0.99864998       0.77573999       0.26102000 </v>
   <v>       0.73551001       0.51468004       0.26666001 </v>
   <v>       0.02362000       0.99783001       0.49557002 </v>
   <v>       0.50539000       0.52833005       0.49917999 </v>
   <v>       0.73876003       0.52828003       0.73814999 </v>
   <v>       0.75400003       0.72937999       0.49116997 </v>
  </varray>
 </structure>
 <calculation>
  <scstep>
   <time name="dav">   19.14   19.24</time>
   <time name="total">   19.17   19.28</time>
   <energy>
    <i name="alphaZ">   4027.10130145 </i>
    <i name="ewald"> -34472.54836138 </i>
    <i name="hartreedc">  -6146.41012347 </i>
    <i name="XCdc">   1011.42443323 </i>
    <i name="pawpsdc">  23571.00096242 </i>
    <i name="pawaedc"> -23192.56286254 </i>
    <i name="eentropy">     -0.06030114 </i>
    <i name="bandstr">   1824.83454476 </i>
    <i name="atom">  38322.02367756 </i>
    <i name="e_fr_energy">   4944.80327090 </i>
    <i name="e_wo_entrp">   4944.86357204 </i>
    <i name="e_0_energy">   4944.83342147 </i>
   </energy>
  </scstep>
  <scstep>
   <time name="dav">   20.26   20.29</time>
   <time name="total">   20.26   20.29</time>
   <energy>
    <i name="e_fr_energy">    -13.89217935 </i>
    <i name="e_wo_entrp">    -13.75431781 </i>
    <i name="e_0_energy">    -13.82324858 </i>
   </energy>
  </scstep>
  <scstep>
   <time name="dav">   27.46   27.49</time>
   <time name="total">   27.46   27.49</time>
   <energy>
    <i name="e_fr_energy">   -732.20120069 </i>
    <i name="e_wo_entrp">   -732.05390433 </i>
    <i name="e_0_energy">   -732.12755251 </i>
   </energy>
  </scstep>
  <scstep>
   <time name="dav">   29.31   29.39</time>
   <time name="total">   29.32   29.39</time>
   <energy>
    <i name="e_fr_energy">   -790.17782919 </i>
    <i name="e_wo_entrp">   -790.02893136 </i>
    <i name="e_0_energy">   -790.10338028 </i>
   </energy>
  </scstep>
  <scstep>
   <time name="dav">   29.77   29.90</time>
   <time name="total">   30.02   30.15</time>
   <energy>
    <i name="e_fr_energy">   -792.93022596 </i>
    <i name="e_wo_entrp">   -792.77762329 </i>
    <i name="e_0_energy">   -792.85392462 </i>
   </energy>
  </scstep>
  <scstep>
   <time name="diag">    1.58    1.58</time>
   <time name="diis">   17.36   17.44</time>
   <time name="orth">    0.37    0.37</time>
   <time name="total">   19.58   19.66</time>
   <energy>
    <i name="e_fr_energy">   -976.32991096 </i>
    <i name="e_wo_entrp">   -976.17710533 </i>
    <i name="e_0_energy">   -976.25350815 </i>
   </energy>
  </scstep>
  <scstep>
   <time name="diag">    1.59    1.62</time>
   <time name="diis">   17.78   17.88</time>
   <time name="orth">    0.36    0.36</time>
   <time name="total">   20.01   20.13</time>
   <energy>
    <i name="e_fr_energy">   -666.82229517 </i>
    <i name="e_wo_entrp">   -666.67730144 </i>
    <i name="e_0_energy">   -666.74979830 </i>
   </energy>
  </scstep>
  <scstep>
   <time name="diag">    1.59    1.59</time>
   <time name="diis">   18.99   19.07</time>
   <time name="orth">    0.36    0.36</time>
   <time name="total">   21.21   21.30</time>
   <energy>
    <i name="e_fr_energy">   -673.30898427 </i>
    <i name="e_wo_entrp">   -673.14932930 </i>
    <i name="e_0_energy">   -673.22915678 </i>
   </energy>
  </scstep>
  <scstep>
   <time name="diag">    1.58    1.58</time>
   <time name="diis">   16.34   16.38</time>
   <time name="orth">    0.36    0.36</time>
   <time name="total">   18.56   18.61</time>
   <energy>
    <i name="e_fr_energy">   -666.69315768 </i>
    <i name="e_wo_entrp">   -666.51585291 </i>
    <i name="e_0_energy">   -666.60450529 </i>
   </energy>
  </scstep>
  <scstep>
   <time name="diag">    1.61    1.62</time>
   <time name="diis">   17.42   17.46</time>
   <time name="orth">    0.37    0.37</time>
   <time name="total">   19.67   19.72</time>
   <energy>
    <i name="e_fr_energy">   -659.93307104 </i>
    <i name="e_wo_entrp">   -659.71509637 </i>
    <i name="e_0_energy">   -659.82408370 </i>
   </energy>
  </scstep>
  <scstep>
   <time name="diag">    1.70    1.73</time>
   <time name="diis">   16.95   17.00</time>
   <time name="orth">    0.36    0.37</time>
   <time name="total">   19.30   19.38</time>
   <energy>
    <i name="e_fr_energy">   -661.68756010 </i>
    <i name="e_wo_entrp">   -661.48625962 </i>
    <i name="e_0_energy">   -661.58690986 </i>
   </energy>
  </scstep>
  <scstep>
   <time name="diag">    1.58    1.58</time>
   <time name="diis">   16.37   16.39</time>
   <time name="orth">    0.36    0.36</time>
   <time name="total">   18.58   18.61</time>
   <energy>
    <i name="e_fr_energy">   -659.21002580 </i>
    <i name="e_wo_entrp">   -658.97022103 </i>
    <i name="e_0_energy">   -659.09012341 </i>
   </energy>
  </scstep>
  <scstep>
   <time name="diag">    1.59    1.59</time>
   <time name="diis">   16.92   16.97</time>
   <time name="orth">    0.36    0.37</time>
   <time name="total">   19.15   19.21</time>
   <energy>
    <i name="e_fr_energy">   -660.03771894 </i>
    <i name="e_wo_entrp">   -659.82962631 </i>
    <i name="e_0_energy">   -659.93367263 </i>
   </energy>
  </scstep>
  <scstep>
   <time name="diag">    1.57    1.57</time>
   <time name="diis">   16.63   16.65</time>
   <time name="orth">    0.36    0.36</time>
   <time name="total">   18.84   18.86</time>
   <energy>
    <i name="e_fr_energy">   -659.04627819 </i>
    <i name="e_wo_entrp">   -658.81416604 </i>
    <i name="e_0_energy">   -658.93022212 </i>
   </energy>
  </scstep>
  <scstep>
   <time name="diag">    1.58    1.58</time>
   <time name="diis">   16.71   16.73</time>
   <time name="orth">    0.36    0.36</time>
   <time name="total">   18.93   18.95</time>
   <energy>
    <i name="e_fr_energy">   -659.21218916 </i>
    <i name="e_wo_entrp">   -658.97694155 </i>
    <i name="e_0_energy">   -659.09456535 </i>
   </energy>
  </scstep>
  <scstep>
   <time name="diag">    1.59    1.59</time>
   <time name="diis">   17.88   17.90</time>
   <time name="orth">    0.36    0.36</time>
   <time name="total">   20.11   20.14</time>
   <energy>
    <i name="e_fr_energy">   -658.73163695 </i>
    <i name="e_wo_entrp">   -658.49450065 </i>
    <i name="e_0_energy">   -658.61306880 </i>
   </energy>
  </scstep>
  <scstep>
   <time name="diag">    1.58    1.60</time>
   <time name="diis">   18.61   18.67</time>
   <time name="orth">    0.36    0.36</time>
   <time name="total">   20.84   20.91</time>
   <energy>
    <i name="e_fr_energy">   -658.64758778 </i>
    <i name="e_wo_entrp">   -658.40572846 </i>
    <i name="e_0_energy">   -658.52665812 </i>
   </energy>
  </scstep>
  <scstep>
   <time name="diag">    1.58    1.58</time>
   <time name="diis">   17.76   17.77</time>
   <time name="orth">    0.36    0.36</time>
   <time name="total">   19.97   19.99</time>
   <energy>
    <i name="e_fr_energy">   -658.65410196 </i>
    <i name="e_wo_entrp">   -658.41322907 </i>
    <i name="e_0_energy">   -658.53366552 </i>
   </energy>
  </scstep>
  <scstep>
   <time name="diag">    1.60    1.60</time>
   <time name="diis">   18.08   18.10</time>
   <time name="orth">    0.36    0.36</time>
   <time name="total">   20.32   20.34</time>
   <energy>
    <i name="e_fr_energy">   -658.64590253 </i>
    <i name="e_wo_entrp">   -658.40472408 </i>
    <i name="e_0_energy">   -658.52531330 </i>
   </energy>
  </scstep>
  <scstep>
   <time name="diag">    1.57    1.57</time>
   <time name="diis">   17.85   17.92</time>
   <time name="orth">    0.36    0.36</time>
   <time name="total">   20.05   20.14</time>
   <energy>
    <i name="e_fr_energy">   -658.64276347 </i>
    <i name="e_wo_entrp">   -658.40173306 </i>
    <i name="e_0_energy">   -658.52224827 </i>
   </energy>
  </scstep>
  <scstep>
   <time name="diag">    1.57    1.57</time>
   <time name="diis">   17.92   17.96</time>
   <time name="orth">    0.36    0.36</time>
   <time name="total">   20.12   20.16</time>
   <energy>
    <i name="e_fr_energy">   -658.64400934 </i>
    <i name="e_wo_entrp">   -658.40295553 </i>
    <i name="e_0_energy">   -658.52348243 </i>
   </energy>
  </scstep>
  <scstep>
   <time name="diag">    1.58    1.58</time>
   <time name="diis">   17.76   17.78</time>
   <time name="orth">    0.37    0.38</time>
   <time name="total">   19.98   20.01</time>
   <energy>
    <i name="e_fr_energy">   -658.64401854 </i>
    <i name="e_wo_entrp">   -658.40295133 </i>
    <i name="e_0_energy">   -658.52348494 </i>
   </energy>
  </scstep>
  <scstep>
   <time name="diag">    1.58    1.58</time>
   <time name="diis">   15.31   15.35</time>
   <time name="orth">    0.36    0.36</time>
   <time name="total">   17.53   17.57</time>
   <energy>
    <i name="e_fr_energy">   -658.64412035 </i>
    <i name="e_wo_entrp">   -658.40296248 </i>
    <i name="e_0_energy">   -658.52354142 </i>
   </energy>
  </scstep>
  <scstep>
   <time name="diag">    1.57    1.57</time>
   <time name="diis">   12.30   12.32</time>
   <time name="orth">    0.36    0.36</time>
   <time name="total">   14.51   14.53</time>
   <energy>
    <i name="e_fr_energy">   -658.64419817 </i>
    <i name="e_wo_entrp">   -658.40307057 </i>
    <i name="e_0_energy">   -658.52363437 </i>
   </energy>
  </scstep>
  <scstep>
   <time name="diag">    1.57    1.57</time>
   <time name="diis">   10.82   10.83</time>
   <time name="orth">    0.37    0.37</time>
   <time name="total">   13.04   13.06</time>
   <energy>
    <i name="e_fr_energy">   -658.64423514 </i>
    <i name="e_wo_entrp">   -658.40311065 </i>
    <i name="e_0_energy">   -658.52367290 </i>
   </energy>
  </scstep>
  <scstep>
   <time name="diag">    1.58    1.58</time>
   <time name="diis">   10.20   10.21</time>
   <time name="orth">    0.36    0.36</time>
   <time name="total">   12.42   12.43</time>
   <energy>
    <i name="e_fr_energy">   -658.64425522 </i>
    <i name="e_wo_entrp">   -658.40313572 </i>
    <i name="e_0_energy">   -658.52369547 </i>
   </energy>
  </scstep>
  <scstep>
   <time name="diag">    1.61    1.63</time>
   <time name="diis">    9.78    9.82</time>
   <time name="orth">    0.37    0.37</time>
   <time name="total">   12.03   12.09</time>
   <energy>
    <i name="e_fr_energy">   -658.64426527 </i>
    <i name="e_wo_entrp">   -658.40314172 </i>
    <i name="e_0_energy">   -658.52370350 </i>
   </energy>
  </scstep>
  <scstep>
   <time name="diag">    1.59    1.59</time>
   <time name="diis">    9.63    9.66</time>
   <time name="orth">    0.37    0.37</time>
   <time name="total">   11.62   11.65</time>
   <energy>
    <i name="alphaZ">   4027.10130145 </i>
    <i name="ewald"> -34472.54836138 </i>
    <i name="hartreedc">  -5780.02586179 </i>
    <i name="XCdc">   1010.44101101 </i>
    <i name="pawpsdc">  25082.08053265 </i>
    <i name="pawaedc"> -24772.72912535 </i>
    <i name="eentropy">     -0.24112277 </i>
    <i name="bandstr">  -4074.74632181 </i>
    <i name="atom">  38322.02367756 </i>
    <i name="e_fr_energy">   -658.64427043 </i>
    <i name="e_wo_entrp">   -658.40314766 </i>
    <i name="e_0_energy">   -658.52370905 </i>
   </energy>
  </scstep>
  <structure>
   <crystal>
    <varray name="basis" >
     <v>       8.93249989       0.00000000       0.00000000 </v>
     <v>       0.00575300       9.05559834       0.00000000 </v>
     <v>       0.03210180      -0.01574346       8.93712807 </v>
    </varray>
    <i name="volume">    722.91652451 </i>
    <varray name="rec_basis" >
     <v>       0.11195074      -0.00007112      -0.00040225 </v>
     <v>       0.00000000       0.11042893       0.00019453 </v>
     <v>       0.00000000       0.00000000       0.11189277 </v>
    </varray>
   </crystal>
   <varray name="positions" >
    <v>       0.99688001       0.99204997       0.99924002 </v>
    <v>       0.25398003       0.99714995       0.24912000 </v>
    <v>       0.24803003       0.50165000       0.24955001 </v>
    <v>       0.50501006       0.49745998       0.99834003 </v>
    <v>       0.50479003       0.24631001       0.74710002 </v>
    <v>       0.99427992       0.50449999       0.49779000 </v>
    <v>       0.49950005       0.75481999       0.74817004 </v>
    <v>       0.99437004       0.23617001       0.26379999 </v>
    <v>       0.75718000       0.74102998       0.01100000 </v>
    <v>       0.00201000       0.25541000       0.73894001 </v>
    <v>       0.75307001       0.26163001       0.50533002 </v>
    <v>       0.99514004       0.74492004       0.74511997 </v>
    <v>       0.25679999       0.49462002       0.74545002 </v>
    <v>       0.24788999       0.24839000       0.99657997 </v>
    <v>       0.50833000       0.25676999       0.25376001 </v>
    <v>       0.74879004       0.98787999       0.26967001 </v>
    <v>       0.75719000       0.25603001       0.99591997 </v>
    <v>       0.24762001       0.74973999       0.99974006 </v>
    <v>       0.25272001       0.24823001       0.50015003 </v>
    <v>       0.24457999       0.75048999       0.49983999 </v>
    <v>       0.24982001       0.24942998       0.24825000 </v>
    <v>       0.26146999       0.99984002       0.99295996 </v>
    <v>       0.00281000       0.25024000       0.00130000 </v>
    <v>       0.75313998       0.24617000       0.25492002 </v>
    <v>       0.74767001       0.99748000       0.01202000 </v>
    <v>       0.50714994       0.99977000       0.24673000 </v>
    <v>       0.99051999       0.48088002       0.24100998 </v>
    <v>       0.50519005       0.76130999       0.00855000 </v>
    <v>       0.98896989       0.00202000       0.73708999 </v>
    <v>       0.75744996       0.24437997       0.74896999 </v>
    <v>       0.73632001       0.00417000       0.51063000 </v>
    <v>       0.50563996       0.23264999       0.49544997 </v>
    <v>       0.50008998       0.00061000       0.73471998 </v>
    <v>       0.99720000       0.99771992       0.25899999 </v>
    <v>       0.50427997       0.24673000       0.00262000 </v>
    <v>       0.25133999       0.74958002       0.24910999 </v>
    <v>       0.24328000       0.50072997       0.99510994 </v>
    <v>       0.99837005       0.74313996       0.00460000 </v>
    <v>       0.75633000       0.73891003       0.25767000 </v>
    <v>       0.75839004       0.50315998       0.00288000 </v>
    <v>       0.50700002       0.50333002       0.25878999 </v>
    <v>       0.24900999       0.25315000       0.74854000 </v>
    <v>       0.24446000       0.99823996       0.50287998 </v>
    <v>       0.99804009       0.24229999       0.50128003 </v>
    <v>       0.24177002       0.75340997       0.75018002 </v>
    <v>       0.25841001       0.50062002       0.50129001 </v>
    <v>       0.99000004       0.76215003       0.49746000 </v>
    <v>       0.99203996       0.50055999       0.75138002 </v>
    <v>       0.75036005       0.74888000       0.74756004 </v>
    <v>       0.74036002       0.50197000       0.50067003 </v>
    <v>       0.50575006       0.74958002       0.49720000 </v>
    <v>       0.50501003       0.50217998       0.73912003 </v>
    <v>       0.51588997       0.01358000       0.98075008 </v>
    <v>       0.99841994       0.50976998       0.98613004 </v>
    <v>       0.50379003       0.73926997       0.25905001 </v>
    <v>       0.23780002       0.01082000       0.74607998 </v>
    <v>       0.47957999       0.98308000       0.49717999 </v>
    <v>       0.74279003       0.97869994       0.76450995 </v>
    <v>       0.99864998       0.77573999       0.26102000 </v>
    <v>       0.73551001       0.51468004       0.26666001 </v>
    <v>       0.02362000       0.99783001       0.49557002 </v>
    <v>       0.50539000       0.52833005       0.49917999 </v>
    <v>       0.73876003       0.52828003       0.73814999 </v>
    <v>       0.75400003       0.72937999       0.49116997 </v>
   </varray>
  </structure>
  <varray name="forces" >
   <v>      -0.20651893      -0.22775945      -0.63619412 </v>
   <v>       0.26214659      -0.85089339      -0.04935254 </v>
   <v>       0.42687342       0.97709620      -0.40845161 </v>
   <v>      -0.04671137      -0.43988730      -0.14652106 </v>
   <v>      -0.48798697      -0.67092064       0.41744001 </v>
   <v>       0.05664991      -0.80156880       0.55824376 </v>
   <v>      -0.25602679       1.01446248       0.02115185 </v>
   <v>       0.19121849      -0.56173699       0.50416066 </v>
   <v>       0.58494761      -0.31116060      -0.15558234 </v>
   <v>       1.35094880       0.51836183      -0.90160301 </v>
   <v>       0.38675991       0.00170622       0.34013110 </v>
   <v>       0.42712155      -0.44809517       0.42098052 </v>
   <v>      -0.13584078       0.46174955       0.78757606 </v>
   <v>       0.12047264      -0.04691458      -0.14509074 </v>
   <v>      -0.06332478      -1.07633509      -0.12914918 </v>
   <v>      -1.37563534       0.66014460      -0.07108695 </v>
   <v>      -0.24358365      -0.23153048      -0.44252330 </v>
   <v>       0.48278019       0.26521301      -0.14683086 </v>
   <v>       0.43045287       0.15508530       0.25246464 </v>
   <v>       0.58375591       0.02935349       0.10985733 </v>
   <v>       0.14003366      -0.04440712       0.14740918 </v>
   <v>      -0.75243180       0.07944406       0.56019259 </v>
   <v>      -0.12253141      -0.61887421       0.17492053 </v>
   <v>       0.13939080      -0.18431388      -0.07729521 </v>
   <v>       0.44793862      -0.22669452      -0.84450631 </v>
   <v>      -1.16680223      -0.00799785       0.22584312 </v>
   <v>       0.96252579      -0.51070845       0.66421526 </v>
   <v>       0.15343369      -0.57473541      -0.69450529 </v>
   <v>      -0.26703528       0.18485344       1.30181517 </v>
   <v>      -0.42347706      -0.35080644      -0.09507265 </v>
   <v>       0.03166881       0.40944283       0.01062783 </v>
   <v>      -0.06989257      -0.19518312       0.73237918 </v>
   <v>       0.57117938       0.08789690       0.64579174 </v>
   <v>       0.74188512       1.06839334      -1.57113700 </v>
   <v>      -0.05671207       0.54551004      -0.83954283 </v>
   <v>       0.45371608       0.01980091       0.06153997 </v>
   <v>       0.47160942      -0.24244172       0.35142962 </v>
   <v>      -0.52852550       0.12489295      -0.34929119 </v>
   <v>      -0.94280814       0.63152422      -1.50981579 </v>
   <v>      -0.22731802       0.48196119       0.02988269 </v>
   <v>      -1.86547255       0.63946226      -1.22930378 </v>
   <v>       0.24516455      -0.59645307      -0.03348558 </v>
   <v>       2.01805634       0.02386623       0.30709574 </v>
   <v>      -0.40491243       0.85248466       0.18594971 </v>
   <v>       0.58926999       0.02494610       0.00083405 </v>
   <v>      -1.22036398      -0.20952297      -0.43954120 </v>
   <v>       0.65321278      -1.23725904       1.07411753 </v>
   <v>       0.40103939      -0.22503995       0.01564430 </v>
   <v>      -0.31017277       1.79903549       0.64243325 </v>
   <v>       1.28444722      -1.33558713       0.50930693 </v>
   <v>      -0.57677672       1.54188755      -0.16575936 </v>
   <v>      -1.06778897      -0.46139613       1.20949048 </v>
   <v>       0.34679533       0.67288725      -0.70721226 </v>
   <v>      -0.29584949       1.47351525      -0.93841876 </v>
   <v>       0.28107361      -0.80958383       0.32386879 </v>
   <v>      -0.50198766      -0.07950968       0.05437552 </v>
   <v>      -0.53801648      -0.20472953       0.12535764 </v>
   <v>      -0.60648665      -0.91888329       0.25783247 </v>
   <v>       0.32882666      -0.07535087      -0.59852557 </v>
   <v>       0.06909008      -0.13435996      -1.35691169 </v>
   <v>      -0.77647483       0.21993988       0.31342458 </v>
   <v>      -0.63571538      -0.25200016      -0.36344818 </v>
   <v>       0.26093104      -0.83796487       1.27052804 </v>
   <v>       0.27776436       1.03568844       0.43784653 </v>
  </varray>
  <varray name="stress" >
   <v>    -146.74315196      -2.36727098      -1.40742189 </v>
   <v>      -2.36726919    -158.13206486       0.61991993 </v>
   <v>      -1.40742172       0.61991992    -141.25741753 </v>
  </varray>
  <energy>
   <i name="e_fr_energy">   -658.64427043 </i>
   <i name="e_wo_entrp">   -658.52370905 </i>
   <i name="e_0_energy">     -0.24112277 </i>
  </energy>
  <time name="totalsc">  583.35  584.90</time>
 </calculation>
 <calculation>
  <scstep>
   <time name="dav">   25.94   26.01</time>
   <time name="total">   26.21   26.28</time>
   <energy>
    <i name="alphaZ">   4705.66316103 </i>
    <i name="ewald"> -36139.06735279 </i>
    <i name="hartreedc">  -6249.62065279 </i>
    <i name="XCdc">   1096.75684989 </i>
    <i name="pawpsdc">  25082.00107478 </i>
    <i name="pawaedc"> -24772.64988034 </i>
    <i name="eentropy">     -0.12199606 </i>
    <i name="bandstr">  -2765.60228060 </i>
    <i name="atom">  38322.02367756 </i>
    <i name="e_fr_energy">   -720.61739933 </i>
    <i name="e_wo_entrp">   -720.49540327 </i>
    <i name="e_0_energy">   -720.55640130 </i>
   </energy>
  </scstep>
  <scstep>
   <time name="diag">    1.59    1.61</time>
   <time name="diis">   15.92   15.94</time>
   <time name="orth">    0.36    0.36</time>
   <time name="total">   18.13   18.18</time>
   <energy>
    <i name="e_fr_energy">   -909.67734687 </i>
    <i name="e_wo_entrp">   -909.56446296 </i>
    <i name="e_0_energy">   -909.62090491 </i>
   </energy>
  </scstep>
  <scstep>
   <time name="diag">    1.58    1.58</time>
   <time name="diis">   16.15   16.17</time>
   <time name="orth">    0.37    0.37</time>
   <time name="total">   18.36   18.38</time>
   <energy>
    <i name="e_fr_energy">   -662.47681249 </i>
    <i name="e_wo_entrp">   -662.32746774 </i>
    <i name="e_0_energy">   -662.40214011 </i>
   </energy>
  </scstep>
  <scstep>
   <time name="diag">    1.59    1.59</time>
   <time name="diis">   17.02   17.04</time>
   <time name="orth">    0.37    0.37</time>
   <time name="total">   19.25   19.27</time>
   <energy>
    <i name="e_fr_energy">   -667.20476887 </i>
    <i name="e_wo_entrp">   -667.07715596 </i>
    <i name="e_0_energy">   -667.14096242 </i>
   </energy>
  </scstep>
  <scstep>
   <time name="diag">    1.57    1.57</time>
   <time name="diis">   15.10   15.12</time>
   <time name="orth">    0.36    0.36</time>
   <time name="total">   17.31   17.33</time>
   <energy>
    <i name="e_fr_energy">   -661.40252373 </i>
    <i name="e_wo_entrp">   -661.25464645 </i>
    <i name="e_0_energy">   -661.32858509 </i>
   </energy>
  </scstep>
  <scstep>
   <time name="diag">    1.58    1.58</time>
   <time name="diis">   17.24   17.27</time>
   <time name="orth">    0.36    0.36</time>
   <time name="total">   19.46   19.49</time>
   <energy>
    <i name="e_fr_energy">   -657.55628504 </i>
    <i name="e_wo_entrp">   -657.40701772 </i>
    <i name="e_0_energy">   -657.48165138 </i>
   </energy>
  </scstep>
  <scstep>
   <time name="diag">    1.58    1.58</time>
   <time name="diis">   15.84   15.87</time>
   <time name="orth">    0.36    0.36</time>
   <time name="total">   18.05   18.09</time>
   <energy>
    <i name="e_fr_energy">   -657.26168991 </i>
    <i name="e_wo_entrp">   -657.10750090 </i>
    <i name="e_0_energy">   -657.18459540 </i>
   </energy>
  </scstep>
  <scstep>
   <time name="diag">    1.58    1.58</time>
   <time name="diis">   16.52   16.56</time>
   <time name="orth">    0.36    0.36</time>
   <time name="total">   18.73   18.78</time>
   <energy>
    <i name="e_fr_energy">   -655.80741973 </i>
    <i name="e_wo_entrp">   -655.63729121 </i>
    <i name="e_0_energy">   -655.72235547 </i>
   </energy>
  </scstep>
  <scstep>
   <time name="diag">    1.57    1.57</time>
   <time name="diis">   16.68   16.70</time>
   <time name="orth">    0.36    0.36</time>
   <time name="total">   18.89   18.91</time>
   <energy>
    <i name="e_fr_energy">   -655.53625795 </i>
    <i name="e_wo_entrp">   -655.37454403 </i>
    <i name="e_0_energy">   -655.45540099 </i>
   </energy>
  </scstep>
  <scstep>
   <time name="diag">    1.62    1.62</time>
   <time name="diis">   17.83   17.87</time>
   <time name="orth">    0.36    0.36</time>
   <time name="total">   20.09   20.13</time>
   <energy>
    <i name="e_fr_energy">   -655.44772403 </i>
    <i name="e_wo_entrp">   -655.27784480 </i>
    <i name="e_0_energy">   -655.36278442 </i>
   </energy>
  </scstep>
  <scstep>
   <time name="diag">    1.57    1.58</time>
   <time name="diis">   16.09   16.11</time>
   <time name="orth">    0.36    0.36</time>
   <time name="total">   18.30   18.32</time>
   <energy>
    <i name="e_fr_energy">   -655.48124744 </i>
    <i name="e_wo_entrp">   -655.31006314 </i>
    <i name="e_0_energy">   -655.39565529 </i>
   </energy>
  </scstep>
  <scstep>
   <time name="diag">    1.57    1.57</time>
   <time name="diis">   16.03   16.07</time>
   <time name="orth">    0.36    0.36</time>
   <time name="total">   18.24   18.28</time>
   <energy>
    <i name="e_fr_energy">   -655.40380311 </i>
    <i name="e_wo_entrp">   -655.23538230 </i>
    <i name="e_0_energy">   -655.31959270 </i>
   </energy>
  </scstep>
  <scstep>
   <time name="diag">    1.58    1.58</time>
   <time name="diis">   16.08   16.12</time>
   <time name="orth">    0.39    0.39</time>
   <time name="total">   18.32   18.37</time>
   <energy>
    <i name="e_fr_energy">   -655.42916620 </i>
    <i name="e_wo_entrp">   -655.25688180 </i>
    <i name="e_0_energy">   -655.34302400 </i>
   </energy>
  </scstep>
  <scstep>
   <time name="diag">    1.57    1.57</time>
   <time name="diis">   16.00   16.04</time>
   <time name="orth">    0.37    0.37</time>
   <time name="total">   18.21   18.26</time>
   <energy>
    <i name="e_fr_energy">   -655.40205042 </i>
    <i name="e_wo_entrp">   -655.23256962 </i>
    <i name="e_0_energy">   -655.31731002 </i>
   </energy>
  </scstep>
  <scstep>
   <time name="diag">    1.58    1.59</time>
   <time name="diis">   17.96   18.54</time>
   <time name="orth">    0.84    0.88</time>
   <time name="total">   20.73   21.36</time>
   <energy>
    <i name="e_fr_energy">   -655.40127837 </i>
    <i name="e_wo_entrp">   -655.23095821 </i>
    <i name="e_0_energy">   -655.31611829 </i>
   </energy>
  </scstep>
  <scstep>
   <time name="diag">    1.68    1.71</time>
   <time name="diis">   17.31   17.77</time>
   <time name="orth">    0.36    0.36</time>
   <time name="total">   19.70   20.21</time>
   <energy>
    <i name="e_fr_energy">   -655.40142363 </i>
    <i name="e_wo_entrp">   -655.23108036 </i>
    <i name="e_0_energy">   -655.31625200 </i>
   </energy>
  </scstep>
  <scstep>
   <time name="diag">    1.56    1.57</time>
   <time name="diis">   16.80   16.85</time>
   <time name="orth">    0.36    0.36</time>
   <time name="total">   19.00   19.06</time>
   <energy>
    <i name="e_fr_energy">   -655.40150809 </i>
    <i name="e_wo_entrp">   -655.23128440 </i>
    <i name="e_0_energy">   -655.31639624 </i>
   </energy>
  </scstep>
  <scstep>
   <time name="diag">    1.57    1.58</time>
   <time name="diis">   13.48   13.50</time>
   <time name="orth">    0.36    0.36</time>
   <time name="total">   15.69   15.71</time>
   <energy>
    <i name="e_fr_energy">   -655.40153559 </i>
    <i name="e_wo_entrp">   -655.23127955 </i>
    <i name="e_0_energy">   -655.31640757 </i>
   </energy>
  </scstep>
  <scstep>
   <time name="diag">    1.57    1.57</time>
   <time name="diis">   11.85   11.85</time>
   <time name="orth">    0.36    0.36</time>
   <time name="total">   14.06   14.07</time>
   <energy>
    <i name="e_fr_energy">   -655.40154058 </i>
    <i name="e_wo_entrp">   -655.23131472 </i>
    <i name="e_0_energy">   -655.31642765 </i>
   </energy>
  </scstep>
  <scstep>
   <time name="diag">    1.57    1.57</time>
   <time name="diis">   10.45   10.50</time>
   <time name="orth">    0.37    0.37</time>
   <time name="total">   12.69   12.76</time>
   <energy>
    <i name="e_fr_energy">   -655.40154970 </i>
    <i name="e_wo_entrp">   -655.23131550 </i>
    <i name="e_0_energy">   -655.31643260 </i>
   </energy>
  </scstep>
  <scstep>
   <time name="diag">    1.62    1.62</time>
   <time name="diis">    9.52    9.52</time>
   <time name="orth">    0.36    0.36</time>
   <time name="total">   11.53   11.54</time>
   <energy>
    <i name="alphaZ">   4705.66316103 </i>
    <i name="ewald"> -36139.06735279 </i>
    <i name="hartreedc">  -5443.55046663 </i>
    <i name="XCdc">   1051.47497593 </i>
    <i name="pawpsdc">  26969.69642227 </i>
    <i name="pawaedc"> -26679.32469051 </i>
    <i name="eentropy">     -0.17022258 </i>
    <i name="bandstr">  -3442.14705615 </i>
    <i name="atom">  38322.02367756 </i>
    <i name="e_fr_energy">   -655.40155187 </i>
    <i name="e_wo_entrp">   -655.23132929 </i>
    <i name="e_0_energy">   -655.31644058 </i>
   </energy>
  </scstep>
  <structure>
   <crystal>
    <varray name="basis" >
     <v>       8.48667978      -0.00719200      -0.00427589 </v>
     <v>      -0.00182524       8.56855230       0.00190658 </v>
     <v>       0.02623418      -0.01303822       8.50773312 </v>
    </varray>
    <i name="volume">    618.67115794 </i>
    <varray name="rec_basis" >
     <v>       0.11783155       0.00002518      -0.00036330 </v>
     <v>       0.00009899       0.11670581       0.00017855 </v>
     <v>       0.00005920      -0.00002614       0.11753990 </v>
    </varray>
   </crystal>
   <varray name="positions" >
    <v>       0.99577777       0.99083063       0.99580584 </v>
    <v>       0.25539971       0.99261646       0.24885359 </v>
    <v>       0.25034006       0.50685154       0.24734518 </v>
    <v>       0.50476214       0.49511516       0.99754911 </v>
    <v>       0.50214871       0.24273968       0.74935336 </v>
    <v>       0.99457779       0.50023496       0.50080340 </v>
    <v>       0.49811341       0.76022462       0.74828422 </v>
    <v>       0.99539491       0.23318216       0.26652145 </v>
    <v>       0.76034327       0.73937084       0.01016017 </v>
    <v>       0.00932192       0.25816305       0.73407316 </v>
    <v>       0.75515222       0.26164229       0.50716605 </v>
    <v>       0.99744021       0.74253681       0.74739243 </v>
    <v>       0.25604948       0.49708733       0.74970136 </v>
    <v>       0.24854362       0.24813870       0.99579677 </v>
    <v>       0.50799420       0.25103473       0.25306286 </v>
    <v>       0.74135962       0.99139617       0.26928628 </v>
    <v>       0.75588383       0.25479240       0.99353123 </v>
    <v>       0.25022935       0.75115151       0.99894746 </v>
    <v>       0.25503936       0.24905858       0.50151284 </v>
    <v>       0.24773051       0.75064739       0.50043300 </v>
    <v>       0.25057360       0.24919479       0.24904571 </v>
    <v>       0.25739511       0.00026851       0.99598388 </v>
    <v>       0.00214696       0.24694466       0.00224422 </v>
    <v>       0.75389494       0.24518736       0.25450278 </v>
    <v>       0.75010641       0.99626438       0.00746135 </v>
    <v>       0.50084392       0.99972951       0.24794910 </v>
    <v>       0.99570727       0.47816552       0.24459542 </v>
    <v>       0.50603417       0.75824164       0.00480106 </v>
    <v>       0.98750179       0.00301700       0.74411720 </v>
    <v>       0.75516589       0.24251020       0.74845679 </v>
    <v>       0.73648944       0.00635136       0.51068737 </v>
    <v>       0.50524894       0.23161704       0.49940336 </v>
    <v>       0.50316197       0.00108432       0.73820597 </v>
    <v>       0.00123360       0.00339692       0.25051899 </v>
    <v>       0.50398810       0.24962826      -0.00191186 </v>
    <v>       0.25378916       0.74968608       0.24944218 </v>
    <v>       0.24582108       0.49944169       0.99700696 </v>
    <v>       0.99552194       0.74380204       0.00271452 </v>
    <v>       0.75126521       0.74226023       0.24952000 </v>
    <v>       0.75716011       0.50572785       0.00304131 </v>
    <v>       0.49694663       0.50672514       0.25215420 </v>
    <v>       0.25033677       0.24997215       0.74835925 </v>
    <v>       0.25535308       0.99836999       0.50453768 </v>
    <v>       0.99584670       0.24684325       0.50228379 </v>
    <v>       0.24495245       0.75354288       0.75018452 </v>
    <v>       0.25182831       0.49949968       0.49891736 </v>
    <v>       0.99351131       0.75556875       0.50325809 </v>
    <v>       0.99420636       0.49936127       0.75146447 </v>
    <v>       0.74866623       0.75847018       0.75102790 </v>
    <v>       0.74729176       0.49485960       0.50341927 </v>
    <v>       0.50263293       0.75779269       0.49630523 </v>
    <v>       0.49922123       0.49973330       0.74564886 </v>
    <v>       0.51777436       0.01715809       0.97693254 </v>
    <v>       0.99683527       0.51761116       0.98106445 </v>
    <v>       0.50530455       0.73496004       0.26079826 </v>
    <v>       0.23508810       0.01039693       0.74637350 </v>
    <v>       0.47667254       0.98199051       0.49785668 </v>
    <v>       0.73951266       0.97380711       0.76590173 </v>
    <v>       0.00043778       0.77533295       0.25778915 </v>
    <v>       0.73590994       0.51395152       0.25933540 </v>
    <v>       0.01941958       0.99900466       0.49726189 </v>
    <v>       0.50196454       0.52698414       0.49721810 </v>
    <v>       0.74014749       0.52382779       0.74500831 </v>
    <v>       0.75548813       0.73490161       0.49353347 </v>
   </varray>
  </structure>
  <varray name="forces" >
   <v>       0.48036457       0.36501051      -0.96112356 </v>
   <v>       0.24934591       0.16448281       0.12607534 </v>
   <v>      -0.39825720      -0.10860151      -0.52504656 </v>
   <v>      -0.41768803       0.12482212       0.11327414 </v>
   <v>      -0.48522399      -0.27197193       0.00505467 </v>
   <v>       0.94769863      -0.24530128      -0.24999400 </v>
   <v>      -0.23524475       0.33976019       0.12287069 </v>
   <v>       0.43347918       0.80983420      -0.71931733 </v>
   <v>      -0.73095979       1.16209391      -0.73112313 </v>
   <v>       0.49070179      -0.32725217       1.31643287 </v>
   <v>      -0.69541184      -1.06700696      -0.12435604 </v>
   <v>       0.39749153       0.23276178       0.91245329 </v>
   <v>      -0.87806252       0.58524161       0.62271509 </v>
   <v>       0.00943381      -0.26246210       0.45127547 </v>
   <v>      -0.71508741      -0.02528267      -0.26256383 </v>
   <v>       0.22221636       0.25081117      -0.74581296 </v>
   <v>      -0.02778419      -0.41223715      -0.07660988 </v>
   <v>       0.47232781       0.30508654      -0.01583053 </v>
   <v>       0.23647758      -0.02807976      -0.42757893 </v>
   <v>       0.01205404       0.01237115       0.05222118 </v>
   <v>      -0.00572197      -0.00726463       0.05102738 </v>
   <v>       0.03209543       0.00736350      -0.02195372 </v>
   <v>      -0.03323491      -0.03349790       0.20229916 </v>
   <v>       0.04394857       0.22020485      -0.32644850 </v>
   <v>      -0.48598484      -0.07098622      -0.69275575 </v>
   <v>      -0.70906598      -0.56455364      -0.36922783 </v>
   <v>       0.27981785       0.65690820      -0.09970425 </v>
   <v>       0.05478347       0.17354859      -0.21163029 </v>
   <v>      -0.33564945       0.14269597       0.53406572 </v>
   <v>       0.09994263      -0.21989240      -0.08396929 </v>
   <v>       0.39417319      -0.27166423       1.04652125 </v>
   <v>       0.20328550       0.17808162       0.31498811 </v>
   <v>       0.28105761      -0.04112911       0.49325472 </v>
   <v>      -0.33987213      -0.17167468      -0.77893624 </v>
   <v>      -0.17760799      -0.09699118       0.14576582 </v>
   <v>       0.82391830       0.03377602      -0.04498472 </v>
   <v>      -0.36512577       0.09712335       0.26392909 </v>
   <v>       1.17506057      -0.16344616       0.15007309 </v>
   <v>      -0.91578980       0.88059587      -0.06410423 </v>
   <v>       0.58215287      -0.87783254       0.15186529 </v>
   <v>      -0.42774904       0.02057736      -0.52280784 </v>
   <v>       0.57168563      -0.76367699       0.12093276 </v>
   <v>       0.48045001       0.13396566       0.89267342 </v>
   <v>       0.85806614       0.15059147      -0.29849406 </v>
   <v>       0.49167282       0.57306026       0.08981338 </v>
   <v>      -0.45921062       0.05547915      -0.16624750 </v>
   <v>       0.65461282      -0.62418387       0.14907036 </v>
   <v>       0.23239832      -0.36882258       0.52651765 </v>
   <v>       0.07175499       0.28397694      -0.04272655 </v>
   <v>      -0.30880139       0.31055584      -0.17622501 </v>
   <v>       0.23412438       1.13734999      -0.59318535 </v>
   <v>      -0.19049850      -0.03835789       0.02410546 </v>
   <v>      -0.15631937       0.08200988      -0.10232970 </v>
   <v>       0.01670201       0.62445737      -0.31620841 </v>
   <v>      -0.28875567       0.10822501       0.10285379 </v>
   <v>      -0.58030929      -0.66630758       0.08464548 </v>
   <v>       0.78641774       0.70504095      -0.05417100 </v>
   <v>      -0.55787458       0.92216565       0.30951378 </v>
   <v>      -0.01766966      -1.57023861      -0.87224283 </v>
   <v>       0.09144968      -1.46553561      -1.28341591 </v>
   <v>      -0.86320432       0.35632550       0.48681697 </v>
   <v>      -0.16829692      -1.58807001      -0.37305145 </v>
   <v>       0.35425012      -1.01914505       1.83220143 </v>
   <v>      -0.79494992       1.16511142       0.63887033 </v>
  </varray>
  <varray name="stress" >
   <v>     411.13061945       0.29603335       0.69418195 </v>
   <v>       0.29603362     407.75315842      -0.21452812 </v>
   <v>       0.69418203      -0.21452848     404.60175911 </v>
  </varray>
  <energy>
   <i name="e_fr_energy">   -655.40155187 </i>
   <i name="e_wo_entrp">   -655.31644058 </i>
   <i name="e_0_energy">     -0.17022258 </i>
  </energy>
  <time name="totalsc">  421.94  423.89</time>
 </calculation>
 <calculation>
  <scstep>
   <time name="dav">   24.83   25.45</time>
   <time name="total">   25.11   25.73</time>
   <energy>
    <i name="alphaZ">   4299.95290760 </i>
    <i name="ewald"> -35177.52241528 </i>
    <i name="hartreedc">  -5178.07906958 </i>
    <i name="XCdc">   1002.76404164 </i>
    <i name="pawpsdc">  26969.74838920 </i>
    <i name="pawaedc"> -26679.37216250 </i>
    <i name="eentropy">     -0.14349569 </i>
    <i name="bandstr">  -4254.25439386 </i>
    <i name="atom">  38322.02367756 </i>
    <i name="e_fr_energy">   -694.88252090 </i>
    <i name="e_wo_entrp">   -694.73902522 </i>
    <i name="e_0_energy">   -694.81077306 </i>
   </energy>
  </scstep>
  <scstep>
   <time name="diag">    1.55    1.58</time>
   <time name="diis">   17.67   18.07</time>
   <time name="orth">    0.36    0.36</time>
   <time name="total">   19.86   20.29</time>
   <energy>
    <i name="e_fr_energy">   -970.04990597 </i>
    <i name="e_wo_entrp">   -969.91684430 </i>
    <i name="e_0_energy">   -969.98337514 </i>
   </energy>
  </scstep>
  <scstep>
   <time name="diag">    1.58    1.58</time>
   <time name="diis">   17.65   17.71</time>
   <time name="orth">    0.36    0.36</time>
   <time name="total">   19.87   19.93</time>
   <energy>
    <i name="e_fr_energy">   -714.11497230 </i>
    <i name="e_wo_entrp">   -713.96699988 </i>
    <i name="e_0_energy">   -714.04098609 </i>
   </energy>
  </scstep>
  <scstep>
   <time name="diag">    1.58    1.58</time>
   <time name="diis">   15.18   15.19</time>
   <time name="orth">    0.36    0.36</time>
   <time name="total">   17.38   17.40</time>
   <energy>
    <i name="e_fr_energy">   -663.60008133 </i>
    <i name="e_wo_entrp">   -663.39455839 </i>
    <i name="e_0_energy">   -663.49731986 </i>
   </energy>
  </scstep>
  <scstep>
   <time name="diag">    1.58    1.59</time>
   <time name="diis">   16.34   16.36</time>
   <time name="orth">    0.36    0.36</time>
   <time name="total">   18.56   18.59</time>
   <energy>
    <i name="e_fr_energy">   -671.47876347 </i>
    <i name="e_wo_entrp">   -671.30874955 </i>
    <i name="e_0_energy">   -671.39375651 </i>
   </energy>
  </scstep>
  <scstep>
   <time name="diag">    1.57    1.57</time>
   <time name="diis">   16.19   16.21</time>
   <time name="orth">    0.36    0.36</time>
   <time name="total">   18.39   18.42</time>
   <energy>
    <i name="e_fr_energy">   -667.21450780 </i>
    <i name="e_wo_entrp">   -667.03460904 </i>
    <i name="e_0_energy">   -667.12455842 </i>
   </energy>
  </scstep>
  <scstep>
   <time name="diag">    1.57    1.57</time>
   <time name="diis">   15.26   15.27</time>
   <time name="orth">    0.36    0.36</time>
   <time name="total">   17.47   17.49</time>
   <energy>
    <i name="e_fr_energy">   -665.09709052 </i>
    <i name="e_wo_entrp">   -664.92944255 </i>
    <i name="e_0_energy">   -665.01326654 </i>
   </energy>
  </scstep>
  <scstep>
   <time name="diag">    1.56    1.58</time>
   <time name="diis">   17.23   17.25</time>
   <time name="orth">    0.36    0.36</time>
   <time name="total">   19.42   19.46</time>
   <energy>
    <i name="e_fr_energy">   -664.53928892 </i>
    <i name="e_wo_entrp">   -664.35234858 </i>
    <i name="e_0_energy">   -664.44581875 </i>
   </energy>
  </scstep>
  <scstep>
   <time name="diag">    1.58    1.62</time>
   <time name="diis">   15.23   15.68</time>
   <time name="orth">    0.36    0.36</time>
   <time name="total">   17.44   17.95</time>
   <energy>
    <i name="e_fr_energy">   -662.25447977 </i>
    <i name="e_wo_entrp">   -662.04978975 </i>
    <i name="e_0_energy">   -662.15213476 </i>
   </energy>
  </scstep>
  <scstep>
   <time name="diag">    1.61    1.63</time>
   <time name="diis">   16.35   16.41</time>
   <time name="orth">    0.36    0.36</time>
   <time name="total">   18.60   18.68</time>
   <energy>
    <i name="e_fr_energy">   -661.91594146 </i>
    <i name="e_wo_entrp">   -661.71097109 </i>
    <i name="e_0_energy">   -661.81345628 </i>
   </energy>
  </scstep>
  <scstep>
   <time name="diag">    1.55    1.58</time>
   <time name="diis">   16.48   16.51</time>
   <time name="orth">    0.36    0.36</time>
   <time name="total">   18.67   18.72</time>
   <energy>
    <i name="e_fr_energy">   -661.80889325 </i>
    <i name="e_wo_entrp">   -661.60313166 </i>
    <i name="e_0_energy">   -661.70601245 </i>
   </energy>
  </scstep>
  <scstep>
   <time name="diag">    1.59    1.59</time>
   <time name="diis">   16.26   16.27</time>
   <time name="orth">    0.36    0.36</time>
   <time name="total">   18.48   18.50</time>
   <energy>
    <i name="e_fr_energy">   -661.91479957 </i>
    <i name="e_wo_entrp">   -661.70709011 </i>
    <i name="e_0_energy">   -661.81094484 </i>
   </energy>
  </scstep>
  <scstep>
   <time name="diag">    1.57    1.58</time>
   <time name="diis">   15.09   15.16</time>
   <time name="orth">    0.36    0.36</time>
   <time name="total">   17.31   17.38</time>
   <energy>
    <i name="e_fr_energy">   -661.76831412 </i>
    <i name="e_wo_entrp">   -661.55922339 </i>
    <i name="e_0_energy">   -661.66376875 </i>
   </energy>
  </scstep>
  <scstep>
   <time name="diag">    1.57    1.59</time>
   <time name="diis">   16.52   16.56</time>
   <time name="orth">    0.36    0.36</time>
   <time name="total">   18.72   18.78</time>
   <energy>
    <i name="e_fr_energy">   -661.78613190 </i>
    <i name="e_wo_entrp">   -661.57805099 </i>
    <i name="e_0_energy">   -661.68209145 </i>
   </energy>
  </scstep>
  <scstep>
   <time name="diag">    1.55    1.58</time>
   <time name="diis">   16.13   16.63</time>
   <time name="orth">    0.35    0.36</time>
   <time name="total">   18.32   18.86</time>
   <energy>
    <i name="e_fr_energy">   -661.75584618 </i>
    <i name="e_wo_entrp">   -661.54622555 </i>
    <i name="e_0_energy">   -661.65103586 </i>
   </energy>
  </scstep>
  <scstep>
   <time name="diag">    1.57    1.57</time>
   <time name="diis">   17.05   17.09</time>
   <time name="orth">    0.36    0.36</time>
   <time name="total">   19.25   19.30</time>
   <energy>
    <i name="e_fr_energy">   -661.76488685 </i>
    <i name="e_wo_entrp">   -661.55583117 </i>
    <i name="e_0_energy">   -661.66035901 </i>
   </energy>
  </scstep>
  <scstep>
   <time name="diag">    1.58    1.61</time>
   <time name="diis">   14.30   14.75</time>
   <time name="orth">    0.36    0.36</time>
   <time name="total">   16.51   17.00</time>
   <energy>
    <i name="e_fr_energy">   -661.75600463 </i>
    <i name="e_wo_entrp">   -661.54665513 </i>
    <i name="e_0_energy">   -661.65132988 </i>
   </energy>
  </scstep>
  <scstep>
   <time name="diag">    1.57    1.61</time>
   <time name="diis">   15.59   16.07</time>
   <time name="orth">    0.36    0.37</time>
   <time name="total">   17.81   18.34</time>
   <energy>
    <i name="e_fr_energy">   -661.75645252 </i>
    <i name="e_wo_entrp">   -661.54716362 </i>
    <i name="e_0_energy">   -661.65180807 </i>
   </energy>
  </scstep>
  <scstep>
   <time name="diag">    1.55    1.58</time>
   <time name="diis">   14.33   14.61</time>
   <time name="orth">    0.37    0.38</time>
   <time name="total">   16.54   16.86</time>
   <energy>
    <i name="e_fr_energy">   -661.75677438 </i>
    <i name="e_wo_entrp">   -661.54745569 </i>
    <i name="e_0_energy">   -661.65211504 </i>
   </energy>
  </scstep>
  <scstep>
   <time name="diag">    1.61    1.67</time>
   <time name="diis">   11.96   12.31</time>
   <time name="orth">    0.36    0.36</time>
   <time name="total">   14.21   14.62</time>
   <energy>
    <i name="e_fr_energy">   -661.75645256 </i>
    <i name="e_wo_entrp">   -661.54714241 </i>
    <i name="e_0_energy">   -661.65179749 </i>
   </energy>
  </scstep>
  <scstep>
   <time name="diag">    1.57    1.57</time>
   <time name="diis">   12.81   12.84</time>
   <time name="orth">    0.36    0.36</time>
   <time name="total">   15.02   15.05</time>
   <energy>
    <i name="e_fr_energy">   -661.75648935 </i>
    <i name="e_wo_entrp">   -661.54717899 </i>
    <i name="e_0_energy">   -661.65183417 </i>
   </energy>
  </scstep>
  <scstep>
   <time name="diag">    1.58    1.58</time>
   <time name="diis">   12.21   12.25</time>
   <time name="orth">    0.36    0.36</time>
   <time name="total">   14.43   14.47</time>
   <energy>
    <i name="e_fr_energy">   -661.75652620 </i>
    <i name="e_wo_entrp">   -661.54724176 </i>
    <i name="e_0_energy">   -661.65188398 </i>
   </energy>
  </scstep>
  <scstep>
   <time name="diag">    1.55    1.58</time>
   <time name="diis">    9.12    9.37</time>
   <time name="orth">    0.36    0.36</time>
   <time name="total">   11.31   11.59</time>
   <energy>
    <i name="e_fr_energy">   -661.75650105 </i>
    <i name="e_wo_entrp">   -661.54721192 </i>
    <i name="e_0_energy">   -661.65185648 </i>
   </energy>
  </scstep>
  <scstep>
   <time name="diag">    1.58    1.62</time>
   <time name="diis">    9.33    9.68</time>
   <time name="orth">    0.36    0.37</time>
   <time name="total">   11.31   11.70</time>
   <energy>
    <i name="alphaZ">   4299.95290760 </i>
    <i name="ewald"> -35177.52241528 </i>
    <i name="hartreedc">  -5619.89888247 </i>
    <i name="XCdc">   1026.96434417 </i>
    <i name="pawpsdc">  25785.69716527 </i>
    <i name="pawaedc"> -25483.59706943 </i>
    <i name="eentropy">     -0.20928213 </i>
    <i name="bandstr">  -3815.16695106 </i>
    <i name="atom">  38322.02367756 </i>
    <i name="e_fr_energy">   -661.75650576 </i>
    <i name="e_wo_entrp">   -661.54722363 </i>
    <i name="e_0_energy">   -661.65186470 </i>
   </energy>
  </scstep>
  <structure>
   <crystal>
    <varray name="basis" >
     <v>       8.74198055      -0.00307347      -0.00182728 </v>
     <v>       0.00251447       8.84746127       0.00081477 </v>
     <v>       0.02959430      -0.01458739       8.75362795 </v>
    </varray>
    <i name="volume">    677.04417682 </i>
    <varray name="rec_basis" >
     <v>       0.11439046      -0.00003247      -0.00038679 </v>
     <v>       0.00003978       0.11302674       0.00018822 </v>
[...]
      </set>
     </set>
    </set>
   </array>
  </eigenvalues>
  <separator name="orbital magnetization" >
   <v name="MAGDIPOLOUT">      0.00000000      0.00000000      0.00000000</v>
  </separator>
  <dos>
   <i name="efermi">      8.10222329 </i>
   <total>
    <array>
     <dimension dim="1">gridpoints</dimension>
     <dimension dim="2">spin</dimension>
     <field>energy</field>
     <field>total</field>
     <field>integrated</field>
     <set>
      <set comment="spin 1">
       <r>   -38.0483     0.0000     0.0000 </r>
       <r>   -37.8776     0.0000     0.0000 </r>
       <r>   -37.7069     0.0000     0.0000 </r>
       <r>   -37.5363     0.0000     0.0000 </r>
       <r>   -37.3656     0.0000     0.0000 </r>
       <r>   -37.1949     0.0000     0.0000 </r>
       <r>   -37.0243     0.0000     0.0000 </r>
       <r>   -36.8536     0.0000     0.0000 </r>
       <r>   -36.6830     0.0000     0.0000 </r>
       <r>   -36.5123     0.0000     0.0000 </r>
       <r>   -36.3416     0.0000     0.0000 </r>
       <r>   -36.1710     0.0000     0.0000 </r>
       <r>   -36.0003     0.0005     0.0001 </r>
       <r>   -35.8296     0.7383     0.1261 </r>
       <r>   -35.6590    13.1803     2.3755 </r>
       <r>   -35.4883    62.6558    13.0684 </r>
       <r>   -35.3177   101.2210    30.3430 </r>
       <r>   -35.1470    31.4617    35.7124 </r>
       <r>   -34.9763     1.6836    35.9997 </r>
       <r>   -34.8057     0.0019    36.0000 </r>
       <r>   -34.6350     0.0000    36.0000 </r>
       <r>   -34.4643     0.0000    36.0000 </r>
       <r>   -34.2937     0.0000    36.0000 </r>
       <r>   -34.1230     0.0000    36.0000 </r>
       <r>   -33.9524     0.0000    36.0000 </r>
       <r>   -33.7817     0.0000    36.0000 </r>
       <r>   -33.6110     0.0000    36.0000 </r>
       <r>   -33.4404     0.0000    36.0000 </r>
       <r>   -33.2697     0.0000    36.0000 </r>
       <r>   -33.0991     0.0000    36.0000 </r>
       <r>   -32.9284     0.0000    36.0000 </r>
       <r>   -32.7577     0.0000    36.0000 </r>
       <r>   -32.5871     0.0000    36.0000 </r>
       <r>   -32.4164     0.0000    36.0000 </r>
       <r>   -32.2457     0.0000    36.0000 </r>
       <r>   -32.0751     0.0000    36.0000 </r>
       <r>   -31.9044     0.0103    36.0018 </r>
       <r>   -31.7338     3.0464    36.5217 </r>
       <r>   -31.5631    19.3335    39.8212 </r>
       <r>   -31.3924    20.7173    43.3568 </r>
       <r>   -31.2218    65.2922    54.4997 </r>
       <r>   -31.0511    85.4763    69.0873 </r>
       <r>   -30.8804    16.9077    71.9728 </r>
       <r>   -30.7098     0.1593    72.0000 </r>
       <r>   -30.5391     0.0000    72.0000 </r>
       <r>   -30.3685     0.0000    72.0000 </r>
       <r>   -30.1978     0.0000    72.0000 </r>
       <r>   -30.0271     0.0000    72.0000 </r>
       <r>   -29.8565     0.0000    72.0000 </r>
       <r>   -29.6858     0.0000    72.0000 </r>
       <r>   -29.5151     0.0000    72.0000 </r>
       <r>   -29.3445     0.0000    72.0000 </r>
       <r>   -29.1738     0.0000    72.0000 </r>
       <r>   -29.0032     0.0000    72.0000 </r>
       <r>   -28.8325     0.0000    72.0000 </r>
       <r>   -28.6618     0.0000    72.0000 </r>
       <r>   -28.4912     0.0000    72.0000 </r>
       <r>   -28.3205     0.0000    72.0000 </r>
       <r>   -28.1498     0.0000    72.0000 </r>
       <r>   -27.9792     0.0012    72.0002 </r>
       <r>   -27.8085     1.4082    72.2405 </r>
       <r>   -27.6379    19.3426    75.5416 </r>
       <r>   -27.4672    17.2818    78.4909 </r>
       <r>   -27.2965    51.2900    87.2442 </r>
       <r>   -27.1259   110.6618   106.1300 </r>
       <r>   -26.9552    42.6215   113.4038 </r>
       <r>   -26.7846     3.4854   113.9987 </r>
       <r>   -26.6139     0.0078   114.0000 </r>
       <r>   -26.4432     0.0000   114.0000 </r>
       <r>   -26.2726     0.0000   114.0000 </r>
       <r>   -26.1019     0.0000   114.0000 </r>
       <r>   -25.9312     0.0000   114.0000 </r>
       <r>   -25.7606     0.0000   114.0000 </r>
       <r>   -25.5899     0.0000   114.0000 </r>
       <r>   -25.4193     0.0000   114.0000 </r>
       <r>   -25.2486     0.0000   114.0000 </r>
       <r>   -25.0779     0.0000   114.0000 </r>
       <r>   -24.9073     0.0000   114.0000 </r>
       <r>   -24.7366     0.0000   114.0000 </r>
       <r>   -24.5659     0.0000   114.0000 </r>
       <r>   -24.3953     0.0000   114.0000 </r>
       <r>   -24.2246     0.0000   114.0000 </r>
       <r>   -24.0540     0.0000   114.0000 </r>
       <r>   -23.8833     0.0000   114.0000 </r>
       <r>   -23.7126     0.0000   114.0000 </r>
       <r>   -23.5420     0.0138   114.0024 </r>
       <r>   -23.3713     3.1239   114.5355 </r>
       <r>   -23.2006    15.0305   117.1006 </r>
       <r>   -23.0300    36.0293   123.2495 </r>
       <r>   -22.8593    41.0025   130.2471 </r>
       <r>   -22.6887    16.5383   133.0695 </r>
       <r>   -22.5180    67.7563   144.6330 </r>
       <r>   -22.3473    31.1295   149.9456 </r>
       <r>   -22.1767     8.3764   151.3751 </r>
       <r>   -22.0060    25.1145   155.6612 </r>
       <r>   -21.8353     1.9838   155.9998 </r>
       <r>   -21.6647     0.0014   156.0000 </r>
       <r>   -21.4940     0.0000   156.0000 </r>
       <r>   -21.3234     0.0000   156.0000 </r>
       <r>   -21.1527     0.0000   156.0000 </r>
       <r>   -20.9820     0.0000   156.0000 </r>
       <r>   -20.8114     0.0000   156.0000 </r>
       <r>   -20.6407     0.0000   156.0000 </r>
       <r>   -20.4700     0.0000   156.0000 </r>
       <r>   -20.2994     0.0000   156.0000 </r>
       <r>   -20.1287     0.0000   156.0000 </r>
       <r>   -19.9581     0.0000   156.0000 </r>
       <r>   -19.7874     0.0000   156.0000 </r>
       <r>   -19.6167     0.0000   156.0000 </r>
       <r>   -19.4461     0.0000   156.0000 </r>
       <r>   -19.2754     0.0000   156.0000 </r>
       <r>   -19.1048     0.0000   156.0000 </r>
       <r>   -18.9341     0.0000   156.0000 </r>
       <r>   -18.7634     0.0000   156.0000 </r>
       <r>   -18.5928     0.0000   156.0000 </r>
       <r>   -18.4221     0.0000   156.0000 </r>
       <r>   -18.2514     0.0000   156.0000 </r>
       <r>   -18.0808     0.0000   156.0000 </r>
       <r>   -17.9101     0.0000   156.0000 </r>
       <r>   -17.7395     0.0000   156.0000 </r>
       <r>   -17.5688     0.0000   156.0000 </r>
       <r>   -17.3981     0.0000   156.0000 </r>
       <r>   -17.2275     0.0000   156.0000 </r>
       <r>   -17.0568     0.0000   156.0000 </r>
       <r>   -16.8861     0.0000   156.0000 </r>
       <r>   -16.7155     0.0000   156.0000 </r>
       <r>   -16.5448     0.0000   156.0000 </r>
       <r>   -16.3742     0.0000   156.0000 </r>
       <r>   -16.2035     0.0000   156.0000 </r>
       <r>   -16.0328     0.0000   156.0000 </r>
       <r>   -15.8622     0.0000   156.0000 </r>
       <r>   -15.6915     0.0000   156.0000 </r>
       <r>   -15.5208     0.0000   156.0000 </r>
       <r>   -15.3502     0.0000   156.0000 </r>
       <r>   -15.1795     0.0000   156.0000 </r>
       <r>   -15.0089     0.0000   156.0000 </r>
       <r>   -14.8382     0.0000   156.0000 </r>
       <r>   -14.6675     0.0000   156.0000 </r>
       <r>   -14.4969     0.0000   156.0000 </r>
       <r>   -14.3262     0.0000   156.0000 </r>
       <r>   -14.1555     0.0000   156.0000 </r>
       <r>   -13.9849     0.0000   156.0000 </r>
       <r>   -13.8142     0.0000   156.0000 </r>
       <r>   -13.6436     0.0000   156.0000 </r>
       <r>   -13.4729     0.0000   156.0000 </r>
       <r>   -13.3022     0.0000   156.0000 </r>
       <r>   -13.1316     0.0000   156.0000 </r>
       <r>   -12.9609     0.0000   156.0000 </r>
       <r>   -12.7903     0.0000   156.0000 </r>
       <r>   -12.6196     0.0000   156.0000 </r>
       <r>   -12.4489     0.0000   156.0000 </r>
       <r>   -12.2783     0.0000   156.0000 </r>
       <r>   -12.1076     0.0000   156.0000 </r>
       <r>   -11.9369     0.0000   156.0000 </r>
       <r>   -11.7663     0.0000   156.0000 </r>
       <r>   -11.5956     0.0000   156.0000 </r>
       <r>   -11.4250     0.0000   156.0000 </r>
       <r>   -11.2543     0.0000   156.0000 </r>
       <r>   -11.0836     0.0000   156.0000 </r>
       <r>   -10.9130     0.0000   156.0000 </r>
       <r>   -10.7423     0.0000   156.0000 </r>
       <r>   -10.5716     0.0000   156.0000 </r>
       <r>   -10.4010     0.0000   156.0000 </r>
       <r>   -10.2303     0.0000   156.0000 </r>
       <r>   -10.0597     0.0000   156.0000 </r>
       <r>    -9.8890     0.0000   156.0000 </r>
       <r>    -9.7183     0.0000   156.0000 </r>
       <r>    -9.5477     0.0000   156.0000 </r>
       <r>    -9.3770     0.0000   156.0000 </r>
       <r>    -9.2063     0.0000   156.0000 </r>
       <r>    -9.0357     0.0000   156.0000 </r>
       <r>    -8.8650     0.0022   156.0004 </r>
       <r>    -8.6944     0.4607   156.0790 </r>
       <r>    -8.5237     4.9165   156.9181 </r>
       <r>    -8.3530     6.4386   158.0169 </r>
       <r>    -8.1824     7.5063   159.2979 </r>
       <r>    -8.0117     6.5788   160.4207 </r>
       <r>    -7.8410    12.1790   162.4992 </r>
       <r>    -7.6704    11.8444   164.5206 </r>
       <r>    -7.4997     7.3514   165.7752 </r>
       <r>    -7.3291     9.7063   167.4317 </r>
       <r>    -7.1584    17.6464   170.4433 </r>
       <r>    -6.9877    12.2138   172.5277 </r>
       <r>    -6.8171    24.9848   176.7917 </r>
       <r>    -6.6464    20.7272   180.3290 </r>
       <r>    -6.4758     9.2696   181.9110 </r>
       <r>    -6.3051     0.5214   182.0000 </r>
       <r>    -6.1344     0.0002   182.0000 </r>
       <r>    -5.9638     0.0000   182.0000 </r>
       <r>    -5.7931     0.0000   182.0000 </r>
       <r>    -5.6224     0.0000   182.0000 </r>
       <r>    -5.4518     0.0012   182.0002 </r>
       <r>    -5.2811     0.5321   182.0910 </r>
       <r>    -5.1105     6.7524   183.2434 </r>
       <r>    -4.9398     4.3880   183.9923 </r>
       <r>    -4.7691     3.1126   184.5234 </r>
       <r>    -4.5985    12.0173   186.5743 </r>
       <r>    -4.4278    11.5763   188.5500 </r>
       <r>    -4.2571    12.5327   190.6888 </r>
       <r>    -4.0865    19.6200   194.0372 </r>
       <r>    -3.9158    23.1835   197.9938 </r>
       <r>    -3.7452    17.6725   201.0098 </r>
       <r>    -3.5745    22.3113   204.8175 </r>
       <r>    -3.4038    25.5370   209.1757 </r>
       <r>    -3.2332    22.5979   213.0323 </r>
       <r>    -3.0625    16.1199   215.7833 </r>
       <r>    -2.8918    11.9876   217.8292 </r>
       <r>    -2.7212     9.2196   219.4026 </r>
       <r>    -2.5505     3.0445   219.9222 </r>
       <r>    -2.3799     0.4425   219.9977 </r>
       <r>    -2.2092     0.0136   220.0000 </r>
       <r>    -2.0385     0.0000   220.0000 </r>
       <r>    -1.8679     0.0000   220.0000 </r>
       <r>    -1.6972     0.0000   220.0000 </r>
       <r>    -1.5265     0.0000   220.0000 </r>
       <r>    -1.3559     0.0000   220.0000 </r>
       <r>    -1.1852     0.0000   220.0000 </r>
       <r>    -1.0146     0.0000   220.0000 </r>
       <r>    -0.8439     0.0000   220.0000 </r>
       <r>    -0.6732     0.0412   220.0070 </r>
       <r>    -0.5026     0.3614   220.0687 </r>
       <r>    -0.3319     1.1933   220.2724 </r>
       <r>    -0.1613     2.9222   220.7711 </r>
       <r>     0.0094     8.7767   222.2689 </r>
       <r>     0.1801     9.0671   223.8163 </r>
       <r>     0.3507    12.0022   225.8647 </r>
       <r>     0.5214    16.3232   228.6504 </r>
       <r>     0.6921    17.9808   231.7190 </r>
       <r>     0.8627    22.1293   235.4957 </r>
       <r>     1.0334    26.0709   239.9450 </r>
       <r>     1.2040    26.2035   244.4170 </r>
       <r>     1.3747    26.7087   248.9751 </r>
       <r>     1.5454    25.8071   253.3794 </r>
       <r>     1.7160    30.7017   258.6190 </r>
       <r>     1.8867    29.9363   263.7280 </r>
       <r>     2.0574    31.1122   269.0377 </r>
       <r>     2.2280    37.8578   275.4986 </r>
       <r>     2.3987    44.8927   283.1601 </r>
       <r>     2.5693    48.2846   291.4005 </r>
       <r>     2.7400    54.6095   300.7202 </r>
       <r>     2.9107    60.7206   311.0830 </r>
       <r>     3.0813    66.9548   322.5096 </r>
       <r>     3.2520    67.8468   334.0885 </r>
       <r>     3.4227    65.7208   345.3045 </r>
       <r>     3.5933    58.4097   355.2729 </r>
       <r>     3.7640    51.1975   364.0103 </r>
       <r>     3.9346    45.3271   371.7460 </r>
       <r>     4.1053    36.7388   378.0159 </r>
       <r>     4.2760    33.0980   383.6645 </r>
       <r>     4.4466    30.9862   388.9526 </r>
       <r>     4.6173    30.7207   394.1955 </r>
       <r>     4.7880    30.2180   399.3525 </r>
       <r>     4.9586    24.3978   403.5163 </r>
       <r>     5.1293    19.6207   406.8648 </r>
       <r>     5.2999    14.6235   409.3605 </r>
       <r>     5.4706    11.3834   411.3032 </r>
       <r>     5.6413    10.7776   413.1426 </r>
       <r>     5.8119    13.7731   415.4931 </r>
       <r>     5.9826    17.8108   418.5328 </r>
       <r>     6.1533    18.3329   421.6615 </r>
       <r>     6.3239    18.3354   424.7907 </r>
       <r>     6.4946    17.5147   427.7798 </r>
       <r>     6.6652    19.0620   431.0329 </r>
       <r>     6.8359    20.9418   434.6069 </r>
       <r>     7.0066    23.5373   438.6238 </r>
       <r>     7.1772    27.9359   443.3914 </r>
       <r>     7.3479    26.7691   447.9599 </r>
       <r>     7.5185    26.5416   452.4895 </r>
       <r>     7.6892    27.1033   457.1150 </r>
       <r>     7.8599    27.4193   461.7945 </r>
       <r>     8.0305    26.5309   466.3223 </r>
       <r>     8.2012    24.1770   470.4484 </r>
       <r>     8.3719    28.9590   475.3906 </r>
       <r>     8.5425    34.6491   481.3039 </r>
       <r>     8.7132    40.7519   488.2587 </r>
       <r>     8.8838    44.3585   495.8290 </r>
       <r>     9.0545    47.2721   503.8966 </r>
       <r>     9.2252    46.9688   511.9124 </r>
       <r>     9.3958    46.6593   519.8754 </r>
       <r>     9.5665    44.2253   527.4230 </r>
       <r>     9.7372    42.0357   534.5969 </r>
       <r>     9.9078    41.3616   541.6557 </r>
       <r>    10.0785    40.9729   548.6483 </r>
       <r>    10.2491    40.5935   555.5760 </r>
       <r>    10.4198    40.3842   562.4681 </r>
       <r>    10.5905    39.2163   569.1608 </r>
       <r>    10.7611    32.3511   574.6819 </r>
       <r>    10.9318     7.5555   575.9714 </r>
       <r>    11.1025     0.1677   576.0000 </r>
       <r>    11.2731     0.0001   576.0000 </r>
       <r>    11.4438     0.0000   576.0000 </r>
       <r>    11.6144     0.0000   576.0000 </r>
       <r>    11.7851     0.0000   576.0000 </r>
       <r>    11.9558     0.0000   576.0000 </r>
       <r>    12.1264     0.0000   576.0000 </r>
       <r>    12.2971     0.0000   576.0000 </r>
       <r>    12.4678     0.0000   576.0000 </r>
       <r>    12.6384     0.0000   576.0000 </r>
       <r>    12.8091     0.0000   576.0000 </r>
       <r>    12.9797     0.0000   576.0000 </r>
       <r>    13.1504     0.0000   576.0000 </r>
      </set>
     </set>
    </array>
   </total>
  </dos>
 </calculation>
 <structure name="finalpos" >
  <crystal>
   <varray name="basis" >
    <v>       8.77040845      -0.00382447      -0.00215302 </v>
    <v>       0.00171797       8.85332911      -0.00271790 </v>
    <v>       0.02938544      -0.01798894       8.86462315 </v>
   </varray>
   <i name="volume">    688.31435288 </i>
   <varray name="rec_basis" >
    <v>       0.11401967      -0.00002224      -0.00037801 </v>
    <v>       0.00004931       0.11295192       0.00022905 </v>
    <v>       0.00002771       0.00003463       0.11280793 </v>
   </varray>
  </crystal>
  <varray name="positions" >
   <v>      -0.00041298       0.98691180       0.00237237 </v>
   <v>       0.25244206       0.99129384       0.26234025 </v>
   <v>       0.24808408       0.51237998       0.24384886 </v>
   <v>       0.50550262       0.49333851       0.99347169 </v>
   <v>       0.49682017       0.24820900       0.74842684 </v>
   <v>      -0.00302727       0.50282132       0.50487780 </v>
   <v>       0.50509122       0.75421757       0.73902071 </v>
   <v>       0.99181997       0.23027757       0.26566239 </v>
   <v>       0.76593194       0.74337634      -0.00281171 </v>
   <v>       0.01947238       0.23918204       0.73855734 </v>
   <v>       0.76556350       0.24886672       0.48402250 </v>
   <v>       0.00111251       0.74325274       0.75478097 </v>
   <v>       0.24976031       0.50606096       0.75467866 </v>
   <v>       0.24480828       0.24768621       0.99647173 </v>
   <v>       0.50170817       0.25029000       0.24902940 </v>
   <v>       0.73412992       0.98750752       0.25754445 </v>
   <v>       0.75614747       0.25038610       0.98632471 </v>
   <v>       0.26622918       0.75868558      -0.00030949 </v>
   <v>       0.25785977       0.25335128       0.50322139 </v>
   <v>       0.24678801       0.75377514       0.50220010 </v>
   <v>       0.24741237       0.25020759       0.25190627 </v>
   <v>       0.24617626       0.00290354       0.01014472 </v>
   <v>      -0.00061279       0.23630047       0.00950209 </v>
   <v>       0.75046888       0.24164789       0.24356483 </v>
   <v>       0.74641322       0.99322729       0.00331312 </v>
   <v>       0.49317334       0.00219173       0.23700404 </v>
   <v>       0.00204297       0.48147554       0.26049406 </v>
   <v>       0.51149344       0.75099711      -0.01087606 </v>
   <v>       0.98154386      -0.00071315       0.75855472 </v>
   <v>       0.75468866       0.23743196       0.74206629 </v>
   <v>       0.73861137       0.01304449       0.50123968 </v>
   <v>       0.51000561       0.25101116       0.49925045 </v>
   <v>       0.51990344       0.00074002       0.74933170 </v>
   <v>      -0.00361285      -0.00257582       0.25741353 </v>
   <v>       0.50246700       0.25216179      -0.00446181 </v>
   <v>       0.26033819       0.75277820       0.25131511 </v>
   <v>       0.24204641       0.50329673       0.99804432 </v>
   <v>       0.00892384       0.74250959       0.00181402 </v>
   <v>       0.74065976       0.73827730       0.24159450 </v>
   <v>       0.76442078       0.50248037       0.00750182 </v>
   <v>       0.49288987       0.50764765       0.24453955 </v>
   <v>       0.25622904       0.24206689       0.74942056 </v>
   <v>       0.25349874       0.00277554       0.50864568 </v>
   <v>       0.00463189       0.25802735       0.50454129 </v>
   <v>       0.25196649       0.76124663       0.75082732 </v>
   <v>       0.24867747       0.50365021       0.49952158 </v>
   <v>       0.99158377       0.75512180       0.50400963 </v>
   <v>       0.99866781       0.49201330       0.75269859 </v>
   <v>       0.75456524       0.76064825       0.74157663 </v>
   <v>       0.74630645       0.48852893       0.50981616 </v>
   <v>       0.50476158       0.76891502       0.49211487 </v>
   <v>       0.50025140       0.50130763       0.74379953 </v>
   <v>       0.51610489       0.02486633       0.97628411 </v>
   <v>       0.99305401       0.53074036       0.96665866 </v>
   <v>       0.50907557       0.72863225       0.28003689 </v>
   <v>       0.21302783       0.00211081       0.72007623 </v>
   <v>       0.48437997       0.99219280       0.52577416 </v>
   <v>       0.73227183       0.97260203       0.78435396 </v>
   <v>      -0.00477880       0.76614039       0.24185265 </v>
   <v>       0.72990843       0.50476410       0.25831265 </v>
   <v>      -0.00051787       0.01549278       0.50980638 </v>
   <v>       0.50174510       0.51848849       0.49066208 </v>
   <v>       0.75010227       0.52256792       0.75946604 </v>
   <v>       0.74920230       0.72818824       0.49275661 </v>
  </varray>
 </structure>
</modeling>
