HECN                                    
           1
     8.932500    0.000000    0.000000
     0.005753    9.055598    0.000000
     0.032102   -0.015743    8.937128
   Ta   W    Hf   N    C    Cr   Mo
   7   6   7  13  19   6   6
Direct configuration=     1
   0.99688001  0.99204997  0.99924002
   0.25398003  0.99714995  0.24912000
   0.24803003  0.50165000  0.24955001
   0.50501006  0.49745998  0.99834003
   0.50479003  0.24631001  0.74710002
   0.99427992  0.50449999  0.49779000
   0.49950005  0.75481999  0.74817004
   0.99437004  0.23617001  0.26379999
   0.75718000  0.74102998  0.01100000
   0.00201000  0.25541000  0.73894001
   0.75307001  0.26163001  0.50533002
   0.99514004  0.74492004  0.74511997
   0.25679999  0.49462002  0.74545002
   0.24788999  0.24839000  0.99657997
   0.50833000  0.25676999  0.25376001
   0.74879004  0.98787999  0.26967001
   0.75719000  0.25603001  0.99591997
   0.24762001  0.74973999  0.99974006
   0.25272001  0.24823001  0.50015003
   0.24457999  0.75048999  0.49983999
   0.24982001  0.24942998  0.24825000
   0.26146999  0.99984002  0.99295996
   0.00281000  0.25024000  0.00130000
   0.75313998  0.24617000  0.25492002
   0.74767001  0.99748000  0.01202000
   0.50714994  0.99977000  0.24673000
   0.99051999  0.48088002  0.24100998
   0.50519005  0.76130999  0.00855000
   0.98896989  0.00202000  0.73708999
   0.75744996  0.24437997  0.74896999
   0.73632001  0.00417000  0.51063000
   0.50563996  0.23264999  0.49544997
   0.50008998  0.00061000  0.73471998
   0.99720000  0.99771992  0.25899999
   0.50427997  0.24673000  0.00262000
   0.25133999  0.74958002  0.24910999
   0.24328000  0.50072997  0.99510994
   0.99837005  0.74313996  0.00460000
   0.75633000  0.73891003  0.25767000
   0.75839004  0.50315998  0.00288000
   0.50700002  0.50333002  0.25878999
   0.24900999  0.25315000  0.74854000
   0.24446000  0.99823996  0.50287998
   0.99804009  0.24229999  0.50128003
   0.24177002  0.75340997  0.75018002
   0.25841001  0.50062002  0.50129001
   0.99000004  0.76215003  0.49746000
   0.99203996  0.50055999  0.75138002
   0.75036005  0.74888000  0.74756004
   0.74036002  0.50197000  0.50067003
   0.50575006  0.74958002  0.49720000
   0.50501003  0.50217998  0.73912003
   0.51588997  0.01358000  0.98075008
   0.99841994  0.50976998  0.98613004
   0.50379003  0.73926997  0.25905001
   0.23780002  0.01082000  0.74607998
   0.47957999  0.98308000  0.49717999
   0.74279003  0.97869994  0.76450995
   0.99864998  0.77573999  0.26102000
   0.73551001  0.51468004  0.26666001
   0.02362000  0.99783001  0.49557002
   0.50539000  0.52833005  0.49917999
   0.73876003  0.52828003  0.73814999
   0.75400003  0.72937999  0.49116997
HECN                                    
           1
     8.486680   -0.007192   -0.004276
    -0.001825    8.568552    0.001907
     0.026234   -0.013038    8.507733
   Ta   W    Hf   N    C    Cr   Mo
   7   6   7  13  19   6   6
Direct configuration=     2
   0.99577777  0.99083063  0.99580584
   0.25539971  0.99261646  0.24885359
   0.25034006  0.50685154  0.24734518
   0.50476214  0.49511516  0.99754911
   0.50214871  0.24273968  0.74935336
   0.99457779  0.50023496  0.50080340
   0.49811341  0.76022462  0.74828422
   0.99539491  0.23318216  0.26652145
   0.76034327  0.73937084  0.01016017
   0.00932192  0.25816305  0.73407316
   0.75515222  0.26164229  0.50716605
   0.99744021  0.74253681  0.74739243
   0.25604948  0.49708733  0.74970136
   0.24854362  0.24813870  0.99579677
   0.50799420  0.25103473  0.25306286
   0.74135962  0.99139617  0.26928628
   0.75588383  0.25479240  0.99353123
   0.25022935  0.75115151  0.99894746
   0.25503936  0.24905858  0.50151284
   0.24773051  0.75064739  0.50043300
   0.25057360  0.24919479  0.24904571
   0.25739511  0.00026851  0.99598388
   0.00214696  0.24694466  0.00224422
   0.75389494  0.24518736  0.25450278
   0.75010641  0.99626438  0.00746135
   0.50084392  0.99972951  0.24794910
   0.99570727  0.47816552  0.24459542
   0.50603417  0.75824164  0.00480106
   0.98750179  0.00301700  0.74411720
   0.75516589  0.24251020  0.74845679
   0.73648944  0.00635136  0.51068737
   0.50524894  0.23161704  0.49940336
   0.50316197  0.00108432  0.73820597
   0.00123360  0.00339692  0.25051899
   0.50398810  0.24962826 -0.00191186
   0.25378916  0.74968608  0.24944218
   0.24582108  0.49944169  0.99700696
   0.99552194  0.74380204  0.00271452
   0.75126521  0.74226023  0.24952000
   0.75716011  0.50572785  0.00304131
   0.49694663  0.50672514  0.25215420
   0.25033677  0.24997215  0.74835925
   0.25535308  0.99836999  0.50453768
   0.99584670  0.24684325  0.50228379
   0.24495245  0.75354288  0.75018452
   0.25182831  0.49949968  0.49891736
   0.99351131  0.75556875  0.50325809
   0.99420636  0.49936127  0.75146447
   0.74866623  0.75847018  0.75102790
   0.74729176  0.49485960  0.50341927
   0.50263293  0.75779269  0.49630523
   0.49922123  0.49973330  0.74564886
   0.51777436  0.01715809  0.97693254
   0.99683527  0.51761116  0.98106445
   0.50530455  0.73496004  0.26079826
   0.23508810  0.01039693  0.74637350
   0.47667254  0.98199051  0.49785668
   0.73951266  0.97380711  0.76590173
   0.00043778  0.77533295  0.25778915
   0.73590994  0.51395152  0.25933540
   0.01941958  0.99900466  0.49726189
   0.50196454  0.52698414  0.49721810
   0.74014749  0.52382779  0.74500831
   0.75548813  0.73490161  0.49353347
HECN                                    
           1
     8.741981   -0.003073   -0.001827
     0.002514    8.847461    0.000815
     0.029594   -0.014587    8.753628
   Ta   W    Hf   N    C    Cr   Mo
   7   6   7  13  19   6   6
Direct configuration=     3
   0.99644381  0.99156867  0.99787186
   0.25454645  0.99535940  0.24901280
   0.24894570  0.50370207  0.24867151
   0.50491303  0.49653427  0.99802465
   0.50374189  0.24490211  0.74799816
   0.99439954  0.50281644  0.49899000
   0.49894635  0.75695443  0.74821669
   0.99477790  0.23499027  0.26488362
   0.75843777  0.74037324  0.01066419
   0.00491483  0.25649252  0.73699901
   0.75389663  0.26163406  0.50606095
   0.99605436  0.74397830  0.74602440
   0.25649926  0.49559506  0.74714450
   0.24815002  0.24829035  0.99626768
   0.50819979  0.25450581  0.25348156
   0.74583649  0.98927187  0.26951984
   0.75667248  0.25554174  0.99496842
   0.24865612  0.75029582  0.99942365
   0.25364056  0.24855613  0.50069244
   0.24583131  0.75055062  0.50007534
   0.25011927  0.24933686  0.24856678
   0.25985004  0.00001166  0.99416612
   0.00254802  0.24893948  0.00167597
   0.75344053  0.24578162  0.25475341
   0.74863993  0.99699822  0.01020274
   0.50464443  0.99975737  0.24721765
   0.99258102  0.47980621  0.24243664
   0.50552813  0.76009768  0.00705559
   0.98838399  0.00241531  0.73989051
   0.75654371  0.24364288  0.74876594
   0.73638617  0.00503111  0.51065311
   0.50548394  0.23224292  0.49702515
   0.50130906  0.00079618  0.73610808
  -0.00119794 -0.00004203  0.25562034
   0.50416391  0.24787375  0.00081479
   0.25231280  0.74962069  0.24924162
   0.24428957  0.50022034  0.99586485
   0.99723883  0.74340253  0.00384970
   0.75431870  0.74023412  0.25442467
   0.75790005  0.50417440  0.00294499
   0.50300644  0.50467458  0.25614951
   0.24953877  0.25189471  0.74846715
   0.24878686  0.99828600  0.50353720
   0.99716607  0.24409490  0.50168125
   0.24303421  0.75346083  0.75018087
   0.25579664  0.50018072  0.50034649
   0.99139657  0.75955078  0.49976825
   0.99290119  0.50008566  0.75141285
   0.74968112  0.75266749  0.74894359
   0.74311659  0.49915971  0.50176238
   0.50450775  0.75282380  0.49684554
   0.50270961  0.50121787  0.74172282
   0.51663788  0.01499114  0.97922892
   0.99778789  0.51286575  0.98411323
   0.50439339  0.73756790  0.25974555
   0.23672280  0.01065439  0.74619770
   0.47842533  0.98265144  0.49745035
   0.74149016  0.97677012  0.76506483
  -0.00063859  0.77557795  0.25973209
   0.73567151  0.51439122  0.26374135
   0.02195019  0.99829611  0.49624556
   0.50403049  0.52780016  0.49839914
   0.73931143  0.52652254  0.74088162
   0.75458761  0.73155947  0.49211199
HECN                                    
           1
     8.767022   -0.008264   -0.004155
    -0.002736    8.835399    0.001966
     0.027365   -0.013449    8.788376
   Ta   W    Hf   N    C    Cr   Mo
   7   6   7  13  19   6   6
Direct configuration=     4
   0.99637854  0.99117865  0.99309088
   0.25650368  0.99165629  0.24882169
   0.25078432  0.50804113  0.24576388
   0.50388067  0.49465720  0.99753338
   0.50064930  0.24124438  0.75006939
   0.99622024  0.49837033  0.50122142
   0.49736086  0.76253026  0.74868829
   0.99637158  0.23336019  0.26595551
   0.76007780  0.74084075  0.00878824
   0.01227589  0.25840985  0.73470581
   0.75464973  0.26039997  0.50745789
   0.99863958  0.74227229  0.74968735
   0.25428998  0.49888739  0.75207957
   0.24886232  0.24764157  0.99636404
   0.50661439  0.24945119  0.25243073
   0.74021796  0.99278629  0.26789037
   0.75536826  0.25366538  0.99277471
   0.25181673  0.75206095  0.99872308
   0.25607468  0.24914857  0.50115899
   0.24873913  0.75085741  0.50066535
   0.25070361  0.24912292  0.24927088
   0.25656612  0.00028701  0.99660953
   0.00193791  0.24612688  0.00288993
   0.75402803  0.24521175  0.25377484
   0.74982282  0.99584812  0.00521624
   0.49811973  0.99904172  0.24757395
   0.99732598  0.47880823  0.24517089
   0.50617676  0.75792577  0.00356163
   0.98666300  0.00345088  0.74682461
   0.75469580  0.24177505  0.74822007
   0.73731487  0.00631478  0.51260224
   0.50541122  0.23166060  0.50087076
   0.50441871  0.00107496  0.74006376
   0.00147060  0.00483201  0.24738831
   0.50361574  0.25013148 -0.00279074
   0.25568325  0.74974811  0.24937240
   0.24579763  0.49926120  0.99783522
   0.99660622  0.74335212  0.00258087
   0.74854551  0.74449296  0.24742087
   0.75793693  0.50502047  0.00333775
   0.49347370  0.50782727  0.24986784
   0.25148490  0.24783165  0.74850913
   0.25895765  0.99852994  0.50647878
   0.99672641  0.24827732  0.50220305
   0.24655570  0.75451073  0.75043740
   0.24965562  0.49930556  0.49807826
   0.99532233  0.75309194  0.50485990
   0.99509111  0.49843547  0.75248013
   0.74830675  0.76173150  0.75174445
   0.74840785  0.49335041  0.50376359
   0.50213345  0.76195525  0.49509793
   0.49743490  0.49904496  0.74722306
   0.51793577  0.01818338  0.97558852
   0.99640367  0.52099490  0.97911208
   0.50512145  0.73384430  0.26147891
   0.23338743  0.00918329  0.74655101
   0.47672572  0.98258950  0.49776957
   0.73765133  0.97358157  0.76686077
   0.00100784  0.77242682  0.25519721
   0.73639459  0.51119943  0.25501064
   0.01699257  0.00011786  0.49853913
   0.50073594  0.52379927  0.49588345
   0.74127920  0.52089321  0.75014642
   0.75419843  0.73834714  0.49545434
HECN                                    
           1
     8.769566   -0.008792   -0.004391
    -0.003269    8.834174    0.002083
     0.027138   -0.013333    8.791907
   Ta   W    Hf   N    C    Cr   Mo
   7   6   7  13  19   6   6
Direct configuration=     5
   0.99637178  0.99113903  0.99260703
   0.25670174  0.99127964  0.24880245
   0.25097078  0.50848276  0.24546961
   0.50377595  0.49446617  0.99748366
   0.50033580  0.24087201  0.75027897
   0.99640449  0.49791804  0.50144735
   0.49720057  0.76309746  0.74873590
   0.99653298  0.23319441  0.26606405
   0.76024394  0.74088843  0.00859843
   0.01302173  0.25860540  0.73447390
   0.75472600  0.26027443  0.50759930
   0.99890150  0.74209882  0.75005815
   0.25406648  0.49922217  0.75257891
   0.24893445  0.24757560  0.99637381
   0.50645343  0.24893683  0.25232441
   0.73964889  0.99314355  0.26772526
   0.75523595  0.25347442  0.99255269
   0.25213704  0.75224074  0.99865224
   0.25632134  0.24920898  0.50120626
   0.24903377  0.75088879  0.50072513
   0.25076282  0.24910118  0.24934216
   0.25623349  0.00031480  0.99685673
   0.00187596  0.24584067  0.00301281
   0.75408749  0.24515382  0.25367583
   0.74994246  0.99573124  0.00471164
   0.49745864  0.99896851  0.24760985
   0.99780672  0.47870693  0.24544774
   0.50624225  0.75770488  0.00320807
   0.98648888  0.00355605  0.74752631
   0.75450845  0.24158491  0.74816481
   0.73740910  0.00644542  0.51279951
   0.50540393  0.23160130  0.50125995
   0.50473389  0.00110345  0.74046416
   0.00174104  0.00532819  0.24655520
   0.50356024  0.25036121 -0.00315567
   0.25602474  0.74976128  0.24938572
   0.24595041  0.49916368  0.99803468
   0.99654209  0.74334698  0.00245245
   0.74796067  0.74492602  0.24671185
   0.75794072  0.50510655  0.00337749
   0.49250790  0.50814756  0.24923181
   0.25168183  0.24741837  0.74851349
   0.25998820  0.99855532  0.50677675
   0.99668214  0.24870283  0.50225579
   0.24691255  0.75461775  0.75046344
   0.24903332  0.49921619  0.49784856
   0.99571982  0.75243496  0.50537538
   0.99531291  0.49826769  0.75258822
   0.74816813  0.76265359  0.75202775
   0.74894364  0.49275963  0.50396633
   0.50189341  0.76288421  0.49492088
   0.49690051  0.49882348  0.74777959
   0.51806736  0.01850830  0.97522009
   0.99626378  0.52182199  0.97860580
   0.50519504  0.73346546  0.26165440
   0.23304943  0.00903341  0.74658670
   0.47655353  0.98258309  0.49780183
   0.73726225  0.97325690  0.76704246
   0.00117433  0.77210637  0.25473835
   0.73646741  0.51087485  0.25412712
   0.01649046  0.00030289  0.49877109
   0.50040184  0.52339204  0.49562881
   0.74147847  0.52032045  0.75108419
   0.75415951  0.73903768  0.49579250
HECN                                    
           1
     8.804357   -0.009482   -0.007715
    -0.003927    8.886664   -0.000864
     0.023925   -0.016354    8.817752
   Ta   W    Hf   N    C    Cr   Mo
   7   6   7  13  19   6   6
Direct configuration=     6
   0.99714770  0.99012565  0.98949096
   0.25568882  0.98956870  0.25159134
   0.24964581  0.51006325  0.24375570
   0.50352635  0.49363147  0.99717765
   0.49750484  0.23949905  0.75062298
   0.99819964  0.49784702  0.50166800
   0.49795945  0.76373701  0.74684758
   0.99641876  0.23445581  0.26720686
   0.76098661  0.74207268  0.00684760
   0.01722096  0.25806010  0.73565349
   0.75460841  0.25794016  0.50790466
   0.99972375  0.74015570  0.75224904
   0.25218128  0.50050843  0.75520283
   0.24767069  0.24646944  0.99706334
   0.50502897  0.24978973  0.25202909
   0.73997977  0.99301277  0.26678534
   0.75560359  0.25239217  0.99081801
   0.25362733  0.75339300  0.99871318
   0.25636387  0.24887907  0.50121747
   0.24834118  0.75091718  0.50110278
   0.25114607  0.24862587  0.24998275
   0.25413855  0.00065922  0.99882305
   0.00151859  0.24316590  0.00368010
   0.75397914  0.24501891  0.25309406
   0.74921960  0.99543817  0.00163262
   0.49620448  0.99889650  0.24695191
   0.99982556  0.47959043  0.24808914
   0.50648467  0.75673716 -0.00020883
   0.98618249  0.00413396  0.74939812
   0.75457488  0.24196133  0.74712692
   0.74008657  0.00604750  0.51280501
   0.50617580  0.23351804  0.50183717
   0.50711748  0.00065723  0.74346848
   0.00098406  0.00217584  0.24477290
   0.50330614  0.25085022 -0.00269729
   0.25833906  0.75044216  0.24924319
   0.24524499  0.50009474  0.99888229
   0.99963107  0.74445148  0.00282240
   0.74469039  0.74492746  0.24716848
   0.75938033  0.50360286  0.00397343
   0.49400828  0.50793962  0.24771998
   0.25338294  0.24570060  0.74879541
   0.25928020  0.99916252  0.50956844
   0.99897556  0.24931872  0.50159975
   0.24878430  0.75581277  0.75075652
   0.24760930  0.49989416  0.49733388
   0.99650657  0.75049240  0.50575673
   0.99609644  0.49691990  0.75384987
   0.74921012  0.76055362  0.75139531
   0.74766788  0.49509297  0.50322332
   0.50353485  0.76283020  0.49291172
   0.49673889  0.49941312  0.74746137
   0.51944154  0.02059636  0.97306940
   0.99510516  0.52759336  0.97428918
   0.50488364  0.73036478  0.26553512
   0.22792993  0.00644800  0.74518343
   0.47823304  0.98483156  0.49776208
   0.73304172  0.97515613  0.76962703
  -0.00045267  0.77290391  0.25240089
   0.73223988  0.51159371  0.25097946
   0.01678786  0.00103230  0.49910804
   0.50134681  0.52330044  0.49342963
   0.74124865  0.52169039  0.75686180
   0.75274174  0.73784482  0.49658800
HECN                                    
           1
     8.816284   -0.009718   -0.008854
    -0.004153    8.904658   -0.001874
     0.022823   -0.017390    8.826613
   Ta   W    Hf   N    C    Cr   Mo
   7   6   7  13  19   6   6
Direct configuration=     7
   0.99741223  0.98977995  0.98842579
   0.25534325  0.98898590  0.25254432
   0.24919318  0.51060166  0.24316986
   0.50344106  0.49334696  0.99707293
   0.49653816  0.23903111  0.75074005
   0.99881266  0.49782288  0.50174365
   0.49821835  0.76395477  0.74620228
   0.99637993  0.23488583  0.26759763
   0.76124002  0.74247610  0.00624936
   0.01865502  0.25787450  0.73605717
   0.75456824  0.25714467  0.50800875
   0.00000475  0.73949376  0.75299782
   0.25153791  0.50094704  0.75609965
   0.24723921  0.24609251  0.99729875
   0.50454254  0.25008033  0.25192805
   0.74009264  0.99296809  0.26646408
   0.75572888  0.25202314  0.99022498
   0.25413626  0.75378573  0.99873433
   0.25637839  0.24876663  0.50122126
   0.24810473  0.75092689  0.50123178
   0.25127700  0.24846396  0.25020171
   0.25342345  0.00077677  0.99949495
   0.00139657  0.24225440  0.00390784
   0.75394207  0.24497287  0.25289517
   0.74897236  0.99533793  0.00058002
   0.49577614  0.99887185  0.24672684
   0.00051529  0.47989188  0.24899238
   0.50656699  0.75640697 -0.00137688
   0.98607812  0.00433112  0.75003797
   0.75459744  0.24208949  0.74677220
   0.74100085  0.00591196  0.51280719
   0.50643950  0.23417136  0.50203479
   0.50793179  0.00050556  0.74449568
   0.00072526  0.00110129  0.24416321
   0.50321944  0.25101692 -0.00254058
   0.25912933  0.75067425  0.24919485
   0.24500424  0.50041212  0.99917203
   0.00068595  0.74482802  0.00294938
   0.74357374  0.74492792  0.24732415
   0.75987195  0.50309050  0.00417715
   0.49452042  0.50786861  0.24720337
   0.25396381  0.24511526  0.74889180
   0.25903882  0.99936976  0.51052268
   0.99975864  0.24952860  0.50137586
   0.24942352  0.75622011  0.75085708
   0.24712299  0.50012511  0.49715785
   0.99677523  0.74983044  0.50588696
   0.99636413  0.49646073  0.75428107
   0.74956580  0.75983790  0.75117902
   0.74723220  0.49588806  0.50296944
   0.50409510  0.76281161  0.49222514
   0.49668368  0.49961403  0.74735264
   0.51991056  0.02130776  0.97233467
   0.99470911  0.52955974  0.97281417
   0.50477772  0.72930850  0.26686124
   0.22618152  0.00556659  0.74470281
   0.47880660  0.98559788  0.49774896
   0.73160091  0.97580358  0.77051017
  -0.00100852  0.77317541  0.25160178
   0.73079591  0.51183823  0.24990306
   0.01688948  0.00128093  0.49922334
   0.50166921  0.52326900  0.49267801
   0.74117095  0.52215793  0.75883684
   0.75225769  0.73743835  0.49685961
HECN                                    
           1
     8.770122   -0.009991   -0.008888
    -0.004451    8.869093   -0.007098
     0.022625   -0.022508    8.787083
   Ta   W    Hf   N    C    Cr   Mo
   7   6   7  13  19   6   6
Direct configuration=     8
   0.99825798  0.98896374  0.98678645
   0.25469953  0.98824792  0.25586724
   0.24856526  0.51151953  0.24234600
   0.50314327  0.49287286  0.99602636
   0.49421727  0.23883217  0.75086374
   0.99909077  0.49802277  0.50202454
   0.50009146  0.76325197  0.74380536
   0.99544039  0.23370564  0.26784684
   0.76265367  0.74372030  0.00464578
   0.02133422  0.25668400  0.73676457
   0.75555746  0.25708792  0.50736706
   0.00014694  0.73820195  0.75354684
   0.25053542  0.50229403  0.75770984
   0.24608008  0.24542531  0.99819767
   0.50389295  0.25072196  0.25192561
   0.74014787  0.99239666  0.26572522
   0.75619721  0.25093990  0.98870440
   0.25657152  0.75511551  0.99876582
   0.25658286  0.24904942  0.50155788
   0.24810697  0.75123511  0.50164835
   0.25127629  0.24813603  0.25081838
   0.25125522  0.00103182  0.00150232
   0.00105160  0.23918063  0.00423819
   0.75356699  0.24470287  0.25245906
   0.74820086  0.99477237 -0.00145697
   0.49559210  0.99972097  0.24607171
   0.00221886  0.48012661  0.25219089
   0.50700195  0.75530041 -0.00498784
   0.98645588  0.00472555  0.74999689
   0.75465576  0.24241325  0.74560995
   0.74383774  0.00614439  0.51168950
   0.50733528  0.23644611  0.50230942
   0.50979373  0.00005173  0.74624109
  -0.00048504  0.00079339  0.24446237
   0.50296120  0.25117171 -0.00183847
   0.26027216  0.75113259  0.24944994
   0.24386883  0.50129852  0.99938398
   0.00298549  0.74654745  0.00345521
   0.74105166  0.74436944  0.24771313
   0.76174344  0.50211211  0.00496118
   0.49485838  0.50689860  0.24622593
   0.25549586  0.24407587  0.74937073
   0.25824440  0.99942075  0.51304092
   0.00155949  0.24972612  0.50229948
   0.25078477  0.75706126  0.75099357
   0.24717447  0.50065026  0.49714050
   0.99625306  0.74947486  0.50558232
   0.99622727  0.49523030  0.75446935
   0.75107627  0.75853329  0.75010631
   0.74630997  0.49693057  0.50251724
   0.50507959  0.76220089  0.49067163
   0.49711895  0.50042526  0.74618022
   0.52143728  0.02355503  0.97124488
   0.99339808  0.53377176  0.97026447
   0.50517473  0.72742654  0.27171060
   0.22012421  0.00288251  0.74252978
   0.47950260  0.98796455  0.49768884
   0.72788843  0.97648062  0.77313667
  -0.00311675  0.77260005  0.25022911
   0.72776883  0.51369107  0.24837863
   0.01671471  0.00156018  0.49931134
   0.50241019  0.52268428  0.49105237
   0.74103346  0.52379763  0.76239112
   0.75152902  0.73449086  0.49706859
HECN                                    
           1
     8.773404   -0.009972   -0.008886
    -0.004430    8.871621   -0.006727
     0.022639   -0.022144    8.789893
   Ta   W    Hf   N    C    Cr   Mo
   7   6   7  13  19   6   6
Direct configuration=     9
   0.99819753  0.98902207  0.98690356
   0.25474554  0.98830046  0.25562995
   0.24861014  0.51145404  0.24240480
   0.50316455  0.49290675  0.99610113
   0.49438315  0.23884637  0.75085492
   0.99907089  0.49800849  0.50200447
   0.49995759  0.76330224  0.74397657
   0.99550754  0.23378988  0.26782910
   0.76255263  0.74363154  0.00476026
   0.02114273  0.25676895  0.73671410
   0.75548676  0.25709200  0.50741289
   0.00013678  0.73829415  0.75350768
   0.25060707  0.50219781  0.75759479
   0.24616293  0.24547290  0.99813350
   0.50393938  0.25067616  0.25192576
   0.74014393  0.99243749  0.26577802
   0.75616374  0.25101729  0.98881304
   0.25639746  0.75502057  0.99876352
   0.25656824  0.24902922  0.50153383
   0.24810681  0.75121309  0.50161858
   0.25127634  0.24815942  0.25077436
   0.25141019  0.00101353  0.00135894
   0.00107627  0.23940004  0.00421473
   0.75359380  0.24472216  0.25249022
   0.74825601  0.99481283 -0.00131146
   0.49560525  0.99966039  0.24611847
   0.00209709  0.48010971  0.25196244
   0.50697087  0.75537955 -0.00472990
   0.98642888  0.00469740  0.74999981
   0.75465159  0.24239019  0.74569294
   0.74363497  0.00612784  0.51176932
   0.50727124  0.23628371  0.50228971
   0.50966065  0.00008405  0.74611645
  -0.00039853  0.00081536  0.24444102
   0.50297965  0.25116063 -0.00188862
   0.26019048  0.75109986  0.24943170
   0.24394998  0.50123524  0.99936881
   0.00282112  0.74642468  0.00341901
   0.74123192  0.74440929  0.24768538
   0.76160968  0.50218191  0.00490523
   0.49483423  0.50696788  0.24629578
   0.25538636  0.24415005  0.74933657
   0.25830118  0.99941700  0.51286107
   0.00143077  0.24971198  0.50223351
   0.25068748  0.75700120  0.75098379
   0.24717078  0.50061277  0.49714172
   0.99629039  0.74950026  0.50560409
   0.99623706  0.49531813  0.75445595
   0.75096832  0.75862647  0.75018297
   0.74637588  0.49685617  0.50254950
   0.50500923  0.76224455  0.49078261
   0.49708784  0.50036739  0.74626392
   0.52132816  0.02339465  0.97132262
   0.99349178  0.53347119  0.97044640
   0.50514636  0.72756068  0.27136434
   0.22055716  0.00307422  0.74268510
   0.47945285  0.98779561  0.49769303
   0.72815377  0.97643219  0.77294905
  -0.00296607  0.77264119  0.25032717
   0.72798519  0.51355888  0.24848743
   0.01672720  0.00154024  0.49930504
   0.50235723  0.52272609  0.49116850
   0.74104328  0.52368043  0.76213720
   0.75158111  0.73470126  0.49705379
HECN                                    
           1
     8.778537   -0.010276   -0.005612
    -0.004749    8.869868   -0.011235
     0.025944   -0.026594    8.805818
   Ta   W    Hf   N    C    Cr   Mo
   7   6   7  13  19   6   6
Direct configuration=    10
   0.99885068  0.98895816  0.98730600
   0.25485043  0.98894092  0.25818322
   0.24862070  0.51138413  0.24267040
   0.50280174  0.49303728  0.99478264
   0.49375800  0.23995474  0.75077823
   0.99836575  0.49821131  0.50212003
   0.50198324  0.76157681  0.74189971
   0.99429850  0.23174942  0.26732165
   0.76353397  0.74499049  0.00370165
   0.02116813  0.25509914  0.73759016
   0.75708432  0.25872896  0.50573095
  -0.00010633  0.73868930  0.75243018
   0.25055199  0.50345730  0.75761650
   0.24566427  0.24549566  0.99898755
   0.50414559  0.25047740  0.25205806
   0.73950425  0.99185529  0.26531905
   0.75637742  0.25022452  0.98802954
   0.25930725  0.75625685  0.99879157
   0.25709383  0.24979355  0.50193091
   0.24864180  0.75142351  0.50199692
   0.25075476  0.24808952  0.25124973
   0.24992719  0.00118999  0.00274890
   0.00081605  0.23704926  0.00436960
   0.75310752  0.24443164  0.25214957
   0.74783240  0.99408593 -0.00155699
   0.49585766  0.00071794  0.24550089
   0.00288862  0.47998024  0.25438888
   0.50761199  0.75445979 -0.00737344
   0.98669154  0.00475478  0.74831594
   0.75464593  0.24227902  0.74476227
   0.74573423  0.00688940  0.51026467
   0.50806076  0.23831254  0.50248781
   0.51007321 -0.00002058  0.74587610
  -0.00138198  0.00208248  0.24577765
   0.50277420  0.25106247 -0.00147006
   0.26019240  0.75116186  0.25001983
   0.24269456  0.50174327  0.99909098
   0.00418855  0.74801975  0.00363282
   0.73983567  0.74424160  0.24720030
   0.76323702  0.50184331  0.00577028
   0.49318637  0.50588713  0.24547661
   0.25611831  0.24364815  0.74991501
   0.25840714  0.99919111  0.51458710
   0.00219149  0.24973484  0.50372093
   0.25134065  0.75745694  0.75088464
   0.24825747  0.50080428  0.49758983
   0.99520279  0.75033036  0.50497594
   0.99534130  0.49448734  0.75363212
   0.75239785  0.75935959  0.74902967
   0.74657619  0.49593541  0.50274490
   0.50494446  0.76238356  0.49050577
   0.49756851  0.50089439  0.74491517
   0.52193728  0.02483295  0.97203048
   0.99267088  0.53440857  0.97093433
   0.50601340  0.72794592  0.27512506
   0.21601157  0.00083818  0.74066663
   0.47929032  0.98985172  0.49781971
   0.72696137  0.97598441  0.77429375
  -0.00468043  0.77070913  0.25024950
   0.72810497  0.51457861  0.24849558
   0.01511398  0.00170851  0.49965530
   0.50190698  0.52048324  0.49086076
   0.74150626  0.52374593  0.76263565
   0.75159344  0.73212054  0.49680504
HECN                                    
           1
     8.782772   -0.010527   -0.002910
    -0.005012    8.868420   -0.014956
     0.028672   -0.030266    8.818960
   Ta   W    Hf   N    C    Cr   Mo
   7   6   7  13  19   6   6
Direct configuration=    11
   0.99938923  0.98890559  0.98763728
   0.25493617  0.98947060  0.26028670
   0.24862932  0.51132652  0.24288915
   0.50250292  0.49314448  0.99369671
   0.49324246  0.24086954  0.75071572
   0.99778416  0.49837875  0.50221552
   0.50365448  0.76015185  0.74018755
   0.99330144  0.23006498  0.26690316
   0.76434369  0.74611176  0.00282991
   0.02118877  0.25372123  0.73831110
   0.75840248  0.26007946  0.50434567
  -0.00030650  0.73901501  0.75154283
   0.25050659  0.50449688  0.75763493
   0.24525273  0.24551477  0.99969123
   0.50431562  0.25031341  0.25216690
   0.73897681  0.99137454  0.26494092
   0.75655387  0.24956985  0.98738374
   0.26170713  0.75727736  0.99881430
   0.25752721  0.25042460  0.50225817
   0.24908293  0.75159736  0.50230850
   0.25032443  0.24803201  0.25164145
   0.24870365  0.00133617  0.00389440
   0.00060132  0.23510899  0.00449627
   0.75270656  0.24419170  0.25186899
   0.74748309  0.99348583 -0.00175941
   0.49606606  0.00159060  0.24499254
   0.00354069  0.47987438  0.25638734
   0.50814155  0.75369956 -0.00955162
   0.98690868  0.00480145  0.74692881
   0.75464154  0.24218689  0.74399560
   0.74746608  0.00751743  0.50902491
   0.50871192  0.23998725  0.50265161
   0.51041354 -0.00010703  0.74567793
  -0.00219345  0.00312888  0.24687953
   0.50260461  0.25098161 -0.00112525
   0.26019382  0.75121327  0.25050431
   0.24165925  0.50216246  0.99886272
   0.00531632  0.74933644  0.00380920
   0.73868425  0.74410296  0.24680109
   0.76457890  0.50156422  0.00648222
   0.49182751  0.50499469  0.24480186
   0.25672180  0.24323415  0.75039105
   0.25849400  0.99900536  0.51600878
   0.00281844  0.24975433  0.50494596
   0.25187940  0.75783309  0.75080297
   0.24915358  0.50096257  0.49795871
   0.99430602  0.75101523  0.50445918
   0.99460276  0.49380124  0.75295341
   0.75357723  0.75996427  0.74807952
   0.74674131  0.49517550  0.50290540
   0.50489113  0.76249819  0.49027780
   0.49796537  0.50132883  0.74380422
   0.52243948  0.02602043  0.97261400
   0.99199371  0.53518246  0.97133691
   0.50672736  0.72826546  0.27822282
   0.21226314 -0.00100840  0.73900438
   0.47915630  0.99154889  0.49792498
   0.72597751  0.97561533  0.77540161
  -0.00609439  0.76911434  0.25018522
   0.72820380  0.51542030  0.24850270
   0.01378336  0.00184750  0.49994439
   0.50153566  0.51863185  0.49060645
   0.74188796  0.52380021  0.76304614
   0.75160362  0.72999032  0.49659904
HECN                                    
           1
     8.804983   -0.011087   -0.002166
    -0.005580    8.878074   -0.014050
     0.029497   -0.029384    8.827892
   Ta   W    Hf   N    C    Cr   Mo
   7   6   7  13  19   6   6
Direct configuration=    12
   0.99941258  0.98886104  0.98877032
   0.25505172  0.98988712  0.26125900
   0.24837870  0.51144574  0.24310503