<?xml version="1.0" encoding="ISO-8859-1"?>
<modeling>
 <generator>
  <i name="program" type="string">vasp </i>
  <i name="version" type="string">5.4.4.18Apr17-6-g9f103f2a35  </i>
  <i name="subversion" type="string">(build Oct 18 2021 20:38:43) complex            parallel </i>
  <i name="platform" type="string">LinuxIFC </i>
  <i name="date" type="string">2024 05 30 </i>
  <i name="time" type="string">10:54:53 </i>
 </generator>
 <incar>
  <i type="string" name="SYSTEM">HECN</i>
  <i type="int" name="ISTART">     0</i>
  <i type="string" name="PREC">normal</i>
  <i type="string" name="ALGO">Fast</i>
  <i type="int" name="ICHARG">     2</i>
  <i type="int" name="NELM">    60</i>
  <i type="int" name="IBRION">     2</i>
  <i name="EDIFF">      0.00001000</i>
  <i name="EDIFFG">     -0.01000000</i>
  <i type="int" name="NSW">   100</i>
  <i type="int" name="ISIF">     3</i>
  <i name="ENCUT">    400.00000000</i>
  <i name="POTIM">      0.50000000</i>
  <i type="logical" name="LREAL"> F  </i>
  <i type="int" name="ISMEAR">     0</i>
  <i name="SIGMA">      0.10000000</i>
  <i type="logical" name="LWAVE"> F  </i>
  <i type="logical" name="LCHARG"> F  </i>
  <v type="int" name="KPOINT_BSE">    -1     0     0     0</v>
  <i type="int" name="NELM">    60</i>
 </incar>
 <structure name="primitive_cell" >
  <crystal>
   <varray name="basis" >
    <v>      11.23999977       0.00000000       0.00000000 </v>
    <v>       0.00000000      11.23999977       0.00000000 </v>
    <v>       0.00000000       0.00000000      11.23999977 </v>
   </varray>
   <i name="volume">   1420.03453724 </i>
   <varray name="rec_basis" >
    <v>       0.08896797       0.00000000       0.00000000 </v>
    <v>       0.00000000       0.08896797       0.00000000 </v>
    <v>       0.00000000       0.00000000       0.08896797 </v>
   </varray>
  </crystal>
  <varray name="positions" >
   <v>       0.00000000       0.00000000       0.00000000 </v>
   <v>      -0.24999996       0.00000000       0.00000000 </v>
   <v>       0.00000000       0.00000000      -0.24999996 </v>
   <v>       0.00000000      -0.24999996       0.00000000 </v>
   <v>       0.25000000       0.00000000       0.00000000 </v>
   <v>       0.00000000       0.25000000       0.00000000 </v>
   <v>       0.00000000       0.00000000       0.25000000 </v>
   <v>      -0.24999996      -0.24999996       0.00000000 </v>
   <v>       0.00000000      -0.24999996      -0.24999996 </v>
   <v>      -0.24999996       0.00000000      -0.24999996 </v>
   <v>       0.00000000       0.25000000      -0.24999996 </v>
   <v>      -0.24999996       0.00000000       0.25000000 </v>
   <v>      -0.24999996       0.25000000       0.00000000 </v>
   <v>       0.25000000      -0.24999996       0.00000000 </v>
   <v>       0.25000000       0.00000000      -0.24999996 </v>
   <v>       0.00000000      -0.24999996       0.25000000 </v>
   <v>       0.25000000       0.00000000       0.25000000 </v>
   <v>       0.00000000       0.25000000       0.25000000 </v>
   <v>       0.25000000       0.25000000       0.00000000 </v>
   <v>      -0.24999996      -0.24999996      -0.24999996 </v>
   <v>      -0.24999996       0.25000000      -0.24999996 </v>
   <v>       0.25000000      -0.24999996      -0.24999996 </v>
   <v>      -0.24999996      -0.24999996       0.25000000 </v>
   <v>      -0.24999996       0.25000000       0.25000000 </v>
   <v>       0.25000000      -0.24999996       0.25000000 </v>
   <v>       0.25000000       0.25000000      -0.24999996 </v>
   <v>       0.25000000       0.25000000       0.25000000 </v>
   <v>      -0.50000000       0.00000000       0.00000000 </v>
   <v>       0.00000000      -0.50000000       0.00000000 </v>
   <v>       0.00000000       0.00000000      -0.50000000 </v>
   <v>      -0.50000000      -0.24999996       0.00000000 </v>
   <v>      -0.24999996       0.00000000      -0.50000000 </v>
   <v>      -0.50000000       0.00000000      -0.24999996 </v>
   <v>      -0.24999996      -0.50000000       0.00000000 </v>
   <v>       0.00000000      -0.24999996      -0.50000000 </v>
   <v>       0.00000000      -0.50000000      -0.24999996 </v>
   <v>      -0.50000000       0.00000000       0.25000000 </v>
   <v>       0.00000000      -0.50000000       0.25000000 </v>
   <v>      -0.50000000       0.25000000       0.00000000 </v>
   <v>       0.25000000      -0.50000000       0.00000000 </v>
   <v>       0.25000000       0.00000000      -0.50000000 </v>
   <v>       0.00000000       0.25000000      -0.50000000 </v>
   <v>      -0.24999996      -0.24999996      -0.50000000 </v>
   <v>      -0.50000000      -0.24999996      -0.24999996 </v>
   <v>      -0.24999996      -0.50000000      -0.24999996 </v>
   <v>      -0.50000000       0.25000000      -0.24999996 </v>
   <v>      -0.24999996       0.25000000      -0.50000000 </v>
   <v>       0.25000000      -0.50000000      -0.24999996 </v>
   <v>       0.25000000      -0.24999996      -0.50000000 </v>
   <v>      -0.50000000      -0.24999996       0.25000000 </v>
   <v>      -0.24999996      -0.50000000       0.25000000 </v>
   <v>       0.25000000      -0.50000000       0.25000000 </v>
   <v>      -0.50000000       0.25000000       0.25000000 </v>
   <v>       0.25000000       0.25000000      -0.50000000 </v>
   <v>      -0.50000000      -0.50000000       0.00000000 </v>
   <v>       0.00000000      -0.50000000      -0.50000000 </v>
   <v>      -0.50000000       0.00000000      -0.50000000 </v>
   <v>      -0.24999996      -0.50000000      -0.50000000 </v>
   <v>      -0.50000000      -0.24999996      -0.50000000 </v>
   <v>      -0.50000000      -0.50000000      -0.24999996 </v>
   <v>      -0.50000000       0.25000000      -0.50000000 </v>
   <v>      -0.50000000      -0.50000000       0.25000000 </v>
   <v>       0.25000000      -0.50000000      -0.50000000 </v>
   <v>      -0.50000000      -0.50000000      -0.50000000 </v>
  </varray>
 </structure>
 <varray name="primitive_index" >
  <v type="int" >        1 </v>
  <v type="int" >       25 </v>
  <v type="int" >       29 </v>
  <v type="int" >       38 </v>
  <v type="int" >       22 </v>
  <v type="int" >       23 </v>
  <v type="int" >       34 </v>
  <v type="int" >        9 </v>
  <v type="int" >       12 </v>
  <v type="int" >       58 </v>
  <v type="int" >       10 </v>
  <v type="int" >       16 </v>
  <v type="int" >       17 </v>
  <v type="int" >       18 </v>
  <v type="int" >       56 </v>
  <v type="int" >       59 </v>
  <v type="int" >        2 </v>
  <v type="int" >        8 </v>
  <v type="int" >       14 </v>
  <v type="int" >       49 </v>
  <v type="int" >       30 </v>
  <v type="int" >       45 </v>
  <v type="int" >       39 </v>
  <v type="int" >       24 </v>
  <v type="int" >       36 </v>
  <v type="int" >       42 </v>
  <v type="int" >       21 </v>
  <v type="int" >       53 </v>
  <v type="int" >       54 </v>
  <v type="int" >       61 </v>
  <v type="int" >       28 </v>
  <v type="int" >       31 </v>
  <v type="int" >       33 </v>
  <v type="int" >       40 </v>
  <v type="int" >       47 </v>
  <v type="int" >       48 </v>
  <v type="int" >       26 </v>
  <v type="int" >       27 </v>
  <v type="int" >       35 </v>
  <v type="int" >       37 </v>
  <v type="int" >       43 </v>
  <v type="int" >       44 </v>
  <v type="int" >       64 </v>
  <v type="int" >        7 </v>
  <v type="int" >       63 </v>
  <v type="int" >        5 </v>
  <v type="int" >       11 </v>
  <v type="int" >       13 </v>
  <v type="int" >       20 </v>
  <v type="int" >       55 </v>
  <v type="int" >       60 </v>
  <v type="int" >        3 </v>
  <v type="int" >       15 </v>
  <v type="int" >       19 </v>
  <v type="int" >        4 </v>
  <v type="int" >        6 </v>
  <v type="int" >       57 </v>
  <v type="int" >       50 </v>
  <v type="int" >       51 </v>
  <v type="int" >       52 </v>
  <v type="int" >       32 </v>
  <v type="int" >       41 </v>
  <v type="int" >       46 </v>
  <v type="int" >       62 </v>
 </varray>
 <kpoints>
  <generation param="Gamma">
   <v type="int" name="divisions">       3        3        3 </v>
   <v name="usershift">      0.00000000       0.00000000       0.00000000 </v>
   <v name="genvec1">      0.33333333       0.00000000       0.00000000 </v>
   <v name="genvec2">      0.00000000       0.33333333       0.00000000 </v>
   <v name="genvec3">      0.00000000       0.00000000       0.33333333 </v>
   <v name="shift">      0.00000000       0.00000000       0.00000000 </v>
  </generation>
  <varray name="kpointlist" >
   <v>       0.00000000       0.00000000       0.00000000 </v>
   <v>       0.33333333       0.00000000       0.00000000 </v>
   <v>       0.00000000       0.33333333       0.00000000 </v>
   <v>       0.33333333       0.33333333       0.00000000 </v>
   <v>      -0.33333333       0.33333333       0.00000000 </v>
   <v>       0.00000000       0.00000000       0.33333333 </v>
   <v>       0.33333333       0.00000000       0.33333333 </v>
   <v>      -0.33333333       0.00000000       0.33333333 </v>
   <v>       0.00000000       0.33333333       0.33333333 </v>
   <v>       0.33333333       0.33333333       0.33333333 </v>
   <v>      -0.33333333       0.33333333       0.33333333 </v>
   <v>       0.00000000      -0.33333333       0.33333333 </v>
   <v>       0.33333333      -0.33333333       0.33333333 </v>
   <v>      -0.33333333      -0.33333333       0.33333333 </v>
  </varray>
  <varray name="weights" >
   <v>       0.03703704 </v>
   <v>       0.07407407 </v>
   <v>       0.07407407 </v>
   <v>       0.07407407 </v>
   <v>       0.07407407 </v>
   <v>       0.07407407 </v>
   <v>       0.07407407 </v>
   <v>       0.07407407 </v>
   <v>       0.07407407 </v>
   <v>       0.07407407 </v>
   <v>       0.07407407 </v>
   <v>       0.07407407 </v>
   <v>       0.07407407 </v>
   <v>       0.07407407 </v>
  </varray>
 </kpoints>
 <parameters>
  <separator name="general" >
   <i type="string" name="SYSTEM">HECN</i>
   <i type="logical" name="LCOMPAT"> F  </i>
  </separator>
  <separator name="electronic" >
   <i type="string" name="PREC">normal</i>
   <i name="ENMAX">    400.00000000</i>
   <i name="ENAUG">    644.87300000</i>
   <i name="EDIFF">      0.00001000</i>
   <i type="int" name="IALGO">    68</i>
   <i type="int" name="IWAVPR">    11</i>
   <i type="int" name="NBANDS">   312</i>
   <i name="NELECT">    517.00000000</i>
   <i type="int" name="TURBO">     0</i>
   <i type="int" name="IRESTART">     0</i>
   <i type="int" name="NREBOOT">     0</i>
   <i type="int" name="NMIN">     0</i>
   <i name="EREF">      0.00000000</i>
   <separator name="electronic smearing" >
    <i type="int" name="ISMEAR">     0</i>
    <i name="SIGMA">      0.10000000</i>
    <i name="KSPACING">      0.50000000</i>
    <i type="logical" name="KGAMMA"> T  </i>
   </separator>
   <separator name="electronic projectors" >
    <i type="logical" name="LREAL"> F  </i>
    <v name="ROPT">      0.00000000      0.00000000      0.00000000      0.00000000      0.00000000      0.00000000      0.00000000</v>
    <i type="int" name="LMAXPAW">  -100</i>
    <i type="int" name="LMAXMIX">     2</i>
    <i type="logical" name="NLSPLINE"> F  </i>
   </separator>
   <separator name="electronic startup" >
    <i type="int" name="ISTART">     0</i>
    <i type="int" name="ICHARG">     2</i>
    <i type="int" name="INIWAV">     1</i>
   </separator>
   <separator name="electronic spin" >
    <i type="int" name="ISPIN">     1</i>
    <i type="logical" name="LNONCOLLINEAR"> F  </i>
    <v name="MAGMOM">      1.00000000      1.00000000      1.00000000      1.00000000      1.00000000      1.00000000      1.00000000      1.00000000      1.00000000      1.00000000      1.00000000      1.00000000      1.00000000      1.00000000      1.00000000      1.00000000      1.00000000      1.00000000      1.00000000      1.00000000
      1.00000000      1.00000000      1.00000000      1.00000000      1.00000000      1.00000000      1.00000000      1.00000000      1.00000000      1.00000000      1.00000000      1.00000000      1.00000000      1.00000000      1.00000000      1.00000000      1.00000000      1.00000000      1.00000000      1.00000000
      1.00000000      1.00000000      1.00000000      1.00000000      1.00000000      1.00000000      1.00000000      1.00000000      1.00000000      1.00000000      1.00000000      1.00000000      1.00000000      1.00000000      1.00000000      1.00000000      1.00000000      1.00000000      1.00000000      1.00000000
      1.00000000      1.00000000      1.00000000      1.00000000</v>
    <i name="NUPDOWN">     -1.00000000</i>
    <i type="logical" name="LSORBIT"> F  </i>
    <v name="SAXIS">      0.00000000      0.00000000      1.00000000</v>
    <i type="logical" name="LSPIRAL"> F  </i>
    <v name="QSPIRAL">      0.00000000      0.00000000      0.00000000</v>
    <i type="logical" name="LZEROZ"> F  </i>
   </separator>
   <separator name="electronic exchange-correlation" >
    <i type="logical" name="LASPH"> F  </i>
    <i type="logical" name="LMETAGGA"> F  </i>
   </separator>
   <separator name="electronic convergence" >
    <i type="int" name="NELM">    60</i>
    <i type="int" name="NELMDL">    -5</i>
    <i type="int" name="NELMIN">     2</i>
    <i name="ENINI">    400.00000000</i>
    <separator name="electronic convergence detail" >
     <i type="logical" name="LDIAG"> T  </i>
     <i type="logical" name="LSUBROT"> F  </i>
     <i name="WEIMIN">      0.00100000</i>
     <i name="EBREAK">      0.00000001</i>
     <i name="DEPER">      0.30000000</i>
     <i type="int" name="NRMM">     4</i>
     <i name="TIME">      0.40000000</i>
    </separator>
   </separator>
   <separator name="electronic mixer" >
    <i name="AMIX">      0.40000000</i>
    <i name="BMIX">      1.00000000</i>
    <i name="AMIN">      0.10000000</i>
    <i name="AMIX_MAG">      1.60000000</i>
    <i name="BMIX_MAG">      1.00000000</i>
    <separator name="electronic mixer details" >
     <i type="int" name="IMIX">     4</i>
     <i type="logical" name="MIXFIRST"> F  </i>
     <i type="int" name="MAXMIX">   -45</i>
     <i name="WC">    100.00000000</i>
     <i type="int" name="INIMIX">     1</i>
     <i type="int" name="MIXPRE">     1</i>
     <i type="int" name="MREMOVE">     5</i>
    </separator>
   </separator>
   <separator name="electronic dipolcorrection" >
    <i type="logical" name="LDIPOL"> F  </i>
    <i type="logical" name="LMONO"> F  </i>
    <i type="int" name="IDIPOL">     0</i>
    <i name="EPSILON">      1.00000000</i>
    <v name="DIPOL">   -100.00000000   -100.00000000   -100.00000000</v>
    <i name="EFIELD">      0.00000000</i>
   </separator>
  </separator>
  <separator name="grids" >
   <i type="int" name="NGX">    56</i>
   <i type="int" name="NGY">    56</i>
   <i type="int" name="NGZ">    56</i>
   <i type="int" name="NGXF">   112</i>
   <i type="int" name="NGYF">   112</i>
   <i type="int" name="NGZF">   112</i>
   <i type="logical" name="ADDGRID"> F  </i>
  </separator>
  <separator name="ionic" >
   <i type="int" name="NSW">   100</i>
   <i type="int" name="IBRION">     2</i>
   <i type="int" name="MDALGO">     0</i>
   <i type="int" name="ISIF">     3</i>
   <i name="PSTRESS">      0.00000000</i>
   <i name="EDIFFG">     -0.01000000</i>
   <i type="int" name="NFREE">     1</i>
   <i name="POTIM">      0.50000000</i>
   <i name="SMASS">     -3.00000000</i>
   <i name="SCALEE">      1.00000000</i>
  </separator>
  <separator name="ionic md" >
   <i name="TEBEG">      0.00010000</i>
   <i name="TEEND">      0.00010000</i>
   <i type="int" name="NBLOCK">     1</i>
   <i type="int" name="KBLOCK">   100</i>
   <i type="int" name="NPACO">   256</i>
   <i name="APACO">     16.00000000</i>
  </separator>
  <separator name="symmetry" >
   <i type="int" name="ISYM">     2</i>
   <i name="SYMPREC">      0.00001000</i>
  </separator>
  <separator name="dos" >
   <i type="int" name="LORBIT">     0</i>
   <v name="RWIGS">     -1.00000000     -1.00000000     -1.00000000     -1.00000000     -1.00000000     -1.00000000     -1.00000000</v>
   <i type="int" name="NEDOS">   301</i>
   <i name="EMIN">     10.00000000</i>
   <i name="EMAX">    -10.00000000</i>
   <i name="EFERMI">      0.00000000</i>
  </separator>
  <separator name="writing" >
   <i type="int" name="NWRITE">     2</i>
   <i type="logical" name="LWAVE"> F  </i>
   <i type="logical" name="LDOWNSAMPLE"> F  </i>
   <i type="logical" name="LCHARG"> F  </i>
   <i type="logical" name="LPARD"> F  </i>
   <i type="logical" name="LVTOT"> F  </i>
   <i type="logical" name="LVHAR"> F  </i>
   <i type="logical" name="LELF"> F  </i>
   <i type="logical" name="LOPTICS"> F  </i>
   <v name="STM">      0.00000000      0.00000000      0.00000000      0.00000000      0.00000000      0.00000000      0.00000000</v>
  </separator>
  <separator name="performance" >
   <i type="int" name="NPAR">    24</i>
   <i type="int" name="NSIM">     4</i>
   <i type="int" name="NBLK">    -1</i>
   <i type="logical" name="LPLANE"> T  </i>
   <i type="logical" name="LSCALAPACK"> T  </i>
   <i type="logical" name="LSCAAWARE"> F  </i>
   <i type="logical" name="LSCALU"> F  </i>
   <i type="logical" name="LASYNC"> F  </i>
   <i type="logical" name="LORBITALREAL"> F  </i>
  </separator>
  <separator name="miscellaneous" >
   <i type="int" name="IDIOT">     3</i>
   <i type="int" name="ISPECIAL">     0</i>
   <i type="logical" name="LMUSIC"> F  </i>
   <v name="POMASS">     91.22400000    180.94800000    178.49000000     14.00100000     12.01100000     92.91000000     50.94100000</v>
   <v name="DARWINR">      0.00000000      0.00000000      0.00000000      0.00000000      0.00000000      0.00000000      0.00000000</v>
   <v name="DARWINV">      1.00000000      1.00000000      1.00000000      1.00000000      1.00000000      1.00000000      1.00000000</v>
   <i type="logical" name="LCORR"> T  </i>
  </separator>
  <i type="logical" name="GGA_COMPAT"> T  </i>
  <i type="logical" name="LBERRY"> F  </i>
  <i type="int" name="ICORELEVEL">     0</i>
  <i type="logical" name="LDAU"> F  </i>
  <i type="int" name="I_CONSTRAINED_M">     0</i>
  <separator name="electronic exchange-correlation" >
   <i type="string" name="GGA">--</i>
   <i type="int" name="VOSKOWN">     0</i>
   <i type="logical" name="LHFCALC"> F  </i>
   <i type="string" name="PRECFOCK"></i>
   <i type="logical" name="LSYMGRAD"> F  </i>
   <i type="logical" name="LHFONE"> F  </i>
   <i type="logical" name="LRHFCALC"> F  </i>
   <i type="logical" name="LTHOMAS"> F  </i>
   <i type="logical" name="LMODELHF"> F  </i>
   <i name="ENCUT4O">     -1.00000000</i>
   <i type="int" name="EXXOEP">     0</i>
   <i type="int" name="FOURORBIT">     0</i>
   <i name="AEXX">      0.00000000</i>
   <i name="HFALPHA">      0.00000000</i>
   <i name="MCALPHA">      0.00000000</i>
   <i name="ALDAX">      1.00000000</i>
   <i name="AGGAX">      1.00000000</i>
   <i name="ALDAC">      1.00000000</i>
   <i name="AGGAC">      1.00000000</i>
   <i type="int" name="NKREDX">     1</i>
   <i type="int" name="NKREDY">     1</i>
   <i type="int" name="NKREDZ">     1</i>
   <i type="logical" name="SHIFTRED"> F  </i>
   <i type="logical" name="ODDONLY"> F  </i>
   <i type="logical" name="EVENONLY"> F  </i>
   <i type="int" name="LMAXFOCK">     0</i>
   <i type="int" name="NMAXFOCKAE">     0</i>
   <i type="logical" name="LFOCKAEDFT"> F  </i>
   <i name="HFSCREEN">      0.00000000</i>
   <i name="HFSCREENC">      0.00000000</i>
   <i type="int" name="NBANDSGWLOW">     0</i>
  </separator>
  <separator name="vdW DFT" >
   <i type="logical" name="LUSE_VDW"> F  </i>
   <i name="Zab_VDW">     -0.84910000</i>
   <i name="PARAM1">      0.12340000</i>
   <i name="PARAM2">      1.00000000</i>
   <i name="PARAM3">      0.00000000</i>
  </separator>
  <separator name="model GW" >
   <i type="int" name="MODEL_GW">     0</i>
   <i name="MODEL_EPS0">     13.31282379</i>
   <i name="MODEL_ALPHA">      1.00000000</i>
  </separator>
  <separator name="linear response parameters" >
   <i type="logical" name="LEPSILON"> F  </i>
   <i type="logical" name="LRPA"> F  </i>
   <i type="logical" name="LNABLA"> F  </i>
   <i type="logical" name="LVEL"> F  </i>
   <i type="int" name="KINTER">     0</i>
   <i name="CSHIFT">      0.10000000</i>
   <i name="OMEGAMAX">     -1.00000000</i>
   <i name="DEG_THRESHOLD">      0.00200000</i>
   <i name="RTIME">     -0.10000000</i>
   <i name="WPLASMAI">      0.00000000</i>
   <v name="DFIELD">      0.00000000      0.00000000      0.00000000</v>
   <v name="WPLASMA">      0.00000000      0.00000000      0.00000000      0.00000000      0.00000000      0.00000000      0.00000000      0.00000000      0.00000000</v>
  </separator>
  <separator name="orbital magnetization" >
   <i type="logical" name="NUCIND"> F  </i>
   <v name="MAGPOS">      0.00000000      0.00000000      0.00000000</v>
   <i type="logical" name="LNICSALL"> T  </i>
   <i type="logical" name="ORBITALMAG"> F  </i>
   <i type="logical" name="LMAGBLOCH"> F  </i>
   <i type="logical" name="LCHIMAG"> F  </i>
   <i type="logical" name="LGAUGE"> T  </i>
   <i type="int" name="MAGATOM">     0</i>
   <v name="MAGDIPOL">      0.00000000      0.00000000      0.00000000</v>
   <v name="AVECCONST">      0.00000000      0.00000000      0.00000000</v>
  </separator>
  <separator name="response functions" >
   <i type="logical" name="LADDER"> F  </i>
   <i type="logical" name="LRPAFORCE"> F  </i>
   <i type="logical" name="LFXC"> F  </i>
   <i type="logical" name="LHARTREE"> T  </i>
   <i type="int" name="IBSE">     0</i>
   <v type="int" name="KPOINT">    -1     0     0     0</v>
   <i type="logical" name="LTCTE"> F  </i>
   <i type="logical" name="LTETE"> F  </i>
   <i type="logical" name="LTRIPLET"> F  </i>
   <i type="logical" name="LFXCEPS"> F  </i>
   <i type="logical" name="LFXHEG"> F  </i>
   <i type="int" name="NATURALO">     2</i>
   <i type="logical" name="L2ORDER"> F  </i>
   <i type="logical" name="LMP2LT"> F  </i>
   <i type="logical" name="LUSEW"> F  </i>
   <i name="ENCUTGW">     -2.00000000</i>
   <i name="ENCUTGWSOFT">     -2.00000000</i>
   <i name="ENCUTLF">     -1.00000000</i>
   <i type="int" name="LMAXMP2">    -1</i>
   <i name="SCISSOR">      0.00000000</i>
   <i type="int" name="NOMEGA">     0</i>
   <i type="int" name="NOMEGAR">     0</i>
   <i type="int" name="NBANDSGW">    -1</i>
   <i type="int" name="NBANDSO">    -1</i>
   <i type="int" name="NBANDSV">    -1</i>
   <i type="int" name="NELM">    60</i>
   <i type="int" name="NELMHF">     1</i>
   <i type="int" name="DIM">     3</i>
   <i type="int" name="ANTIRES">     0</i>
   <i name="OMEGAMAX">    -30.00000000</i>
   <i name="OMEGAMIN">    -30.00000000</i>
   <i name="OMEGATL">   -200.00000000</i>
   <i type="int" name="OMEGAGRID">   140</i>
   <i name="CSHIFT">     -0.10000000</i>
   <i type="logical" name="SELFENERGY"> F  </i>
   <i type="logical" name="LSPECTRAL"> F  </i>
   <i type="logical" name="LSPECTRALGW"> F  </i>
   <i type="logical" name="LSINGLES"> F  </i>
   <i type="logical" name="LFERMIGW"> F  </i>
   <i type="logical" name="ODDONLYGW"> F  </i>
   <i type="logical" name="EVENONLYGW"> F  </i>
   <i type="int" name="NKREDLFX">     1</i>
   <i type="int" name="NKREDLFY">     1</i>
   <i type="int" name="NKREDLFZ">     1</i>
   <i type="int" name="MAXMEM">  2800</i>
   <i type="int" name="TELESCOPE">     0</i>
   <i type="int" name="TAUPAR">     1</i>
   <i type="int" name="OMEGAPAR">    -1</i>
   <i name="LAMBDA">      1.00000000</i>
  </separator>
  <separator name="External order field" >
   <i name="OFIELD_KAPPA">      0.00000000</i>
   <v name="OFIELD_K">      0.00000000      0.00000000      0.00000000</v>
   <i name="OFIELD_Q6_NEAR">      0.00000000</i>
   <i name="OFIELD_Q6_FAR">      0.00000000</i>
   <i name="OFIELD_A">      0.00000000</i>
  </separator>
 </parameters>
 <atominfo>
  <atoms>      64 </atoms>
  <types>       7 </types>
  <array name="atoms" >
   <dimension dim="1">ion</dimension>
   <field type="string">element</field>
   <field type="int">atomtype</field>
   <set>
    <rc><c>Zr</c><c>   1</c></rc>
    <rc><c>Zr</c><c>   1</c></rc>
    <rc><c>Zr</c><c>   1</c></rc>
    <rc><c>Zr</c><c>   1</c></rc>
    <rc><c>Zr</c><c>   1</c></rc>
    <rc><c>Zr</c><c>   1</c></rc>
    <rc><c>Zr</c><c>   1</c></rc>
    <rc><c>Ta</c><c>   2</c></rc>
    <rc><c>Ta</c><c>   2</c></rc>
    <rc><c>Ta</c><c>   2</c></rc>
    <rc><c>Ta</c><c>   2</c></rc>
    <rc><c>Ta</c><c>   2</c></rc>
    <rc><c>Ta</c><c>   2</c></rc>
    <rc><c>Hf</c><c>   3</c></rc>
    <rc><c>Hf</c><c>   3</c></rc>
    <rc><c>Hf</c><c>   3</c></rc>
    <rc><c>Hf</c><c>   3</c></rc>
    <rc><c>Hf</c><c>   3</c></rc>
    <rc><c>Hf</c><c>   3</c></rc>
    <rc><c>Hf</c><c>   3</c></rc>
    <rc><c>N </c><c>   4</c></rc>
    <rc><c>N </c><c>   4</c></rc>
    <rc><c>N </c><c>   4</c></rc>
    <rc><c>N </c><c>   4</c></rc>
    <rc><c>N </c><c>   4</c></rc>
    <rc><c>N </c><c>   4</c></rc>
    <rc><c>N </c><c>   4</c></rc>
    <rc><c>N </c><c>   4</c></rc>
    <rc><c>N </c><c>   4</c></rc>
    <rc><c>N </c><c>   4</c></rc>
    <rc><c>N </c><c>   4</c></rc>
    <rc><c>N </c><c>   4</c></rc>
    <rc><c>N </c><c>   4</c></rc>
    <rc><c>C </c><c>   5</c></rc>
    <rc><c>C </c><c>   5</c></rc>
    <rc><c>C </c><c>   5</c></rc>
    <rc><c>C </c><c>   5</c></rc>
    <rc><c>C </c><c>   5</c></rc>
    <rc><c>C </c><c>   5</c></rc>
    <rc><c>C </c><c>   5</c></rc>
    <rc><c>C </c><c>   5</c></rc>
    <rc><c>C </c><c>   5</c></rc>
    <rc><c>C </c><c>   5</c></rc>
    <rc><c>C </c><c>   5</c></rc>
    <rc><c>C </c><c>   5</c></rc>
    <rc><c>C </c><c>   5</c></rc>
    <rc><c>C </c><c>   5</c></rc>
    <rc><c>C </c><c>   5</c></rc>
    <rc><c>C </c><c>   5</c></rc>
    <rc><c>C </c><c>   5</c></rc>
    <rc><c>C </c><c>   5</c></rc>
    <rc><c>C </c><c>   5</c></rc>
    <rc><c>Nb</c><c>   6</c></rc>
    <rc><c>Nb</c><c>   6</c></rc>
    <rc><c>Nb</c><c>   6</c></rc>
    <rc><c>Nb</c><c>   6</c></rc>
    <rc><c>Nb</c><c>   6</c></rc>
    <rc><c>Nb</c><c>   6</c></rc>
    <rc><c>V </c><c>   7</c></rc>
    <rc><c>V </c><c>   7</c></rc>
    <rc><c>V </c><c>   7</c></rc>
    <rc><c>V </c><c>   7</c></rc>
    <rc><c>V </c><c>   7</c></rc>
    <rc><c>V </c><c>   7</c></rc>
   </set>
  </array>
  <array name="atomtypes" >
   <dimension dim="1">type</dimension>
   <field type="int">atomspertype</field>
   <field type="string">element</field>
   <field>mass</field>
   <field>valence</field>
   <field type="string">pseudopotential</field>
   <set>
    <rc><c>   7</c><c>Zr</c><c>     91.22400000</c><c>     12.00000000</c><c> PAW_PBE Zr_sv 07Sep2000                </c></rc>
    <rc><c>   6</c><c>Ta</c><c>    180.94800000</c><c>     11.00000000</c><c> PAW_PBE Ta_pv 07Sep2000                </c></rc>
    <rc><c>   7</c><c>Hf</c><c>    178.49000000</c><c>     10.00000000</c><c> PAW_PBE Hf_pv 06Sep2000                </c></rc>
    <rc><c>  13</c><c>N </c><c>     14.00100000</c><c>      5.00000000</c><c> PAW_PBE N 08Apr2002                    </c></rc>
    <rc><c>  19</c><c>C </c><c>     12.01100000</c><c>      4.00000000</c><c> PAW_PBE C 08Apr2002                    </c></rc>
    <rc><c>   6</c><c>Nb</c><c>     92.91000000</c><c>     13.00000000</c><c> PAW_PBE Nb_sv 17Jan2003                </c></rc>
    <rc><c>   6</c><c>V </c><c>     50.94100000</c><c>     13.00000000</c><c> PAW_PBE V_sv 07Sep2000                 </c></rc>
   </set>
  </array>
 </atominfo>
 <structure name="initialpos" >
  <crystal>
   <varray name="basis" >
    <v>      11.23999977       0.00000000       0.00000000 </v>
    <v>       0.00000000      11.23999977       0.00000000 </v>
    <v>       0.00000000       0.00000000      11.23999977 </v>
   </varray>
   <i name="volume">   1420.03453724 </i>
   <varray name="rec_basis" >
    <v>       0.08896797       0.00000000       0.00000000 </v>
    <v>       0.00000000       0.08896797       0.00000000 </v>
    <v>       0.00000000       0.00000000       0.08896797 </v>
   </varray>
  </crystal>
  <varray name="positions" >
   <v>       0.00000000       0.00000000       0.00000000 </v>
   <v>       0.25000000       0.00000000       0.25000000 </v>
   <v>       0.25000000       0.50000000       0.25000000 </v>
   <v>       0.50000000       0.50000000       0.00000000 </v>
   <v>       0.50000000       0.25000000       0.75000004 </v>
   <v>       0.00000000       0.50000000       0.50000000 </v>
   <v>       0.50000000       0.75000004       0.75000004 </v>
   <v>       0.00000000       0.25000000       0.25000000 </v>
   <v>       0.75000004       0.75000004       0.00000000 </v>
   <v>       0.00000000       0.25000000       0.75000004 </v>
   <v>       0.75000004       0.25000000       0.50000000 </v>
   <v>       0.00000000       0.75000004       0.75000004 </v>
   <v>       0.25000000       0.50000000       0.75000004 </v>
   <v>       0.25000000       0.25000000       0.00000000 </v>
   <v>       0.50000000       0.25000000       0.25000000 </v>
   <v>       0.75000004       0.00000000       0.25000000 </v>
   <v>       0.75000004       0.25000000       0.00000000 </v>
   <v>       0.25000000       0.75000004       0.00000000 </v>
   <v>       0.25000000       0.25000000       0.50000000 </v>
   <v>       0.25000000       0.75000004       0.50000000 </v>
   <v>       0.25000000       0.25000000       0.25000000 </v>
   <v>       0.25000000       0.00000000       0.00000000 </v>
   <v>       0.00000000       0.25000000       0.00000000 </v>
   <v>       0.75000004       0.25000000       0.25000000 </v>
   <v>       0.75000004       0.00000000       0.00000000 </v>
   <v>       0.50000000       0.00000000       0.25000000 </v>
   <v>       0.00000000       0.50000000       0.25000000 </v>
   <v>       0.50000000       0.75000004       0.00000000 </v>
   <v>       0.00000000       0.00000000       0.75000004 </v>
   <v>       0.75000004       0.25000000       0.75000004 </v>
   <v>       0.75000004       0.00000000       0.50000000 </v>
   <v>       0.50000000       0.25000000       0.50000000 </v>
   <v>       0.50000000       0.00000000       0.75000004 </v>
   <v>       0.00000000       0.00000000       0.25000000 </v>
   <v>       0.50000000       0.25000000       0.00000000 </v>
   <v>       0.25000000       0.75000004       0.25000000 </v>
   <v>       0.25000000       0.50000000       0.00000000 </v>
   <v>       0.00000000       0.75000004       0.00000000 </v>
   <v>       0.75000004       0.75000004       0.25000000 </v>
   <v>       0.75000004       0.50000000       0.00000000 </v>
   <v>       0.50000000       0.50000000       0.25000000 </v>
   <v>       0.25000000       0.25000000       0.75000004 </v>
   <v>       0.25000000       0.00000000       0.50000000 </v>
   <v>       0.00000000       0.25000000       0.50000000 </v>
   <v>       0.25000000       0.75000004       0.75000004 </v>
   <v>       0.25000000       0.50000000       0.50000000 </v>
   <v>       0.00000000       0.75000004       0.50000000 </v>
   <v>       0.00000000       0.50000000       0.75000004 </v>
   <v>       0.75000004       0.75000004       0.75000004 </v>
   <v>       0.75000004       0.50000000       0.50000000 </v>
   <v>       0.50000000       0.75000004       0.50000000 </v>
   <v>       0.50000000       0.50000000       0.75000004 </v>
   <v>       0.50000000       0.00000000       0.00000000 </v>
   <v>       0.00000000       0.50000000       0.00000000 </v>
   <v>       0.50000000       0.75000004       0.25000000 </v>
   <v>       0.25000000       0.00000000       0.75000004 </v>
   <v>       0.50000000       0.00000000       0.50000000 </v>
   <v>       0.75000004       0.00000000       0.75000004 </v>
   <v>       0.00000000       0.75000004       0.25000000 </v>
   <v>       0.75000004       0.50000000       0.25000000 </v>
   <v>       0.00000000       0.00000000       0.50000000 </v>
   <v>       0.50000000       0.50000000       0.50000000 </v>
   <v>       0.75000004       0.50000000       0.75000004 </v>
   <v>       0.75000004       0.75000004       0.50000000 </v>
  </varray>
 </structure>
 <calculation>
  <scstep>
   <time name="dav">   79.96   81.61</time>
   <time name="total">   80.02   81.68</time>
   <energy>
    <i name="alphaZ">   2298.83124743 </i>
    <i name="ewald"> -34327.84651192 </i>
    <i name="hartreedc"> -11472.72406017 </i>
    <i name="XCdc">   1827.59783458 </i>
    <i name="pawpsdc">  29850.16974018 </i>
    <i name="pawaedc"> -29551.04812782 </i>
    <i name="eentropy">     -0.10710439 </i>
    <i name="bandstr">  -2986.46405487 </i>
    <i name="atom">  48548.61070987 </i>
    <i name="e_fr_energy">   4187.01967291 </i>
    <i name="e_wo_entrp">   4187.12677730 </i>
    <i name="e_0_energy">   4187.07322511 </i>
   </energy>
  </scstep>
  <scstep>
   <time name="dav">   87.97   91.76</time>
   <time name="total">   87.97   91.76</time>
   <energy>
    <i name="e_fr_energy">    -49.06075351 </i>
    <i name="e_wo_entrp">    -48.83365498 </i>
    <i name="e_0_energy">    -48.94720424 </i>
   </energy>
  </scstep>
  <scstep>
   <time name="dav">  115.75  115.99</time>
   <time name="total">  115.76  115.99</time>
   <energy>
    <i name="e_fr_energy">   -599.09257606 </i>
    <i name="e_wo_entrp">   -598.91203146 </i>
    <i name="e_0_energy">   -599.00230376 </i>
   </energy>
  </scstep>
  <scstep>
   <time name="dav">  111.89  114.56</time>
   <time name="total">  111.90  114.56</time>
   <energy>
    <i name="e_fr_energy">   -644.81507904 </i>
    <i name="e_wo_entrp">   -644.62062391 </i>
    <i name="e_0_energy">   -644.71785148 </i>
   </energy>
  </scstep>
  <scstep>
   <time name="dav">  137.20  137.52</time>
   <time name="total">  137.82  138.14</time>
   <energy>
    <i name="e_fr_energy">   -652.66470736 </i>
    <i name="e_wo_entrp">   -652.46166233 </i>
    <i name="e_0_energy">   -652.56318485 </i>
   </energy>
  </scstep>
  <scstep>
   <time name="diag">    2.73    2.81</time>
   <time name="diis">   79.54   79.72</time>
   <time name="orth">    0.66    0.66</time>
   <time name="total">   83.59   83.86</time>
   <energy>
    <i name="e_fr_energy">   -806.45653616 </i>
    <i name="e_wo_entrp">   -806.19832278 </i>
    <i name="e_0_energy">   -806.32742947 </i>
   </energy>
  </scstep>
  <scstep>
   <time name="diag">    2.73    2.80</time>
   <time name="diis">   86.88   88.40</time>
   <time name="orth">    0.66    0.67</time>
   <time name="total">   90.96   92.56</time>
   <energy>
    <i name="e_fr_energy">   -521.65443356 </i>
    <i name="e_wo_entrp">   -521.45376061 </i>
    <i name="e_0_energy">   -521.55409708 </i>
   </energy>
  </scstep>
  <scstep>
   <time name="diag">    2.82    2.83</time>
   <time name="diis">   81.74   82.03</time>
   <time name="orth">    0.66    0.66</time>
   <time name="total">   85.91   86.21</time>
   <energy>
    <i name="e_fr_energy">   -494.87211576 </i>
    <i name="e_wo_entrp">   -494.52174926 </i>
    <i name="e_0_energy">   -494.69693251 </i>
   </energy>
  </scstep>
  <scstep>
   <time name="diag">    2.79    2.79</time>
   <time name="diis">   84.10   84.38</time>
   <time name="orth">    0.66    0.66</time>
   <time name="total">   88.23   88.51</time>
   <energy>
    <i name="e_fr_energy">   -494.86125441 </i>
    <i name="e_wo_entrp">   -494.51416529 </i>
    <i name="e_0_energy">   -494.68770985 </i>
   </energy>
  </scstep>
  <scstep>
   <time name="diag">    2.89    2.91</time>
   <time name="diis">   86.23   86.50</time>
   <time name="orth">    0.66    0.66</time>
   <time name="total">   90.47   90.76</time>
   <energy>
    <i name="e_fr_energy">   -493.68105109 </i>
    <i name="e_wo_entrp">   -493.35432999 </i>
    <i name="e_0_energy">   -493.51769054 </i>
   </energy>
  </scstep>
  <scstep>
   <time name="diag">    2.74    2.81</time>
   <time name="diis">   79.27   82.67</time>
   <time name="orth">    0.66    0.66</time>
   <time name="total">   83.36   86.84</time>
   <energy>
    <i name="e_fr_energy">   -497.37874067 </i>
    <i name="e_wo_entrp">   -497.09808320 </i>
    <i name="e_0_energy">   -497.23841194 </i>
   </energy>
  </scstep>
  <scstep>
   <time name="diag">    2.73    2.81</time>
   <time name="diis">   80.36   84.12</time>
   <time name="orth">    0.65    0.66</time>
   <time name="total">   84.41   88.28</time>
   <energy>
    <i name="e_fr_energy">   -493.57016381 </i>
    <i name="e_wo_entrp">   -493.27321968 </i>
    <i name="e_0_energy">   -493.42169175 </i>
   </energy>
  </scstep>
  <scstep>
   <time name="diag">    2.80    2.80</time>
   <time name="diis">   83.04   86.21</time>
   <time name="orth">    0.69    0.72</time>
   <time name="total">   87.23   90.45</time>
   <energy>
    <i name="e_fr_energy">   -492.46899004 </i>
    <i name="e_wo_entrp">   -492.09070308 </i>
    <i name="e_0_energy">   -492.27984656 </i>
   </energy>
  </scstep>
  <scstep>
   <time name="diag">    2.77    2.85</time>
   <time name="diis">   82.61   82.83</time>
   <time name="orth">    0.66    0.66</time>
   <time name="total">   86.74   87.04</time>
   <energy>
    <i name="e_fr_energy">   -489.94888115 </i>
    <i name="e_wo_entrp">   -489.52482468 </i>
    <i name="e_0_energy">   -489.73685292 </i>
   </energy>
  </scstep>
  <scstep>
   <time name="diag">    2.79    2.80</time>
   <time name="diis">   85.01   85.22</time>
   <time name="orth">    0.66    0.66</time>
   <time name="total">   89.18   89.39</time>
   <energy>
    <i name="e_fr_energy">   -490.05382743 </i>
    <i name="e_wo_entrp">   -489.66556180 </i>
    <i name="e_0_energy">   -489.85969462 </i>
   </energy>
  </scstep>
  <scstep>
   <time name="diag">    2.80    2.81</time>
   <time name="diis">   83.44   83.81</time>
   <time name="orth">    0.66    0.66</time>
   <time name="total">   87.59   87.98</time>
   <energy>
    <i name="e_fr_energy">   -489.74727757 </i>
    <i name="e_wo_entrp">   -489.32037897 </i>
    <i name="e_0_energy">   -489.53382827 </i>
   </energy>
  </scstep>
  <scstep>
   <time name="diag">    2.79    2.79</time>
   <time name="diis">   84.69   84.98</time>
   <time name="orth">    0.66    0.66</time>
   <time name="total">   88.84   89.13</time>
   <energy>
    <i name="e_fr_energy">   -489.94143244 </i>
    <i name="e_wo_entrp">   -489.50467663 </i>
    <i name="e_0_energy">   -489.72305453 </i>
   </energy>
  </scstep>
  <scstep>
   <time name="diag">    2.75    2.83</time>
   <time name="diis">   86.17   86.69</time>
   <time name="orth">    0.66    0.66</time>
   <time name="total">   90.27   90.89</time>
   <energy>
    <i name="e_fr_energy">   -489.61256333 </i>
    <i name="e_wo_entrp">   -489.16047548 </i>
    <i name="e_0_energy">   -489.38651940 </i>
   </energy>
  </scstep>
  <scstep>
   <time name="diag">    2.79    2.81</time>
   <time name="diis">   85.44   85.77</time>
   <time name="orth">    0.66    0.66</time>
   <time name="total">   89.59   89.94</time>
   <energy>
    <i name="e_fr_energy">   -489.66075171 </i>
    <i name="e_wo_entrp">   -489.20464171 </i>
    <i name="e_0_energy">   -489.43269671 </i>
   </energy>
  </scstep>
  <scstep>
   <time name="diag">    2.80    2.81</time>
   <time name="diis">   86.26   86.50</time>
   <time name="orth">    0.68    0.68</time>
   <time name="total">   90.45   90.71</time>
   <energy>
    <i name="e_fr_energy">   -489.68635398 </i>
    <i name="e_wo_entrp">   -489.24075835 </i>
    <i name="e_0_energy">   -489.46355617 </i>
   </energy>
  </scstep>
  <scstep>
   <time name="diag">    2.80    2.80</time>
   <time name="diis">   87.48   87.71</time>
   <time name="orth">    0.66    0.66</time>
   <time name="total">   91.65   91.89</time>
   <energy>
    <i name="e_fr_energy">   -489.67774235 </i>
    <i name="e_wo_entrp">   -489.21769599 </i>
    <i name="e_0_energy">   -489.44771917 </i>
   </energy>
  </scstep>
  <scstep>
   <time name="diag">    2.84    2.90</time>
   <time name="diis">   87.83   88.12</time>
   <time name="orth">    0.66    0.66</time>
   <time name="total">   92.05   92.40</time>
   <energy>
    <i name="e_fr_energy">   -489.68177937 </i>
    <i name="e_wo_entrp">   -489.21978784 </i>
    <i name="e_0_energy">   -489.45078360 </i>
   </energy>
  </scstep>
  <scstep>
   <time name="diag">    2.79    2.80</time>
   <time name="diis">   84.93   85.60</time>
   <time name="orth">    0.67    0.69</time>
   <time name="total">   89.14   89.86</time>
   <energy>
    <i name="e_fr_energy">   -489.68751052 </i>
    <i name="e_wo_entrp">   -489.22714105 </i>
    <i name="e_0_energy">   -489.45732579 </i>
   </energy>
  </scstep>
  <scstep>
   <time name="diag">    2.82    2.82</time>
   <time name="diis">   83.74   83.99</time>
   <time name="orth">    0.66    0.66</time>
   <time name="total">   87.93   88.19</time>
   <energy>
    <i name="e_fr_energy">   -489.69564450 </i>
    <i name="e_wo_entrp">   -489.23379006 </i>
    <i name="e_0_energy">   -489.46471728 </i>
   </energy>
  </scstep>
  <scstep>
   <time name="diag">    2.73    2.80</time>
   <time name="diis">   81.62   83.96</time>
   <time name="orth">    0.66    0.67</time>
   <time name="total">   85.72   88.17</time>
   <energy>
    <i name="e_fr_energy">   -489.70171547 </i>
    <i name="e_wo_entrp">   -489.24015126 </i>
    <i name="e_0_energy">   -489.47093336 </i>
   </energy>
  </scstep>
  <scstep>
   <time name="diag">    2.80    2.82</time>
   <time name="diis">   84.19   84.44</time>
   <time name="orth">    0.66    0.66</time>
   <time name="total">   88.38   88.66</time>
   <energy>
    <i name="e_fr_energy">   -489.70643828 </i>
    <i name="e_wo_entrp">   -489.24362074 </i>
    <i name="e_0_energy">   -489.47502951 </i>
   </energy>
  </scstep>
  <scstep>
   <time name="diag">    2.74    2.81</time>
   <time name="diis">   80.06   81.51</time>
   <time name="orth">    0.67    0.67</time>
   <time name="total">   84.18   85.71</time>
   <energy>
    <i name="e_fr_energy">   -489.71069398 </i>
    <i name="e_wo_entrp">   -489.24653487 </i>
    <i name="e_0_energy">   -489.47861442 </i>
   </energy>
  </scstep>
  <scstep>
   <time name="diag">    2.79    2.79</time>
   <time name="diis">   78.54   78.78</time>
   <time name="orth">    0.66    0.66</time>
   <time name="total">   82.70   82.94</time>
   <energy>
    <i name="e_fr_energy">   -489.71421370 </i>
    <i name="e_wo_entrp">   -489.24931826 </i>
    <i name="e_0_energy">   -489.48176598 </i>
   </energy>
  </scstep>
  <scstep>
   <time name="diag">    2.78    2.80</time>
   <time name="diis">   72.99   73.24</time>
   <time name="orth">    0.66    0.66</time>
   <time name="total">   77.15   77.42</time>
   <energy>
    <i name="e_fr_energy">   -489.71729950 </i>
    <i name="e_wo_entrp">   -489.25212731 </i>
    <i name="e_0_energy">   -489.48471341 </i>
   </energy>
  </scstep>
  <scstep>
   <time name="diag">    2.80    2.80</time>
   <time name="diis">   70.09   70.38</time>
   <time name="orth">    0.69    0.69</time>
   <time name="total">   74.29   74.59</time>
   <energy>
    <i name="e_fr_energy">   -489.71967833 </i>
    <i name="e_wo_entrp">   -489.25422311 </i>
    <i name="e_0_energy">   -489.48695072 </i>
   </energy>
  </scstep>
  <scstep>
   <time name="diag">    2.80    2.80</time>
   <time name="diis">   70.35   70.55</time>
   <time name="orth">    0.67    0.67</time>
   <time name="total">   74.54   74.74</time>
   <energy>
    <i name="e_fr_energy">   -489.72169758 </i>
    <i name="e_wo_entrp">   -489.25559281 </i>
    <i name="e_0_energy">   -489.48864519 </i>
   </energy>
  </scstep>
  <scstep>
   <time name="diag">    2.80    2.80</time>
   <time name="diis">   68.96   69.24</time>
   <time name="orth">    0.66    0.66</time>
   <time name="total">   73.13   73.42</time>
   <energy>
    <i name="e_fr_energy">   -489.72335131 </i>
    <i name="e_wo_entrp">   -489.25690349 </i>
    <i name="e_0_energy">   -489.49012740 </i>
   </energy>
  </scstep>
  <scstep>
   <time name="diag">    2.79    2.81</time>
   <time name="diis">   67.09   67.22</time>
   <time name="orth">    0.66    0.66</time>
   <time name="total">   71.26   71.41</time>
   <energy>
    <i name="e_fr_energy">   -489.72476414 </i>
    <i name="e_wo_entrp">   -489.25785839 </i>
    <i name="e_0_energy">   -489.49131126 </i>
   </energy>
  </scstep>
  <scstep>
   <time name="diag">    2.80    2.81</time>
   <time name="diis">   62.98   63.11</time>
   <time name="orth">    0.66    0.66</time>
   <time name="total">   67.17   67.30</time>
   <energy>
    <i name="e_fr_energy">   -489.72589936 </i>
    <i name="e_wo_entrp">   -489.25861098 </i>
    <i name="e_0_energy">   -489.49225517 </i>
   </energy>
  </scstep>
  <scstep>
   <time name="diag">    2.80    2.80</time>
   <time name="diis">   53.97   55.49</time>
   <time name="orth">    0.65    0.67</time>
   <time name="total">   58.14   59.70</time>
   <energy>
    <i name="e_fr_energy">   -489.72688133 </i>
    <i name="e_wo_entrp">   -489.25933549 </i>
    <i name="e_0_energy">   -489.49310841 </i>
   </energy>
  </scstep>
  <scstep>
   <time name="diag">    2.73    2.81</time>
   <time name="diis">   52.25   53.65</time>
   <time name="orth">    0.66    0.66</time>
   <time name="total">   56.36   57.84</time>
   <energy>
    <i name="e_fr_energy">   -489.72767948 </i>
    <i name="e_wo_entrp">   -489.25988848 </i>
    <i name="e_0_energy">   -489.49378398 </i>
   </energy>
  </scstep>
  <scstep>
   <time name="diag">    2.79    2.79</time>
   <time name="diis">   54.94   55.13</time>
   <time name="orth">    0.66    0.66</time>
   <time name="total">   59.11   59.30</time>
   <energy>
    <i name="e_fr_energy">   -489.72836436 </i>
    <i name="e_wo_entrp">   -489.26031392 </i>
    <i name="e_0_energy">   -489.49433914 </i>
   </energy>
  </scstep>
  <scstep>
   <time name="diag">    2.79    2.79</time>
   <time name="diis">   45.58   45.67</time>
   <time name="orth">    0.66    0.66</time>
   <time name="total">   49.74   49.84</time>
   <energy>
    <i name="e_fr_energy">   -489.72893207 </i>
    <i name="e_wo_entrp">   -489.26072687 </i>
    <i name="e_0_energy">   -489.49482947 </i>
   </energy>
  </scstep>
  <scstep>
   <time name="diag">    2.75    2.83</time>
   <time name="diis">   46.69   47.16</time>
   <time name="orth">    0.66    0.66</time>
   <time name="total">   50.82   51.37</time>
   <energy>
    <i name="e_fr_energy">   -489.72941141 </i>
    <i name="e_wo_entrp">   -489.26103325 </i>
    <i name="e_0_energy">   -489.49522233 </i>
   </energy>
  </scstep>
  <scstep>
   <time name="diag">    2.73    2.81</time>
   <time name="diis">   43.60   45.74</time>
   <time name="orth">    0.66    0.69</time>
   <time name="total">   47.74   50.01</time>
   <energy>
    <i name="e_fr_energy">   -489.72981054 </i>
    <i name="e_wo_entrp">   -489.26127546 </i>
    <i name="e_0_energy">   -489.49554300 </i>
   </energy>
  </scstep>
  <scstep>
   <time name="diag">    2.80    2.89</time>
   <time name="diis">   44.97   45.28</time>
   <time name="orth">    0.67    0.67</time>
   <time name="total">   49.15   49.55</time>
   <energy>
    <i name="e_fr_energy">   -489.73015124 </i>
    <i name="e_wo_entrp">   -489.26146862 </i>
    <i name="e_0_energy">   -489.49580993 </i>
   </energy>
  </scstep>
  <scstep>
   <time name="diag">    2.81    2.82</time>
   <time name="diis">   44.59   44.88</time>
   <time name="orth">    0.66    0.66</time>
   <time name="total">   48.78   49.09</time>
   <energy>
    <i name="e_fr_energy">   -489.73043700 </i>
    <i name="e_wo_entrp">   -489.26164783 </i>
    <i name="e_0_energy">   -489.49604242 </i>
   </energy>
  </scstep>
  <scstep>
   <time name="diag">    2.75    2.83</time>
   <time name="diis">   42.72   44.75</time>
   <time name="orth">    0.65    0.66</time>
   <time name="total">   46.84   48.98</time>
   <energy>
    <i name="e_fr_energy">   -489.73068247 </i>
    <i name="e_wo_entrp">   -489.26181661 </i>
    <i name="e_0_energy">   -489.49624954 </i>
   </energy>
  </scstep>
  <scstep>
   <time name="diag">    2.73    2.81</time>
   <time name="diis">   42.29   44.33</time>
   <time name="orth">    0.65    0.66</time>
   <time name="total">   46.40   48.54</time>
   <energy>
    <i name="e_fr_energy">   -489.73088310 </i>
    <i name="e_wo_entrp">   -489.26190026 </i>
    <i name="e_0_energy">   -489.49639168 </i>
   </energy>
  </scstep>
  <scstep>
   <time name="diag">    2.80    2.80</time>
   <time name="diis">   43.28   43.34</time>
   <time name="orth">    0.67    0.67</time>
   <time name="total">   47.46   47.52</time>
   <energy>
    <i name="e_fr_energy">   -489.73105987 </i>
    <i name="e_wo_entrp">   -489.26201738 </i>
    <i name="e_0_energy">   -489.49653862 </i>
   </energy>
  </scstep>
  <scstep>
   <time name="diag">    2.78    2.79</time>
   <time name="diis">   43.45   43.64</time>
   <time name="orth">    0.66    0.67</time>
   <time name="total">   47.61   47.84</time>
   <energy>
    <i name="e_fr_energy">   -489.73120706 </i>
    <i name="e_wo_entrp">   -489.26209910 </i>
    <i name="e_0_energy">   -489.49665308 </i>
   </energy>
  </scstep>
  <scstep>
   <time name="diag">    2.79    2.79</time>
   <time name="diis">   43.45   43.66</time>
   <time name="orth">    0.66    0.66</time>
   <time name="total">   47.61   47.83</time>
   <energy>
    <i name="e_fr_energy">   -489.73133275 </i>
    <i name="e_wo_entrp">   -489.26216044 </i>
    <i name="e_0_energy">   -489.49674660 </i>
   </energy>
  </scstep>
  <scstep>
   <time name="diag">    2.73    2.81</time>
   <time name="diis">   41.50   43.48</time>
   <time name="orth">    0.65    0.66</time>
   <time name="total">   45.61   47.72</time>
   <energy>
    <i name="e_fr_energy">   -489.73143727 </i>
    <i name="e_wo_entrp">   -489.26220220 </i>
    <i name="e_0_energy">   -489.49681973 </i>
   </energy>
  </scstep>
  <scstep>
   <time name="diag">    2.79    2.79</time>
   <time name="diis">   42.96   43.15</time>
   <time name="orth">    0.67    0.67</time>
   <time name="total">   47.12   47.31</time>
   <energy>
    <i name="e_fr_energy">   -489.73152585 </i>
    <i name="e_wo_entrp">   -489.26223406 </i>
    <i name="e_0_energy">   -489.49687995 </i>
   </energy>
  </scstep>
  <scstep>
   <time name="diag">    2.79    2.79</time>
   <time name="diis">   43.15   43.23</time>
   <time name="orth">    0.69    0.70</time>
   <time name="total">   47.33   47.42</time>
   <energy>
    <i name="e_fr_energy">   -489.73160182 </i>
    <i name="e_wo_entrp">   -489.26226334 </i>
    <i name="e_0_energy">   -489.49693258 </i>
   </energy>
  </scstep>
  <scstep>
   <time name="diag">    2.73    2.81</time>
   <time name="diis">   40.95   42.82</time>
   <time name="orth">    0.65    0.67</time>
   <time name="total">   45.05   47.03</time>
   <energy>
    <i name="e_fr_energy">   -489.73166737 </i>
    <i name="e_wo_entrp">   -489.26229071 </i>
    <i name="e_0_energy">   -489.49697904 </i>
   </energy>
  </scstep>
  <scstep>
   <time name="diag">    2.83    2.83</time>
   <time name="diis">   41.13   42.41</time>
   <time name="orth">    0.67    0.67</time>
   <time name="total">   45.35   46.65</time>
   <energy>
    <i name="e_fr_energy">   -489.73171998 </i>
    <i name="e_wo_entrp">   -489.26229744 </i>
    <i name="e_0_energy">   -489.49700871 </i>
   </energy>
  </scstep>
  <scstep>
   <time name="diag">    2.83    2.84</time>
   <time name="diis">   42.17   42.35</time>
   <time name="orth">    0.67    0.67</time>
   <time name="total">   46.38   46.57</time>
   <energy>
    <i name="e_fr_energy">   -489.73176346 </i>
    <i name="e_wo_entrp">   -489.26229488 </i>
    <i name="e_0_energy">   -489.49702917 </i>
   </energy>
  </scstep>
  <scstep>
   <time name="diag">    2.81    2.84</time>
   <time name="diis">   42.43   42.60</time>
   <time name="orth">    0.67    0.67</time>
   <time name="total">   46.65   46.84</time>
   <energy>
    <i name="e_fr_energy">   -489.73180121 </i>
    <i name="e_wo_entrp">   -489.26228842 </i>
    <i name="e_0_energy">   -489.49704482 </i>
   </energy>
  </scstep>
  <scstep>
   <time name="diag">    2.82    2.82</time>
   <time name="diis">   42.02   42.06</time>
   <time name="orth">    0.69    0.69</time>
   <time name="total">   46.25   46.30</time>
   <energy>
    <i name="e_fr_energy">   -489.73183270 </i>
    <i name="e_wo_entrp">   -489.26228019 </i>
    <i name="e_0_energy">   -489.49705645 </i>
   </energy>
  </scstep>
  <scstep>
   <time name="diag">    2.80    2.81</time>
   <time name="diis">   41.98   42.10</time>
   <time name="orth">    0.66    0.66</time>
   <time name="total">   46.16   46.29</time>
   <energy>
    <i name="e_fr_energy">   -489.73186160 </i>
    <i name="e_wo_entrp">   -489.26228052 </i>
    <i name="e_0_energy">   -489.49707106 </i>
   </energy>
  </scstep>
  <scstep>
   <time name="diag">    2.73    2.80</time>
   <time name="diis">   40.29   41.45</time>
   <time name="orth">    0.67    0.67</time>
   <time name="total">   44.39   45.62</time>
   <energy>
    <i name="e_fr_energy">   -489.73188602 </i>
    <i name="e_wo_entrp">   -489.26228514 </i>
    <i name="e_0_energy">   -489.49708558 </i>
   </energy>
  </scstep>
  <scstep>
   <time name="diag">    2.80    2.81</time>
   <time name="diis">   41.61   41.77</time>
   <time name="orth">    0.67    0.67</time>
   <time name="total">   45.81   45.98</time>
   <energy>
    <i name="e_fr_energy">   -489.73190658 </i>
    <i name="e_wo_entrp">   -489.26228335 </i>
    <i name="e_0_energy">   -489.49709497 </i>
   </energy>
  </scstep>
  <scstep>
   <time name="diag">    2.80    2.80</time>
   <time name="diis">   40.86   40.94</time>
   <time name="orth">    0.66    0.67</time>
   <time name="total">   45.03   45.12</time>
   <energy>
    <i name="e_fr_energy">   -489.73192443 </i>
    <i name="e_wo_entrp">   -489.26228705 </i>
    <i name="e_0_energy">   -489.49710574 </i>
   </energy>
  </scstep>
  <scstep>
   <time name="diag">    2.79    2.79</time>
   <time name="diis">   39.68   40.66</time>
   <time name="orth">    0.65    0.66</time>
   <time name="total">   43.17   44.16</time>
   <energy>
    <i name="alphaZ">   2298.83124743 </i>
    <i name="ewald"> -34327.84651192 </i>
    <i name="hartreedc"> -10685.63352899 </i>
    <i name="XCdc">   1801.80495525 </i>
    <i name="pawpsdc">  27852.88555449 </i>
    <i name="pawaedc"> -27606.66077327 </i>
    <i name="eentropy">     -0.46965051 </i>
    <i name="bandstr">  -8371.25394269 </i>
    <i name="atom">  48548.61070987 </i>
    <i name="e_fr_energy">   -489.73194032 </i>
    <i name="e_wo_entrp">   -489.26228981 </i>
    <i name="e_0_energy">   -489.49711506 </i>
   </energy>
  </scstep>
  <structure>
   <crystal>
    <varray name="basis" >
     <v>      11.23999977       0.00000000       0.00000000 </v>
     <v>       0.00000000      11.23999977       0.00000000 </v>
     <v>       0.00000000       0.00000000      11.23999977 </v>
    </varray>
    <i name="volume">   1420.03453724 </i>
    <varray name="rec_basis" >
     <v>       0.08896797       0.00000000       0.00000000 </v>
     <v>       0.00000000       0.08896797       0.00000000 </v>
     <v>       0.00000000       0.00000000       0.08896797 </v>
    </varray>
   </crystal>
   <varray name="positions" >
    <v>       0.00000000       0.00000000       0.00000000 </v>
    <v>       0.25000000       0.00000000       0.25000000 </v>
    <v>       0.25000000       0.50000000       0.25000000 </v>
    <v>       0.50000000       0.50000000       0.00000000 </v>
    <v>       0.50000000       0.25000000       0.75000004 </v>
    <v>       0.00000000       0.50000000       0.50000000 </v>
    <v>       0.50000000       0.75000004       0.75000004 </v>
    <v>       0.00000000       0.25000000       0.25000000 </v>
    <v>       0.75000004       0.75000004       0.00000000 </v>
    <v>       0.00000000       0.25000000       0.75000004 </v>
    <v>       0.75000004       0.25000000       0.50000000 </v>
    <v>       0.00000000       0.75000004       0.75000004 </v>
    <v>       0.25000000       0.50000000       0.75000004 </v>
    <v>       0.25000000       0.25000000       0.00000000 </v>
    <v>       0.50000000       0.25000000       0.25000000 </v>
    <v>       0.75000004       0.00000000       0.25000000 </v>
    <v>       0.75000004       0.25000000       0.00000000 </v>
    <v>       0.25000000       0.75000004       0.00000000 </v>
    <v>       0.25000000       0.25000000       0.50000000 </v>
    <v>       0.25000000       0.75000004       0.50000000 </v>
    <v>       0.25000000       0.25000000       0.25000000 </v>
    <v>       0.25000000       0.00000000       0.00000000 </v>
    <v>       0.00000000       0.25000000       0.00000000 </v>
    <v>       0.75000004       0.25000000       0.25000000 </v>
    <v>       0.75000004       0.00000000       0.00000000 </v>
    <v>       0.50000000       0.00000000       0.25000000 </v>
    <v>       0.00000000       0.50000000       0.25000000 </v>
    <v>       0.50000000       0.75000004       0.00000000 </v>
    <v>       0.00000000       0.00000000       0.75000004 </v>
    <v>       0.75000004       0.25000000       0.75000004 </v>
    <v>       0.75000004       0.00000000       0.50000000 </v>
    <v>       0.50000000       0.25000000       0.50000000 </v>
    <v>       0.50000000       0.00000000       0.75000004 </v>
    <v>       0.00000000       0.00000000       0.25000000 </v>
    <v>       0.50000000       0.25000000       0.00000000 </v>
    <v>       0.25000000       0.75000004       0.25000000 </v>
    <v>       0.25000000       0.50000000       0.00000000 </v>
    <v>       0.00000000       0.75000004       0.00000000 </v>
    <v>       0.75000004       0.75000004       0.25000000 </v>
    <v>       0.75000004       0.50000000       0.00000000 </v>
    <v>       0.50000000       0.50000000       0.25000000 </v>
    <v>       0.25000000       0.25000000       0.75000004 </v>
    <v>       0.25000000       0.00000000       0.50000000 </v>
    <v>       0.00000000       0.25000000       0.50000000 </v>
    <v>       0.25000000       0.75000004       0.75000004 </v>
    <v>       0.25000000       0.50000000       0.50000000 </v>
    <v>       0.00000000       0.75000004       0.50000000 </v>
    <v>       0.00000000       0.50000000       0.75000004 </v>
    <v>       0.75000004       0.75000004       0.75000004 </v>
    <v>       0.75000004       0.50000000       0.50000000 </v>
    <v>       0.50000000       0.75000004       0.50000000 </v>
    <v>       0.50000000       0.50000000       0.75000004 </v>
    <v>       0.50000000       0.00000000       0.00000000 </v>
    <v>       0.00000000       0.50000000       0.00000000 </v>
    <v>       0.50000000       0.75000004       0.25000000 </v>
    <v>       0.25000000       0.00000000       0.75000004 </v>
    <v>       0.50000000       0.00000000       0.50000000 </v>
    <v>       0.75000004       0.00000000       0.75000004 </v>
    <v>       0.00000000       0.75000004       0.25000000 </v>
    <v>       0.75000004       0.50000000       0.25000000 </v>
    <v>       0.00000000       0.00000000       0.50000000 </v>
    <v>       0.50000000       0.50000000       0.50000000 </v>
    <v>       0.75000004       0.50000000       0.75000004 </v>
    <v>       0.75000004       0.75000004       0.50000000 </v>
   </varray>
  </structure>
  <varray name="forces" >
   <v>      -0.08322138      -0.47670637       0.19489895 </v>
   <v>      -0.29574800      -0.55393139       0.47210559 </v>
   <v>       0.19359939       0.54735949       0.04857536 </v>
   <v>       0.18028047      -0.15268767       0.01216113 </v>
   <v>      -0.23740527       0.23313526       0.12127173 </v>
   <v>      -0.17935932       0.16226612       0.20474574 </v>
   <v>       0.12215757      -0.20261907      -0.43881020 </v>
   <v>      -0.28371752      -0.47008040       0.68705899 </v>
   <v>       0.57975321      -0.62809629       0.02302697 </v>
   <v>       0.40446836       0.50269028      -0.71735412 </v>
   <v>       0.66443466       0.53150816       0.18933186 </v>
   <v>      -0.14915886      -0.45318162      -0.18266674 </v>
   <v>       0.09074268       0.02206616      -0.01958044 </v>
   <v>       0.19424122       0.32066435      -0.55860162 </v>
   <v>       0.22610973       0.42649406      -0.17435303 </v>
   <v>       0.34902585      -0.54745889       0.24392356 </v>
   <v>      -0.23161495       0.48619390      -0.15806565 </v>
   <v>      -0.37175046      -0.30201195      -0.00084872 </v>
   <v>      -0.37005597      -0.07364639       0.54361047 </v>
   <v>      -0.01783880       0.08597163       0.01196535 </v>
   <v>       0.13925971      -0.05606806      -0.07319401 </v>
   <v>      -0.21478984       0.05621065       0.20869570 </v>
   <v>       0.02167025      -0.19690528       0.00395852 </v>
   <v>      -0.10875428      -0.69937016      -0.06715914 </v>
   <v>       0.15942664       0.16042583       0.32955679 </v>
   <v>       0.26699129       0.42532694       0.00137174 </v>
   <v>       0.42249564      -0.77514588       0.04740402 </v>
   <v>      -0.07680336      -0.06560359      -0.17170478 </v>
   <v>      -0.10765972       0.05668610       0.49365553 </v>
   <v>       0.06857543      -0.44571373       0.06282956 </v>
   <v>      -0.35978632       0.72935519      -0.32425547 </v>
   <v>      -0.00724927      -0.40725761      -0.19611821 </v>
   <v>       0.09297290       0.04074148      -0.01116768 </v>
   <v>      -0.27600236       0.80290971      -0.40568524 </v>
   <v>       0.04324569      -0.20172765       0.22573258 </v>
   <v>       0.47365729       0.06637803      -0.10721973 </v>
   <v>      -0.15341422      -0.04620164      -0.17088340 </v>
   <v>      -0.17009125       0.02817860      -0.61284270 </v>
   <v>      -0.43985663       0.55734812      -0.64363580 </v>
   <v>       0.18091820       0.10304444       0.06180622 </v>
   <v>      -0.25046812      -0.17182909      -0.23865392 </v>
   <v>      -0.26472415       0.16626297       0.06334028 </v>
   <v>       0.41892409       0.10705945       0.03133565 </v>
   <v>      -0.22493012       0.20522505       0.00503786 </v>
   <v>      -0.23208221      -0.18200107       0.09473330 </v>
   <v>      -0.32552457      -0.11404963       0.19479926 </v>
   <v>       0.36075484      -0.25909620       0.72534400 </v>
   <v>       0.49306740      -0.05774687       0.15414217 </v>
   <v>       0.30078406       0.47683658       0.62424592 </v>
   <v>       0.23747451      -0.77151555      -0.06057340 </v>
   <v>      -0.35208071       0.45309933      -0.08810868 </v>
   <v>      -0.58179332      -0.04975045       0.24596232 </v>
   <v>       0.19081424       0.37735391      -0.08878763 </v>
   <v>      -0.22195449       0.54356049      -0.44941063 </v>
   <v>       0.14698168      -0.47293768       0.62117681 </v>
   <v>       0.03125866      -0.01324180      -0.62277743 </v>
   <v>      -0.40110112      -0.66671037       0.06009309 </v>
   <v>      -0.02675848      -0.57208793      -0.18285861 </v>
   <v>      -0.10107463       0.37059671       0.03660462 </v>
   <v>      -0.38495374       0.52062593       0.05414853 </v>
   <v>       0.30686029      -0.03949127      -0.27005827 </v>
   <v>       0.17827499       0.48289476      -0.01239251 </v>
   <v>      -0.04565185       0.45040181      -0.02578468 </v>
   <v>       0.00815438      -0.37399997      -0.02509775 </v>
  </varray>
  <varray name="stress" >
   <v>    -424.36958053       0.01660040       0.16137109 </v>
   <v>       0.01660093    -425.51193425       0.28978398 </v>
   <v>       0.16137127       0.28978340    -424.68215324 </v>
  </varray>
  <energy>
   <i name="e_fr_energy">   -489.73194032 </i>
   <i name="e_wo_entrp">   -489.49711506 </i>
   <i name="e_0_energy">     -0.46965051 </i>
  </energy>
  <time name="totalsc"> 4387.27 4440.39</time>
 </calculation>
 <calculation>
  <scstep>
   <time name="dav">   86.99   87.62</time>
   <time name="total">   87.65   88.28</time>
   <energy>
    <i name="alphaZ">   6258.70505560 </i>
    <i name="ewald"> -47954.17236229 </i>
    <i name="hartreedc"> -14895.73526000 </i>
    <i name="XCdc">   2556.74846215 </i>
    <i name="pawpsdc">  27852.90828120 </i>
    <i name="pawaedc"> -27606.68289268 </i>
    <i name="eentropy">     -0.09837686 </i>
    <i name="bandstr">   1323.90928585 </i>
    <i name="atom">  48548.61070987 </i>
    <i name="e_fr_energy">  -3915.80709716 </i>
    <i name="e_wo_entrp">  -3915.70872030 </i>
    <i name="e_0_energy">  -3915.75790873 </i>
   </energy>
  </scstep>
  <scstep>
   <time name="diag">    2.78    2.82</time>
   <time name="diis">   86.31   86.89</time>
   <time name="orth">    0.66    0.69</time>
   <time name="total">   90.40   91.05</time>
   <energy>
    <i name="e_fr_energy">  -1290.37449668 </i>
    <i name="e_wo_entrp">  -1290.28169606 </i>
    <i name="e_0_energy">  -1290.32809637 </i>
   </energy>
  </scstep>
  <scstep>
   <time name="diag">    2.79    2.79</time>
   <time name="diis">   75.53   75.84</time>
   <time name="orth">    0.66    0.66</time>
   <time name="total">   79.63   79.95</time>
   <energy>
    <i name="e_fr_energy">   -560.42487843 </i>
    <i name="e_wo_entrp">   -560.34224964 </i>
    <i name="e_0_energy">   -560.38356404 </i>
   </energy>
  </scstep>
  <scstep>
   <time name="diag">    2.77    2.77</time>
   <time name="diis">   78.31   78.67</time>
   <time name="orth">    0.66    0.66</time>
   <time name="total">   82.40   82.76</time>
   <energy>
    <i name="e_fr_energy">   -662.64443946 </i>
    <i name="e_wo_entrp">   -662.55023983 </i>
    <i name="e_0_energy">   -662.59733965 </i>
   </energy>
  </scstep>
  <scstep>
   <time name="diag">    2.80    2.82</time>
   <time name="diis">   82.74   82.99</time>
   <time name="orth">    0.66    0.66</time>
   <time name="total">   86.85   87.14</time>
   <energy>
    <i name="e_fr_energy">   -559.70438183 </i>
    <i name="e_wo_entrp">   -559.60735256 </i>
    <i name="e_0_energy">   -559.65586720 </i>
   </energy>
  </scstep>
  <scstep>
   <time name="diag">    2.80    2.81</time>
   <time name="diis">   97.34   97.66</time>
   <time name="orth">    0.66    0.66</time>
   <time name="total">  101.47  101.80</time>
   <energy>
    <i name="e_fr_energy">   -564.71699223 </i>
    <i name="e_wo_entrp">   -564.59968162 </i>
    <i name="e_0_energy">   -564.65833692 </i>
   </energy>
  </scstep>
  <scstep>
   <time name="diag">    2.85    2.86</time>
   <time name="diis">   96.55   96.78</time>
   <time name="orth">    0.66    0.66</time>
   <time name="total">  100.72  100.98</time>
   <energy>
    <i name="e_fr_energy">   -578.89044902 </i>
    <i name="e_wo_entrp">   -578.78274111 </i>
    <i name="e_0_energy">   -578.83659506 </i>
   </energy>
  </scstep>
  <scstep>
   <time name="diag">    2.81    2.81</time>
   <time name="diis">   89.98   90.30</time>
   <time name="orth">    0.66    0.66</time>
   <time name="total">   94.10   94.43</time>
   <energy>
    <i name="e_fr_energy">   -565.80141714 </i>
    <i name="e_wo_entrp">   -565.68866743 </i>
    <i name="e_0_energy">   -565.74504229 </i>
   </energy>
  </scstep>
  <scstep>
   <time name="diag">    2.79    2.79</time>
   <time name="diis">  100.53  100.85</time>
   <time name="orth">    0.66    0.66</time>
   <time name="total">  104.63  104.95</time>
   <energy>
    <i name="e_fr_energy">   -569.63811658 </i>
    <i name="e_wo_entrp">   -569.53133775 </i>
    <i name="e_0_energy">   -569.58472716 </i>
   </energy>
  </scstep>
  <scstep>
   <time name="diag">    2.81    2.84</time>
   <time name="diis">   99.91  100.21</time>
   <time name="orth">    0.66    0.66</time>
   <time name="total">  104.04  104.37</time>
   <energy>
    <i name="e_fr_energy">   -568.63408742 </i>
    <i name="e_wo_entrp">   -568.52001563 </i>
    <i name="e_0_energy">   -568.57705152 </i>
   </energy>
  </scstep>
  <scstep>
   <time name="diag">    2.80    2.81</time>
   <time name="diis">   98.48   98.74</time>
   <time name="orth">    0.66    0.66</time>
   <time name="total">  102.60  102.87</time>
   <energy>
    <i name="e_fr_energy">   -568.98613520 </i>
    <i name="e_wo_entrp">   -568.86615216 </i>
    <i name="e_0_energy">   -568.92614368 </i>
   </energy>
  </scstep>
  <scstep>
   <time name="diag">    2.78    2.78</time>
   <time name="diis">   99.86  100.37</time>
   <time name="orth">    0.66    0.66</time>
   <time name="total">  103.95  104.47</time>
   <energy>
    <i name="e_fr_energy">   -569.61379403 </i>
    <i name="e_wo_entrp">   -569.49833105 </i>
    <i name="e_0_energy">   -569.55606254 </i>
   </energy>
  </scstep>
  <scstep>
   <time name="diag">    2.78    2.79</time>
   <time name="diis">   97.65   97.93</time>
   <time name="orth">    0.66    0.66</time>
   <time name="total">  101.76  102.05</time>
   <energy>
    <i name="e_fr_energy">   -568.68289165 </i>
    <i name="e_wo_entrp">   -568.55112928 </i>
    <i name="e_0_energy">   -568.61701046 </i>
   </energy>
  </scstep>
  <scstep>
   <time name="diag">    2.79    2.79</time>
   <time name="diis">   97.03   97.45</time>
   <time name="orth">    0.66    0.66</time>
   <time name="total">  101.14  101.56</time>
   <energy>
    <i name="e_fr_energy">   -568.80801455 </i>
    <i name="e_wo_entrp">   -568.66789232 </i>
    <i name="e_0_energy">   -568.73795344 </i>
   </energy>
  </scstep>
  <scstep>
   <time name="diag">    2.80    2.81</time>
   <time name="diis">  100.99  101.36</time>
   <time name="orth">    0.66    0.66</time>
   <time name="total">  105.12  105.50</time>
   <energy>
    <i name="e_fr_energy">   -568.83172564 </i>
    <i name="e_wo_entrp">   -568.69226685 </i>
    <i name="e_0_energy">   -568.76199624 </i>
   </energy>
  </scstep>
  <scstep>
   <time name="diag">    2.78    2.82</time>
   <time name="diis">  102.24  102.59</time>
   <time name="orth">    0.66    0.66</time>
   <time name="total">  106.33  106.73</time>
   <energy>
    <i name="e_fr_energy">   -568.85792124 </i>
    <i name="e_wo_entrp">   -568.71851661 </i>
    <i name="e_0_energy">   -568.78821892 </i>
   </energy>
  </scstep>
  <scstep>
   <time name="diag">    2.79    2.80</time>
   <time name="diis">   99.12   99.41</time>
   <time name="orth">    0.66    0.66</time>
   <time name="total">  103.24  103.53</time>
   <energy>
    <i name="e_fr_energy">   -568.87290975 </i>
    <i name="e_wo_entrp">   -568.73451286 </i>
    <i name="e_0_energy">   -568.80371130 </i>
   </energy>
  </scstep>
  <scstep>
   <time name="diag">    2.80    2.81</time>
   <time name="diis">  100.45  100.72</time>
   <time name="orth">    0.66    0.66</time>
   <time name="total">  104.57  104.85</time>
   <energy>
    <i name="e_fr_energy">   -568.88240193 </i>
    <i name="e_wo_entrp">   -568.74449379 </i>
    <i name="e_0_energy">   -568.81344786 </i>
   </energy>
  </scstep>
  <scstep>
   <time name="diag">    2.77    2.80</time>
   <time name="diis">   97.99  100.77</time>
   <time name="orth">    0.66    0.66</time>
   <time name="total">  102.07  104.88</time>
   <energy>
    <i name="e_fr_energy">   -568.89175605 </i>
    <i name="e_wo_entrp">   -568.75290018 </i>
    <i name="e_0_energy">   -568.82232811 </i>
   </energy>
  </scstep>
  <scstep>
   <time name="diag">    2.77    2.79</time>
   <time name="diis">   98.87   99.10</time>
   <time name="orth">    0.66    0.66</time>
   <time name="total">  102.96  103.21</time>
   <energy>
    <i name="e_fr_energy">   -568.89069658 </i>
    <i name="e_wo_entrp">   -568.75310327 </i>
    <i name="e_0_energy">   -568.82189992 </i>
   </energy>
  </scstep>
  <scstep>
   <time name="diag">    2.82    2.88</time>
   <time name="diis">   98.39  100.46</time>
   <time name="orth">    0.67    0.68</time>
   <time name="total">  102.52  104.68</time>
   <energy>
    <i name="e_fr_energy">   -568.89268913 </i>
    <i name="e_wo_entrp">   -568.75469843 </i>
    <i name="e_0_energy">   -568.82369378 </i>
   </energy>
  </scstep>
  <scstep>
   <time name="diag">    2.71    2.78</time>
   <time name="diis">   95.01   99.31</time>
   <time name="orth">    0.66    0.66</time>
   <time name="total">   99.05  103.43</time>
   <energy>
    <i name="e_fr_energy">   -568.89363378 </i>
    <i name="e_wo_entrp">   -568.75607471 </i>
    <i name="e_0_energy">   -568.82485424 </i>
   </energy>
  </scstep>
  <scstep>
   <time name="diag">    2.71    2.78</time>
   <time name="diis">   98.82  100.69</time>
   <time name="orth">    0.66    0.66</time>
   <time name="total">  102.86  104.80</time>
   <energy>
    <i name="e_fr_energy">   -568.89432960 </i>
    <i name="e_wo_entrp">   -568.75666900 </i>
    <i name="e_0_energy">   -568.82549930 </i>
   </energy>
  </scstep>
  <scstep>
   <time name="diag">    2.80    2.81</time>
   <time name="diis">   99.01   99.36</time>
   <time name="orth">    0.66    0.66</time>
   <time name="total">  103.12  103.48</time>
   <energy>
    <i name="e_fr_energy">   -568.89477277 </i>
    <i name="e_wo_entrp">   -568.75708921 </i>
    <i name="e_0_energy">   -568.82593099 </i>
   </energy>
  </scstep>
  <scstep>
   <time name="diag">    2.77    2.77</time>
   <time name="diis">   94.80   96.97</time>
   <time name="orth">    0.66    0.66</time>
   <time name="total">   98.90  101.08</time>
   <energy>
    <i name="e_fr_energy">   -568.89501535 </i>
    <i name="e_wo_entrp">   -568.75734751 </i>
    <i name="e_0_energy">   -568.82618143 </i>
   </energy>
  </scstep>
  <scstep>
   <time name="diag">    2.79    2.79</time>
   <time name="diis">   96.98   97.27</time>
   <time name="orth">    0.67    0.68</time>
   <time name="total">  101.11  101.41</time>
   <energy>
    <i name="e_fr_energy">   -568.89517677 </i>
    <i name="e_wo_entrp">   -568.75749367 </i>
    <i name="e_0_energy">   -568.82633522 </i>
   </energy>
  </scstep>
  <scstep>
   <time name="diag">    2.78    2.78</time>
   <time name="diis">   91.83   92.07</time>
   <time name="orth">    0.66    0.66</time>
   <time name="total">   95.93   96.17</time>
   <energy>
    <i name="e_fr_energy">   -568.89526524 </i>
    <i name="e_wo_entrp">   -568.75760364 </i>
    <i name="e_0_energy">   -568.82643444 </i>
   </energy>
  </scstep>
  <scstep>
   <time name="diag">    2.83    2.84</time>
   <time name="diis">   90.45   90.65</time>
   <time name="orth">    0.66    0.66</time>
   <time name="total">   94.59   94.81</time>
   <energy>
    <i name="e_fr_energy">   -568.89533000 </i>
    <i name="e_wo_entrp">   -568.75767273 </i>
    <i name="e_0_energy">   -568.82650137 </i>
   </energy>
  </scstep>
  <scstep>
   <time name="diag">    2.77    2.77</time>
   <time name="diis">   80.62   80.88</time>
   <time name="orth">    0.66    0.66</time>
   <time name="total">   84.71   84.97</time>
   <energy>
    <i name="e_fr_energy">   -568.89536478 </i>
    <i name="e_wo_entrp">   -568.75771246 </i>
    <i name="e_0_energy">   -568.82653862 </i>
   </energy>
  </scstep>
  <scstep>
   <time name="diag">    2.78    2.78</time>
   <time name="diis">   74.31   76.49</time>
   <time name="orth">    0.66    0.66</time>
   <time name="total">   78.41   80.60</time>
   <energy>
    <i name="e_fr_energy">   -568.89539089 </i>
    <i name="e_wo_entrp">   -568.75773797 </i>
    <i name="e_0_energy">   -568.82656443 </i>
   </energy>
  </scstep>
  <scstep>
   <time name="diag">    2.80    2.80</time>
   <time name="diis">   66.48   66.59</time>
   <time name="orth">    0.66    0.66</time>
   <time name="total">   70.61   70.73</time>
   <energy>
    <i name="e_fr_energy">   -568.89540522 </i>
    <i name="e_wo_entrp">   -568.75775611 </i>
    <i name="e_0_energy">   -568.82658066 </i>
   </energy>
  </scstep>
  <scstep>
   <time name="diag">    2.80    2.80</time>
   <time name="diis">   58.13   58.88</time>
   <time name="orth">    0.66    0.66</time>
   <time name="total">   62.23   62.98</time>
   <energy>
    <i name="e_fr_energy">   -568.89541533 </i>
    <i name="e_wo_entrp">   -568.75776962 </i>
    <i name="e_0_energy">   -568.82659248 </i>
   </energy>
  </scstep>
  <scstep>
   <time name="diag">    2.79    2.80</time>
   <time name="diis">   50.15   50.34</time>
   <time name="orth">    0.66    0.66</time>
   <time name="total">   53.65   53.84</time>
   <energy>
    <i name="alphaZ">   6258.70505560 </i>
    <i name="ewald"> -47954.17236229 </i>
    <i name="hartreedc">  -5770.50876957 </i>
    <i name="XCdc">   2036.00952345 </i>
    <i name="pawpsdc">  36309.92882001 </i>
    <i name="pawaedc"> -36011.91534479 </i>
    <i name="eentropy">     -0.13764697 </i>
    <i name="bandstr">  -3985.41540697 </i>
    <i name="atom">  48548.61070987 </i>
    <i name="e_fr_energy">   -568.89542166 </i>
    <i name="e_wo_entrp">   -568.75777469 </i>
    <i name="e_0_energy">   -568.82659817 </i>
   </energy>
  </scstep>
  <structure>
   <crystal>
    <varray name="basis" >
     <v>       8.05323438       0.00012466       0.00121180 </v>
     <v>       0.00012466       8.04465598       0.00217611 </v>
     <v>       0.00121180       0.00217610       8.05088715 </v>
    </varray>
    <i name="volume">    521.58070042 </i>
    <varray name="rec_basis" >
     <v>       0.12417371      -0.00000192      -0.00001869 </v>
     <v>      -0.00000192       0.12430613      -0.00003360 </v>
     <v>      -0.00001869      -0.00003360       0.12420993 </v>
    </varray>
   </crystal>
   <varray name="positions" >
    <v>      -0.00035719      -0.00204605       0.00083652 </v>
    <v>       0.24873063      -0.00237750       0.25202630 </v>
    <v>       0.25083094       0.50234929       0.25020849 </v>
    <v>       0.50077377       0.49934466       0.00005220 </v>
    <v>       0.49898104       0.25100063       0.75052055 </v>
    <v>      -0.00076982       0.50069645       0.50087878 </v>
    <v>       0.50052431       0.74913039       0.74811665 </v>
    <v>      -0.00121773       0.24798239       0.25294889 </v>
    <v>       0.75248837       0.74730422       0.00009883 </v>
    <v>       0.00173600       0.25215757       0.74692112 </v>
    <v>       0.75285183       0.25228126       0.50081262 </v>
    <v>      -0.00064020       0.74805496       0.74921603 </v>
    <v>       0.25038947       0.50009471       0.74991600 </v>
    <v>       0.25083369       0.25137631      -0.00239755 </v>
    <v>       0.50097047       0.25183053       0.24925167 </v>
    <v>       0.75149808      -0.00234972       0.25104693 </v>
    <v>       0.74900594       0.25208677      -0.00067843 </v>
    <v>       0.24840443       0.74870379      -0.00000364 </v>
    <v>       0.24841170       0.24968391       0.50233320 </v>
    <v>       0.24992343       0.75036904       0.50005136 </v>
    <v>       0.25059771       0.24975935       0.24968585 </v>
    <v>       0.24907811       0.00024126       0.00089573 </v>
    <v>       0.00009301       0.24915487       0.00001699 </v>
    <v>       0.74953326       0.24699827       0.24971175 </v>
    <v>       0.75068431       0.00068856       0.00141447 </v>
    <v>       0.50114594       0.00182552       0.25000589 </v>
    <v>       0.00181337       0.49667303       0.25020346 </v>
    <v>       0.49967036       0.74971847      -0.00073697 </v>
    <v>      -0.00046208       0.00024330       0.75211884 </v>
    <v>       0.75029437       0.24808697       0.75026971 </v>
    <v>       0.74845582       0.00313043       0.49860828 </v>
    <v>       0.49996889       0.24825203       0.49915825 </v>
    <v>       0.50039904       0.00017486       0.74995211 </v>
    <v>      -0.00118462       0.00344613       0.24825878 </v>
    <v>       0.50018561       0.24913417       0.00096886 </v>
    <v>       0.25203296       0.75028494       0.24953981 </v>
    <v>       0.24934154       0.49980170      -0.00073344 </v>
    <v>      -0.00073004       0.75012099      -0.00263035 </v>
[...]
      </set>
     </set>
    </set>
   </array>
  </eigenvalues>
  <separator name="orbital magnetization" >
   <v name="MAGDIPOLOUT">      0.00000000      0.00000000      0.00000000</v>
  </separator>
  <dos>
   <i name="efermi">      8.34778590 </i>
   <total>
    <array>
     <dimension dim="1">gridpoints</dimension>
     <dimension dim="2">spin</dimension>
     <field>energy</field>
     <field>total</field>
     <field>integrated</field>
     <set>
      <set comment="spin 1">
       <r>   -59.9236     0.0000     0.0000 </r>
       <r>   -59.6753     0.0000     0.0000 </r>
       <r>   -59.4269     0.0000     0.0000 </r>
       <r>   -59.1785     0.0000     0.0000 </r>
       <r>   -58.9301     0.0000     0.0000 </r>
       <r>   -58.6817     0.0000     0.0000 </r>
       <r>   -58.4334     0.0000     0.0000 </r>
       <r>   -58.1850     0.0000     0.0000 </r>
       <r>   -57.9366     0.0000     0.0000 </r>
       <r>   -57.6882     0.0000     0.0000 </r>
       <r>   -57.4398     0.0000     0.0000 </r>
       <r>   -57.1915     0.0000     0.0000 </r>
       <r>   -56.9431     0.0000     0.0000 </r>
       <r>   -56.6947     0.1471     0.0365 </r>
       <r>   -56.4463    27.3095     6.8197 </r>
       <r>   -56.1979    20.8120    11.9889 </r>
       <r>   -55.9496     0.0446    12.0000 </r>
       <r>   -55.7012     0.0000    12.0000 </r>
       <r>   -55.4528     0.0000    12.0000 </r>
       <r>   -55.2044     0.0000    12.0000 </r>
       <r>   -54.9560     0.0000    12.0000 </r>
       <r>   -54.7077     0.0000    12.0000 </r>
       <r>   -54.4593     0.0000    12.0000 </r>
       <r>   -54.2109     0.0000    12.0000 </r>
       <r>   -53.9625     0.0000    12.0000 </r>
       <r>   -53.7142     0.0000    12.0000 </r>
       <r>   -53.4658     0.0000    12.0000 </r>
       <r>   -53.2174     0.0000    12.0000 </r>
       <r>   -52.9690     0.0000    12.0000 </r>
       <r>   -52.7206     0.0000    12.0000 </r>
       <r>   -52.4723     0.0000    12.0000 </r>
       <r>   -52.2239     0.0000    12.0000 </r>
       <r>   -51.9755     0.0000    12.0000 </r>
       <r>   -51.7271     0.0000    12.0000 </r>
       <r>   -51.4787     0.0000    12.0000 </r>
       <r>   -51.2304     0.0000    12.0000 </r>
       <r>   -50.9820     0.0000    12.0000 </r>
       <r>   -50.7336     0.0000    12.0000 </r>
       <r>   -50.4852     0.0000    12.0000 </r>
       <r>   -50.2368     0.0000    12.0000 </r>
       <r>   -49.9885     0.0000    12.0000 </r>
       <r>   -49.7401     0.0000    12.0000 </r>
       <r>   -49.4917     0.0000    12.0000 </r>
       <r>   -49.2433     0.0000    12.0000 </r>
       <r>   -48.9949     0.0000    12.0000 </r>
       <r>   -48.7466     0.0000    12.0000 </r>
       <r>   -48.4982     0.0000    12.0000 </r>
       <r>   -48.2498     0.0000    12.0000 </r>
       <r>   -48.0014     0.0003    12.0001 </r>
       <r>   -47.7531     3.3322    12.8277 </r>
       <r>   -47.5047    27.5024    19.6587 </r>
       <r>   -47.2563    15.7539    23.5717 </r>
       <r>   -47.0079     1.7244    24.0000 </r>
       <r>   -46.7595     0.0000    24.0000 </r>
       <r>   -46.5112     0.0000    24.0000 </r>
       <r>   -46.2628     0.0000    24.0000 </r>
       <r>   -46.0144     0.0000    24.0000 </r>
       <r>   -45.7660     0.0000    24.0000 </r>
       <r>   -45.5176     0.0000    24.0000 </r>
       <r>   -45.2693     0.0000    24.0000 </r>
       <r>   -45.0209     0.0000    24.0000 </r>
       <r>   -44.7725     0.0000    24.0000 </r>
       <r>   -44.5241     0.0000    24.0000 </r>
       <r>   -44.2757     0.0000    24.0000 </r>
       <r>   -44.0274     0.0000    24.0000 </r>
       <r>   -43.7790     0.0000    24.0000 </r>
       <r>   -43.5306     0.0000    24.0000 </r>
       <r>   -43.2822     0.0000    24.0000 </r>
       <r>   -43.0338     0.0000    24.0000 </r>
       <r>   -42.7855     0.0000    24.0000 </r>
       <r>   -42.5371     0.0000    24.0000 </r>
       <r>   -42.2887     0.0000    24.0000 </r>
       <r>   -42.0403     0.0000    24.0000 </r>
       <r>   -41.7919     0.0000    24.0000 </r>
       <r>   -41.5436     0.0000    24.0000 </r>
       <r>   -41.2952     0.0000    24.0000 </r>
       <r>   -41.0468     0.0620    24.0154 </r>
       <r>   -40.7984     6.8831    25.7250 </r>
       <r>   -40.5501     6.0563    27.2293 </r>
       <r>   -40.3017    29.1917    34.4799 </r>
       <r>   -40.0533    14.1509    37.9947 </r>
       <r>   -39.8049     0.0215    38.0000 </r>
       <r>   -39.5565     0.0000    38.0000 </r>
       <r>   -39.3082     0.0000    38.0000 </r>
       <r>   -39.0598     0.0000    38.0000 </r>
       <r>   -38.8114     0.0000    38.0000 </r>
       <r>   -38.5630     0.0000    38.0000 </r>
       <r>   -38.3146     0.0000    38.0000 </r>
       <r>   -38.0663     0.0000    38.0000 </r>
       <r>   -37.8179     0.0000    38.0000 </r>
       <r>   -37.5695     0.0000    38.0000 </r>
       <r>   -37.3211     0.0000    38.0000 </r>
       <r>   -37.0727     0.0000    38.0000 </r>
       <r>   -36.8244     0.0000    38.0000 </r>
       <r>   -36.5760     0.0000    38.0000 </r>
       <r>   -36.3276     0.0000    38.0000 </r>
       <r>   -36.0792     0.0000    38.0000 </r>
       <r>   -35.8308     0.0000    38.0000 </r>
       <r>   -35.5825     0.0000    38.0000 </r>
       <r>   -35.3341     0.0000    38.0000 </r>
       <r>   -35.0857     0.0000    38.0000 </r>
       <r>   -34.8373     0.0000    38.0000 </r>
       <r>   -34.5889     0.0000    38.0000 </r>
       <r>   -34.3406     0.0000    38.0000 </r>
       <r>   -34.0922     0.0000    38.0000 </r>
       <r>   -33.8438     0.0000    38.0000 </r>
       <r>   -33.5954     0.0000    38.0000 </r>
       <r>   -33.3471     0.0000    38.0000 </r>
       <r>   -33.0987     0.0000    38.0000 </r>
       <r>   -32.8503     0.0000    38.0000 </r>
       <r>   -32.6019     0.0000    38.0000 </r>
       <r>   -32.3535     0.0000    38.0000 </r>
       <r>   -32.1052     0.0000    38.0000 </r>
       <r>   -31.8568     0.0000    38.0000 </r>
       <r>   -31.6084     0.0000    38.0000 </r>
       <r>   -31.3600     0.0000    38.0000 </r>
       <r>   -31.1116     0.0000    38.0000 </r>
       <r>   -30.8633     0.0001    38.0000 </r>
       <r>   -30.6149     3.8289    38.9510 </r>
       <r>   -30.3665    85.7869    60.2587 </r>
       <r>   -30.1181    55.0513    73.9323 </r>
       <r>   -29.8697     0.2724    74.0000 </r>
       <r>   -29.6214     0.0000    74.0000 </r>
       <r>   -29.3730     0.0000    74.0000 </r>
       <r>   -29.1246     0.0000    74.0000 </r>
       <r>   -28.8762     0.0000    74.0000 </r>
       <r>   -28.6278     0.0000    74.0000 </r>
       <r>   -28.3795     0.0000    74.0000 </r>
       <r>   -28.1311     0.0000    74.0000 </r>
       <r>   -27.8827     0.0000    74.0000 </r>
       <r>   -27.6343     0.0000    74.0000 </r>
       <r>   -27.3859     1.8215    74.4524 </r>
       <r>   -27.1376    23.9669    80.4053 </r>
       <r>   -26.8892    52.8565    93.5338 </r>
       <r>   -26.6408    49.1384   105.7387 </r>
       <r>   -26.3924    17.1168   109.9902 </r>
       <r>   -26.1441     0.0394   110.0000 </r>
       <r>   -25.8957     0.0000   110.0000 </r>
       <r>   -25.6473     0.0000   110.0000 </r>
       <r>   -25.3989     0.0000   110.0000 </r>
       <r>   -25.1505     0.0000   110.0000 </r>
       <r>   -24.9022     0.0000   110.0000 </r>
       <r>   -24.6538     0.0000   110.0000 </r>
       <r>   -24.4054     0.0000   110.0000 </r>
       <r>   -24.1570     0.1876   110.0466 </r>
       <r>   -23.9086    22.7200   115.6898 </r>
       <r>   -23.6603    56.2799   129.6685 </r>
       <r>   -23.4119    55.7576   143.5176 </r>
       <r>   -23.1635     9.9935   145.9997 </r>
       <r>   -22.9151     3.2440   146.8055 </r>
       <r>   -22.6667    35.2298   155.5558 </r>
       <r>   -22.4184    43.6095   166.3875 </r>
       <r>   -22.1700    47.7599   178.2501 </r>
       <r>   -21.9216    17.4216   182.5773 </r>
       <r>   -21.6732    21.4562   187.9065 </r>
       <r>   -21.4248     0.3763   188.0000 </r>
       <r>   -21.1765     0.0000   188.0000 </r>
       <r>   -20.9281     0.0000   188.0000 </r>
       <r>   -20.6797     0.0000   188.0000 </r>
       <r>   -20.4313     0.0000   188.0000 </r>
       <r>   -20.1830     0.0000   188.0000 </r>
       <r>   -19.9346     0.0000   188.0000 </r>
       <r>   -19.6862     0.0000   188.0000 </r>
       <r>   -19.4378     0.0130   188.0032 </r>
       <r>   -19.1894    11.0487   190.7475 </r>
       <r>   -18.9411    20.7902   195.9114 </r>
       <r>   -18.6927    63.0781   211.5787 </r>
       <r>   -18.4443    62.0552   226.9919 </r>
       <r>   -18.1959    11.9946   229.9711 </r>
       <r>   -17.9475     0.1163   230.0000 </r>
       <r>   -17.6992     0.0000   230.0000 </r>
       <r>   -17.4508     0.0000   230.0000 </r>
       <r>   -17.2024     0.0000   230.0000 </r>
       <r>   -16.9540     0.0000   230.0000 </r>
       <r>   -16.7056     0.0000   230.0000 </r>
       <r>   -16.4573     0.0000   230.0000 </r>
       <r>   -16.2089     0.0000   230.0000 </r>
       <r>   -15.9605     0.0000   230.0000 </r>
       <r>   -15.7121     0.0000   230.0000 </r>
       <r>   -15.4637     0.0000   230.0000 </r>
       <r>   -15.2154     0.0000   230.0000 </r>
       <r>   -14.9670     0.0000   230.0000 </r>
       <r>   -14.7186     0.0000   230.0000 </r>
       <r>   -14.4702     0.0000   230.0000 </r>
       <r>   -14.2218     0.0000   230.0000 </r>
       <r>   -13.9735     0.0000   230.0000 </r>
       <r>   -13.7251     0.0000   230.0000 </r>
       <r>   -13.4767     0.0000   230.0000 </r>
       <r>   -13.2283     0.0000   230.0000 </r>
       <r>   -12.9800     0.0000   230.0000 </r>
       <r>   -12.7316     0.0000   230.0000 </r>
       <r>   -12.4832     0.0000   230.0000 </r>
       <r>   -12.2348     0.0000   230.0000 </r>
       <r>   -11.9864     0.0000   230.0000 </r>
       <r>   -11.7381     0.0000   230.0000 </r>
       <r>   -11.4897     0.0000   230.0000 </r>
       <r>   -11.2413     0.0000   230.0000 </r>
       <r>   -10.9929     0.0000   230.0000 </r>
       <r>   -10.7445     0.0000   230.0000 </r>
       <r>   -10.4962     0.0000   230.0000 </r>
       <r>   -10.2478     0.0000   230.0000 </r>
       <r>    -9.9994     0.0000   230.0000 </r>
       <r>    -9.7510     0.0000   230.0000 </r>
       <r>    -9.5026     0.0000   230.0000 </r>
       <r>    -9.2543     0.0000   230.0000 </r>
       <r>    -9.0059     0.0000   230.0000 </r>
       <r>    -8.7575     0.0000   230.0000 </r>
       <r>    -8.5091     0.0000   230.0000 </r>
       <r>    -8.2607     0.0000   230.0000 </r>
       <r>    -8.0124     0.0011   230.0003 </r>
       <r>    -7.7640     0.9316   230.2317 </r>
       <r>    -7.5156     5.9563   231.7111 </r>
       <r>    -7.2672    10.0274   234.2017 </r>
       <r>    -7.0188    14.7413   237.8631 </r>
       <r>    -6.7705    21.5289   243.2104 </r>
       <r>    -6.5221    30.1520   250.6996 </r>
       <r>    -6.2737     8.0568   252.7007 </r>
       <r>    -6.0253    12.4570   255.7948 </r>
       <r>    -5.7770     0.8263   256.0000 </r>
       <r>    -5.5286     0.0000   256.0000 </r>
       <r>    -5.2802     0.0000   256.0000 </r>
       <r>    -5.0318     0.0000   256.0000 </r>
       <r>    -4.7834     0.0000   256.0000 </r>
       <r>    -4.5351     0.0000   256.0000 </r>
       <r>    -4.2867     0.0115   256.0029 </r>
       <r>    -4.0383     2.3168   256.5783 </r>
       <r>    -3.7899     5.6063   257.9708 </r>
       <r>    -3.5415     5.0857   259.2340 </r>
       <r>    -3.2932    10.8725   261.9345 </r>
       <r>    -3.0448    12.5034   265.0401 </r>
       <r>    -2.7964    20.2468   270.0690 </r>
       <r>    -2.5480    31.6239   277.9237 </r>
       <r>    -2.2996    27.4546   284.7428 </r>
       <r>    -2.0513    20.3145   289.7885 </r>
       <r>    -1.8029    11.4137   292.6235 </r>
       <r>    -1.5545     5.2475   293.9268 </r>
       <r>    -1.3061     0.2944   294.0000 </r>
       <r>    -1.0577     0.0002   294.0000 </r>
       <r>    -0.8094     0.0000   294.0000 </r>
       <r>    -0.5610     0.0000   294.0000 </r>
       <r>    -0.3126     0.0000   294.0000 </r>
       <r>    -0.0642     0.0000   294.0000 </r>
       <r>     0.1842     0.0001   294.0000 </r>
       <r>     0.4325     0.1652   294.0410 </r>
       <r>     0.6809     0.8419   294.2502 </r>
       <r>     0.9293     4.7848   295.4386 </r>
       <r>     1.1777     9.6780   297.8424 </r>
       <r>     1.4260    12.9788   301.0661 </r>
       <r>     1.6744    16.2409   305.1000 </r>
       <r>     1.9228    25.1464   311.3458 </r>
       <r>     2.1712    28.0678   318.3173 </r>
       <r>     2.4196    27.3480   325.1100 </r>
       <r>     2.6679    33.0558   333.3204 </r>
       <r>     2.9163    35.3705   342.1057 </r>
       <r>     3.1647    39.4230   351.8975 </r>
       <r>     3.4131    48.6533   363.9820 </r>
       <r>     3.6615    51.7181   376.8277 </r>
       <r>     3.9098    54.7081   390.4160 </r>
       <r>     4.1582    57.9340   404.8056 </r>
       <r>     4.4066    60.0230   419.7141 </r>
       <r>     4.6550    61.8972   435.0881 </r>
       <r>     4.9034    53.8489   448.4630 </r>
       <r>     5.1517    41.4451   458.7571 </r>
       <r>     5.4001    33.3901   467.0505 </r>
       <r>     5.6485    31.0283   474.7573 </r>
       <r>     5.8969    16.0420   478.7418 </r>
       <r>     6.1453    19.1780   483.5052 </r>
       <r>     6.3936     8.6913   485.6640 </r>
       <r>     6.6420     6.2506   487.2165 </r>
       <r>     6.8904    15.2609   491.0070 </r>
       <r>     7.1388    16.2539   495.0441 </r>
       <r>     7.3871    13.3839   498.3684 </r>
       <r>     7.6355    16.3650   502.4331 </r>
       <r>     7.8839    18.0101   506.9064 </r>
       <r>     8.1323    20.7911   512.0705 </r>
       <r>     8.3807    23.0199   517.7882 </r>
       <r>     8.6290    24.6836   523.9191 </r>
       <r>     8.8774    27.8940   530.8474 </r>
       <r>     9.1258    33.0196   539.0488 </r>
       <r>     9.3742    42.5172   549.6092 </r>
       <r>     9.6226    44.2911   560.6101 </r>
       <r>     9.8709    39.8316   570.5035 </r>
       <r>    10.1193    42.2407   580.9952 </r>
       <r>    10.3677    42.2677   591.4936 </r>
       <r>    10.6161    43.4481   602.2852 </r>
       <r>    10.8645    43.7128   613.1426 </r>
       <r>    11.1128    35.8228   622.0402 </r>
       <r>    11.3612     7.8653   623.9938 </r>
       <r>    11.6096     0.0249   624.0000 </r>
       <r>    11.8580     0.0000   624.0000 </r>
       <r>    12.1064     0.0000   624.0000 </r>
       <r>    12.3547     0.0000   624.0000 </r>
       <r>    12.6031     0.0000   624.0000 </r>
       <r>    12.8515     0.0000   624.0000 </r>
       <r>    13.0999     0.0000   624.0000 </r>
       <r>    13.3483     0.0000   624.0000 </r>
       <r>    13.5966     0.0000   624.0000 </r>
       <r>    13.8450     0.0000   624.0000 </r>
       <r>    14.0934     0.0000   624.0000 </r>
       <r>    14.3418     0.0000   624.0000 </r>
       <r>    14.5901     0.0000   624.0000 </r>
      </set>
     </set>
    </array>
   </total>
  </dos>
 </calculation>
 <structure name="finalpos" >
  <crystal>
   <varray name="basis" >
    <v>       8.97883812       0.00619790      -0.00070497 </v>
    <v>       0.00603573       9.07686579      -0.00437582 </v>
    <v>      -0.00067377      -0.00433517       8.96811198 </v>
   </varray>
   <i name="volume">    730.89800309 </i>
   <varray name="rec_basis" >
    <v>       0.11137304      -0.00007405       0.00000833 </v>
    <v>      -0.00007604       0.11017026       0.00005325 </v>
    <v>       0.00000872       0.00005375       0.11150622 </v>
   </varray>
  </crystal>
  <varray name="positions" >
   <v>      -0.00703599      -0.00524106      -0.00061044 </v>
   <v>       0.25186158      -0.00318892       0.25077546 </v>
   <v>       0.25233173       0.50207161       0.25074537 </v>
   <v>       0.50418465       0.49949784      -0.00093153 </v>
   <v>       0.50203793       0.24942545       0.74508998 </v>
   <v>      -0.00555670       0.50515621       0.49418183 </v>
   <v>       0.50170337       0.75162191       0.74843834 </v>
   <v>      -0.00505430       0.23581880       0.26420202 </v>
   <v>       0.75748695       0.73961296       0.01175338 </v>
   <v>       0.00110341       0.26196145       0.73891895 </v>
   <v>       0.75363547       0.26113441       0.50570585 </v>
   <v>      -0.00625162       0.74524572       0.74201140 </v>
   <v>       0.25618045       0.49972906       0.74612051 </v>
   <v>       0.24664301       0.25000987      -0.00231254 </v>
   <v>       0.50860367       0.25369859       0.25439609 </v>
   <v>       0.75004667      -0.00968550       0.26309141 </v>
   <v>       0.75575261       0.25706680      -0.00503036 </v>
   <v>       0.24441573       0.74862306       0.00055829 </v>
   <v>       0.25089807       0.25051994       0.49981235 </v>
   <v>       0.24537625       0.74921101       0.49837600 </v>
   <v>       0.24953297       0.24860229       0.24892446 </v>
   <v>       0.25403867      -0.00084955      -0.00457523 </v>
   <v>       0.00181827       0.24921144       0.00051538 </v>
   <v>       0.75359408       0.24759237       0.25440845 </v>
   <v>       0.74836036      -0.00123891       0.00653712 </v>
   <v>       0.50573560       0.00264586       0.25242524 </v>
   <v>      -0.00718101       0.47995485       0.24301318 </v>
   <v>       0.50258952       0.75695691       0.00411046 </v>
   <v>      -0.00504881       0.00137103       0.74076027 </v>
   <v>       0.75653167       0.24608552       0.74839093 </v>
   <v>       0.74418225       0.01204050       0.50521283 </v>
   <v>       0.50585912       0.24352311       0.49610865 </v>
   <v>       0.49841673       0.00040924       0.74732653 </v>
   <v>      -0.00249870      -0.00206618       0.25922610 </v>
   <v>       0.50290300       0.24444081       0.00199391 </v>
   <v>       0.24671671       0.74987191       0.24909220 </v>
   <v>       0.24519088       0.50032710      -0.00451518 </v>
   <v>      -0.00342148       0.74505110       0.00266002 </v>
   <v>       0.75767580       0.74131635       0.25689167 </v>
   <v>       0.75465602       0.50310793       0.00293909 </v>
   <v>       0.50944459       0.50157265       0.25881199 </v>
   <v>       0.24573588       0.25064150       0.74901170 </v>
   <v>       0.24661463      -0.00107112       0.50111143 </v>
   <v>      -0.00184442       0.24396042       0.50122547 </v>
   <v>       0.24199045       0.75059296       0.74960242 </v>
   <v>       0.25704074       0.50022081       0.50224742 </v>
   <v>      -0.00963129       0.76148579       0.49646757 </v>
   <v>      -0.00724601       0.50034361       0.75030456 </v>
   <v>       0.75163492       0.74514023       0.74657112 </v>
   <v>       0.74145153       0.50357378       0.49867296 </v>
   <v>       0.50577831       0.74679146       0.49764308 </v>
   <v>       0.50524888       0.50096277       0.73963723 </v>
   <v>       0.51305904       0.00802747      -0.00891816 </v>
   <v>      -0.00326340       0.50336984      -0.00264836 </v>
   <v>       0.50571394       0.74504918       0.25517881 </v>
   <v>       0.24398836       0.00118943       0.74277884 </v>
   <v>       0.48796826      -0.01484255       0.50464171 </v>
   <v>       0.74878065      -0.01863263       0.75406966 </v>
   <v>      -0.00297684       0.77533471       0.26094160 </v>
   <v>       0.73602266       0.51462834       0.26212118 </v>
   <v>       0.01817218      -0.00247969       0.49696672 </v>
   <v>       0.50781651       0.52202995       0.49930865 </v>
   <v>       0.74059958       0.52267138       0.73813214 </v>
   <v>       0.74988695       0.72879748       0.48938247 </v>
  </varray>
 </structure>
</modeling>
