HECN                                    
           1
    11.240000    0.000000    0.000000
     0.000000   11.240000    0.000000
     0.000000    0.000000   11.240000
   Zr   Ta   Hf   N    C    Nb   V 
   7   6   7  13  19   6   6
Direct configuration=     1
   0.00000000  0.00000000  0.00000000
   0.25000000  0.00000000  0.25000000
   0.25000000  0.50000000  0.25000000
   0.50000000  0.50000000  0.00000000
   0.50000000  0.25000000  0.75000004
   0.00000000  0.50000000  0.50000000
   0.50000000  0.75000004  0.75000004
   0.00000000  0.25000000  0.25000000
   0.75000004  0.75000004  0.00000000
   0.00000000  0.25000000  0.75000004
   0.75000004  0.25000000  0.50000000
   0.00000000  0.75000004  0.75000004
   0.25000000  0.50000000  0.75000004
   0.25000000  0.25000000  0.00000000
   0.50000000  0.25000000  0.25000000
   0.75000004  0.00000000  0.25000000
   0.75000004  0.25000000  0.00000000
   0.25000000  0.75000004  0.00000000
   0.25000000  0.25000000  0.50000000
   0.25000000  0.75000004  0.50000000
   0.25000000  0.25000000  0.25000000
   0.25000000  0.00000000  0.00000000
   0.00000000  0.25000000  0.00000000
   0.75000004  0.25000000  0.25000000
   0.75000004  0.00000000  0.00000000
   0.50000000  0.00000000  0.25000000
   0.00000000  0.50000000  0.25000000
   0.50000000  0.75000004  0.00000000
   0.00000000  0.00000000  0.75000004
   0.75000004  0.25000000  0.75000004
   0.75000004  0.00000000  0.50000000
   0.50000000  0.25000000  0.50000000
   0.50000000  0.00000000  0.75000004
   0.00000000  0.00000000  0.25000000
   0.50000000  0.25000000  0.00000000
   0.25000000  0.75000004  0.25000000
   0.25000000  0.50000000  0.00000000
   0.00000000  0.75000004  0.00000000
   0.75000004  0.75000004  0.25000000
   0.75000004  0.50000000  0.00000000
   0.50000000  0.50000000  0.25000000
   0.25000000  0.25000000  0.75000004
   0.25000000  0.00000000  0.50000000
   0.00000000  0.25000000  0.50000000
   0.25000000  0.75000004  0.75000004
   0.25000000  0.50000000  0.50000000
   0.00000000  0.75000004  0.50000000
   0.00000000  0.50000000  0.75000004
   0.75000004  0.75000004  0.75000004
   0.75000004  0.50000000  0.50000000
   0.50000000  0.75000004  0.50000000
   0.50000000  0.50000000  0.75000004
   0.50000000  0.00000000  0.00000000
   0.00000000  0.50000000  0.00000000
   0.50000000  0.75000004  0.25000000
   0.25000000  0.00000000  0.75000004
   0.50000000  0.00000000  0.50000000
   0.75000004  0.00000000  0.75000004
   0.00000000  0.75000004  0.25000000
   0.75000004  0.50000000  0.25000000
   0.00000000  0.00000000  0.50000000
   0.50000000  0.50000000  0.50000000
   0.75000004  0.50000000  0.75000004
   0.75000004  0.75000004  0.50000000
HECN                                    
           1
     8.053234    0.000125    0.001212
     0.000125    8.044656    0.002176
     0.001212    0.002176    8.050887
   Zr   Ta   Hf   N    C    Nb   V 
   7   6   7  13  19   6   6
Direct configuration=     2
  -0.00035719 -0.00204605  0.00083652
   0.24873063 -0.00237750  0.25202630
   0.25083094  0.50234929  0.25020849
   0.50077377  0.49934466  0.00005220
   0.49898104  0.25100063  0.75052055
  -0.00076982  0.50069645  0.50087878
   0.50052431  0.74913039  0.74811665
  -0.00121773  0.24798239  0.25294889
   0.75248837  0.74730422  0.00009883
   0.00173600  0.25215757  0.74692112
   0.75285183  0.25228126  0.50081262
  -0.00064020  0.74805496  0.74921603
   0.25038947  0.50009471  0.74991600
   0.25083369  0.25137631 -0.00239755
   0.50097047  0.25183053  0.24925167
   0.75149808 -0.00234972  0.25104693
   0.74900594  0.25208677 -0.00067843
   0.24840443  0.74870379 -0.00000364
   0.24841170  0.24968391  0.50233320
   0.24992343  0.75036904  0.50005136
   0.25059771  0.24975935  0.24968585
   0.24907811  0.00024126  0.00089573
   0.00009301  0.24915487  0.00001699
   0.74953326  0.24699827  0.24971175
   0.75068431  0.00068856  0.00141447
   0.50114594  0.00182552  0.25000589
   0.00181337  0.49667303  0.25020346
   0.49967036  0.74971847 -0.00073697
  -0.00046208  0.00024330  0.75211884
   0.75029437  0.24808697  0.75026971
   0.74845582  0.00313043  0.49860828
   0.49996889  0.24825203  0.49915825
   0.50039904  0.00017486  0.74995211
  -0.00118462  0.00344613  0.24825878
   0.50018561  0.24913417  0.00096886
   0.25203296  0.75028494  0.24953981
   0.24934154  0.49980170 -0.00073344
  -0.00073004  0.75012099 -0.00263035
   0.74811215  0.75239221  0.24723748
   0.75077655  0.50044227  0.00026528
   0.49892498  0.49926250  0.24897569
   0.24886379  0.25071361  0.75027190
   0.25179804  0.00045950  0.50013449
  -0.00096541  0.25088084  0.50002162
   0.24900389  0.74921888  0.75040664
   0.24860283  0.49951049  0.50083609
   0.00154838  0.74888799  0.50311321
   0.00211627  0.49975215  0.75066163
   0.75129102  0.75204665  0.75267934
   0.75101929  0.49668862  0.49974002
   0.49848885  0.75194477  0.49962183
   0.49750291  0.49978647  0.75105572
   0.50081898  0.00161962 -0.00038108
  -0.00095264  0.50233299 -0.00192889
   0.50063085  0.74797017  0.25266612
   0.25013416 -0.00005683  0.74732705
   0.49827845 -0.00286156  0.50025792
   0.74988519 -0.00245543  0.74921520
  -0.00043382  0.75159066  0.25015711
   0.74834780  0.50223455  0.25023241
   0.00131706 -0.00016950  0.49884090
   0.50076517  0.50207261  0.49994681
   0.74980410  0.50193315  0.74988937
   0.75003504  0.74839482  0.49989228
HECN                                    
           1
     9.120023    0.000083    0.000806
     0.000083    9.114316    0.001448
     0.000806    0.001448    9.118461
   Zr   Ta   Hf   N    C    Nb   V 
   7   6   7  13  19   6   6
Direct configuration=     3
  -0.00019026 -0.00108896  0.00044528
   0.24932384 -0.00126525  0.25107890
   0.25044274  0.50125051  0.25011140
   0.50041225  0.49965119  0.00002777
   0.49945717  0.25053267  0.75027734
  -0.00041008  0.50037081  0.50046811
   0.50027920  0.74953691  0.74899680
  -0.00064859  0.24892643  0.25157036
   0.75132575  0.74856514  0.00005248
   0.00092470  0.25114805  0.74836048
   0.75151948  0.25121439  0.50043332
  -0.00034115  0.74896461  0.74958215
   0.25020750  0.50005040  0.74995532
   0.25044401  0.25073228 -0.00127680
   0.50051701  0.25097427  0.24960171
   0.75079822 -0.00125056  0.25055745
   0.74947037  0.25111065 -0.00036116
   0.24914991  0.74931006 -0.00000222
   0.24915395  0.24983203  0.50124261
   0.24995921  0.75019646  0.50002740
   0.25031842  0.24987187  0.24983268
   0.24950890  0.00012852  0.00047707
   0.00004955  0.24955016  0.00000895
   0.74975131  0.24840220  0.24984605
   0.75036471  0.00036669  0.00075354
   0.50061054  0.00097170  0.25000345
   0.00096611  0.49822917  0.25010808
   0.49982432  0.74985007 -0.00039260
  -0.00024604  0.00012977  0.75112860
   0.75015686  0.24898177  0.75014346
   0.74917724  0.00166607  0.49925900
   0.49998335  0.24906949  0.49955143
   0.50021260  0.00009307  0.74997456
  -0.00063123  0.00183407  0.24907291
   0.50009895  0.24953926  0.00051596
   0.25108308  0.75015164  0.24975506
   0.24964913  0.49989435 -0.00039073
  -0.00038913  0.75006408 -0.00140107
   0.74899404  0.75127298  0.24852874
   0.75041377  0.50023545  0.00014141
   0.49942718  0.49960731  0.24945424
   0.24939468  0.25037987  0.75014486
   0.25095797  0.00024461  0.50007182
  -0.00051434  0.25046885  0.50001156
   0.24946932  0.74958429  0.75021645
   0.24925568  0.49973954  0.50044517
   0.00082515  0.74940852  0.50165819
   0.00112754  0.49986817  0.75035255
   0.75068805  0.75108976  0.75142749
   0.75054303  0.49823740  0.49986117
   0.49919488  0.75103512  0.49979871
   0.49866968  0.49988646  0.75056214
   0.50043632  0.00086205 -0.00020272
  -0.00050766  0.50124155 -0.00102718
   0.50033628  0.74891993  0.25141987
   0.25007129 -0.00003059  0.74857630
   0.49908280 -0.00152312  0.50013690
   0.74993878 -0.00130707  0.74958169
  -0.00023111  0.75084671  0.25008385
   0.74911980  0.50118942  0.25012396
   0.00070162 -0.00009036  0.49938269
   0.50040767  0.50110320  0.49997199
   0.74989566  0.50102896  0.74994133
   0.75001867  0.74914560  0.49994242
HECN                                    
           1
     9.039713    0.000086    0.000837
     0.000086    9.033790    0.001502
     0.000837    0.001502    9.038093
   Zr   Ta   Hf   N    C    Nb   V 
   7   6   7  13  19   6   6
Direct configuration=     4
  -0.00020135 -0.00115256  0.00047128
   0.24928441 -0.00133915  0.25114186
   0.25046854  0.50132352  0.25011787
   0.50043628  0.49963082  0.00002940
   0.49942552  0.25056377  0.75029351
  -0.00043399  0.50039245  0.50049540
   0.50029549  0.74950989  0.74893829
  -0.00068641  0.24886372  0.25166198
   0.75140304  0.74848136  0.00005555
   0.00097863  0.25121512  0.74826482
   0.75160805  0.25128528  0.50045855
  -0.00036103  0.74890417  0.74955781
   0.25021959  0.50005335  0.74995271
   0.25046991  0.25077507 -0.00135129
   0.50054715  0.25103116  0.24957845
   0.75084474 -0.00132359  0.25058998
   0.74943950  0.25117551 -0.00038225
   0.24910035  0.74926978 -0.00000232
   0.24910462  0.24982220  0.50131509
   0.24995684  0.75020792  0.50002899
   0.25033699  0.24986440  0.24982292
   0.24948027  0.00013602  0.00050490
   0.00005244  0.24952389  0.00000948
   0.74973681  0.24830891  0.24983712
   0.75038596  0.00038808  0.00079748
   0.50064614  0.00102843  0.25000362
   0.00102244  0.49812577  0.25011441
   0.49981408  0.74984132 -0.00041549
  -0.00026039  0.00013732  0.75119442
   0.75016600  0.24892232  0.75015184
   0.74912928  0.00176337  0.49921576
   0.49998239  0.24901517  0.49952529
   0.50022499  0.00009851  0.74997307
  -0.00066802  0.00194118  0.24901880
   0.50010471  0.24951235  0.00054606
   0.25114623  0.75016050  0.24974076
   0.24962868  0.49988819 -0.00041351
  -0.00041180  0.75006785 -0.00148278
   0.74893541  0.75134734  0.24844292
   0.75043789  0.50024919  0.00014964
   0.49939379  0.49958439  0.24942243
   0.24935939  0.25040204  0.75015330
   0.25101381  0.00025889  0.50007599
  -0.00054433  0.25049622  0.50001223
   0.24943838  0.74956001  0.75022908
   0.24921228  0.49972432  0.50047115
   0.00087323  0.74937395  0.50175490
   0.00119327  0.49986047  0.75037309
   0.75072814  0.75115335  0.75151071
   0.75057469  0.49813448  0.49985311
   0.49914795  0.75109556  0.49978696
   0.49859212  0.49987982  0.75059494
   0.50046176  0.00091239 -0.00021457
  -0.00053725  0.50131407 -0.00108711
   0.50035586  0.74885683  0.25150270
   0.25007547 -0.00003234  0.74849326
   0.49902933 -0.00161206  0.50014493
   0.74993522 -0.00138338  0.74955732
  -0.00024458  0.75089615  0.25008873
   0.74906848  0.50125887  0.25013117
   0.00074253 -0.00009562  0.49934668
   0.50043144  0.50116762  0.49997032
   0.74988957  0.50108904  0.74993788
   0.75001976  0.74909571  0.49993908
HECN                                    
           1
     8.995331    0.000088    0.000854
     0.000088    8.989288    0.001533
     0.000854    0.001533    8.993677
   Zr   Ta   Hf   N    C    Nb   V 
   7   6   7  13  19   6   6
Direct configuration=     5
  -0.00020754 -0.00118801  0.00048577
   0.24926242 -0.00138035  0.25117697
   0.25048293  0.50136423  0.25012147
   0.50044968  0.49961946  0.00003030
   0.49940787  0.25058111  0.75030252
  -0.00044732  0.50040452  0.50051062
   0.50030457  0.74949483  0.74890567
  -0.00070751  0.24882874  0.25171306
   0.75144613  0.74843465  0.00005727
   0.00100869  0.25125252  0.74821148
   0.75165744  0.25132481  0.50047261
  -0.00037212  0.74887047  0.74954424
   0.25022634  0.50005499  0.74995125
   0.25048435  0.25079892 -0.00139282
   0.50056396  0.25106288  0.24956548
   0.75087068 -0.00136432  0.25060811
   0.74942229  0.25121167 -0.00039400
   0.24907272  0.74924732 -0.00000238
   0.24907711  0.24981671  0.50135551
   0.24995551  0.75021432  0.50002988
   0.25034734  0.24986023  0.24981748
   0.24946430  0.00014020  0.00052041
   0.00005405  0.24950925  0.00000978
   0.74972873  0.24825690  0.24983213
   0.75039780  0.00040001  0.00082197
   0.50066598  0.00106006  0.25000371
   0.00105384  0.49806811  0.25011794
   0.49980838  0.74983645 -0.00042825
  -0.00026840  0.00014153  0.75123111
   0.75017110  0.24888917  0.75015652
   0.74910254  0.00181762  0.49919164
   0.49998185  0.24898488  0.49951071
   0.50023190  0.00010154  0.74997224
  -0.00068854  0.00200090  0.24898864
   0.50010793  0.24949734  0.00056284
   0.25118143  0.75016544  0.24973278
   0.24961728  0.49988476 -0.00042621
  -0.00042444  0.75006996 -0.00152834
   0.74890272  0.75138880  0.24839507
   0.75045133  0.50025686  0.00015424
   0.49937517  0.49957162  0.24940469
   0.24933971  0.25041441  0.75015801
   0.25104495  0.00026686  0.50007832
  -0.00056104  0.25051149  0.50001260
   0.24942113  0.74954648  0.75023613
   0.24918808  0.49971584  0.50048564
   0.00090004  0.74935467  0.50180883
   0.00122992  0.49985617  0.75038455
   0.75075049  0.75118880  0.75155711
   0.75059234  0.49807710  0.49984862
   0.49912178  0.75112926  0.49978041
   0.49854888  0.49987611  0.75061323
   0.50047594  0.00094045 -0.00022117
  -0.00055374  0.50135450 -0.00112052
   0.50036678  0.74882164  0.25154889
   0.25007779 -0.00003332  0.74844697
   0.49899952 -0.00166165  0.50014941
   0.74993323 -0.00142593  0.74954373
  -0.00025209  0.75092371  0.25009144
   0.74903987  0.50129759  0.25013519
   0.00076534 -0.00009855  0.49932660
   0.50044469  0.50120353  0.49996939
   0.74988618  0.50112254  0.74993596
   0.75002036  0.74906790  0.49993722
HECN                                    
           1
     8.964764    0.012571   -0.000737
     0.012561    8.997145    0.008440
    -0.000735    0.008451    8.963050
   Zr   Ta   Hf   N    C    Nb   V 
   7   6   7  13  19   6   6
Direct configuration=     6
  -0.00078636 -0.00352369  0.00140964
   0.24794455 -0.00299503  0.25302670
   0.25048602  0.50333360  0.25142680
   0.50390349  0.49965646  0.00003522
   0.49999804  0.25027198  0.74797666
  -0.00433644  0.50342951  0.49932156
   0.50325278  0.74935013  0.74572837
  -0.00386456  0.24520044  0.25686702
   0.75499640  0.74396922  0.00125113
   0.00168816  0.25325031  0.74375352
   0.75457803  0.25524416  0.50198226
  -0.00313886  0.74714331  0.74732143
   0.25178312  0.49938864  0.74932747
   0.24909976  0.24884163 -0.00254529
   0.50280170  0.25314112  0.25158603
   0.75258885 -0.00574215  0.25398270
   0.74999555  0.25311858 -0.00185995
   0.24761868  0.75030191  0.00038706
   0.24854302  0.24893105  0.50268789
   0.24894122  0.75118762  0.49966989
   0.24941263  0.24960725  0.24968799
   0.25080408 -0.00011366 -0.00109038
   0.00012859  0.25158022  0.00014066
   0.75066391  0.24984988  0.25136583
   0.74879432 -0.00050194  0.00140843
   0.50355252  0.00157660  0.25060483
  -0.00397804  0.49772658  0.24752855
   0.50139710  0.75205381  0.00116270
  -0.00141747  0.00030563  0.74640894
   0.75308171  0.25024511  0.74855500
   0.75160673  0.00142484  0.49913580
   0.50215426  0.25056041  0.49759299
   0.50103045 -0.00015756  0.74949392
  -0.00313385  0.00131817  0.25497117
   0.50066900  0.24582247  0.00226631
   0.24990533  0.75029595  0.24952780
   0.24493760  0.50033799 -0.00306114
  -0.00295751  0.74678168  0.00006895
   0.75138848  0.74646091  0.25119804
   0.75501138  0.50328482  0.00081154
   0.50622962  0.50156324  0.25642803
   0.24576484  0.25048922  0.75012558
   0.24867574  0.00044138  0.50353548
  -0.00335967  0.24441360  0.50011827
   0.24602563  0.74955739  0.75030066
   0.25461013  0.49932009  0.50323566
  -0.00514424  0.75607740  0.50033888
  -0.00220076  0.49961142  0.75382967
   0.75418557  0.74891045  0.74875455
   0.74363219  0.50004704  0.49930436
   0.50500006  0.74855394  0.49673411
   0.50110724  0.49996766  0.74363784
   0.50234480  0.00420323 -0.00122049
  -0.00405419  0.50438497 -0.00240782
   0.50290896  0.74528231  0.25608362
   0.24990586  0.00063076  0.74533513
   0.49653905 -0.00730881  0.50054106
   0.74958538 -0.00596844  0.74742242
  -0.00207987  0.75497309  0.25062704
   0.74556399  0.50589540  0.25087648
   0.00283795  0.00017224  0.49691384
   0.50381506  0.50569269  0.49955785
   0.74884426  0.50548027  0.74989825
   0.75011874  0.74565217  0.49891618
HECN                                    
           1
     8.947670    0.019551   -0.001627
     0.019536    9.001539    0.012302
    -0.001623    0.012319    8.945922
   Zr   Ta   Hf   N    C    Nb   V 
   7   6   7  13  19   6   6
Direct configuration=     7
  -0.00110925 -0.00482868  0.00192901
   0.24720648 -0.00389698  0.25406522
   0.25048635  0.50443340  0.25215843
   0.50584153  0.49967444  0.00003831
   0.50032922  0.25009981  0.74667172
  -0.00652124  0.50512325  0.49865264
   0.50490692  0.74926836  0.74394582
  -0.00563276  0.24317339  0.25976035
   0.75699217  0.74147092  0.00192333
   0.00206744  0.25436795  0.74125120
   0.75621398  0.25743113  0.50282798
  -0.00469026  0.74618139  0.74607459
   0.25265714  0.49901539  0.74897788
   0.24832422  0.24774958 -0.00319129
   0.50405596  0.25429971  0.25271918
   0.75355672 -0.00819102  0.25587837
   0.75031559  0.25418423 -0.00268332
   0.24680198  0.75089213  0.00060498
   0.24824414  0.24843603  0.50343588
   0.24837127  0.75173239  0.49946737
   0.24888832  0.24946668  0.24961534
   0.25155591 -0.00025585 -0.00199401
   0.00016882  0.25273724  0.00021322
   0.75118759  0.25073855  0.25222586
   0.74789530 -0.00100489  0.00173774
   0.50517191  0.00186270  0.25094221
  -0.00680160  0.49754078  0.24607518
   0.50228703  0.75329082  0.00205465
  -0.00206286  0.00040029  0.74370284
   0.75471374  0.25100115  0.74765603
   0.75301222  0.00120345  0.49910488
   0.50337186  0.25143987  0.49651641
   0.50147869 -0.00030275  0.74922570
  -0.00450488  0.00093602  0.25832826
   0.50098687  0.24376800  0.00322383
   0.24918914  0.75036995  0.24941259
   0.24231104  0.50059601 -0.00454037
  -0.00437619  0.74494567  0.00096641
   0.75278744  0.74370435  0.25277327
   0.75756790  0.50497284  0.00117953
   0.51007504  0.50266766  0.26036894
   0.24375879  0.25053382  0.75010699
   0.24734650  0.00053924  0.50547511
  -0.00492534  0.24100859  0.50017991
   0.24412028  0.74956610  0.75033653
   0.25765321  0.49909356  0.50477953
  -0.00854128  0.75983901  0.49951053
  -0.00412530  0.49947586  0.75576263
   0.75611461  0.74763597  0.74718325
   0.73972500  0.50115337  0.49899741
   0.50830027  0.74711175  0.49502641
   0.50254207  0.50001984  0.73972389
   0.50339085  0.00602525 -0.00178246
  -0.00602090  0.50608150 -0.00313184
   0.50433867  0.74330081  0.25863001
   0.24980856  0.00100328  0.74358865
   0.49516283 -0.01046237  0.50076301
   0.74939351 -0.00850534  0.74623399
  -0.00310859  0.75723684  0.25092566
   0.74361005  0.50846678  0.25129011
   0.00400051  0.00032297  0.49556004
   0.50570277  0.50819852  0.49932533
   0.74825621  0.50791595  0.74987510
   0.75017649  0.74374403  0.49834471
HECN                                    
           1
     9.021250    0.016570   -0.004118
     0.016532    9.075009    0.002547
    -0.004095    0.002615    9.030665
   Zr   Ta   Hf   N    C    Nb   V 
   7   6   7  13  19   6   6
Direct configuration=     8
  -0.00389721 -0.00540103  0.00258292
   0.24785585 -0.00250975  0.25529242
   0.25081355  0.50296854  0.25212969
   0.50504409  0.49969277 -0.00065665
   0.50068760  0.24919186  0.74498558
  -0.00845468  0.50590261  0.49778460
   0.50621142  0.74950568  0.74409549
  -0.00672255  0.23996155  0.26361973
   0.75633304  0.74132174  0.00417805
   0.00044481  0.25577791  0.73874263
   0.75455256  0.26068245  0.50415240
  -0.00559492  0.74523913  0.74478305
   0.25391943  0.49931503  0.74830540
   0.24672205  0.24872762 -0.00136230
   0.50572181  0.25517119  0.25503704
   0.75172093 -0.01169671  0.25824206
   0.75327557  0.25495665 -0.00419058
   0.24699165  0.75005164 -0.00019841
   0.24734687  0.24946704  0.50073400
   0.24611464  0.75053551  0.50050102
   0.24779448  0.24969962  0.24981343
   0.25260907 -0.00084621 -0.00229333
  -0.00010037  0.25237752  0.00092602
   0.75249386  0.25069684  0.25301649
   0.74700317 -0.00158226  0.00209791
   0.50607789  0.00207164  0.25130474
  -0.00939792  0.49578802  0.24565454
   0.50346883  0.75540101  0.00265570
  -0.00310071  0.00111862  0.74148689
   0.75641499  0.25105813  0.74744601
   0.75315455  0.00169984  0.50069570
   0.50526895  0.25032249  0.49580099
   0.50129041 -0.00097791  0.74861301
  -0.00345058 -0.00078623  0.26034765
   0.50142341  0.24348775  0.00324740
   0.24824155  0.74985401  0.24994031
   0.24284216  0.50080396 -0.00455184
  -0.00339129  0.74556120  0.00184827
   0.75531068  0.74013701  0.25429404
   0.75567790  0.50385713  0.00159304
   0.51219396  0.50272243  0.26201911
   0.24407607  0.25071313  0.75035675
   0.24603908 -0.00047257  0.50474281
  -0.00328842  0.24112362  0.50049662
   0.24358490  0.74958902  0.74981128
   0.25844365  0.49979507  0.50469930
  -0.01131232  0.76274191  0.49745076
  -0.00617679  0.49934893  0.75356077
   0.75515154  0.74534771  0.74589614
   0.73818162  0.50297393  0.49906086
   0.50965962  0.74540592  0.49592849
   0.50486705  0.49986185  0.73768698
   0.50561504  0.00760136 -0.00354573
  -0.00454195  0.50539905 -0.00237291
   0.50727968  0.74207832  0.25855685
   0.25053346  0.00099573  0.74353489
   0.49304781 -0.01401679  0.50147116
   0.74888678 -0.01274915  0.74478117
  -0.00490339  0.76277837  0.25305855
   0.74080669  0.51372666  0.25224892
   0.00689870 -0.00017660  0.49311900
   0.50916486  0.51356032  0.49918037
   0.74681316  0.51420467  0.74943330
   0.75026236  0.73884417  0.49613010
HECN                                    
           1
     9.005288    0.017217   -0.003578
     0.017184    9.059071    0.004663
    -0.003559    0.004720    9.012281
   Zr   Ta   Hf   N    C    Nb   V 
   7   6   7  13  19   6   6
Direct configuration=     9
  -0.00329733 -0.00527782  0.00244269
   0.24771595 -0.00280859  0.25502833
   0.25074326  0.50328372  0.25213619
   0.50521571  0.49968905 -0.00050726
   0.50061065  0.24938760  0.74534812
  -0.00803868  0.50573525  0.49797107
   0.50593071  0.74945448  0.74406319
  -0.00648805  0.24065185  0.26279118
   0.75647474  0.74135337  0.00369359
   0.00079399  0.25547522  0.73928149
   0.75490972  0.25998265  0.50386712
  -0.00540012  0.74544225  0.74506088
   0.25364785  0.49925062  0.74844977
   0.24706660  0.24851686 -0.00175548
   0.50536317  0.25498301  0.25453863
   0.75211605 -0.01094278  0.25773504
   0.75263871  0.25479057 -0.00386703
   0.24695095  0.75023267 -0.00002558
   0.24754001  0.24924589  0.50131444
   0.24660022  0.75079298  0.50027931
   0.24802980  0.24964953  0.24977087
   0.25238253 -0.00071918 -0.00222893
  -0.00004246  0.25245478  0.00077294
   0.75221275  0.25070553  0.25284652
   0.74719515 -0.00145804  0.00202070
   0.50588292  0.00202653  0.25122673
  -0.00883913  0.49616547  0.24574550
   0.50321435  0.75494672  0.00252597
  -0.00287733  0.00096464  0.74196299
   0.75604895  0.25104579  0.74749103
   0.75312379  0.00159265  0.50035371
   0.50486088  0.25056295  0.49595488
   0.50133101 -0.00083247  0.74874485
  -0.00367742 -0.00041619  0.25991403
   0.50132950  0.24354802  0.00324238
   0.24844545  0.74996498  0.24982708
   0.24272787  0.50075918 -0.00454946
  -0.00360331  0.74542847  0.00165856
   0.75476795  0.74090408  0.25396792
   0.75608462  0.50409725  0.00150455
   0.51173795  0.50271011  0.26166436
   0.24400778  0.25067447  0.75030301
   0.24632051 -0.00025459  0.50490050
  -0.00364065  0.24109867  0.50042844
   0.24370013  0.74958425  0.74992418
   0.25827353  0.49964408  0.50471633
  -0.01071619  0.76211796  0.49789288
  -0.00573525  0.49937691  0.75403410
   0.75535901  0.74584046  0.74617334
   0.73851356  0.50258229  0.49904689
   0.50936721  0.74577267  0.49573495
   0.50436692  0.49989615  0.73812461
   0.50513645  0.00726246 -0.00316731
  -0.00486016  0.50554561 -0.00253593
   0.50664697  0.74234117  0.25857269
   0.25037749  0.00099732  0.74354640
   0.49350312 -0.01325197  0.50131994
   0.74899622 -0.01183560  0.74509441
  -0.00451776  0.76158559  0.25259900
   0.74140943  0.51259483  0.25204180
   0.00627529 -0.00006875  0.49364353
   0.50841954  0.51240635  0.49921006
   0.74712320  0.51285168  0.74952685
   0.75024438  0.73989902  0.49660716
HECN                                    
           1
     8.971828    0.008861   -0.003567
     0.008756    9.034577   -0.008065
    -0.003527   -0.007937    8.983180
   Zr   Ta   Hf   N    C    Nb   V 
   7   6   7  13  19   6   6
Direct configuration=    10
  -0.00636735 -0.00524138  0.00300903
   0.24938739 -0.00232699  0.25536496
   0.25129572  0.50233806  0.25205968
   0.50339968  0.49935208 -0.00125756
   0.50090397  0.24854187  0.74414281
  -0.00931626  0.50594659  0.49685672
   0.50589834  0.74985490  0.74532331
  -0.00751215  0.23740812  0.26592520
   0.75551915  0.74166880  0.00642410
  -0.00024985  0.25710404  0.73700463
   0.75299904  0.26352441  0.50500306
  -0.00595274  0.74477706  0.74403037
   0.25469560  0.49933420  0.74735064
   0.24543329  0.25015252 -0.00034958
   0.50783645  0.25527718  0.25616117
   0.75005676 -0.01355431  0.26005408
   0.75546956  0.25541776 -0.00529859
   0.24729386  0.74913657 -0.00027430
   0.24743193  0.25064977  0.49949795
   0.24419925  0.74915048  0.50065031
   0.24711784  0.24992175  0.25015117
   0.25302943 -0.00111504 -0.00208339
  -0.00018811  0.25116819  0.00166837
   0.75339492  0.24961413  0.25356116
   0.74670062 -0.00186355  0.00251858
   0.50603874  0.00229739  0.25162881
  -0.01006099  0.49318369  0.24577246
   0.50407951  0.75666847  0.00285110
  -0.00402991  0.00183194  0.74119429
   0.75690973  0.25011425  0.74780543
   0.75192861  0.00277388  0.50238471
   0.50645051  0.24814872  0.49573623
   0.50075292 -0.00143319  0.74796355
  -0.00272413 -0.00229715  0.25994466
   0.50187676  0.24416141  0.00284091
   0.24782494  0.74949234  0.25037629
   0.24472335  0.50075034 -0.00385957
  -0.00226417  0.74667970  0.00189458
   0.75695018  0.73876992  0.25459243
   0.75336649  0.50238372  0.00183137
   0.51173548  0.50203721  0.26089165
   0.24499777  0.25078935  0.75028869
   0.24563655 -0.00133561  0.50336864
  -0.00210947  0.24324027  0.50098610
   0.24380552  0.74967755  0.74949377
   0.25725189  0.50040152  0.50371349
  -0.01171368  0.76312980  0.49643286
  -0.00693146  0.49940886  0.75100371
   0.75361848  0.74392950  0.74597074
   0.73955319  0.50393034  0.49921500
   0.50856524  0.74487484  0.49738040
   0.50619485  0.49959852  0.73826531
   0.50789537  0.00866507 -0.00548656
  -0.00299684  0.50429339 -0.00188559
   0.50896055  0.74214858  0.25758185
   0.25134683  0.00111911  0.74368042
   0.49087465 -0.01632666  0.50238505
   0.74850449 -0.01650283  0.74434143
  -0.00600008  0.76824666  0.25588719
   0.73891765  0.51779122  0.25307155
   0.01018123 -0.00120597  0.49117486
   0.51163209  0.51823811  0.49924076
   0.74540208  0.52037551  0.74897347
   0.75037942  0.73371366  0.49357475
HECN                                    
           1
     8.973005    0.009155   -0.003568
     0.009052    9.035439   -0.007617
    -0.003528   -0.007492    8.984204
   Zr   Ta   Hf   N    C    Nb   V 
   7   6   7  13  19   6   6
Direct configuration=    11
  -0.00625891 -0.00524260  0.00298903
   0.24932833 -0.00234405  0.25535305
   0.25127624  0.50237142  0.25206243
   0.50346384  0.49936407 -0.00123106
   0.50089364  0.24857176  0.74418541
  -0.00927114  0.50593923  0.49689605
   0.50589947  0.74984071  0.74527880
  -0.00747587  0.23752246  0.26581472
   0.75555290  0.74165756  0.00632768
  -0.00021304  0.25704671  0.73708493
   0.75306641  0.26339944  0.50496278
  -0.00593320  0.74480060  0.74406679
   0.25465859  0.49933127  0.74738944
   0.24549093  0.25009479 -0.00039930
   0.50774908  0.25526664  0.25610387
   0.75012958 -0.01346221  0.25997234
   0.75536954  0.25539560 -0.00524807
   0.24728179  0.74917525 -0.00026546
   0.24743571  0.25060032  0.49956201
   0.24428411  0.74920850  0.50063730
   0.24715004  0.24991215  0.25013773
   0.25300660 -0.00110110 -0.00208851
  -0.00018292  0.25121355  0.00163682
   0.75335320  0.24965257  0.25353598
   0.74671810 -0.00184924  0.00250102
   0.50603323  0.00228781  0.25161460
  -0.01001773  0.49328895  0.24577166
   0.50404889  0.75660767  0.00283954
  -0.00398923  0.00180141  0.74122138
   0.75687935  0.25014707  0.74779438
   0.75197079  0.00273214  0.50231294
   0.50639444  0.24823387  0.49574407
   0.50077336 -0.00141193  0.74799116
  -0.00275774 -0.00223081  0.25994367
   0.50185741  0.24413977  0.00285506
   0.24784688  0.74950902  0.25035692
   0.24465286  0.50075055 -0.00388392
  -0.00231152  0.74663550  0.00188619
   0.75687317  0.73884513  0.25457049
   0.75346256  0.50244426  0.00181992
   0.51173559  0.50206100  0.26091897
   0.24496279  0.25078526  0.75028919
   0.24566075 -0.00129736  0.50342278
  -0.00216362  0.24316462  0.50096630
   0.24380179  0.74967427  0.74950896
   0.25728795  0.50037488  0.50374886
  -0.01167848  0.76309420  0.49648436
  -0.00688921  0.49940792  0.75111070
   0.75368002  0.74399700  0.74597798
   0.73951643  0.50388272  0.49920899
   0.50859359  0.74490647  0.49732235
   0.50613029  0.49960896  0.73826035
   0.50779787  0.00861560 -0.00540474
  -0.00306261  0.50433748 -0.00190848
   0.50887884  0.74215535  0.25761684
   0.25131258  0.00111478  0.74367569
   0.49096760 -0.01621813  0.50234760
   0.74852201 -0.01633809  0.74436825
  -0.00594794  0.76801149  0.25577076
   0.73900550  0.51760788  0.25303494
   0.01004330 -0.00116584  0.49126208
   0.51151842  0.51803222  0.49923938
   0.74546262  0.52011010  0.74899263
   0.75037486  0.73393207  0.49368212
HECN                                    
           1
     8.972841    0.006659   -0.001560
     0.006509    9.062293   -0.008521
    -0.001521   -0.008425    8.969754
   Zr   Ta   Hf   N    C    Nb   V 
   7   6   7  13  19   6   6
Direct configuration=    12
  -0.00641031 -0.00463484  0.00260684
   0.25104277 -0.00364708  0.25363626
   0.25145570  0.50321427  0.25225254