 running on   24 total cores
 distrk:  each k-point on   24 cores,    1 groups
 distr:  one band on    1 cores,   24 groups
 using from now: INCAR     
 vasp.5.4.4.18Apr17-6-g9f103f2a35 (build Oct 18 2021 20:38:43) complex          
  
 POSCAR found type information on POSCAR  V  Ta Zr N  C  Cr Mo
 POSCAR found :  7 types and      64 ions
 scaLAPACK will be used

 ----------------------------------------------------------------------------- 
|                                                                             |
|           W    W    AA    RRRRR   N    N  II  N    N   GGGG   !!!           |
|           W    W   A  A   R    R  NN   N  II  NN   N  G    G  !!!           |
|           W    W  A    A  R    R  N N  N  II  N N  N  G       !!!           |
|           W WW W  AAAAAA  RRRRR   N  N N  II  N  N N  G  GGG   !            |
|           WW  WW  A    A  R   R   N   NN  II  N   NN  G    G                |
|           W    W  A    A  R    R  N    N  II  N    N   GGGG   !!!           |
|                                                                             |
|      For optimal performance we recommend to set                            |
|        NCORE= 4 - approx SQRT( number of cores)                             |
|      NCORE specifies how many cores store one orbital (NPAR=cpu/NCORE).     |
|      This setting can  greatly improve the performance of VASP for DFT.     |
|      The default,   NCORE=1            might be grossly inefficient         |
|      on modern multi-core architectures or massively parallel machines.     |
|      Do your own testing !!!!                                               |
|      Unfortunately you need to use the default for GW and RPA calculations. |
|      (for HF NCORE is supported but not extensively tested yet)             |
|                                                                             |
 ----------------------------------------------------------------------------- 


 ----------------------------------------------------------------------------- 
|                                                                             |
|  ADVICE TO THIS USER RUNNING 'VASP/VAMP'   (HEAR YOUR MASTER'S VOICE ...):  |
|                                                                             |
|      You have a (more or less) 'large supercell' and for larger cells       |
|      it might be more efficient to use real space projection operators      |
|      So try LREAL= Auto  in the INCAR   file.                               |
|      Mind: If you want to do a very accurate calculations keep the          |
|      reciprocal projection scheme          (i.e. LREAL=.FALSE.)             |
|                                                                             |
 ----------------------------------------------------------------------------- 

 LDA part: xc-table for Pade appr. of Perdew
 POSCAR, INCAR and KPOINTS ok, starting setup
 FFT: planning ...
 WAVECAR not read
 entering main loop
       N       E                     dE             d eps       ncg     rms          rms(c)
DAV:   1     0.576453497574E+04    0.57645E+04   -0.20528E+05  8856   0.145E+03
DAV:   2     0.128189742400E+03   -0.56363E+04   -0.54093E+04  9072   0.513E+02
DAV:   3    -0.690477710146E+03   -0.81867E+03   -0.76383E+03 13440   0.178E+02
DAV:   4    -0.778628882972E+03   -0.88151E+02   -0.85817E+02 15744   0.666E+01
DAV:   5    -0.785534495367E+03   -0.69056E+01   -0.68099E+01 16944   0.152E+01    0.809E+01
RMM:   6    -0.979690084744E+03   -0.19416E+03   -0.29491E+03 11741   0.141E+02    0.134E+02
RMM:   7    -0.644507194003E+03    0.33518E+03   -0.27504E+02 12129   0.476E+01    0.523E+01
RMM:   8    -0.653796198977E+03   -0.92890E+01   -0.61718E+01 13652   0.161E+01    0.502E+01
RMM:   9    -0.635789916663E+03    0.18006E+02   -0.27199E+01 13552   0.115E+01    0.350E+01
RMM:  10    -0.628978646095E+03    0.68113E+01   -0.76638E+00 13426   0.737E+00    0.208E+01
RMM:  11    -0.627833784348E+03    0.11449E+01   -0.38125E+00 13785   0.444E+00    0.192E+01
RMM:  12    -0.626957459078E+03    0.87633E+00   -0.39309E+00 13590   0.394E+00    0.148E+01
RMM:  13    -0.626575914355E+03    0.38154E+00   -0.32306E+00 13468   0.382E+00    0.161E+01
RMM:  14    -0.626196398726E+03    0.37952E+00   -0.20279E+00 13342   0.298E+00    0.123E+01
RMM:  15    -0.626491364860E+03   -0.29497E+00   -0.22689E+00 13041   0.302E+00    0.131E+01
RMM:  16    -0.625802220433E+03    0.68914E+00   -0.99986E-01 13101   0.220E+00    0.675E+00
RMM:  17    -0.625954294024E+03   -0.15207E+00   -0.33681E-01 12553   0.154E+00    0.103E+01
RMM:  18    -0.625567796525E+03    0.38650E+00   -0.36690E-01 12832   0.133E+00    0.363E+00
RMM:  19    -0.625564449862E+03    0.33467E-02   -0.18442E-01 13435   0.861E-01    0.395E+00
RMM:  20    -0.625529233949E+03    0.35216E-01   -0.13721E-01 13551   0.671E-01    0.248E+00
RMM:  21    -0.625513902678E+03    0.15331E-01   -0.70502E-02 13612   0.469E-01    0.160E+00
RMM:  22    -0.625529922893E+03   -0.16020E-01   -0.40835E-02 13138   0.443E-01    0.251E+00
RMM:  23    -0.625509616381E+03    0.20307E-01   -0.25086E-02 13127   0.380E-01    0.826E-01
RMM:  24    -0.625509665793E+03   -0.49412E-04   -0.21383E-02 13408   0.248E-01    0.907E-01
RMM:  25    -0.625507781202E+03    0.18846E-02   -0.92337E-03 13216   0.164E-01    0.607E-01
RMM:  26    -0.625505923254E+03    0.18579E-02   -0.54817E-03 13090   0.116E-01    0.315E-01
RMM:  27    -0.625505676511E+03    0.24674E-03   -0.37690E-03 12556   0.932E-02    0.226E-01
RMM:  28    -0.625505670620E+03    0.58909E-05   -0.16093E-03 11624   0.566E-02    0.185E-01
RMM:  29    -0.625505496014E+03    0.17461E-03   -0.70326E-04 10523   0.349E-02    0.516E-02
RMM:  30    -0.625505500927E+03   -0.49134E-05   -0.28922E-04  9037   0.231E-02    0.461E-02
RMM:  31    -0.625505500320E+03    0.60685E-06   -0.19502E-04  7033   0.188E-02    0.237E-02
RMM:  32    -0.625505500616E+03   -0.29623E-06   -0.73840E-05  6393   0.144E-02
   1 F= -.62550550E+03 E0= -.62537215E+03  d E =-.625506E+03
 curvature:   0.00 expect dE= 0.000E+00 dE for cont linesearch  0.000E+00
 trial: gam= 0.00000 g(F)=  0.447E+01 g(S)=  0.115E+02 ort = 0.000E+00 (trialstep = 0.100E+01)
 search vector abs. value=  0.160E+02
 bond charge predicted
       N       E                     dE             d eps       ncg     rms          rms(c)
DAV:   1    -0.730462174352E+03   -0.10496E+03   -0.32001E+03 12768   0.261E+02    0.785E+01
RMM:   2    -0.872180511975E+03   -0.14172E+03   -0.14432E+03 10219   0.141E+02    0.102E+02
RMM:   3    -0.655083650601E+03    0.21710E+03   -0.12146E+02 11874   0.366E+01    0.547E+01
RMM:   4    -0.641697303427E+03    0.13386E+02   -0.43138E+01 12514   0.173E+01    0.309E+01
RMM:   5    -0.642373500175E+03   -0.67620E+00   -0.50571E+01 11750   0.207E+01    0.440E+01
RMM:   6    -0.627664760316E+03    0.14709E+02   -0.14565E+01 11750   0.123E+01    0.163E+01
RMM:   7    -0.628144111139E+03   -0.47935E+00   -0.70897E+00 12218   0.776E+00    0.227E+01
RMM:   8    -0.625569248341E+03    0.25749E+01   -0.25029E+00 12227   0.478E+00    0.111E+01
RMM:   9    -0.625388521863E+03    0.18073E+00   -0.14625E+00 13158   0.294E+00    0.954E+00
RMM:  10    -0.624991863949E+03    0.39666E+00   -0.61771E-01 12884   0.231E+00    0.529E+00
RMM:  11    -0.624909645304E+03    0.82219E-01   -0.34038E-01 14168   0.136E+00    0.295E+00
RMM:  12    -0.624948333325E+03   -0.38688E-01   -0.24080E-01 14364   0.957E-01    0.312E+00
RMM:  13    -0.624950351316E+03   -0.20180E-02   -0.13004E-01 14085   0.879E-01    0.296E+00
RMM:  14    -0.624977579736E+03   -0.27228E-01   -0.11342E-01 13964   0.820E-01    0.283E+00
RMM:  15    -0.624960158909E+03    0.17421E-01   -0.85895E-02 14168   0.656E-01    0.181E+00
RMM:  16    -0.624966105144E+03   -0.59462E-02   -0.51547E-02 13633   0.566E-01    0.184E+00
RMM:  17    -0.624959673822E+03    0.64313E-02   -0.43263E-02 14137   0.413E-01    0.819E-01
RMM:  18    -0.624958211263E+03    0.14626E-02   -0.22915E-02 14065   0.276E-01    0.496E-01
RMM:  19    -0.624960016372E+03   -0.18051E-02   -0.14005E-02 13965   0.201E-01    0.531E-01
RMM:  20    -0.624958964140E+03    0.10522E-02   -0.73577E-03 13682   0.143E-01    0.235E-01
RMM:  21    -0.624958909000E+03    0.55139E-04   -0.41535E-03 13391   0.961E-02    0.119E-01
RMM:  22    -0.624958991269E+03   -0.82268E-04   -0.17149E-03 12550   0.697E-02    0.128E-01
RMM:  23    -0.624958928025E+03    0.63244E-04   -0.86149E-04 12044   0.429E-02    0.415E-02
RMM:  24    -0.624958943736E+03   -0.15711E-04   -0.40572E-04 11964   0.322E-02    0.319E-02
RMM:  25    -0.624958955067E+03   -0.11331E-04   -0.20588E-04 10480   0.226E-02    0.206E-02
RMM:  26    -0.624958958428E+03   -0.33610E-05   -0.99988E-05  9017   0.185E-02
   2 F= -.62495896E+03 E0= -.62486345E+03  d E =0.546542E+00
 trial-energy change:    0.546542  1 .order    1.683807  -16.003052   19.370666
 step:   0.5006(harm=  0.4524)  dis= 0.04618  next Energy=  -629.653951 (dE=-0.415E+01)
 bond charge predicted
       N       E                     dE             d eps       ncg     rms          rms(c)
DAV:   1    -0.668226937107E+03   -0.43268E+02   -0.87982E+02 12384   0.125E+02    0.648E+01
RMM:   2    -0.888805384911E+03   -0.22058E+03   -0.35800E+02 12305   0.468E+01    0.905E+01
RMM:   3    -0.646575251570E+03    0.24223E+03   -0.11223E+02 11489   0.393E+01    0.336E+01
RMM:   4    -0.644010576073E+03    0.25647E+01   -0.36943E+01 11754   0.205E+01    0.385E+01
RMM:   5    -0.633485523693E+03    0.10525E+02   -0.14967E+01 11789   0.111E+01    0.246E+01
RMM:   6    -0.632019889907E+03    0.14656E+01   -0.70798E+00 11703   0.739E+00    0.199E+01
RMM:   7    -0.631972121922E+03    0.47768E-01   -0.47958E+00 12467   0.504E+00    0.203E+01
RMM:   8    -0.630194755900E+03    0.17774E+01   -0.17083E+00 12405   0.389E+00    0.102E+01
RMM:   9    -0.630260578323E+03   -0.65822E-01   -0.89749E-01 13025   0.250E+00    0.105E+01
RMM:  10    -0.629709070686E+03    0.55151E+00   -0.49901E-01 13154   0.188E+00    0.292E+00
RMM:  11    -0.629808805956E+03   -0.99735E-01   -0.26185E-01 13510   0.129E+00    0.575E+00
RMM:  12    -0.629704349897E+03    0.10446E+00   -0.15731E-01 13092   0.107E+00    0.315E+00
RMM:  13    -0.629676496568E+03    0.27853E-01   -0.88942E-02 14021   0.647E-01    0.167E+00
RMM:  14    -0.629700054943E+03   -0.23558E-01   -0.60031E-02 13844   0.545E-01    0.259E+00
RMM:  15    -0.629679074348E+03    0.20981E-01   -0.36874E-02 13656   0.447E-01    0.915E-01
RMM:  16    -0.629687383200E+03   -0.83089E-02   -0.28579E-02 13996   0.300E-01    0.122E+00
RMM:  17    -0.629688941122E+03   -0.15579E-02   -0.27801E-02 13588   0.395E-01    0.744E-01
RMM:  18    -0.629696390248E+03   -0.74491E-02   -0.23983E-02 14157   0.272E-01    0.103E+00
RMM:  19    -0.629693774340E+03    0.26159E-02   -0.11715E-02 13782   0.229E-01    0.782E-01
RMM:  20    -0.629691494700E+03    0.22796E-02   -0.66348E-03 13624   0.164E-01    0.474E-01
RMM:  21    -0.629689982836E+03    0.15119E-02   -0.57511E-03 13694   0.156E-01    0.197E-01
RMM:  22    -0.629690216081E+03   -0.23324E-03   -0.32954E-03 12943   0.860E-02    0.147E-01
RMM:  23    -0.629690225962E+03   -0.98813E-05   -0.13134E-03 12305   0.564E-02    0.824E-02
RMM:  24    -0.629690252580E+03   -0.26618E-04   -0.59842E-04 11793   0.365E-02    0.819E-02
RMM:  25    -0.629690251847E+03    0.73238E-06   -0.35397E-04 11771   0.294E-02    0.691E-02
RMM:  26    -0.629690242977E+03    0.88700E-05   -0.19501E-04 11617   0.238E-02    0.321E-02
RMM:  27    -0.629690251343E+03   -0.83659E-05   -0.99105E-05 10477   0.201E-02
   3 F= -.62969025E+03 E0= -.62957681E+03  d E =-.418475E+01
 curvature:  -0.22 expect dE=-0.120E+01 dE for cont linesearch -0.427E-02
 trial: gam= 0.30012 g(F)=  0.423E+01 g(S)=  0.113E+01 ort = 0.552E+00 (trialstep = 0.900E+00)
 search vector abs. value=  0.713E+01
 bond charge predicted
       N       E                     dE             d eps       ncg     rms          rms(c)
DAV:   1    -0.623053423976E+03    0.66368E+01   -0.89560E+02  9384   0.129E+02    0.808E+00
RMM:   2    -0.642379047433E+03   -0.19326E+02   -0.11475E+02 12708   0.304E+01    0.339E+01
RMM:   3    -0.633684095278E+03    0.86950E+01   -0.93171E+00 11861   0.982E+00    0.131E+01
RMM:   4    -0.632863402460E+03    0.82069E+00   -0.28724E+00 12406   0.415E+00    0.944E+00
RMM:   5    -0.632663946537E+03    0.19946E+00   -0.10134E+00 12851   0.225E+00    0.664E+00
RMM:   6    -0.632466804402E+03    0.19714E+00   -0.46850E-01 12797   0.145E+00    0.418E+00
RMM:   7    -0.632427985189E+03    0.38819E-01   -0.26236E-01 12852   0.105E+00    0.387E+00
RMM:   8    -0.632514954066E+03   -0.86969E-01   -0.23333E-01 11971   0.120E+00    0.602E+00
RMM:   9    -0.632337152135E+03    0.17780E+00   -0.18065E-01 11778   0.117E+00    0.216E+00
RMM:  10    -0.632351980285E+03   -0.14828E-01   -0.89717E-02 12432   0.679E-01    0.290E+00
RMM:  11    -0.632327999865E+03    0.23980E-01   -0.51934E-02 11799   0.604E-01    0.162E+00
RMM:  12    -0.632315918506E+03    0.12081E-01   -0.31695E-02 12573   0.359E-01    0.698E-01
RMM:  13    -0.632315903459E+03    0.15047E-04   -0.15995E-02 12428   0.236E-01    0.751E-01
RMM:  14    -0.632313733273E+03    0.21702E-02   -0.82574E-03 12015   0.186E-01    0.356E-01
RMM:  15    -0.632314007701E+03   -0.27443E-03   -0.50618E-03 12807   0.109E-01    0.331E-01
RMM:  16    -0.632313552399E+03    0.45530E-03   -0.26290E-03 11916   0.744E-02    0.135E-01
RMM:  17    -0.632313778643E+03   -0.22624E-03   -0.11490E-03 11029   0.602E-02    0.233E-01
RMM:  18    -0.632313636730E+03    0.14191E-03   -0.73004E-04  9938   0.519E-02    0.134E-01
RMM:  19    -0.632313634925E+03    0.18055E-05   -0.40151E-04  9922   0.372E-02    0.964E-02
RMM:  20    -0.632313601248E+03    0.33676E-04   -0.25085E-04  8866   0.285E-02    0.378E-02
RMM:  21    -0.632313607688E+03   -0.64392E-05   -0.11869E-04  7451   0.213E-02    0.355E-02
RMM:  22    -0.632313602528E+03    0.51596E-05   -0.61764E-05  6685   0.158E-02
   4 F= -.63231360E+03 E0= -.63220960E+03  d E =-.262335E+01
 trial-energy change:   -2.623351  1 .order   -2.676946   -4.968947   -0.384945
 step:   0.9820(harm=  0.9757)  dis= 0.10149  next Energy=  -632.331065 (dE=-0.264E+01)
 bond charge predicted
       N       E                     dE             d eps       ncg     rms          rms(c)
DAV:   1    -0.632255383914E+03    0.58224E-01   -0.74448E+00  9744   0.119E+01    0.719E-01
RMM:   2    -0.632422395039E+03   -0.16701E+00   -0.93629E-01 12658   0.275E+00    0.387E+00
RMM:   3    -0.632347592453E+03    0.74803E-01   -0.73519E-02 11347   0.922E-01    0.174E+00
RMM:   4    -0.632335741924E+03    0.11851E-01   -0.25952E-02 12193   0.409E-01    0.827E-01
RMM:   5    -0.632333786752E+03    0.19552E-02   -0.90754E-03 12142   0.205E-01    0.556E-01
RMM:   6    -0.632332812820E+03    0.97393E-03   -0.39197E-03 11938   0.158E-01    0.480E-01
RMM:   7    -0.632331915192E+03    0.89763E-03   -0.21290E-03 11801   0.100E-01    0.315E-01
RMM:   8    -0.632332517584E+03   -0.60239E-03   -0.19368E-03 11374   0.116E-01    0.453E-01
RMM:   9    -0.632331774996E+03    0.74259E-03   -0.14041E-03 11045   0.110E-01    0.348E-01
RMM:  10    -0.632331310249E+03    0.46475E-03   -0.63030E-04  9979   0.742E-02    0.150E-01
RMM:  11    -0.632331384650E+03   -0.74401E-04   -0.47210E-04 10356   0.487E-02    0.187E-01
RMM:  12    -0.632331272078E+03    0.11257E-03   -0.22770E-04  8413   0.417E-02    0.985E-02
RMM:  13    -0.632331240245E+03    0.31833E-04   -0.13722E-04  8033   0.266E-02    0.493E-02
RMM:  14    -0.632331228573E+03    0.11672E-04   -0.77164E-05  6638   0.180E-02    0.230E-02
RMM:  15    -0.632331233272E+03   -0.46994E-05   -0.34009E-05  6170   0.150E-02
   5 F= -.63233123E+03 E0= -.63222795E+03  d E =-.264098E+01
 curvature:  -0.63 expect dE=-0.823E+00 dE for cont linesearch -0.236E-05
 trial: gam= 0.15606 g(F)=  0.114E+01 g(S)=  0.173E+00 ort =-0.519E-02 (trialstep = 0.916E+00)
 search vector abs. value=  0.149E+01
 bond charge predicted
       N       E                     dE             d eps       ncg     rms          rms(c)
DAV:   1    -0.629762626278E+03    0.25686E+01   -0.26497E+02 11496   0.984E+01    0.128E+01
RMM:   2    -0.650912117311E+03   -0.21149E+02   -0.71771E+01 12590   0.237E+01    0.383E+01
RMM:   3    -0.634534219538E+03    0.16378E+02   -0.10230E+01 11135   0.117E+01    0.135E+01
RMM:   4    -0.633771985102E+03    0.76223E+00   -0.30093E+00 12424   0.410E+00    0.103E+01
RMM:   5    -0.633415759453E+03    0.35623E+00   -0.78552E-01 11616   0.271E+00    0.780E+00
RMM:   6    -0.633156399192E+03    0.25936E+00   -0.37645E-01 11602   0.181E+00    0.473E+00
RMM:   7    -0.633147498153E+03    0.89010E-02   -0.23755E-01 11968   0.126E+00    0.474E+00
RMM:   8    -0.633112769056E+03    0.34729E-01   -0.16495E-01 12161   0.121E+00    0.424E+00
RMM:   9    -0.633035323664E+03    0.77445E-01   -0.10445E-01 12411   0.944E-01    0.191E+00
RMM:  10    -0.633053637127E+03   -0.18313E-01   -0.80742E-02 13468   0.684E-01    0.276E+00
RMM:  11    -0.633021577348E+03    0.32060E-01   -0.30228E-02 12203   0.507E-01    0.125E+00
RMM:  12    -0.633018653691E+03    0.29237E-02   -0.21859E-02 13656   0.334E-01    0.853E-01
RMM:  13    -0.633015662665E+03    0.29910E-02   -0.12032E-02 13814   0.198E-01    0.350E-01
RMM:  14    -0.633016752704E+03   -0.10900E-02   -0.66381E-03 13805   0.147E-01    0.474E-01
RMM:  15    -0.633016401032E+03    0.35167E-03   -0.37188E-03 13254   0.114E-01    0.295E-01
RMM:  16    -0.633016443393E+03   -0.42360E-04   -0.20162E-03 12915   0.817E-02    0.221E-01
RMM:  17    -0.633016824837E+03   -0.38144E-03   -0.16788E-03 13259   0.727E-02    0.218E-01
RMM:  18    -0.633016920688E+03   -0.95852E-04   -0.91249E-04 12410   0.770E-02    0.244E-01
RMM:  19    -0.633016859715E+03    0.60974E-04   -0.78908E-04 12471   0.644E-02    0.141E-01
RMM:  20    -0.633016740671E+03    0.11904E-03   -0.46530E-04 12235   0.411E-02    0.442E-02
WARNING in EDDRMM: call to ZHEGV failed, returncode =   8  4      7
RMM:  21    -0.633016745783E+03   -0.51113E-05   -0.26918E-04 11172   0.255E-02    0.290E-02
RMM:  22    -0.633016752115E+03   -0.63328E-05   -0.11864E-04 10190   0.188E-02    0.263E-02
RMM:  23    -0.633016751307E+03    0.80844E-06   -0.58325E-05  8222   0.161E-02
   6 F= -.63301675E+03 E0= -.63291823E+03  d E =-.685518E+00
 trial-energy change:   -0.685518  1 .order   -0.685849   -1.205221   -0.166476
 step:   1.0634(harm=  1.0634)  dis= 0.04573  next Energy=  -633.030422 (dE=-0.699E+00)
 bond charge predicted
       N       E                     dE             d eps       ncg     rms          rms(c)
DAV:   1    -0.632939417795E+03    0.77334E-01   -0.66402E+00 12144   0.161E+01    0.200E+00
RMM:   2    -0.633519501327E+03   -0.58008E+00   -0.19785E+00 12200   0.412E+00    0.796E+00
RMM:   3    -0.633163580355E+03    0.35592E+00   -0.30212E-01 11123   0.198E+00    0.508E+00
RMM:   4    -0.633057861803E+03    0.10572E+00   -0.88074E-02 11522   0.903E-01    0.213E+00
RMM:   5    -0.633041322114E+03    0.16540E-01   -0.32212E-02 11534   0.505E-01    0.118E+00
RMM:   6    -0.633041150822E+03    0.17129E-03   -0.14057E-02 11672   0.325E-01    0.136E+00
RMM:   7    -0.633033144482E+03    0.80063E-02   -0.62266E-03 11175   0.239E-01    0.575E-01
RMM:   8    -0.633034351964E+03   -0.12075E-02   -0.53296E-03 12059   0.201E-01    0.766E-01
RMM:   9    -0.633032817352E+03    0.15346E-02   -0.40672E-03 12058   0.198E-01    0.605E-01
RMM:  10    -0.633031350339E+03    0.14670E-02   -0.23911E-03 12065   0.143E-01    0.269E-01
RMM:  11    -0.633031301075E+03    0.49264E-04   -0.13393E-03 12740   0.885E-02    0.274E-01
RMM:  12    -0.633030979646E+03    0.32143E-03   -0.53142E-04 11355   0.629E-02    0.120E-01
RMM:  13    -0.633030976064E+03    0.35815E-05   -0.36081E-04 11796   0.380E-02    0.889E-02
RMM:  14    -0.633030955489E+03    0.20575E-04   -0.20056E-04 11282   0.258E-02    0.484E-02
WARNING in EDDRMM: call to ZHEGV failed, returncode =   6  3      7
RMM:  15    -0.633030964329E+03   -0.88399E-05   -0.11727E-04 10050   0.188E-02    0.457E-02
RMM:  16    -0.633030966712E+03   -0.23834E-05   -0.55770E-05  7704   0.183E-02
   7 F= -.63303097E+03 E0= -.63293292E+03  d E =-.699733E+00
 curvature:  -0.60 expect dE=-0.613E+00 dE for cont linesearch -0.216E-04
 trial: gam= 0.76114 g(F)=  0.415E+00 g(S)=  0.605E+00 ort = 0.731E-02 (trialstep = 0.744E+00)
 search vector abs. value=  0.189E+01
 bond charge predicted
       N       E                     dE             d eps       ncg     rms          rms(c)
DAV:   1    -0.629338882099E+03    0.36921E+01   -0.22914E+02 11664   0.997E+01    0.102E+01
RMM:   2    -0.645762960292E+03   -0.16424E+02   -0.73104E+01 11772   0.265E+01    0.351E+01
RMM:   3    -0.635244500340E+03    0.10518E+02   -0.83218E+00 11172   0.102E+01    0.170E+01
RMM:   4    -0.633710460385E+03    0.15340E+01   -0.26082E+00 12549   0.390E+00    0.599E+00
RMM:   5    -0.633688467503E+03    0.21993E-01   -0.51703E-01 11787   0.182E+00    0.644E+00
RMM:   6    -0.633450404509E+03    0.23806E+00   -0.27511E-01 11691   0.153E+00    0.313E+00
RMM:   7    -0.633455765287E+03   -0.53608E-02   -0.18198E-01 12173   0.110E+00    0.370E+00
RMM:   8    -0.633536278398E+03   -0.80513E-01   -0.18452E-01 11583   0.142E+00    0.561E+00
RMM:   9    -0.633380577983E+03    0.15570E+00   -0.11072E-01 12162   0.106E+00    0.197E+00
RMM:  10    -0.633365734945E+03    0.14843E-01   -0.40912E-02 13298   0.528E-01    0.880E-01
RMM:  11    -0.633366221987E+03   -0.48704E-03   -0.21774E-02 14030   0.287E-01    0.706E-01
RMM:  12    -0.633364236302E+03    0.19857E-02   -0.94570E-03 13997   0.178E-01    0.351E-01
RMM:  13    -0.633364745505E+03   -0.50920E-03   -0.51491E-03 13587   0.132E-01    0.384E-01
RMM:  14    -0.633364901147E+03   -0.15564E-03   -0.30967E-03 13316   0.971E-02    0.246E-01
RMM:  15    -0.633365329318E+03   -0.42817E-03   -0.18717E-03 13290   0.811E-02    0.249E-01
RMM:  16    -0.633365720304E+03   -0.39099E-03   -0.14594E-03 13174   0.839E-02    0.276E-01
RMM:  17    -0.633365708493E+03    0.11811E-04   -0.98286E-04 12140   0.858E-02    0.207E-01
RMM:  18    -0.633365658892E+03    0.49601E-04   -0.80493E-04 12757   0.646E-02    0.119E-01
RMM:  19    -0.633365575188E+03    0.83705E-04   -0.47421E-04 12149   0.413E-02    0.311E-02
RMM:  20    -0.633365587763E+03   -0.12575E-04   -0.25706E-04 11008   0.253E-02    0.196E-02
RMM:  21    -0.633365593797E+03   -0.60336E-05   -0.10541E-04 10402   0.198E-02    0.178E-02
RMM:  22    -0.633365596203E+03   -0.24062E-05   -0.51835E-05  8718   0.151E-02
   8 F= -.63336560E+03 E0= -.63327507E+03  d E =-.334629E+00
 trial-energy change:   -0.334629  1 .order   -0.314809   -0.762153    0.132536
 step:   0.6449(harm=  0.6335)  dis= 0.04147  next Energy=  -633.374352 (dE=-0.343E+00)
 bond charge predicted
       N       E                     dE             d eps       ncg     rms          rms(c)
DAV:   1    -0.633316336540E+03    0.49257E-01   -0.41983E+00 12504   0.133E+01    0.142E+00
RMM:   2    -0.633655734289E+03   -0.33940E+00   -0.11305E+00 12304   0.297E+00    0.642E+00
RMM:   3    -0.633441451247E+03    0.21428E+00   -0.15060E-01 11094   0.150E+00    0.353E+00
RMM:   4    -0.633386801528E+03    0.54650E-01   -0.49425E-02 11607   0.715E-01    0.137E+00
RMM:   5    -0.633379186131E+03    0.76154E-02   -0.17478E-02 11763   0.346E-01    0.737E-01
RMM:   6    -0.633379133840E+03    0.52291E-04   -0.82260E-03 11991   0.229E-01    0.917E-01
RMM:   7    -0.633375381602E+03    0.37522E-02   -0.32316E-03 11023   0.183E-01    0.399E-01
RMM:   8    -0.633376164826E+03   -0.78322E-03   -0.27729E-03 11795   0.150E-01    0.546E-01
RMM:   9    -0.633375240870E+03    0.92396E-03   -0.20320E-03 11792   0.148E-01    0.387E-01
RMM:  10    -0.633374471433E+03    0.76944E-03   -0.10558E-03 11578   0.101E-01    0.136E-01
RMM:  11    -0.633374424921E+03    0.46512E-04   -0.57151E-04 12477   0.520E-02    0.112E-01
RMM:  12    -0.633374377773E+03    0.47148E-04   -0.21275E-04 11235   0.359E-02    0.748E-02
RMM:  13    -0.633374368667E+03    0.91066E-05   -0.12160E-04 10457   0.242E-02    0.482E-02
RMM:  14    -0.633374365993E+03    0.26736E-05   -0.77342E-05  9219   0.164E-02
   9 F= -.63337437E+03 E0= -.63328291E+03  d E =-.343399E+00
 curvature:  -0.58 expect dE=-0.294E+00 dE for cont linesearch -0.126E-05
 trial: gam= 0.42973 g(F)=  0.442E+00 g(S)=  0.662E-01 ort = 0.203E-02 (trialstep = 0.724E+00)
 search vector abs. value=  0.860E+00
 bond charge predicted
       N       E                     dE             d eps       ncg     rms          rms(c)
DAV:   1    -0.631560203709E+03    0.18142E+01   -0.97819E+01  9408   0.628E+01    0.242E+00
RMM:   2    -0.633843924061E+03   -0.22837E+01   -0.22381E+01 13120   0.120E+01    0.537E+00
RMM:   3    -0.633783790091E+03    0.60134E-01   -0.11018E+00 12147   0.338E+00    0.545E+00
RMM:   4    -0.633723140158E+03    0.60650E-01   -0.29883E-01 12317   0.143E+00    0.312E+00
RMM:   5    -0.633683191916E+03    0.39948E-01   -0.76324E-02 11726   0.779E-01    0.213E+00
RMM:   6    -0.633662386570E+03    0.20805E-01   -0.38101E-02 12102   0.447E-01    0.952E-01
RMM:   7    -0.633663928666E+03   -0.15421E-02   -0.22809E-02 12425   0.316E-01    0.115E+00
RMM:   8    -0.633664384317E+03   -0.45565E-03   -0.18750E-02 12015   0.342E-01    0.132E+00
RMM:   9    -0.633657214489E+03    0.71698E-02   -0.14039E-02 12018   0.298E-01    0.782E-01
RMM:  10    -0.633655324114E+03    0.18904E-02   -0.71486E-03 11668   0.215E-01    0.477E-01
RMM:  11    -0.633654388145E+03    0.93597E-03   -0.40323E-03 12264   0.130E-01    0.240E-01
RMM:  12    -0.633654685131E+03   -0.29699E-03   -0.19291E-03 11366   0.100E-01    0.348E-01
RMM:  13    -0.633654093920E+03    0.59121E-03   -0.93684E-04 10662   0.745E-02    0.104E-01
RMM:  14    -0.633654138862E+03   -0.44942E-04   -0.62746E-04 10985   0.446E-02    0.992E-02
RMM:  15    -0.633654124281E+03    0.14580E-04   -0.32107E-04  9392   0.329E-02    0.775E-02
RMM:  16    -0.633654108146E+03    0.16135E-04   -0.13925E-04  7411   0.258E-02    0.487E-02
RMM:  17    -0.633654115120E+03   -0.69736E-05   -0.86534E-05  7160   0.242E-02
  10 F= -.63365412E+03 E0= -.63356569E+03  d E =-.279749E+00
 trial-energy change:   -0.279749  1 .order   -0.277758   -0.368632   -0.186884
 step:   1.3851(harm=  1.4682)  dis= 0.06869  next Energy=  -633.740983 (dE=-0.367E+00)
 bond charge predicted
       N       E                     dE             d eps       ncg     rms          rms(c)
DAV:   1    -0.631876574857E+03    0.17775E+01   -0.80444E+01  9216   0.575E+01    0.227E+00
RMM:   2    -0.633880870370E+03   -0.20043E+01   -0.19815E+01 13150   0.115E+01    0.458E+00
RMM:   3    -0.633868462795E+03    0.12408E-01   -0.10521E+00 12219   0.300E+00    0.522E+00
RMM:   4    -0.633799279732E+03    0.69183E-01   -0.23361E-01 12249   0.131E+00    0.263E+00
RMM:   5    -0.633769835027E+03    0.29445E-01   -0.67508E-02 12107   0.672E-01    0.195E+00
RMM:   6    -0.633753154777E+03    0.16680E-01   -0.30433E-02 11984   0.404E-01    0.865E-01
RMM:   7    -0.633754858530E+03   -0.17038E-02   -0.19157E-02 12501   0.286E-01    0.106E+00
RMM:   8    -0.633754591425E+03    0.26711E-03   -0.16466E-02 11922   0.326E-01    0.121E+00
RMM:   9    -0.633748325297E+03    0.62661E-02   -0.11684E-02 12071   0.266E-01    0.661E-01
RMM:  10    -0.633747256257E+03    0.10690E-02   -0.56622E-03 11581   0.192E-01    0.449E-01
RMM:  11    -0.633746336080E+03    0.92018E-03   -0.31964E-03 12113   0.115E-01    0.168E-01
RMM:  12    -0.633746406721E+03   -0.70641E-04   -0.15175E-03 11852   0.771E-02    0.221E-01
RMM:  13    -0.633746208150E+03    0.19857E-03   -0.75367E-04 10737   0.601E-02    0.113E-01
RMM:  14    -0.633746227774E+03   -0.19625E-04   -0.43407E-04 10237   0.431E-02    0.924E-02
RMM:  15    -0.633746181450E+03    0.46324E-04   -0.20739E-04  8638   0.286E-02    0.311E-02
RMM:  16    -0.633746200004E+03   -0.18554E-04   -0.11914E-04  7310   0.222E-02    0.518E-02
RMM:  17    -0.633746197350E+03    0.26535E-05   -0.59318E-05  6651   0.222E-02
  11 F= -.63374620E+03 E0= -.63366144E+03  d E =-.371831E+00
 curvature:  -1.22 expect dE=-0.354E+00 dE for cont linesearch -0.190E-03
 trial: gam= 0.39554 g(F)=  0.248E+00 g(S)=  0.413E-01 ort = 0.115E-01 (trialstep = 0.856E+00)
 search vector abs. value=  0.433E+00
 bond charge predicted
       N       E                     dE             d eps       ncg     rms          rms(c)
DAV:   1    -0.633058904005E+03    0.68730E+00   -0.66248E+01 11784   0.473E+01    0.579E+00
RMM:   2    -0.637663691419E+03   -0.46048E+01   -0.17278E+01 12474   0.117E+01    0.201E+01
RMM:   3    -0.634534022195E+03    0.31297E+01   -0.24390E+00 11017   0.567E+00    0.994E+00
RMM:   4    -0.634037174625E+03    0.49685E+00   -0.68231E-01 11966   0.229E+00    0.454E+00
RMM:   5    -0.633985421419E+03    0.51753E-01   -0.21728E-01 11891   0.130E+00    0.329E+00
RMM:   6    -0.633914611859E+03    0.70810E-01   -0.10642E-01 12069   0.786E-01    0.142E+00
RMM:   7    -0.633929674955E+03   -0.15063E-01   -0.51713E-02 11812   0.654E-01    0.245E+00
RMM:   8    -0.633913949294E+03    0.15726E-01   -0.38144E-02 11744   0.629E-01    0.173E+00
RMM:   9    -0.633900202346E+03    0.13747E-01   -0.26441E-02 13043   0.430E-01    0.826E-01
RMM:  10    -0.633902993070E+03   -0.27907E-02   -0.12409E-02 12479   0.327E-01    0.116E+00
RMM:  11    -0.633896846940E+03    0.61461E-02   -0.63457E-03 11977   0.243E-01    0.467E-01
RMM:  12    -0.633896535419E+03    0.31152E-03   -0.46435E-03 13076   0.130E-01    0.348E-01
RMM:  13    -0.633896374687E+03    0.16073E-03   -0.23156E-03 12914   0.911E-02    0.212E-01
RMM:  14    -0.633896310017E+03    0.64670E-04   -0.12276E-03 12813   0.622E-02    0.124E-01
RMM:  15    -0.633896375440E+03   -0.65423E-04   -0.77272E-04 12590   0.429E-02    0.856E-02
RMM:  16    -0.633896519719E+03   -0.14428E-03   -0.48771E-04 12553   0.413E-02    0.120E-01
RMM:  17    -0.633896482930E+03    0.36789E-04   -0.32449E-04 12281   0.393E-02    0.707E-02
RMM:  18    -0.633896482870E+03    0.59881E-07   -0.17986E-04 11678   0.326E-02    0.628E-02
RMM:  19    -0.633896481912E+03    0.95772E-06   -0.11663E-04 11132   0.246E-02    0.416E-02
RMM:  20    -0.633896473373E+03    0.85397E-05   -0.73925E-05  9388   0.165E-02
  12 F= -.63389647E+03 E0= -.63381283E+03  d E =-.150276E+00
 trial-energy change:   -0.150276  1 .order   -0.149779   -0.251527   -0.048031
 step:   1.0546(harm=  1.0582)  dis= 0.04541  next Energy=  -633.902048 (dE=-0.156E+00)
 bond charge predicted
       N       E                     dE             d eps       ncg     rms          rms(c)
DAV:   1    -0.633856254043E+03    0.40228E-01   -0.35174E+00 12168   0.110E+01    0.133E+00
RMM:   2    -0.634120332629E+03   -0.26408E+00   -0.94937E-01 12170   0.282E+00    0.549E+00
RMM:   3    -0.633956577516E+03    0.16376E+00   -0.13467E-01 11040   0.130E+00    0.313E+00
RMM:   4    -0.633911111270E+03    0.45466E-01   -0.41033E-02 11300   0.631E-01    0.111E+00
RMM:   5    -0.633906675648E+03    0.44356E-02   -0.14680E-02 11519   0.332E-01    0.697E-01
RMM:   6    -0.633904457802E+03    0.22178E-02   -0.66110E-03 12206   0.186E-01    0.601E-01
RMM:   7    -0.633903407095E+03    0.10507E-02   -0.21386E-03 10679   0.151E-01    0.439E-01
RMM:   8    -0.633903532130E+03   -0.12503E-03   -0.28023E-03 12435   0.148E-01    0.412E-01
RMM:   9    -0.633902778193E+03    0.75394E-03   -0.16271E-03 12468   0.111E-01    0.294E-01
RMM:  10    -0.633902563250E+03    0.21494E-03   -0.71277E-04 10974   0.874E-02    0.208E-01
RMM:  11    -0.633902415077E+03    0.14817E-03   -0.43797E-04 11916   0.530E-02    0.127E-01
RMM:  12    -0.633902345025E+03    0.70052E-04   -0.21815E-04 10811   0.353E-02    0.589E-02
RMM:  13    -0.633902346762E+03   -0.17368E-05   -0.13141E-04 10351   0.215E-02    0.445E-02
RMM:  14    -0.633902343951E+03    0.28109E-05   -0.77399E-05  8134   0.160E-02
  13 F= -.63390234E+03 E0= -.63381899E+03  d E =-.156147E+00
 curvature:  -0.78 expect dE=-0.215E+00 dE for cont linesearch -0.534E-05
 trial: gam= 0.95360 g(F)=  0.958E-01 g(S)=  0.180E+00 ort = 0.172E-02 (trialstep = 0.577E+00)
 search vector abs. value=  0.673E+00
 bond charge predicted
       N       E                     dE             d eps       ncg     rms          rms(c)
DAV:   1    -0.633155068693E+03    0.74728E+00   -0.47747E+01 11352   0.427E+01    0.411E+00
RMM:   2    -0.636125175487E+03   -0.29701E+01   -0.13752E+01 12181   0.104E+01    0.164E+01
RMM:   3    -0.634444329389E+03    0.16808E+01   -0.14912E+00 11262   0.410E+00    0.840E+00
RMM:   4    -0.634064581145E+03    0.37975E+00   -0.46479E-01 11954   0.191E+00    0.289E+00
RMM:   5    -0.634048369287E+03    0.16212E-01   -0.15249E-01 12097   0.899E-01    0.234E+00
RMM:   6    -0.634021390389E+03    0.26979E-01   -0.53284E-02 11933   0.602E-01    0.168E+00
RMM:   7    -0.634011772332E+03    0.96181E-02   -0.24454E-02 11518   0.473E-01    0.130E+00
RMM:   8    -0.634021383505E+03   -0.96112E-02   -0.28170E-02 12156   0.472E-01    0.179E+00
RMM:   9    -0.634005845465E+03    0.15538E-01   -0.18429E-02 12100   0.428E-01    0.922E-01
RMM:  10    -0.634002537732E+03    0.33077E-02   -0.87323E-03 12703   0.251E-01    0.494E-01
RMM:  11    -0.634002608521E+03   -0.70789E-04   -0.48594E-03 13233   0.157E-01    0.498E-01
RMM:  12    -0.634001637773E+03    0.97075E-03   -0.20089E-03 11862   0.113E-01    0.169E-01
RMM:  13    -0.634001672149E+03   -0.34376E-04   -0.13516E-03 12837   0.628E-02    0.119E-01
RMM:  14    -0.634001697376E+03   -0.25226E-04   -0.69791E-04 12159   0.429E-02    0.821E-02
RMM:  15    -0.634001770940E+03   -0.73564E-04   -0.32924E-04 12261   0.345E-02    0.914E-02
RMM:  16    -0.634001804676E+03   -0.33737E-04   -0.21728E-04 11628   0.337E-02    0.832E-02
RMM:  17    -0.634001841562E+03   -0.36886E-04   -0.17092E-04 11581   0.330E-02    0.760E-02
RMM:  18    -0.634001814756E+03    0.26806E-04   -0.11365E-04 11412   0.249E-02    0.180E-02
WARNING in EDDRMM: call to ZHEGV failed, returncode =   6  3      9
RMM:  19    -0.634001822159E+03   -0.74030E-05   -0.79038E-05  9305   0.164E-02
  14 F= -.63400182E+03 E0= -.63392104E+03  d E =-.994782E-01
 trial-energy change:   -0.099478  1 .order   -0.098066   -0.159882   -0.036251
 step:   0.7320(harm=  0.7456)  dis= 0.04077  next Energy=  -634.006739 (dE=-0.104E+00)
 bond charge predicted
       N       E                     dE             d eps       ncg     rms          rms(c)
DAV:   1    -0.633944433736E+03    0.57381E-01   -0.34682E+00 11568   0.115E+01    0.112E+00
RMM:   2    -0.634160740684E+03   -0.21631E+00   -0.10018E+00 12229   0.273E+00    0.457E+00
RMM:   3    -0.634043838374E+03    0.11690E+00   -0.10883E-01 11173   0.112E+00    0.251E+00
RMM:   4    -0.634012117970E+03    0.31720E-01   -0.33019E-02 11475   0.541E-01    0.875E-01
RMM:   5    -0.634009813551E+03    0.23044E-02   -0.11998E-02 11634   0.260E-01    0.605E-01
RMM:   6    -0.634008111147E+03    0.17024E-02   -0.41849E-03 11824   0.171E-01    0.461E-01
RMM:   7    -0.634007298091E+03    0.81306E-03   -0.17523E-03 10913   0.132E-01    0.330E-01
RMM:   8    -0.634007939805E+03   -0.64171E-03   -0.19824E-03 12025   0.127E-01    0.458E-01
RMM:   9    -0.634006898952E+03    0.10409E-02   -0.12331E-03 11748   0.113E-01    0.217E-01
RMM:  10    -0.634006752028E+03    0.14692E-03   -0.65396E-04 11394   0.712E-02    0.140E-01
RMM:  11    -0.634006754015E+03   -0.19867E-05   -0.33885E-04 11530   0.464E-02    0.149E-01
RMM:  12    -0.634006670052E+03    0.83963E-04   -0.14633E-04 10151   0.315E-02    0.412E-02
RMM:  13    -0.634006680393E+03   -0.10341E-04   -0.11129E-04  9626   0.181E-02    0.327E-02
RMM:  14    -0.634006682261E+03   -0.18682E-05   -0.45177E-05  6826   0.152E-02
  15 F= -.63400668E+03 E0= -.63392660E+03  d E =-.104338E+00
 curvature:  -0.90 expect dE=-0.109E+00 dE for cont linesearch -0.757E-09
 trial: gam= 0.39275 g(F)=  0.106E+00 g(S)=  0.156E-01 ort =-0.238E-04 (trialstep = 0.608E+00)
 search vector abs. value=  0.225E+00
 bond charge predicted
       N       E                     dE             d eps       ncg     rms          rms(c)
DAV:   1    -0.633544328769E+03    0.46235E+00   -0.17410E+01  8784   0.269E+01    0.123E+00
RMM:   2    -0.634157233331E+03   -0.61290E+00   -0.56220E+00 12793   0.592E+00    0.415E+00
RMM:   3    -0.634083321876E+03    0.73911E-01   -0.37907E-01 11996   0.146E+00    0.161E+00
RMM:   4    -0.634084235543E+03   -0.91367E-03   -0.62155E-02 12301   0.571E-01    0.142E+00
RMM:   5    -0.634072753084E+03    0.11482E-01   -0.12737E-02 11223   0.334E-01    0.835E-01
RMM:   6    -0.634070361041E+03    0.23920E-02   -0.68527E-03 11469   0.198E-01    0.550E-01
RMM:   7    -0.634070427068E+03   -0.66027E-04   -0.42654E-03 11328   0.176E-01    0.566E-01
RMM:   8    -0.634070600879E+03   -0.17381E-03   -0.46071E-03 11522   0.183E-01    0.625E-01
RMM:   9    -0.634068233481E+03    0.23674E-02   -0.30110E-03 11811   0.137E-01    0.181E-01
RMM:  10    -0.634068580256E+03   -0.34678E-03   -0.14098E-03 10661   0.929E-02    0.307E-01
RMM:  11    -0.634068160670E+03    0.41959E-03   -0.60938E-04  9754   0.689E-02    0.128E-01
RMM:  12    -0.634068157644E+03    0.30258E-05   -0.38636E-04  9089   0.429E-02    0.116E-01
RMM:  13    -0.634068092671E+03    0.64973E-04   -0.17851E-04  7934   0.297E-02    0.316E-02
RMM:  14    -0.634068103670E+03   -0.10999E-04   -0.10666E-04  7494   0.204E-02    0.380E-02
RMM:  15    -0.634068097097E+03    0.65731E-05   -0.47845E-05  6518   0.176E-02
  16 F= -.63406810E+03 E0= -.63398810E+03  d E =-.614148E-01
 trial-energy change:   -0.061415  1 .order   -0.060905   -0.073737   -0.048073
 step:   1.4885(harm=  1.7458)  dis= 0.05135  next Energy=  -634.104496 (dE=-0.978E-01)
 bond charge predicted
       N       E                     dE             d eps       ncg     rms          rms(c)
DAV:   1    -0.633012349528E+03    0.10558E+01   -0.36708E+01  8784   0.388E+01    0.177E+00
RMM:   2    -0.634263460072E+03   -0.12511E+01   -0.11728E+01 12917   0.858E+00    0.536E+00
RMM:   3    -0.634143376332E+03    0.12008E+00   -0.78594E-01 12018   0.211E+00    0.235E+00
RMM:   4    -0.634149163883E+03   -0.57876E-02   -0.12944E-01 12328   0.840E-01    0.235E+00
RMM:   5    -0.634124782929E+03    0.24381E-01   -0.26773E-02 10996   0.511E-01    0.150E+00
RMM:   6    -0.634115924572E+03    0.88584E-02   -0.16107E-02 11711   0.301E-01    0.732E-01
RMM:   7    -0.634116142638E+03   -0.21807E-03   -0.10283E-02 11749   0.258E-01    0.775E-01
RMM:   8    -0.634117323841E+03   -0.11812E-02   -0.99533E-03 11828   0.265E-01    0.984E-01
RMM:   9    -0.634112343997E+03    0.49798E-02   -0.62677E-03 11718   0.209E-01    0.418E-01
RMM:  10    -0.634112321705E+03    0.22292E-04   -0.29953E-03 10960   0.145E-01    0.396E-01
RMM:  11    -0.634111789537E+03    0.53217E-03   -0.18295E-03 11207   0.943E-02    0.204E-01
RMM:  12    -0.634111653712E+03    0.13583E-03   -0.76944E-04 10359   0.646E-02    0.132E-01
RMM:  13    -0.634111564806E+03    0.88906E-04   -0.42108E-04 10108   0.388E-02    0.422E-02
RMM:  14    -0.634111593658E+03   -0.28852E-04   -0.22051E-04  8812   0.257E-02    0.606E-02
RMM:  15    -0.634111575763E+03    0.17894E-04   -0.10307E-04  6974   0.233E-02    0.313E-02
RMM:  16    -0.634111581792E+03   -0.60290E-05   -0.46940E-05  6504   0.207E-02
  17 F= -.63411158E+03 E0= -.63403180E+03  d E =-.104900E+00
 curvature:  -1.54 expect dE=-0.194E+00 dE for cont linesearch -0.193E-02
 trial: gam= 0.82717 g(F)=  0.108E+00 g(S)=  0.184E-01 ort = 0.168E-01 (trialstep = 0.573E+00)
 search vector abs. value=  0.308E+00
 bond charge predicted
       N       E                     dE             d eps       ncg     rms          rms(c)
DAV:   1    -0.633550541515E+03    0.56103E+00   -0.23368E+01  9456   0.313E+01    0.193E+00
RMM:   2    -0.634387360082E+03   -0.83682E+00   -0.74081E+00 13022   0.610E+00    0.424E+00
RMM:   3    -0.634237708256E+03    0.14965E+00   -0.43796E-01 11510   0.209E+00    0.320E+00
RMM:   4    -0.634200088527E+03    0.37620E-01   -0.10989E-01 11851   0.898E-01    0.156E+00
RMM:   5    -0.634199386797E+03    0.70173E-03   -0.34177E-02 11783   0.488E-01    0.164E+00
RMM:   6    -0.634185090016E+03    0.14297E-01   -0.13127E-02 11561   0.302E-01    0.674E-01
RMM:   7    -0.634186599156E+03   -0.15091E-02   -0.77688E-03 11584   0.221E-01    0.926E-01
RMM:   8    -0.634186395774E+03    0.20338E-03   -0.68674E-03 11422   0.260E-01    0.917E-01
RMM:   9    -0.634182402401E+03    0.39934E-02   -0.53655E-03 12035   0.213E-01    0.401E-01
RMM:  10    -0.634182552345E+03   -0.14994E-03   -0.31632E-03 11992   0.154E-01    0.405E-01
RMM:  11    -0.634181732221E+03    0.82012E-03   -0.17008E-03 12374   0.970E-02    0.185E-01
RMM:  12    -0.634181672917E+03    0.59304E-04   -0.93042E-04 12007   0.583E-02    0.112E-01
RMM:  13    -0.634181668982E+03    0.39351E-05   -0.40087E-04 11791   0.368E-02    0.732E-02
RMM:  14    -0.634181655745E+03    0.13237E-04   -0.18990E-04 10716   0.247E-02    0.497E-02
RMM:  15    -0.634181672844E+03   -0.17100E-04   -0.97368E-05  8917   0.221E-02    0.643E-02
RMM:  16    -0.634181661058E+03    0.11786E-04   -0.64683E-05  8181   0.225E-02    0.281E-02
RMM:  17    -0.634181664784E+03   -0.37256E-05   -0.53832E-05  8011   0.167E-02
  18 F= -.63418166E+03 E0= -.63410263E+03  d E =-.700830E-01
 trial-energy change:   -0.070083  1 .order   -0.069394   -0.080202   -0.058587
 step:   1.5883(harm=  2.1262)  dis= 0.06967  next Energy=  -634.237396 (dE=-0.126E+00)
 bond charge predicted
       N       E                     dE             d eps       ncg     rms          rms(c)
DAV:   1    -0.632349766484E+03    0.18319E+01   -0.75025E+01  9576   0.551E+01    0.344E+00
RMM:   2    -0.634953920943E+03   -0.26042E+01   -0.22826E+01 13037   0.107E+01    0.814E+00
RMM:   3    -0.634452119735E+03    0.50180E+00   -0.12695E+00 11436   0.372E+00    0.623E+00
RMM:   4    -0.634304969324E+03    0.14715E+00   -0.36515E-01 11837   0.166E+00    0.285E+00
RMM:   5    -0.634305290376E+03   -0.32105E-03   -0.11839E-01 11873   0.869E-01    0.311E+00
RMM:   6    -0.634255914818E+03    0.49376E-01   -0.41364E-02 11518   0.563E-01    0.127E+00
RMM:   7    -0.634259521369E+03   -0.36066E-02   -0.28284E-02 11988   0.383E-01    0.157E+00
RMM:   8    -0.634256623368E+03    0.28980E-02   -0.21827E-02 11424   0.453E-01    0.144E+00
RMM:   9    -0.634247164481E+03    0.94589E-02   -0.16045E-02 12294   0.356E-01    0.749E-01
RMM:  10    -0.634247520379E+03   -0.35590E-03   -0.94450E-03 12135   0.277E-01    0.735E-01
RMM:  11    -0.634244479339E+03    0.30410E-02   -0.58541E-03 13384   0.162E-01    0.237E-01
RMM:  12    -0.634244617946E+03   -0.13861E-03   -0.29351E-03 12651   0.101E-01    0.230E-01
RMM:  13    -0.634244474559E+03    0.14339E-03   -0.12271E-03 12157   0.660E-02    0.102E-01
RMM:  14    -0.634244491243E+03   -0.16684E-04   -0.60297E-04 12100   0.399E-02    0.832E-02
RMM:  15    -0.634244529265E+03   -0.38022E-04   -0.32754E-04 11878   0.359E-02    0.903E-02
RMM:  16    -0.634244529323E+03   -0.58557E-07   -0.17758E-04 10969   0.322E-02    0.727E-02
RMM:  17    -0.634244515986E+03    0.13337E-04   -0.12111E-04 10826   0.242E-02    0.349E-02
RMM:  18    -0.634244522569E+03   -0.65828E-05   -0.81185E-05  9746   0.195E-02
  19 F= -.63424452E+03 E0= -.63416871E+03  d E =-.132941E+00
 curvature:  -2.06 expect dE=-0.367E+00 dE for cont linesearch -0.128E-02
 trial: gam= 1.36278 g(F)=  0.776E-01 g(S)=  0.101E+00 ort = 0.139E-01 (trialstep = 0.303E+00)
 search vector abs. value=  0.788E+00
 bond charge predicted
       N       E                     dE             d eps       ncg     rms          rms(c)
DAV:   1    -0.633838657883E+03    0.40586E+00   -0.17224E+01  9840   0.273E+01    0.195E+00
RMM:   2    -0.634710691571E+03   -0.87203E+00   -0.59204E+00 12875   0.553E+00    0.701E+00
RMM:   3    -0.634372371087E+03    0.33832E+00   -0.39833E-01 11284   0.213E+00    0.381E+00
RMM:   4    -0.634311810404E+03    0.60561E-01   -0.12906E-01 11985   0.951E-01    0.189E+00
RMM:   5    -0.634303731229E+03    0.80792E-02   -0.39443E-02 11536   0.525E-01    0.133E+00
RMM:   6    -0.634294456577E+03    0.92747E-02   -0.14938E-02 11931   0.322E-01    0.791E-01
RMM:   7    -0.634292233154E+03    0.22234E-02   -0.59862E-03 11443   0.212E-01    0.575E-01
RMM:   8    -0.634295023852E+03   -0.27907E-02   -0.84426E-03 12046   0.263E-01    0.931E-01
RMM:   9    -0.634291061608E+03    0.39622E-02   -0.52738E-03 11730   0.228E-01    0.518E-01
RMM:  10    -0.634289893716E+03    0.11679E-02   -0.28625E-03 12520   0.137E-01    0.201E-01
RMM:  11    -0.634289971787E+03   -0.78070E-04   -0.14351E-03 12675   0.795E-02    0.210E-01
RMM:  12    -0.634289782223E+03    0.18956E-03   -0.59339E-04 11272   0.588E-02    0.842E-02
RMM:  13    -0.634289805499E+03   -0.23276E-04   -0.36592E-04 11680   0.344E-02    0.666E-02
RMM:  14    -0.634289808102E+03   -0.26028E-05   -0.17234E-04 10971   0.247E-02    0.424E-02
RMM:  15    -0.634289835340E+03   -0.27238E-04   -0.85665E-05  9087   0.227E-02    0.655E-02
RMM:  16    -0.634289836177E+03   -0.83767E-06   -0.59832E-05  8631   0.234E-02
  20 F= -.63428984E+03 E0= -.63421569E+03  d E =-.453136E-01
 trial-energy change:   -0.045314  1 .order   -0.044814   -0.059814   -0.029815
 step:   0.5579(harm=  0.6047)  dis= 0.04769  next Energy=  -634.302648 (dE=-0.581E-01)
 bond charge predicted
       N       E                     dE             d eps       ncg     rms          rms(c)
DAV:   1    -0.633971737195E+03    0.31810E+00   -0.11994E+01  9672   0.229E+01    0.163E+00
RMM:   2    -0.634582143654E+03   -0.61041E+00   -0.42534E+00 12852   0.471E+00    0.565E+00
RMM:   3    -0.634358310981E+03    0.22383E+00   -0.29226E-01 11276   0.178E+00    0.311E+00
RMM:   4    -0.634318251676E+03    0.40059E-01   -0.89526E-02 11916   0.779E-01    0.155E+00
RMM:   5    -0.634312729045E+03    0.55226E-02   -0.26467E-02 11402   0.435E-01    0.111E+00
RMM:   6    -0.634305867771E+03    0.68613E-02   -0.10297E-02 11903   0.264E-01    0.611E-01
RMM:   7    -0.634304838425E+03    0.10293E-02   -0.41296E-03 11411   0.174E-01    0.508E-01
RMM:   8    -0.634306554289E+03   -0.17159E-02   -0.59225E-03 12135   0.221E-01    0.763E-01
RMM:   9    -0.634303776322E+03    0.27780E-02   -0.35945E-03 11812   0.186E-01    0.406E-01
RMM:  10    -0.634303098153E+03    0.67817E-03   -0.19178E-03 12271   0.111E-01    0.170E-01
RMM:  11    -0.634303128051E+03   -0.29897E-04   -0.96478E-04 12492   0.647E-02    0.162E-01
RMM:  12    -0.634303025882E+03    0.10217E-03   -0.41748E-04 11205   0.485E-02    0.725E-02
RMM:  13    -0.634303042099E+03   -0.16218E-04   -0.25125E-04 11312   0.280E-02    0.563E-02
RMM:  14    -0.634303045169E+03   -0.30691E-05   -0.12035E-04 10292   0.211E-02    0.351E-02
RMM:  15    -0.634303069833E+03   -0.24665E-04   -0.61554E-05  7870   0.210E-02    0.610E-02
RMM:  16    -0.634303066079E+03    0.37545E-05   -0.41549E-05  7227   0.233E-02
  21 F= -.63430307E+03 E0= -.63422979E+03  d E =-.585435E-01
 curvature:  -1.18 expect dE=-0.930E-01 dE for cont linesearch -0.929E-05
 trial: gam= 0.19268 g(F)=  0.683E-01 g(S)=  0.107E-01 ort = 0.249E-02 (trialstep = 0.354E+00)
 search vector abs. value=  0.109E+00
 bond charge predicted
       N       E                     dE             d eps       ncg     rms          rms(c)
DAV:   1    -0.634262981902E+03    0.40088E-01   -0.27145E+00 10176   0.102E+01    0.488E-01
RMM:   2    -0.634337120765E+03   -0.74139E-01   -0.71093E-01 12632   0.202E+00    0.128E+00
RMM:   3    -0.634329998205E+03    0.71226E-02   -0.44762E-02 11889   0.547E-01    0.711E-01
RMM:   4    -0.634330445052E+03   -0.44685E-03   -0.85739E-03 11834   0.246E-01    0.667E-01
RMM:   5    -0.634327878283E+03    0.25668E-02   -0.24125E-03 10586   0.160E-01    0.314E-01
RMM:   6    -0.634327619868E+03    0.25841E-03   -0.15804E-03 11401   0.982E-02    0.261E-01
RMM:   7    -0.634328005991E+03   -0.38612E-03   -0.12004E-03 10920   0.969E-02    0.375E-01
RMM:   8    -0.634327415700E+03    0.59029E-03   -0.88480E-04 10934   0.945E-02    0.199E-01
RMM:   9    -0.634327191410E+03    0.22429E-03   -0.46231E-04 10557   0.569E-02    0.101E-01
RMM:  10    -0.634327164321E+03    0.27089E-04   -0.19223E-04  8105   0.393E-02    0.678E-02
RMM:  11    -0.634327149508E+03    0.14813E-04   -0.10145E-04  7549   0.242E-02    0.347E-02
RMM:  12    -0.634327148481E+03    0.10272E-05   -0.52610E-05  6710   0.179E-02
  22 F= -.63432715E+03 E0= -.63425379E+03  d E =-.240824E-01
 trial-energy change:   -0.024082  1 .order   -0.023951   -0.028124   -0.019779
 step:   1.0152(harm=  1.1936)  dis= 0.03357  next Energy=  -634.346455 (dE=-0.434E-01)
 bond charge predicted
       N       E                     dE             d eps       ncg     rms          rms(c)
DAV:   1    -0.634127782986E+03    0.19937E+00   -0.94896E+00  9528   0.191E+01    0.933E-01
RMM:   2    -0.634398321090E+03   -0.27054E+00   -0.24954E+00 12653   0.377E+00    0.291E+00
RMM:   3    -0.634357932561E+03    0.40389E-01   -0.14749E-01 11878   0.107E+00    0.119E+00
RMM:   4    -0.634360562121E+03   -0.26296E-02   -0.35878E-02 12258   0.460E-01    0.114E+00
RMM:   5    -0.634352074855E+03    0.84873E-02   -0.89133E-03 11229   0.293E-01    0.529E-01
RMM:   6    -0.634351447769E+03    0.62709E-03   -0.54115E-03 11883   0.175E-01    0.456E-01
RMM:   7    -0.634353296570E+03   -0.18488E-02   -0.46580E-03 11845   0.179E-01    0.768E-01
RMM:   8    -0.634350635551E+03    0.26610E-02   -0.26366E-03 10920   0.168E-01    0.348E-01
RMM:   9    -0.634350026546E+03    0.60900E-03   -0.15843E-03 11092   0.992E-02    0.178E-01
RMM:  10    -0.634349988313E+03    0.38233E-04   -0.73945E-04 10269   0.661E-02    0.143E-01
RMM:  11    -0.634349916278E+03    0.72035E-04   -0.38128E-04  9782   0.421E-02    0.660E-02
RMM:  12    -0.634349905064E+03    0.11214E-04   -0.17830E-04  8119   0.282E-02    0.520E-02
RMM:  13    -0.634349903069E+03    0.19953E-05   -0.96634E-05  6928   0.216E-02
  23 F= -.63434990E+03 E0= -.63427628E+03  d E =-.468370E-01
 curvature:  -0.78 expect dE=-0.311E-01 dE for cont linesearch -0.964E-03
 ZBRENT: extrapolating
 opt :   1.1883  next Energy=  -634.350906 (dE=-0.478E-01)
 bond charge predicted
       N       E                     dE             d eps       ncg     rms          rms(c)
DAV:   1    -0.634336637328E+03    0.13268E-01   -0.65890E-01 10584   0.499E+00    0.237E-01
RMM:   2    -0.634353382961E+03   -0.16746E-01   -0.16104E-01 12623   0.929E-01    0.598E-01
RMM:   3    -0.634351744369E+03    0.16386E-02   -0.92356E-03 11814   0.277E-01    0.364E-01
RMM:   4    -0.634351776169E+03   -0.31800E-04   -0.21750E-03 11175   0.127E-01    0.312E-01
RMM:   5    -0.634351238755E+03    0.53741E-03   -0.63620E-04 10067   0.821E-02    0.166E-01
RMM:   6    -0.634351144712E+03    0.94043E-04   -0.38940E-04 10334   0.510E-02    0.123E-01
RMM:   7    -0.634351240638E+03   -0.95926E-04   -0.30727E-04  9969   0.486E-02    0.181E-01
RMM:   8    -0.634351132858E+03    0.10778E-03   -0.21287E-04  9242   0.496E-02    0.117E-01
RMM:   9    -0.634351053225E+03    0.79633E-04   -0.10939E-04  8112   0.331E-02    0.454E-02
RMM:  10    -0.634351050668E+03    0.25567E-05   -0.56427E-05  6635   0.234E-02
  24 F= -.63435105E+03 E0= -.63427733E+03  d E =-.479846E-01
 curvature:  -0.82 expect dE=-0.413E-01 dE for cont linesearch -0.572E-05
 trial: gam= 0.58005 g(F)=  0.450E-01 g(S)=  0.565E-02 ort = 0.875E-03 (trialstep = 0.521E+00)
 search vector abs. value=  0.884E-01
 bond charge predicted
       N       E                     dE             d eps       ncg     rms          rms(c)
DAV:   1    -0.634219193384E+03    0.13186E+00   -0.52389E+00  9408   0.153E+01    0.704E-01
RMM:   2    -0.634399279146E+03   -0.18009E+00   -0.16335E+00 13287   0.296E+00    0.217E+00
RMM:   3    -0.634381797717E+03    0.17481E-01   -0.86399E-02 11490   0.838E-01    0.136E+00
RMM:   4    -0.634375787275E+03    0.60104E-02   -0.21520E-02 11877   0.372E-01    0.609E-01
RMM:   5    -0.634374662980E+03    0.11243E-02   -0.58124E-03 11425   0.191E-01    0.513E-01
RMM:   6    -0.634373236680E+03    0.14263E-02   -0.24230E-03 11408   0.119E-01    0.231E-01
RMM:   7    -0.634373554005E+03   -0.31733E-03   -0.15214E-03 11298   0.864E-02    0.339E-01
RMM:   8    -0.634373383124E+03    0.17088E-03   -0.12228E-03 11380   0.105E-01    0.304E-01
RMM:   9    -0.634372925148E+03    0.45798E-03   -0.79423E-04 11651   0.746E-02    0.148E-01
RMM:  10    -0.634372911561E+03    0.13587E-04   -0.38310E-04 10769   0.548E-02    0.126E-01
RMM:  11    -0.634372845307E+03    0.66255E-04   -0.22585E-04 10329   0.331E-02    0.473E-02
RMM:  12    -0.634372847281E+03   -0.19742E-05   -0.10218E-04  7317   0.232E-02    0.489E-02
RMM:  13    -0.634372839892E+03    0.73892E-05   -0.51957E-05  6488   0.211E-02
  25 F= -.63437284E+03 E0= -.63429876E+03  d E =-.217892E-01
 trial-energy change:   -0.021789  1 .order   -0.021682   -0.026654   -0.016710
 step:   1.2766(harm=  1.3965)  dis= 0.03474  next Energy=  -634.385284 (dE=-0.342E-01)
 bond charge predicted
       N       E                     dE             d eps       ncg     rms          rms(c)
DAV:   1    -0.634083657126E+03    0.28919E+00   -0.11230E+01  9672   0.222E+01    0.102E+00
RMM:   2    -0.634455277695E+03   -0.37162E+00   -0.32788E+00 13326   0.407E+00    0.351E+00
RMM:   3    -0.634403490355E+03    0.51787E-01   -0.15346E-01 11477   0.126E+00    0.182E+00
RMM:   4    -0.634393129525E+03    0.10361E-01   -0.49521E-02 12091   0.552E-01    0.829E-01
RMM:   5    -0.634390673634E+03    0.24559E-02   -0.12042E-02 11654   0.282E-01    0.675E-01
RMM:   6    -0.634388130984E+03    0.25427E-02   -0.50986E-03 11814   0.167E-01    0.306E-01
RMM:   7    -0.634389009071E+03   -0.87809E-03   -0.32240E-03 11899   0.135E-01    0.494E-01
RMM:   8    -0.634388094980E+03    0.91409E-03   -0.24309E-03 11681   0.143E-01    0.334E-01
RMM:   9    -0.634387499151E+03    0.59583E-03   -0.14340E-03 12365   0.906E-02    0.144E-01
RMM:  10    -0.634387704227E+03   -0.20508E-03   -0.87321E-04 11816   0.660E-02    0.237E-01
RMM:  11    -0.634387472761E+03    0.23147E-03   -0.35631E-04 10736   0.487E-02    0.757E-02
RMM:  12    -0.634387482021E+03   -0.92600E-05   -0.23087E-04  9580   0.294E-02    0.738E-02
RMM:  13    -0.634387464359E+03    0.17662E-04   -0.10663E-04  7609   0.235E-02    0.380E-02
RMM:  14    -0.634387462553E+03    0.18067E-05   -0.60210E-05  7133   0.185E-02
  26 F= -.63438746E+03 E0= -.63431278E+03  d E =-.364119E-01
 curvature:  -1.18 expect dE=-0.411E-01 dE for cont linesearch -0.403E-03
 trial: gam= 0.56993 g(F)=  0.234E-01 g(S)=  0.114E-01 ort = 0.548E-02 (trialstep = 0.672E+00)
 search vector abs. value=  0.697E-01
 bond charge predicted
       N       E                     dE             d eps       ncg     rms          rms(c)
DAV:   1    -0.634278187992E+03    0.10928E+00   -0.72544E+00 12432   0.176E+01    0.191E+00
RMM:   2    -0.634791213685E+03   -0.51303E+00   -0.23880E+00 12102   0.414E+00    0.664E+00
RMM:   3    -0.634485403970E+03    0.30581E+00   -0.26914E-01 10902   0.182E+00    0.360E+00
RMM:   4    -0.634419850531E+03    0.65553E-01   -0.86739E-02 11808   0.798E-01    0.150E+00
RMM:   5    -0.634414159307E+03    0.56912E-02   -0.25421E-02 11550   0.447E-01    0.107E+00
RMM:   6    -0.634408712072E+03    0.54472E-02   -0.11510E-02 11976   0.282E-01    0.702E-01
RMM:   7    -0.634406859600E+03    0.18525E-02   -0.48235E-03 10994   0.221E-01    0.514E-01
RMM:   8    -0.634407445121E+03   -0.58552E-03   -0.55114E-03 12407   0.213E-01    0.568E-01
RMM:   9    -0.634405614456E+03    0.18307E-02   -0.29302E-03 12251   0.153E-01    0.288E-01
RMM:  10    -0.634405601814E+03    0.12642E-04   -0.13459E-03 11823   0.108E-01    0.272E-01
RMM:  11    -0.634405327604E+03    0.27421E-03   -0.67110E-04 12178   0.663E-02    0.161E-01
RMM:  12    -0.634405240739E+03    0.86866E-04   -0.39326E-04 11445   0.407E-02    0.626E-02
RMM:  13    -0.634405257911E+03   -0.17173E-04   -0.19794E-04 11075   0.249E-02    0.496E-02
RMM:  14    -0.634405268333E+03   -0.10422E-04   -0.91044E-05  9340   0.207E-02    0.431E-02
WARNING in EDDRMM: call to ZHEGV failed, returncode =   8  4      6
RMM:  15    -0.634405278795E+03   -0.10462E-04   -0.54329E-05  7956   0.207E-02    0.421E-02
WARNING in EDDRMM: call to ZHEGV failed, returncode =   6  3      7
RMM:  16    -0.634405293097E+03   -0.14302E-04   -0.59453E-05  8432   0.191E-02    0.197E-02
RMM:  17    -0.634405298001E+03   -0.49046E-05   -0.41586E-05  7591   0.167E-02
  27 F= -.63440530E+03 E0= -.63433049E+03  d E =-.178354E-01
 trial-energy change:   -0.017835  1 .order   -0.017747   -0.025450   -0.010043
 step:   1.0871(harm=  1.1103)  dis= 0.02063  next Energy=  -634.408419 (dE=-0.210E-01)
 bond charge predicted
       N       E                     dE             d eps       ncg     rms          rms(c)
DAV:   1    -0.634357161673E+03    0.48131E-01   -0.27406E+00 12312   0.108E+01    0.118E+00
RMM:   2    -0.634553456754E+03   -0.19630E+00   -0.93347E-01 12121   0.256E+00    0.406E+00
RMM:   3    -0.634438104461E+03    0.11535E+00   -0.10374E-01 10919   0.112E+00    0.219E+00
RMM:   4    -0.634413800835E+03    0.24304E-01   -0.32862E-02 11597   0.487E-01    0.930E-01
RMM:   5    -0.634411668746E+03    0.21321E-02   -0.95018E-03 11220   0.280E-01    0.674E-01
RMM:   6    -0.634409643039E+03    0.20257E-02   -0.43941E-03 11844   0.177E-01    0.448E-01
RMM:   7    -0.634408841657E+03    0.80138E-03   -0.17945E-03 10775   0.134E-01    0.308E-01
RMM:   8    -0.634409081309E+03   -0.23965E-03   -0.20427E-03 12233   0.130E-01    0.344E-01
RMM:   9    -0.634408405409E+03    0.67590E-03   -0.11328E-03 12236   0.947E-02    0.169E-01
RMM:  10    -0.634408415468E+03   -0.10059E-04   -0.50410E-04 11320   0.661E-02    0.166E-01
RMM:  11    -0.634408306497E+03    0.10897E-03   -0.25090E-04 11397   0.418E-02    0.946E-02
RMM:  12    -0.634408279693E+03    0.26804E-04   -0.14858E-04 10026   0.255E-02    0.396E-02
WARNING in EDDRMM: call to ZHEGV failed, returncode =   6  3      7
RMM:  13    -0.634408288249E+03   -0.85563E-05   -0.79439E-05  8488   0.171E-02
  28 F= -.63440829E+03 E0= -.63433339E+03  d E =-.208257E-01
 curvature:  -1.02 expect dE=-0.499E-01 dE for cont linesearch -0.201E-05
 trial: gam= 1.54136 g(F)=  0.187E-01 g(S)=  0.304E-01 ort =-0.371E-03 (trialstep = 0.247E+00)
 search vector abs. value=  0.213E+00
 bond charge predicted
       N       E                     dE             d eps       ncg     rms          rms(c)
DAV:   1    -0.634339153562E+03    0.69126E-01   -0.29984E+00  9216   0.114E+01    0.467E-01
RMM:   2    -0.634429933225E+03   -0.90780E-01   -0.85012E-01 13044   0.212E+00    0.136E+00
RMM:   3    -0.634422720928E+03    0.72123E-02   -0.41839E-02 11712   0.567E-01    0.860E-01
RMM:   4    -0.634420855319E+03    0.18656E-02   -0.99361E-03 11639   0.254E-01    0.449E-01
RMM:   5    -0.634420002300E+03    0.85302E-03   -0.25178E-03 10746   0.133E-01    0.341E-01
RMM:   6    -0.634419399885E+03    0.60241E-03   -0.10483E-03 10958   0.760E-02    0.150E-01
RMM:   7    -0.634419502258E+03   -0.10237E-03   -0.65730E-04 10849   0.567E-02    0.208E-01
RMM:   8    -0.634419579279E+03   -0.77021E-04   -0.66294E-04 10536   0.743E-02    0.267E-01
RMM:   9    -0.634419205918E+03    0.37336E-03   -0.40576E-04 10141   0.590E-02    0.746E-02
RMM:  10    -0.634419237424E+03   -0.31506E-04   -0.19048E-04  8350   0.380E-02    0.100E-01
RMM:  11    -0.634419195280E+03    0.42144E-04   -0.87651E-05  6810   0.270E-02    0.292E-02
RMM:  12    -0.634419193464E+03    0.18165E-05   -0.48381E-05  6395   0.184E-02
  29 F= -.63441919E+03 E0= -.63434387E+03  d E =-.109052E-01
 trial-energy change:   -0.010905  1 .order   -0.010824   -0.011944   -0.009704
 step:   0.8552(harm=  1.3148)  dis= 0.03171  next Energy=  -634.432393 (dE=-0.241E-01)
 bond charge predicted
       N       E                     dE             d eps       ncg     rms          rms(c)
DAV:   1    -0.633974545274E+03    0.44465E+00   -0.18619E+01  9408   0.277E+01    0.116E+00
RMM:   2    -0.634506911177E+03   -0.53237E+00   -0.49384E+00 13134   0.514E+00    0.358E+00
RMM:   3    -0.634455914495E+03    0.50997E-01   -0.22570E-01 11668   0.137E+00    0.201E+00
RMM:   4    -0.634446032393E+03    0.98821E-02   -0.60041E-02 12078   0.601E-01    0.109E+00
RMM:   5    -0.634440990421E+03    0.50420E-02   -0.15200E-02 11750   0.313E-01    0.879E-01
RMM:   6    -0.634437307873E+03    0.36825E-02   -0.60533E-03 11477   0.178E-01    0.376E-01
RMM:   7    -0.634437784573E+03   -0.47670E-03   -0.36148E-03 11659   0.130E-01    0.494E-01
RMM:   8    -0.634438293634E+03   -0.50906E-03   -0.40396E-03 11508   0.169E-01    0.623E-01
RMM:   9    -0.634436103330E+03    0.21903E-02   -0.23999E-03 11819   0.131E-01    0.166E-01
RMM:  10    -0.634436276645E+03   -0.17332E-03   -0.12262E-03 11693   0.809E-02    0.225E-01
RMM:  11    -0.634436070037E+03    0.20661E-03   -0.57847E-04 10831   0.577E-02    0.841E-02
RMM:  12    -0.634436060070E+03    0.99671E-05   -0.26716E-04  9617   0.340E-02    0.692E-02
RMM:  13    -0.634436052172E+03    0.78986E-05   -0.14240E-04  8295   0.259E-02    0.493E-02
RMM:  14    -0.634436046326E+03    0.58452E-05   -0.74366E-05  7296   0.204E-02
  30 F= -.63443605E+03 E0= -.63435969E+03  d E =-.277581E-01
 curvature:  -2.36 expect dE=-0.773E-01 dE for cont linesearch -0.237E-02
 ZBRENT: increasing intervall
 opt :   2.0726  next Energy=  -634.423770 (dE=-0.155E-01)
 bond charge predicted
       N       E                     dE             d eps       ncg     rms          rms(c)
DAV:   1    -0.632703403610E+03    0.17326E+01   -0.77170E+01  9744   0.549E+01    0.237E+00
RMM:   2    -0.634906075612E+03   -0.22027E+01   -0.19092E+01 13305   0.997E+00    0.925E+00
RMM:   3    -0.634469349559E+03    0.43673E+00   -0.80983E-01 11388   0.309E+00    0.294E+00
RMM:   4    -0.634485102504E+03   -0.15753E-01   -0.27795E-01 12225   0.127E+00    0.320E+00
RMM:   5    -0.634454531455E+03    0.30571E-01   -0.69050E-02 11323   0.811E-01    0.222E+00
RMM:   6    -0.634430178226E+03    0.24353E-01   -0.34502E-02 12316   0.400E-01    0.807E-01
RMM:   7    -0.634430464683E+03   -0.28646E-03   -0.15845E-02 12269   0.257E-01    0.896E-01
RMM:   8    -0.634432381374E+03   -0.19167E-02   -0.17145E-02 12356   0.302E-01    0.104E+00
RMM:   9    -0.634425140674E+03    0.72407E-02   -0.11596E-02 12601   0.252E-01    0.371E-01
RMM:  10    -0.634425344852E+03   -0.20418E-03   -0.44731E-03 12288   0.168E-01    0.392E-01
RMM:  11    -0.634424660651E+03    0.68420E-03   -0.23809E-03 12388   0.105E-01    0.133E-01
RMM:  12    -0.634424753681E+03   -0.93030E-04   -0.10733E-03 12290   0.622E-02    0.171E-01
RMM:  13    -0.634424683644E+03    0.70037E-04   -0.60285E-04 11319   0.497E-02    0.108E-01
RMM:  14    -0.634424657341E+03    0.26303E-04   -0.29012E-04 11093   0.331E-02    0.628E-02
RMM:  15    -0.634424690325E+03   -0.32983E-04   -0.18692E-04 10107   0.288E-02    0.874E-02
RMM:  16    -0.634424657413E+03    0.32911E-04   -0.87674E-05  7763   0.241E-02    0.322E-02
RMM:  17    -0.634424661060E+03   -0.36466E-05   -0.62563E-05  7517   0.210E-02
  31 F= -.63442466E+03 E0= -.63434658E+03  d E =-.163728E-01
 curvature:  12.23 expect dE= 0.141E+01 dE for cont linesearch  0.750E-01
 ZBRENT: bracketing found
 ZBRENT: interpolating
 opt :   1.2059  next Energy=  -634.438612 (dE=-0.303E-01)
 bond charge predicted
       N       E                     dE             d eps       ncg     rms          rms(c)
DAV:   1    -0.633565481889E+03    0.85918E+00   -0.38526E+01  9888   0.392E+01    0.180E+00
RMM:   2    -0.634916003296E+03   -0.13505E+01   -0.10245E+01 12704   0.736E+00    0.881E+00
RMM:   3    -0.634469076159E+03    0.44693E+00   -0.50295E-01 11340   0.237E+00    0.230E+00
RMM:   4    -0.634467205412E+03    0.18707E-02   -0.15641E-01 12092   0.928E-01    0.211E+00
RMM:   5    -0.634453615303E+03    0.13590E-01   -0.36499E-02 11454   0.536E-01    0.140E+00
RMM:   6    -0.634442569257E+03    0.11046E-01   -0.16207E-02 11555   0.315E-01    0.669E-01
RMM:   7    -0.634442286953E+03    0.28230E-03   -0.84258E-03 11618   0.196E-01    0.675E-01
RMM:   8    -0.634444057587E+03   -0.17706E-02   -0.78990E-03 11732   0.238E-01    0.881E-01
RMM:   9    -0.634439937561E+03    0.41200E-02   -0.65401E-03 11625   0.231E-01    0.414E-01
RMM:  10    -0.634439157601E+03    0.77996E-03   -0.29275E-03 12480   0.122E-01    0.186E-01
RMM:  11    -0.634439233755E+03   -0.76153E-04   -0.13180E-03 12138   0.774E-02    0.185E-01
RMM:  12    -0.634439104882E+03    0.12887E-03   -0.56583E-04 10762   0.547E-02    0.969E-02
RMM:  13    -0.634439100393E+03    0.44893E-05   -0.32588E-04 10971   0.362E-02    0.715E-02
RMM:  14    -0.634439104936E+03   -0.45432E-05   -0.16825E-04  9277   0.276E-02    0.671E-02
RMM:  15    -0.634439101863E+03    0.30735E-05   -0.91001E-05  7735   0.228E-02
  32 F= -.63443910E+03 E0= -.63436219E+03  d E =-.308136E-01
 curvature:  -0.42 expect dE=-0.186E-01 dE for cont linesearch -0.152E-04
 trial: gam= 0.57903 g(F)=  0.426E-01 g(S)=  0.180E-02 ort = 0.278E-02 (trialstep = 0.438E+00)
 search vector abs. value=  0.119E+00
 bond charge predicted
       N       E                     dE             d eps       ncg     rms          rms(c)
DAV:   1    -0.634311393426E+03    0.12771E+00   -0.50276E+00  8880   0.143E+01    0.766E-01
RMM:   2    -0.634499697468E+03   -0.18830E+00   -0.15386E+00 13226   0.284E+00    0.261E+00
RMM:   3    -0.634466761668E+03    0.32936E-01   -0.10895E-01 11237   0.899E-01    0.141E+00
RMM:   4    -0.634460126989E+03    0.66347E-02   -0.23214E-02 11660   0.387E-01    0.794E-01
RMM:   5    -0.634458816237E+03    0.13108E-02   -0.71341E-03 11351   0.218E-01    0.615E-01
RMM:   6    -0.634456715827E+03    0.21004E-02   -0.28142E-03 11415   0.130E-01    0.281E-01
RMM:   7    -0.634456597470E+03    0.11836E-03   -0.13315E-03 10869   0.866E-02    0.262E-01
RMM:   8    -0.634456841346E+03   -0.24388E-03   -0.13757E-03 11349   0.109E-01    0.354E-01
RMM:   9    -0.634456236296E+03    0.60505E-03   -0.10649E-03 11675   0.911E-02    0.213E-01
RMM:  10    -0.634456095025E+03    0.14127E-03   -0.41895E-04 10682   0.611E-02    0.127E-01
RMM:  11    -0.634456051406E+03    0.43619E-04   -0.30874E-04 11119   0.367E-02    0.810E-02
RMM:  12    -0.634456026516E+03    0.24890E-04   -0.11480E-04  7846   0.259E-02    0.397E-02
RMM:  13    -0.634456024150E+03    0.23661E-05   -0.60524E-05  6922   0.189E-02
  33 F= -.63445602E+03 E0= -.63437862E+03  d E =-.169223E-01
 trial-energy change:   -0.016922  1 .order   -0.016915   -0.020174   -0.013656
 step:   1.3570(harm=  1.3570)  dis= 0.04541  next Energy=  -634.470323 (dE=-0.312E-01)
 bond charge predicted
       N       E                     dE             d eps       ncg     rms          rms(c)
DAV:   1    -0.633952716846E+03    0.50331E+00   -0.23421E+01  9408   0.299E+01    0.153E+00
RMM:   2    -0.634652661969E+03   -0.69995E+00   -0.57388E+00 13201   0.560E+00    0.505E+00
RMM:   3    -0.634516991028E+03    0.13567E+00   -0.30490E-01 11143   0.174E+00    0.289E+00
RMM:   4    -0.634488018087E+03    0.28973E-01   -0.94844E-02 11907   0.782E-01    0.157E+00
RMM:   5    -0.634483792976E+03    0.42251E-02   -0.30667E-02 11766   0.437E-01    0.130E+00
RMM:   6    -0.634474692132E+03    0.91008E-02   -0.12871E-02 12007   0.266E-01    0.581E-01
RMM:   7    -0.634474271041E+03    0.42109E-03   -0.60995E-03 11666   0.183E-01    0.550E-01
RMM:   8    -0.634475121468E+03   -0.85043E-03   -0.66584E-03 12001   0.223E-01    0.702E-01
RMM:   9    -0.634472415529E+03    0.27059E-02   -0.42819E-03 12338   0.174E-01    0.366E-01
RMM:  10    -0.634472251925E+03    0.16360E-03   -0.20927E-03 12048   0.110E-01    0.301E-01
RMM:  11    -0.634471940090E+03    0.31183E-03   -0.10948E-03 12032   0.721E-02    0.151E-01
RMM:  12    -0.634471885171E+03    0.54919E-04   -0.57045E-04 11071   0.489E-02    0.896E-02
RMM:  13    -0.634471869141E+03    0.16030E-04   -0.25810E-04 11165   0.292E-02    0.498E-02
RMM:  14    -0.634471873892E+03   -0.47508E-05   -0.14161E-04  9990   0.199E-02    0.391E-02
RMM:  15    -0.634471873634E+03    0.25734E-06   -0.73740E-05  8384   0.174E-02
  34 F= -.63447187E+03 E0= -.63439357E+03  d E =-.327718E-01
 curvature:  -1.76 expect dE=-0.101E+00 dE for cont linesearch -0.433E-04
 trial: gam= 1.22759 g(F)=  0.292E-01 g(S)=  0.280E-01 ort = 0.171E-02 (trialstep = 0.308E+00)
 search vector abs. value=  0.241E+00
 bond charge predicted
       N       E                     dE             d eps       ncg     rms          rms(c)
DAV:   1    -0.634348939427E+03    0.12293E+00   -0.48962E+00  8880   0.138E+01    0.113E+00
RMM:   2    -0.634594026482E+03   -0.24509E+00   -0.17429E+00 12834   0.317E+00    0.345E+00
RMM:   3    -0.634518416449E+03    0.75610E-01   -0.16452E-01 11304   0.111E+00    0.236E+00
RMM:   4    -0.634492195630E+03    0.26221E-01   -0.34715E-02 11545   0.499E-01    0.814E-01
RMM:   5    -0.634492493550E+03   -0.29792E-03   -0.11803E-02 11373   0.293E-01    0.851E-01
RMM:   6    -0.634488665272E+03    0.38283E-02   -0.41480E-03 11751   0.173E-01    0.404E-01
RMM:   7    -0.634488341000E+03    0.32427E-03   -0.22209E-03 11092   0.120E-01    0.364E-01
RMM:   8    -0.634488394549E+03   -0.53549E-04   -0.26853E-03 11734   0.160E-01    0.388E-01
RMM:   9    -0.634487574391E+03    0.82016E-03   -0.18042E-03 12447   0.114E-01    0.228E-01
RMM:  10    -0.634487569153E+03    0.52382E-05   -0.72882E-04 11292   0.764E-02    0.222E-01
RMM:  11    -0.634487360341E+03    0.20881E-03   -0.43943E-04 11852   0.497E-02    0.956E-02
RMM:  12    -0.634487339007E+03    0.21334E-04   -0.23990E-04 10450   0.293E-02    0.464E-02
RMM:  13    -0.634487348858E+03   -0.98515E-05   -0.10981E-04  9493   0.181E-02    0.364E-02
RMM:  14    -0.634487350648E+03   -0.17896E-05   -0.43288E-05  6679   0.160E-02
  35 F= -.63448735E+03 E0= -.63440910E+03  d E =-.154770E-01
 trial-energy change:   -0.015477  1 .order   -0.015335   -0.018250   -0.012421
 step:   0.7852(harm=  0.9631)  dis= 0.03929  next Energy=  -634.497521 (dE=-0.256E-01)
 bond charge predicted
       N       E                     dE             d eps       ncg     rms          rms(c)
DAV:   1    -0.634188038596E+03    0.29931E+00   -0.12063E+01  9144   0.213E+01    0.174E+00
RMM:   2    -0.634765520916E+03   -0.57748E+00   -0.40397E+00 12757   0.479E+00    0.535E+00
RMM:   3    -0.634570286280E+03    0.19523E+00   -0.35409E-01 11191   0.172E+00    0.351E+00
RMM:   4    -0.634510286614E+03    0.60000E-01   -0.85473E-02 11706   0.766E-01    0.123E+00
RMM:   5    -0.634511248305E+03   -0.96169E-03   -0.27105E-02 11384   0.444E-01    0.132E+00
RMM:   6    -0.634502102353E+03    0.91460E-02   -0.10011E-02 11882   0.260E-01    0.628E-01
RMM:   7    -0.634501302725E+03    0.79963E-03   -0.50525E-03 11271   0.185E-01    0.561E-01
RMM:   8    -0.634501673532E+03   -0.37081E-03   -0.67424E-03 12160   0.243E-01    0.641E-01
RMM:   9    -0.634499645004E+03    0.20285E-02   -0.38627E-03 12184   0.181E-01    0.393E-01
RMM:  10    -0.634499375888E+03    0.26912E-03   -0.20742E-03 12076   0.120E-01    0.286E-01
RMM:  11    -0.634499067148E+03    0.30874E-03   -0.10421E-03 12384   0.735E-02    0.163E-01
RMM:  12    -0.634498984667E+03    0.82480E-04   -0.56632E-04 11656   0.454E-02    0.674E-02
RMM:  13    -0.634499012686E+03   -0.28019E-04   -0.25702E-04 11288   0.259E-02    0.601E-02
RMM:  14    -0.634499018887E+03   -0.62010E-05   -0.10691E-04  9498   0.227E-02    0.517E-02
RMM:  15    -0.634499035361E+03   -0.16474E-04   -0.71200E-05  8950   0.214E-02    0.532E-02
RMM:  16    -0.634499042834E+03   -0.74736E-05   -0.62475E-05  9226   0.190E-02
  36 F= -.63449904E+03 E0= -.63442098E+03  d E =-.271692E-01
 curvature:  -1.81 expect dE=-0.833E-01 dE for cont linesearch -0.388E-03
 trial: gam= 0.63259 g(F)=  0.340E-01 g(S)=  0.119E-01 ort = 0.718E-02 (trialstep = 0.403E+00)
 search vector abs. value=  0.151E+00
 bond charge predicted
       N       E                     dE             d eps       ncg     rms          rms(c)
DAV:   1    -0.634385677366E+03    0.11336E+00   -0.52654E+00  8736   0.134E+01    0.657E-01
RMM:   2    -0.634538096604E+03   -0.15242E+00   -0.13507E+00 13020   0.280E+00    0.186E+00
RMM:   3    -0.634525051866E+03    0.13045E-01   -0.11030E-01 11665   0.794E-01    0.128E+00
RMM:   4    -0.634519692069E+03    0.53598E-02   -0.16367E-02 11532   0.329E-01    0.696E-01
RMM:   5    -0.634518217443E+03    0.14746E-02   -0.49747E-03 11021   0.195E-01    0.499E-01
RMM:   6    -0.634516794586E+03    0.14229E-02   -0.22827E-03 11307   0.111E-01    0.262E-01
RMM:   7    -0.634516823052E+03   -0.28466E-04   -0.12989E-03 10716   0.907E-02    0.285E-01
RMM:   8    -0.634516847693E+03   -0.24641E-04   -0.18359E-03 11465   0.111E-01    0.309E-01
RMM:   9    -0.634516157557E+03    0.69014E-03   -0.11381E-03 11676   0.810E-02    0.111E-01
RMM:  10    -0.634516199023E+03   -0.41466E-04   -0.33043E-04 10271   0.501E-02    0.146E-01
RMM:  11    -0.634516116623E+03    0.82400E-04   -0.17196E-04  8971   0.320E-02    0.435E-02
RMM:  12    -0.634516111716E+03    0.49071E-05   -0.81730E-05  7026   0.201E-02
  37 F= -.63451611E+03 E0= -.63443802E+03  d E =-.170689E-01
 trial-energy change:   -0.017069  1 .order   -0.016966   -0.020355   -0.013577
 step:   1.0553(harm=  1.2108)  dis= 0.04023  next Energy=  -634.527528 (dE=-0.285E-01)
 bond charge predicted
       N       E                     dE             d eps       ncg     rms          rms(c)
DAV:   1    -0.634199295377E+03    0.31682E+00   -0.13989E+01  8856   0.216E+01    0.105E+00
RMM:   2    -0.634578653985E+03   -0.37936E+00   -0.34336E+00 12996   0.443E+00    0.266E+00
RMM:   3    -0.634550443017E+03    0.28211E-01   -0.26306E-01 11648   0.126E+00    0.198E+00
RMM:   4    -0.634537803922E+03    0.12639E-01   -0.41264E-02 11723   0.519E-01    0.113E+00
RMM:   5    -0.634534179830E+03    0.36241E-02   -0.12534E-02 11187   0.310E-01    0.843E-01
RMM:   6    -0.634530361186E+03    0.38186E-02   -0.62852E-03 11552   0.185E-01    0.431E-01
RMM:   7    -0.634530443763E+03   -0.82577E-04   -0.34926E-03 11101   0.145E-01    0.465E-01
RMM:   8    -0.634530498825E+03   -0.55062E-04   -0.46284E-03 11736   0.174E-01    0.494E-01
RMM:   9    -0.634528670412E+03    0.18284E-02   -0.29344E-03 12261   0.129E-01    0.140E-01
RMM:  10    -0.634528868267E+03   -0.19785E-03   -0.96925E-04 11570   0.736E-02    0.236E-01
RMM:  11    -0.634528640696E+03    0.22757E-03   -0.45380E-04 10889   0.526E-02    0.895E-02
RMM:  12    -0.634528628757E+03    0.11939E-04   -0.25019E-04  9996   0.309E-02    0.753E-02
RMM:  13    -0.634528626021E+03    0.27366E-05   -0.11892E-04  7457   0.243E-02    0.629E-02
RMM:  14    -0.634528610015E+03    0.16005E-04   -0.68374E-05  7043   0.216E-02    0.236E-02
RMM:  15    -0.634528620097E+03   -0.10081E-04   -0.44380E-05  6485   0.169E-02    0.421E-02
RMM:  16    -0.634528612555E+03    0.75413E-05   -0.23521E-05  5858   0.199E-02
  38 F= -.63452861E+03 E0= -.63445058E+03  d E =-.295697E-01
 curvature:  -1.75 expect dE=-0.403E-01 dE for cont linesearch -0.953E-04
 trial: gam= 0.39816 g(F)=  0.203E-01 g(S)=  0.274E-02 ort = 0.287E-02 (trialstep = 0.534E+00)
 search vector abs. value=  0.493E-01
 bond charge predicted
       N       E                     dE             d eps       ncg     rms          rms(c)
DAV:   1    -0.634486829242E+03    0.41791E-01   -0.27923E+00  9072   0.912E+00    0.463E-01
RMM:   2    -0.634547695246E+03   -0.60866E-01   -0.57190E-01 12930   0.183E+00    0.935E-01
RMM:   3    -0.634543121864E+03    0.45734E-02   -0.37736E-02 11776   0.538E-01    0.821E-01
RMM:   4    -0.634540762620E+03    0.23592E-02   -0.77482E-03 11499   0.233E-01    0.418E-01
RMM:   5    -0.634540188251E+03    0.57437E-03   -0.23945E-03 11177   0.130E-01    0.377E-01
RMM:   6    -0.634539504355E+03    0.68390E-03   -0.97837E-04 10644   0.829E-02    0.205E-01
RMM:   7    -0.634539660680E+03   -0.15633E-03   -0.95865E-04 10841   0.767E-02    0.263E-01
RMM:   8    -0.634539610175E+03    0.50505E-04   -0.92709E-04 10486   0.921E-02    0.284E-01
RMM:   9    -0.634539204621E+03    0.40555E-03   -0.45377E-04 10171   0.646E-02    0.105E-01
RMM:  10    -0.634539199257E+03    0.53640E-05   -0.23336E-04  8695   0.404E-02    0.909E-02
RMM:  11    -0.634539165217E+03    0.34040E-04   -0.10518E-04  7425   0.242E-02    0.354E-02
RMM:  12    -0.634539167863E+03   -0.26463E-05   -0.54923E-05  6289   0.208E-02
  39 F= -.63453917E+03 E0= -.63446107E+03  d E =-.105553E-01
 trial-energy change:   -0.010555  1 .order   -0.010348   -0.012889   -0.007806
 step:   1.0810(harm=  1.3530)  dis= 0.01569  next Energy=  -634.543396 (dE=-0.148E-01)
 bond charge predicted
       N       E                     dE             d eps       ncg     rms          rms(c)
DAV:   1    -0.634489182385E+03    0.49983E-01   -0.29419E+00  9072   0.936E+00    0.481E-01
RMM:   2    -0.634554094245E+03   -0.64912E-01   -0.60572E-01 12924   0.188E+00    0.998E-01
RMM:   3    -0.634548635435E+03    0.54588E-02   -0.40312E-02 11747   0.560E-01    0.841E-01
RMM:   4    -0.634546161638E+03    0.24738E-02   -0.85130E-03 11558   0.241E-01    0.422E-01
RMM:   5    -0.634545526957E+03    0.63468E-03   -0.26151E-03 11334   0.134E-01    0.372E-01
RMM:   6    -0.634544866539E+03    0.66042E-03   -0.10643E-03 10807   0.846E-02    0.216E-01
RMM:   7    -0.634545024777E+03   -0.15824E-03   -0.99082E-04 10840   0.787E-02    0.272E-01
RMM:   8    -0.634544977315E+03    0.47461E-04   -0.97466E-04 10488   0.949E-02    0.288E-01
RMM:   9    -0.634544555262E+03    0.42205E-03   -0.50372E-04 10425   0.666E-02    0.115E-01
RMM:  10    -0.634544543921E+03    0.11341E-04   -0.24970E-04  8943   0.426E-02    0.971E-02
RMM:  11    -0.634544507840E+03    0.36081E-04   -0.11815E-04  7717   0.246E-02    0.389E-02
RMM:  12    -0.634544509248E+03   -0.14076E-05   -0.63302E-05  6409   0.213E-02
  40 F= -.63454451E+03 E0= -.63446636E+03  d E =-.158967E-01
 curvature:  -1.23 expect dE=-0.126E-01 dE for cont linesearch -0.478E-03
 ZBRENT: extrapolating
 opt :   1.3148  next Energy=  -634.545021 (dE=-0.164E-01)
 bond charge predicted
       N       E                     dE             d eps       ncg     rms          rms(c)
DAV:   1    -0.634534926949E+03    0.95809E-02   -0.53776E-01  9552   0.400E+00    0.207E-01
RMM:   2    -0.634546966669E+03   -0.12040E-01   -0.11085E-01 12909   0.805E-01    0.461E-01
RMM:   3    -0.634545821030E+03    0.11456E-02   -0.75741E-03 11412   0.244E-01    0.363E-01
RMM:   4    -0.634545346411E+03    0.47462E-03   -0.16117E-03 10636   0.110E-01    0.179E-01
RMM:   5    -0.634545256915E+03    0.89496E-04   -0.51115E-04 10068   0.637E-02    0.170E-01
RMM:   6    -0.634545116594E+03    0.14032E-03   -0.20537E-04  8859   0.408E-02    0.907E-02
RMM:   7    -0.634545148878E+03   -0.32284E-04   -0.19038E-04  9003   0.356E-02    0.117E-01
RMM:   8    -0.634545134760E+03    0.14118E-04   -0.19968E-04  9221   0.440E-02    0.115E-01
RMM:   9    -0.634545069331E+03    0.65429E-04   -0.92593E-05  7736   0.313E-02    0.582E-02
RMM:  10    -0.634545061283E+03    0.80481E-05   -0.44281E-05  6121   0.223E-02
  41 F= -.63454506E+03 E0= -.63446688E+03  d E =-.164487E-01
 curvature:  -1.32 expect dE=-0.172E-01 dE for cont linesearch -0.405E-05
 trial: gam= 0.51953 g(F)=  0.894E-02 g(S)=  0.413E-02 ort = 0.389E-03 (trialstep = 0.690E+00)
 search vector abs. value=  0.268E-01
 bond charge predicted
       N       E                     dE             d eps       ncg     rms          rms(c)
DAV:   1    -0.634512359765E+03    0.32710E-01   -0.24327E+00 10704   0.887E+00    0.910E-01
RMM:   2    -0.634631298898E+03   -0.11894E+00   -0.68887E-01 12305   0.208E+00    0.280E+00
RMM:   3    -0.634566460653E+03    0.64838E-01   -0.60063E-02 11062   0.872E-01    0.155E+00
[...]
RMM:  10    -0.634561539501E+03    0.10782E-04   -0.24402E-05  5619   0.226E-02    0.259E-02
RMM:  11    -0.634561539062E+03    0.43866E-06   -0.11236E-05  5461   0.141E-02
  55 F= -.63456154E+03 E0= -.63448356E+03  d E =-.387352E-03
 trial-energy change:   -0.000387  1 .order   -0.000369   -0.000513   -0.000225
 step:   1.0547(harm=  1.0547)  dis= 0.00205  next Energy=  -634.561609 (dE=-0.457E-03)
 bond charge predicted
       N       E                     dE             d eps       ncg     rms          rms(c)
DAV:   1    -0.634560922819E+03    0.61668E-03   -0.59312E-02 10992   0.137E+00    0.180E-01
RMM:   2    -0.634565217632E+03   -0.42948E-02   -0.16057E-02 11887   0.374E-01    0.650E-01
RMM:   3    -0.634562209385E+03    0.30082E-02   -0.21754E-03 10020   0.171E-01    0.293E-01
RMM:   4    -0.634561697484E+03    0.51190E-03   -0.74760E-04 10136   0.799E-02    0.109E-01
RMM:   5    -0.634561690776E+03    0.67074E-05   -0.20584E-04  8921   0.449E-02    0.113E-01
RMM:   6    -0.634561633349E+03    0.57427E-04   -0.99514E-05  7875   0.317E-02    0.790E-02
RMM:   7    -0.634561612668E+03    0.20681E-04   -0.47375E-05  6288   0.267E-02    0.560E-02
RMM:   8    -0.634561615966E+03   -0.32980E-05   -0.48585E-05  6487   0.267E-02
  56 F= -.63456162E+03 E0= -.63448364E+03  d E =-.464256E-03
 curvature:  -0.86 expect dE=-0.763E-03 dE for cont linesearch -0.546E-06
 trial: gam= 1.21458 g(F)=  0.719E-03 g(S)=  0.166E-03 ort =-0.299E-04 (trialstep = 0.334E+00)
 search vector abs. value=  0.290E-02
 bond charge predicted
       N       E                     dE             d eps       ncg     rms          rms(c)
DAV:   1    -0.634560383447E+03    0.12292E-02   -0.67214E-02  9072   0.152E+00    0.839E-02
RMM:   2    -0.634562556187E+03   -0.21727E-02   -0.16014E-02 12902   0.313E-01    0.318E-01
RMM:   3    -0.634561945244E+03    0.61094E-03   -0.10642E-03  9739   0.106E-01    0.139E-01
RMM:   4    -0.634561876056E+03    0.69188E-04   -0.31439E-04  9615   0.475E-02    0.824E-02
RMM:   5    -0.634561862892E+03    0.13164E-04   -0.64718E-05  6750   0.279E-02    0.701E-02
RMM:   6    -0.634561838643E+03    0.24249E-04   -0.31586E-05  6009   0.217E-02    0.301E-02
RMM:   7    -0.634561837819E+03    0.82426E-06   -0.17330E-05  5715   0.146E-02
  57 F= -.63456184E+03 E0= -.63448392E+03  d E =-.221853E-03
 ZBRENT: can't locate minimum, use default step
 trial-energy change:   -0.000222  1 .order   -0.000253   -0.000284   -0.000222
 step:   1.3372(harm=  1.5398)  dis= 0.00449  next Energy=  -634.562269 (dE=-0.653E-03)
 bond charge predicted
       N       E                     dE             d eps       ncg     rms          rms(c)
DAV:   1    -0.634549249589E+03    0.12589E-01   -0.60647E-01  9072   0.456E+00    0.254E-01
RMM:   2    -0.634569379721E+03   -0.20130E-01   -0.14518E-01 13073   0.949E-01    0.996E-01
RMM:   3    -0.634563182913E+03    0.61968E-02   -0.95476E-03 10922   0.308E-01    0.396E-01
RMM:   4    -0.634562584397E+03    0.59852E-03   -0.28442E-03 11088   0.131E-01    0.223E-01
RMM:   5    -0.634562472988E+03    0.11141E-03   -0.68982E-04 10283   0.716E-02    0.199E-01
RMM:   6    -0.634562283506E+03    0.18948E-03   -0.30947E-04  9570   0.498E-02    0.110E-01
RMM:   7    -0.634562245248E+03    0.38258E-04   -0.16637E-04  8617   0.334E-02    0.785E-02
RMM:   8    -0.634562298898E+03   -0.53650E-04   -0.19654E-04  9608   0.407E-02    0.129E-01
RMM:   9    -0.634562225586E+03    0.73311E-04   -0.15066E-04  9451   0.384E-02    0.906E-02
RMM:  10    -0.634562192061E+03    0.33526E-04   -0.54189E-05  6553   0.241E-02    0.308E-02
RMM:  11    -0.634562192391E+03   -0.32995E-06   -0.36165E-05  6344   0.186E-02
  58 F= -.63456219E+03 E0= -.63448434E+03  d E =-.576425E-03
 curvature:  -2.56 expect dE=-0.437E-02 dE for cont linesearch -0.189E-04
 trial: gam= 1.06896 g(F)=  0.506E-03 g(S)=  0.120E-02 ort = 0.146E-03 (trialstep = 0.291E+00)
 search vector abs. value=  0.534E-02
 bond charge predicted
       N       E                     dE             d eps       ncg     rms          rms(c)
DAV:   1    -0.634561251873E+03    0.94019E-03   -0.96905E-02 11568   0.188E+00    0.232E-01
RMM:   2    -0.634567445155E+03   -0.61933E-02   -0.29518E-02 12150   0.490E-01    0.696E-01
RMM:   3    -0.634563553852E+03    0.38913E-02   -0.36002E-03 10520   0.215E-01    0.381E-01
RMM:   4    -0.634562747581E+03    0.80627E-03   -0.11001E-03 10699   0.972E-02    0.140E-01
RMM:   5    -0.634562755793E+03   -0.82121E-05   -0.34221E-04 10048   0.584E-02    0.157E-01
RMM:   6    -0.634562641306E+03    0.11449E-03   -0.15862E-04  9023   0.412E-02    0.100E-01
RMM:   7    -0.634562610442E+03    0.30864E-04   -0.77685E-05  7249   0.340E-02    0.750E-02
RMM:   8    -0.634562614842E+03   -0.43998E-05   -0.87743E-05  7650   0.330E-02
  59 F= -.63456261E+03 E0= -.63448477E+03  d E =-.422451E-03
 trial-energy change:   -0.000422  1 .order   -0.000403   -0.000542   -0.000264
 step:   0.5671(harm=  0.5671)  dis= 0.00275  next Energy=  -634.562721 (dE=-0.529E-03)
 bond charge predicted
       N       E                     dE             d eps       ncg     rms          rms(c)
DAV:   1    -0.634561493623E+03    0.11168E-02   -0.86571E-02 11664   0.179E+00    0.227E-01
RMM:   2    -0.634568162950E+03   -0.66693E-02   -0.26459E-02 11918   0.468E-01    0.807E-01
RMM:   3    -0.634563820233E+03    0.43427E-02   -0.36210E-03 10201   0.217E-01    0.426E-01
RMM:   4    -0.634562855924E+03    0.96431E-03   -0.11002E-03 10084   0.103E-01    0.164E-01
RMM:   5    -0.634562802161E+03    0.53762E-04   -0.33791E-04  9658   0.557E-02    0.132E-01
RMM:   6    -0.634562735199E+03    0.66962E-04   -0.15443E-04  8957   0.380E-02    0.101E-01
RMM:   7    -0.634562688334E+03    0.46865E-04   -0.69988E-05  6885   0.334E-02    0.579E-02
RMM:   8    -0.634562705577E+03   -0.17243E-04   -0.83129E-05  7721   0.302E-02    0.785E-02
RMM:   9    -0.634562674990E+03    0.30587E-04   -0.41611E-05  6359   0.266E-02    0.433E-02
RMM:  10    -0.634562669745E+03    0.52452E-05   -0.24768E-05  5753   0.210E-02
  60 F= -.63456267E+03 E0= -.63448478E+03  d E =-.477354E-03
 curvature:  -0.81 expect dE=-0.573E-03 dE for cont linesearch -0.517E-05
 ZBRENT: interpolating
 opt :   0.5204  next Energy=  -634.562674 (dE=-0.482E-03)
 bond charge predicted
       N       E                     dE             d eps       ncg     rms          rms(c)
DAV:   1    -0.634562638157E+03    0.36833E-04   -0.25876E-03 11784   0.307E-01    0.446E-02
RMM:   2    -0.634562942060E+03   -0.30390E-03   -0.87454E-04 11434   0.887E-02    0.203E-01
RMM:   3    -0.634562705853E+03    0.23621E-03   -0.14355E-04  7893   0.504E-02    0.741E-02
RMM:   4    -0.634562673501E+03    0.32352E-04   -0.35615E-05  6111   0.246E-02    0.325E-02
RMM:   5    -0.634562671522E+03    0.19791E-05   -0.14308E-05  5309   0.190E-02
  61 F= -.63456267E+03 E0= -.63448477E+03  d E =-.479131E-03
 curvature:  -0.67 expect dE=-0.484E-03 dE for cont linesearch -0.106E-06
 trial: gam= 0.62138 g(F)=  0.360E-03 g(S)=  0.357E-03 ort =-0.290E-04 (trialstep = 0.337E+00)
 search vector abs. value=  0.274E-02
 bond charge predicted
       N       E                     dE             d eps       ncg     rms          rms(c)
DAV:   1    -0.634560864928E+03    0.18086E-02   -0.71577E-02  9312   0.178E+00    0.719E-02
RMM:   2    -0.634562962629E+03   -0.20977E-02   -0.20617E-02 12730   0.344E-01    0.125E-01
RMM:   3    -0.634562912957E+03    0.49672E-04   -0.11667E-03 10256   0.890E-02    0.126E-01
RMM:   4    -0.634562872497E+03    0.40460E-04   -0.20218E-04  8284   0.430E-02    0.747E-02
RMM:   5    -0.634562842515E+03    0.29982E-04   -0.43159E-05  6118   0.245E-02    0.484E-02
RMM:   6    -0.634562832999E+03    0.95154E-05   -0.22650E-05  5865   0.189E-02
  62 F= -.63456283E+03 E0= -.63448493E+03  d E =-.161477E-03
 trial-energy change:   -0.000161  1 .order   -0.000178   -0.000236   -0.000121
 step:   0.6913(harm=  0.6913)  dis= 0.00287  next Energy=  -634.562913 (dE=-0.242E-03)
 bond charge predicted
       N       E                     dE             d eps       ncg     rms          rms(c)
DAV:   1    -0.634560768285E+03    0.20742E-02   -0.79429E-02  9288   0.187E+00    0.728E-02
RMM:   2    -0.634563182983E+03   -0.24147E-02   -0.22822E-02 12648   0.362E-01    0.187E-01
RMM:   3    -0.634562996117E+03    0.18687E-03   -0.13049E-03 10304   0.957E-02    0.102E-01
RMM:   4    -0.634563012586E+03   -0.16470E-04   -0.24370E-04  8629   0.441E-02    0.107E-01
RMM:   5    -0.634562952192E+03    0.60395E-04   -0.47827E-05  6208   0.265E-02    0.423E-02
RMM:   6    -0.634562947962E+03    0.42302E-05   -0.33061E-05  6259   0.190E-02
  63 F= -.63456295E+03 E0= -.63448507E+03  d E =-.276440E-03
 curvature:  -1.36 expect dE=-0.923E-03 dE for cont linesearch -0.291E-04
 ZBRENT: increasing intervall
 opt :   1.4002  next Energy=  -634.563038 (dE=-0.366E-03)
 bond charge predicted
       N       E                     dE             d eps       ncg     rms          rms(c)
DAV:   1    -0.634554385135E+03    0.85671E-02   -0.31841E-01  9336   0.375E+00    0.142E-01
RMM:   2    -0.634563821439E+03   -0.94363E-02   -0.90207E-02 12676   0.722E-01    0.361E-01
RMM:   3    -0.634563228477E+03    0.59296E-03   -0.53143E-03 11415   0.187E-01    0.213E-01
RMM:   4    -0.634563284985E+03   -0.56508E-04   -0.90013E-04 10051   0.837E-02    0.220E-01
RMM:   5    -0.634563016821E+03    0.26816E-03   -0.20228E-04  7784   0.492E-02    0.645E-02
RMM:   6    -0.634563016225E+03    0.59580E-06   -0.15396E-04  8468   0.285E-02    0.690E-02
RMM:   7    -0.634563040990E+03   -0.24765E-04   -0.88692E-05  7558   0.294E-02    0.106E-01
RMM:   8    -0.634562990713E+03    0.50277E-04   -0.14700E-04  9090   0.302E-02    0.538E-02
RMM:   9    -0.634562979231E+03    0.11482E-04   -0.32317E-05  5978   0.209E-02    0.339E-02
RMM:  10    -0.634562977090E+03    0.21410E-05   -0.18384E-05  5707   0.162E-02
  64 F= -.63456298E+03 E0= -.63448517E+03  d E =-.305568E-03
 curvature:  -4.18 expect dE=-0.393E-02 dE for cont linesearch -0.145E-04
 trial: gam= 0.91033 g(F)=  0.586E-03 g(S)=  0.356E-03 ort =-0.977E-04 (trialstep = 0.496E+00)
 search vector abs. value=  0.304E-02
 bond charge predicted
       N       E                     dE             d eps       ncg     rms          rms(c)
DAV:   1    -0.634559472334E+03    0.35069E-02   -0.16546E-01  9432   0.259E+00    0.189E-01
RMM:   2    -0.634566401370E+03   -0.69290E-02   -0.47938E-02 13190   0.511E-01    0.596E-01
RMM:   3    -0.634563870573E+03    0.25308E-02   -0.33623E-03 10552   0.203E-01    0.302E-01
RMM:   4    -0.634563433562E+03    0.43701E-03   -0.12014E-03 10621   0.911E-02    0.134E-01
RMM:   5    -0.634563439066E+03   -0.55041E-05   -0.32698E-04  9394   0.540E-02    0.155E-01
RMM:   6    -0.634563313343E+03    0.12572E-03   -0.13956E-04  8055   0.382E-02    0.788E-02
RMM:   7    -0.634563304272E+03    0.90705E-05   -0.76920E-05  7014   0.286E-02
  65 F= -.63456330E+03 E0= -.63448559E+03  d E =-.327182E-03
 ZBRENT: can't locate minimum, use default step
 trial-energy change:   -0.000327  1 .order   -0.000381   -0.000423   -0.000339
 step:   1.9849(harm=  2.4854)  dis= 0.00728  next Energy=  -634.564037 (dE=-0.106E-02)
 bond charge predicted
       N       E                     dE             d eps       ncg     rms          rms(c)
DAV:   1    -0.634528442784E+03    0.34871E-01   -0.14787E+00  9360   0.779E+00    0.564E-01
RMM:   2    -0.634590693889E+03   -0.62251E-01   -0.43415E-01 13171   0.155E+00    0.175E+00
RMM:   3    -0.634568067657E+03    0.22626E-01   -0.31022E-02 11068   0.604E-01    0.901E-01
RMM:   4    -0.634564172217E+03    0.38954E-02   -0.10346E-02 11378   0.258E-01    0.389E-01
RMM:   5    -0.634564235823E+03   -0.63607E-04   -0.32592E-03 11330   0.150E-01    0.456E-01
RMM:   6    -0.634563209490E+03    0.10263E-02   -0.13220E-03 11037   0.108E-01    0.260E-01
RMM:   7    -0.634563047826E+03    0.16166E-03   -0.81357E-04 10441   0.772E-02    0.212E-01
RMM:   8    -0.634563208888E+03   -0.16106E-03   -0.80555E-04 10947   0.916E-02    0.258E-01
RMM:   9    -0.634562798341E+03    0.41055E-03   -0.56882E-04 11324   0.670E-02    0.112E-01
RMM:  10    -0.634562798304E+03    0.37253E-07   -0.21435E-04  9866   0.414E-02    0.107E-01
RMM:  11    -0.634562758419E+03    0.39885E-04   -0.11710E-04  8741   0.266E-02    0.392E-02
RMM:  12    -0.634562758525E+03   -0.10587E-06   -0.60149E-05  6578   0.192E-02
  66 F= -.63456276E+03 E0= -.63448517E+03  d E =0.218565E-03
 curvature:  -4.14 expect dE=-0.173E-01 dE for cont linesearch -0.151E-02
 ZBRENT: interpolating
 opt :   1.0822  next Energy=  -634.563504 (dE=-0.527E-03)
 bond charge predicted
       N       E                     dE             d eps       ncg     rms          rms(c)
DAV:   1    -0.634551185668E+03    0.11573E-01   -0.55100E-01  9576   0.474E+00    0.338E-01
RMM:   2    -0.634572483885E+03   -0.21298E-01   -0.15448E-01 13328   0.910E-01    0.986E-01
RMM:   3    -0.634565247614E+03    0.72363E-02   -0.98440E-03 11015   0.353E-01    0.529E-01
RMM:   4    -0.634563858014E+03    0.13896E-02   -0.35199E-03 11493   0.150E-01    0.221E-01
RMM:   5    -0.634563890883E+03   -0.32869E-04   -0.93724E-04 10439   0.931E-02    0.273E-01
RMM:   6    -0.634563460432E+03    0.43045E-03   -0.42376E-04 10219   0.661E-02    0.126E-01
RMM:   7    -0.634563489249E+03   -0.28817E-04   -0.25682E-04  9483   0.487E-02    0.160E-01
RMM:   8    -0.634563457141E+03    0.32107E-04   -0.27408E-04  9733   0.555E-02    0.135E-01
RMM:   9    -0.634563342777E+03    0.11436E-03   -0.17047E-04  9332   0.388E-02    0.480E-02
RMM:  10    -0.634563350042E+03   -0.72650E-05   -0.65171E-05  6455   0.260E-02
  67 F= -.63456335E+03 E0= -.63448565E+03  d E =-.372952E-03
 curvature:  -0.55 expect dE=-0.460E-03 dE for cont linesearch -0.491E-05
 ZBRENT: interpolating
 opt :   0.9684  next Energy=  -634.563359 (dE=-0.382E-03)
 bond charge predicted
       N       E                     dE             d eps       ncg     rms          rms(c)
DAV:   1    -0.634563168920E+03    0.17386E-03   -0.90039E-03 11856   0.598E-01    0.499E-02
RMM:   2    -0.634563729935E+03   -0.56102E-03   -0.24965E-03 11487   0.119E-01    0.254E-01
RMM:   3    -0.634563388300E+03    0.34164E-03   -0.23962E-04  7921   0.632E-02    0.855E-02
RMM:   4    -0.634563355456E+03    0.32844E-04   -0.76306E-05  7037   0.300E-02    0.428E-02
RMM:   5    -0.634563351454E+03    0.40020E-05   -0.29386E-05  5892   0.205E-02
  68 F= -.63456335E+03 E0= -.63448563E+03  d E =-.374364E-03
 curvature:  -1.05 expect dE=-0.115E-02 dE for cont linesearch -0.783E-06
 trial: gam= 1.28783 g(F)=  0.328E-03 g(S)=  0.770E-03 ort = 0.476E-04 (trialstep = 0.287E+00)
 search vector abs. value=  0.626E-02
 bond charge predicted
       N       E                     dE             d eps       ncg     rms          rms(c)
DAV:   1    -0.634560684445E+03    0.26710E-02   -0.11701E-01  9816   0.220E+00    0.138E-01
RMM:   2    -0.634564576376E+03   -0.38919E-02   -0.33171E-02 13035   0.407E-01    0.309E-01
RMM:   3    -0.634563823166E+03    0.75321E-03   -0.19424E-03 10391   0.149E-01    0.227E-01
RMM:   4    -0.634563604293E+03    0.21887E-03   -0.58366E-04  9940   0.697E-02    0.877E-02
RMM:   5    -0.634563600109E+03    0.41839E-05   -0.17730E-04  8040   0.389E-02    0.102E-01
RMM:   6    -0.634563545409E+03    0.54700E-04   -0.39842E-05  5902   0.258E-02    0.457E-02
RMM:   7    -0.634563548245E+03   -0.28362E-05   -0.39385E-05  6092   0.221E-02
  69 F= -.63456355E+03 E0= -.63448584E+03  d E =-.196791E-03
 trial-energy change:   -0.000197  1 .order   -0.000266   -0.000332   -0.000200
 step:   0.7185(harm=  0.7185)  dis= 0.00371  next Energy=  -634.563768 (dE=-0.416E-03)
 bond charge predicted
       N       E                     dE             d eps       ncg     rms          rms(c)
DAV:   1    -0.634557122255E+03    0.64232E-02   -0.26439E-01  9816   0.329E+00    0.201E-01
RMM:   2    -0.634565858816E+03   -0.87366E-02   -0.75286E-02 13086   0.613E-01    0.448E-01
RMM:   3    -0.634564172554E+03    0.16863E-02   -0.43870E-03 11181   0.205E-01    0.324E-01
RMM:   4    -0.634563806010E+03    0.36654E-03   -0.10782E-03  9958   0.989E-02    0.161E-01
RMM:   5    -0.634563772837E+03    0.33174E-04   -0.47837E-04 10310   0.530E-02    0.151E-01
RMM:   6    -0.634563661317E+03    0.11152E-03   -0.11391E-04  7399   0.389E-02    0.843E-02
RMM:   7    -0.634563639736E+03    0.21581E-04   -0.10104E-04  7646   0.287E-02    0.579E-02
RMM:   8    -0.634563637685E+03    0.20508E-05   -0.15221E-04 10272   0.312E-02    0.747E-02
RMM:   9    -0.634563613887E+03    0.23798E-04   -0.32299E-05  5871   0.242E-02    0.379E-02
RMM:  10    -0.634563613010E+03    0.87632E-06   -0.25577E-05  5882   0.193E-02
  70 F= -.63456361E+03 E0= -.63448596E+03  d E =-.261556E-03
 curvature:  -1.94 expect dE=-0.132E-02 dE for cont linesearch -0.388E-05
 trial: gam= 0.55152 g(F)=  0.403E-03 g(S)=  0.279E-03 ort =-0.112E-03 (trialstep = 0.373E+00)
 search vector abs. value=  0.246E-02
 bond charge predicted
       N       E                     dE             d eps       ncg     rms          rms(c)
DAV:   1    -0.634562083086E+03    0.15308E-02   -0.76229E-02  9672   0.169E+00    0.725E-02
RMM:   2    -0.634563991506E+03   -0.19084E-02   -0.18443E-02 12588   0.318E-01    0.159E-01
RMM:   3    -0.634563842194E+03    0.14931E-03   -0.10253E-03 10400   0.944E-02    0.934E-02
RMM:   4    -0.634563842957E+03   -0.76366E-06   -0.21431E-04  8397   0.445E-02    0.889E-02
RMM:   5    -0.634563806234E+03    0.36724E-04   -0.54465E-05  6235   0.290E-02    0.519E-02
RMM:   6    -0.634563798612E+03    0.76221E-05   -0.33921E-05  6102   0.198E-02
  71 F= -.63456380E+03 E0= -.63448617E+03  d E =-.185601E-03
 trial-energy change:   -0.000186  1 .order   -0.000187   -0.000231   -0.000143
 step:   0.9818(harm=  0.9818)  dis= 0.00316  next Energy=  -634.563917 (dE=-0.304E-03)
 bond charge predicted
       N       E                     dE             d eps       ncg     rms          rms(c)
DAV:   1    -0.634559566172E+03    0.42401E-02   -0.20427E-01  9864   0.276E+00    0.125E-01
RMM:   2    -0.634564866118E+03   -0.52999E-02   -0.46747E-02 12629   0.511E-01    0.402E-01
RMM:   3    -0.634564016002E+03    0.85012E-03   -0.30000E-03 10907   0.172E-01    0.147E-01
RMM:   4    -0.634564186126E+03   -0.17012E-03   -0.75344E-04  9869   0.806E-02    0.217E-01
RMM:   5    -0.634563935660E+03    0.25047E-03   -0.22288E-04  7633   0.474E-02    0.576E-02
RMM:   6    -0.634563964125E+03   -0.28465E-04   -0.13799E-04  7981   0.307E-02    0.921E-02
RMM:   7    -0.634563945990E+03    0.18135E-04   -0.12888E-04  8773   0.311E-02    0.714E-02
RMM:   8    -0.634563915156E+03    0.30834E-04   -0.51189E-05  6834   0.222E-02    0.362E-02
RMM:   9    -0.634563913011E+03    0.21449E-05   -0.23156E-05  5799   0.182E-02
  72 F= -.63456391E+03 E0= -.63448639E+03  d E =-.300001E-03
 curvature:  -1.95 expect dE=-0.374E-03 dE for cont linesearch -0.608E-06
 trial: gam= 0.24333 g(F)=  0.178E-03 g(S)=  0.145E-04 ort = 0.277E-04 (trialstep = 0.495E+00)
 search vector abs. value=  0.351E-03
 bond charge predicted
       N       E                     dE             d eps       ncg     rms          rms(c)
DAV:   1    -0.634563570535E+03    0.34462E-03   -0.17893E-02  9816   0.814E-01    0.392E-02
RMM:   2    -0.634564082873E+03   -0.51234E-03   -0.44666E-03 12489   0.162E-01    0.113E-01
RMM:   3    -0.634564006838E+03    0.76036E-04   -0.23675E-04  8063   0.544E-02    0.657E-02
RMM:   4    -0.634563996126E+03    0.10711E-04   -0.71407E-05  7203   0.268E-02    0.415E-02
RMM:   5    -0.634563992757E+03    0.33694E-05   -0.18896E-05  5613   0.200E-02
  73 F= -.63456399E+03 E0= -.63448652E+03  d E =-.797459E-04
 trial-energy change:   -0.000080  1 .order   -0.000064   -0.000098   -0.000030
 step:   0.7144(harm=  0.7144)  dis= 0.00080  next Energy=  -634.563984 (dE=-0.711E-04)
 reached required accuracy - stopping structural energy minimisation
