  64  64   0   0
  0.2218804E+02  0.1124000E-08  0.1124000E-08  0.1124000E-08  0.5000000E-15
  1.000000000000000E-004
  CAR 
 HECN                                    
     13.96857455    -52.65941214  301      8.12327894      1.00000000
    -52.659  0.0000E+00  0.0000E+00
    -52.437  0.0000E+00  0.0000E+00
    -52.215  0.0000E+00  0.0000E+00
    -51.993  0.0000E+00  0.0000E+00
    -51.771  0.0000E+00  0.0000E+00
    -51.549  0.0000E+00  0.0000E+00
    -51.327  0.0000E+00  0.0000E+00
    -51.105  0.0000E+00  0.0000E+00
    -50.883  0.0000E+00  0.0000E+00
    -50.661  0.0000E+00  0.0000E+00
    -50.438  0.0000E+00  0.0000E+00
    -50.216  0.4999E-17  0.1110E-17
    -49.994  0.1239E-07  0.2753E-08
    -49.772  0.2055E-02  0.4563E-03
    -49.550  0.7725E-01  0.1761E-01
    -49.328  0.2013E+00  0.6232E-01
    -49.106  0.2715E+00  0.1226E+00
    -48.884  0.7795E-01  0.1399E+00
    -48.662  0.3368E-03  0.1400E+00
    -48.440  0.2681E-09  0.1400E+00
    -48.218  0.0000E+00  0.1400E+00
    -47.995  0.0000E+00  0.1400E+00
    -47.773  0.0000E+00  0.1400E+00
    -47.551  0.0000E+00  0.1400E+00
    -47.329  0.0000E+00  0.1400E+00
    -47.107  0.0000E+00  0.1400E+00
    -46.885  0.0000E+00  0.1400E+00
    -46.663  0.0000E+00  0.1400E+00
    -46.441  0.0000E+00  0.1400E+00
    -46.219  0.0000E+00  0.1400E+00
    -45.997  0.0000E+00  0.1400E+00
    -45.775  0.0000E+00  0.1400E+00
    -45.552  0.0000E+00  0.1400E+00
    -45.330  0.0000E+00  0.1400E+00
    -45.108  0.0000E+00  0.1400E+00
    -44.886  0.0000E+00  0.1400E+00
    -44.664  0.0000E+00  0.1400E+00
    -44.442  0.0000E+00  0.1400E+00
    -44.220  0.0000E+00  0.1400E+00
    -43.998  0.0000E+00  0.1400E+00
    -43.776  0.0000E+00  0.1400E+00
    -43.554  0.0000E+00  0.1400E+00
    -43.331  0.0000E+00  0.1400E+00
    -43.109  0.0000E+00  0.1400E+00
    -42.887  0.0000E+00  0.1400E+00
    -42.665  0.0000E+00  0.1400E+00
    -42.443  0.0000E+00  0.1400E+00
    -42.221  0.0000E+00  0.1400E+00
    -41.999  0.0000E+00  0.1400E+00
    -41.777  0.0000E+00  0.1400E+00
    -41.555  0.0000E+00  0.1400E+00
    -41.333  0.0000E+00  0.1400E+00
    -41.111  0.0000E+00  0.1400E+00
    -40.888  0.0000E+00  0.1400E+00
    -40.666  0.0000E+00  0.1400E+00
    -40.444  0.0000E+00  0.1400E+00
    -40.222  0.0000E+00  0.1400E+00
    -40.000  0.0000E+00  0.1400E+00
    -39.778  0.0000E+00  0.1400E+00
    -39.556  0.0000E+00  0.1400E+00
    -39.334  0.0000E+00  0.1400E+00
    -39.112  0.0000E+00  0.1400E+00
    -38.890  0.0000E+00  0.1400E+00
    -38.668  0.0000E+00  0.1400E+00
    -38.445  0.0000E+00  0.1400E+00
    -38.223  0.0000E+00  0.1400E+00
    -38.001  0.0000E+00  0.1400E+00
    -37.779  0.0000E+00  0.1400E+00
    -37.557  0.0000E+00  0.1400E+00
    -37.335  0.0000E+00  0.1400E+00
    -37.113  0.0000E+00  0.1400E+00
    -36.891  0.0000E+00  0.1400E+00
    -36.669  0.0000E+00  0.1400E+00
    -36.447  0.0000E+00  0.1400E+00
    -36.225  0.0000E+00  0.1400E+00
    -36.002  0.0000E+00  0.1400E+00
    -35.780  0.0000E+00  0.1400E+00
    -35.558  0.0000E+00  0.1400E+00
    -35.336  0.0000E+00  0.1400E+00
    -35.114  0.0000E+00  0.1400E+00
    -34.892  0.0000E+00  0.1400E+00
    -34.670  0.0000E+00  0.1400E+00
    -34.448  0.0000E+00  0.1400E+00
    -34.226  0.0000E+00  0.1400E+00
    -34.004  0.0000E+00  0.1400E+00
    -33.781  0.0000E+00  0.1400E+00
    -33.559  0.0000E+00  0.1400E+00
    -33.337  0.0000E+00  0.1400E+00
    -33.115  0.0000E+00  0.1400E+00
    -32.893  0.0000E+00  0.1400E+00
    -32.671  0.0000E+00  0.1400E+00
    -32.449  0.0000E+00  0.1400E+00
    -32.227  0.0000E+00  0.1400E+00
    -32.005  0.0000E+00  0.1400E+00
    -31.783  0.2947E-08  0.1400E+00
    -31.561  0.1092E-02  0.1402E+00
    -31.338  0.1281E+00  0.1687E+00
    -31.116  0.5977E+00  0.3014E+00
    -30.894  0.6795E+00  0.4524E+00
    -30.672  0.2115E+00  0.4993E+00
    -30.450  0.2933E-02  0.5000E+00
    -30.228  0.2360E-07  0.5000E+00
    -30.006  0.2000E-16  0.5000E+00
    -29.784  0.0000E+00  0.5000E+00
    -29.562  0.0000E+00  0.5000E+00
    -29.340  0.0000E+00  0.5000E+00
    -29.118  0.0000E+00  0.5000E+00
    -28.895  0.0000E+00  0.5000E+00
    -28.673  0.0000E+00  0.5000E+00
    -28.451  0.0000E+00  0.5000E+00
    -28.229  0.0000E+00  0.5000E+00
    -28.007  0.0000E+00  0.5000E+00
    -27.785  0.1847E-09  0.5000E+00
    -27.563  0.3200E-03  0.5001E+00
    -27.341  0.1448E+00  0.5322E+00
    -27.119  0.7231E+00  0.6928E+00
    -26.897  0.7010E+00  0.8485E+00
    -26.674  0.5173E-01  0.8600E+00
    -26.452  0.1523E-04  0.8600E+00
    -26.230  0.4134E-03  0.8601E+00
    -26.008  0.1266E+00  0.8882E+00
    -25.786  0.3441E+00  0.9646E+00
    -25.564  0.9560E+00  0.1177E+01
    -25.342  0.4206E+00  0.1270E+01
    -25.120  0.4339E-01  0.1280E+01
    -24.898  0.7729E-05  0.1280E+01
    -24.676  0.1838E-12  0.1280E+01
    -24.454  0.0000E+00  0.1280E+01
    -24.231  0.0000E+00  0.1280E+01
    -24.009  0.0000E+00  0.1280E+01
    -23.787  0.4999E-17  0.1280E+01
    -23.565  0.1340E-07  0.1280E+01
    -23.343  0.2173E-02  0.1280E+01
    -23.121  0.1316E+00  0.1310E+01
    -22.899  0.3910E+00  0.1397E+01
    -22.677  0.2796E+00  0.1459E+01
    -22.455  0.2152E+00  0.1506E+01
    -22.233  0.5826E+00  0.1636E+01
    -22.011  0.1273E+00  0.1664E+01
    -21.788  0.1609E+00  0.1700E+01
    -21.566  0.7899E-03  0.1700E+01
    -21.344  0.7000E-09  0.1700E+01
    -21.122  0.0000E+00  0.1700E+01
    -20.900  0.0000E+00  0.1700E+01
    -20.678  0.0000E+00  0.1700E+01
    -20.456  0.0000E+00  0.1700E+01
    -20.234  0.0000E+00  0.1700E+01
    -20.012  0.0000E+00  0.1700E+01
    -19.790  0.0000E+00  0.1700E+01
    -19.568  0.0000E+00  0.1700E+01
    -19.345  0.0000E+00  0.1700E+01
    -19.123  0.0000E+00  0.1700E+01
    -18.901  0.0000E+00  0.1700E+01
    -18.679  0.0000E+00  0.1700E+01
    -18.457  0.0000E+00  0.1700E+01
    -18.235  0.0000E+00  0.1700E+01
    -18.013  0.0000E+00  0.1700E+01
    -17.791  0.0000E+00  0.1700E+01
    -17.569  0.0000E+00  0.1700E+01
    -17.347  0.0000E+00  0.1700E+01
    -17.124  0.0000E+00  0.1700E+01
    -16.902  0.0000E+00  0.1700E+01
    -16.680  0.0000E+00  0.1700E+01
    -16.458  0.0000E+00  0.1700E+01
    -16.236  0.0000E+00  0.1700E+01
    -16.014  0.0000E+00  0.1700E+01
    -15.792  0.0000E+00  0.1700E+01
    -15.570  0.0000E+00  0.1700E+01
    -15.348  0.0000E+00  0.1700E+01
    -15.126  0.0000E+00  0.1700E+01
    -14.904  0.0000E+00  0.1700E+01
    -14.681  0.0000E+00  0.1700E+01
    -14.459  0.0000E+00  0.1700E+01
    -14.237  0.0000E+00  0.1700E+01
    -14.015  0.0000E+00  0.1700E+01
    -13.793  0.0000E+00  0.1700E+01
    -13.571  0.0000E+00  0.1700E+01
    -13.349  0.0000E+00  0.1700E+01
    -13.127  0.0000E+00  0.1700E+01
    -12.905  0.0000E+00  0.1700E+01
    -12.683  0.0000E+00  0.1700E+01
    -12.461  0.0000E+00  0.1700E+01
    -12.238  0.0000E+00  0.1700E+01
    -12.016  0.0000E+00  0.1700E+01
    -11.794  0.0000E+00  0.1700E+01
    -11.572  0.0000E+00  0.1700E+01
    -11.350  0.0000E+00  0.1700E+01
    -11.128  0.0000E+00  0.1700E+01
    -10.906  0.0000E+00  0.1700E+01
    -10.684  0.0000E+00  0.1700E+01
    -10.462  0.0000E+00  0.1700E+01
    -10.240  0.0000E+00  0.1700E+01
    -10.018  0.0000E+00  0.1700E+01
     -9.795  0.0000E+00  0.1700E+01
     -9.573  0.0000E+00  0.1700E+01
     -9.351  0.0000E+00  0.1700E+01
     -9.129  0.2185E-16  0.1700E+01
     -8.907  0.9532E-08  0.1700E+01
     -8.685  0.4676E-03  0.1700E+01
     -8.463  0.2680E-01  0.1706E+01
     -8.241  0.5896E-01  0.1719E+01
     -8.019  0.4989E-01  0.1730E+01
     -7.797  0.1449E+00  0.1762E+01
     -7.574  0.9929E-01  0.1784E+01
     -7.352  0.9259E-01  0.1805E+01
     -7.130  0.1996E+00  0.1849E+01
     -6.908  0.1690E+00  0.1887E+01
     -6.686  0.2066E+00  0.1933E+01
     -6.464  0.1218E+00  0.1960E+01
     -6.242  0.9095E-03  0.1960E+01
     -6.020  0.2893E-08  0.1960E+01
     -5.798  0.0000E+00  0.1960E+01
     -5.576  0.0000E+00  0.1960E+01
     -5.354  0.3141E-09  0.1960E+01
     -5.131  0.1057E-03  0.1960E+01
     -4.909  0.1933E-01  0.1964E+01
     -4.687  0.6222E-01  0.1978E+01
     -4.465  0.2713E-01  0.1984E+01
     -4.243  0.8228E-01  0.2002E+01
     -4.021  0.1069E+00  0.2026E+01
     -3.799  0.1873E+00  0.2068E+01
     -3.577  0.2018E+00  0.2113E+01
     -3.355  0.2312E+00  0.2164E+01
     -3.133  0.2311E+00  0.2215E+01
     -2.911  0.1741E+00  0.2254E+01
     -2.688  0.1998E+00  0.2298E+01
     -2.466  0.1330E+00  0.2328E+01
     -2.244  0.5199E-01  0.2339E+01
     -2.022  0.2722E-02  0.2340E+01
     -1.800  0.3281E-05  0.2340E+01
     -1.578  0.6940E-12  0.2340E+01
     -1.356  0.0000E+00  0.2340E+01
     -1.134  0.0000E+00  0.2340E+01
     -0.912  0.1296E-17  0.2340E+01
     -0.690  0.1991E-08  0.2340E+01
     -0.467  0.2135E-03  0.2340E+01
     -0.245  0.6004E-02  0.2341E+01
     -0.023  0.2819E-01  0.2348E+01
      0.199  0.6986E-01  0.2363E+01
      0.421  0.9052E-01  0.2383E+01
      0.643  0.1189E+00  0.2410E+01
      0.865  0.1704E+00  0.2448E+01
      1.087  0.2134E+00  0.2495E+01
      1.309  0.2733E+00  0.2556E+01
      1.531  0.2579E+00  0.2613E+01
      1.753  0.2554E+00  0.2670E+01
      1.976  0.3094E+00  0.2738E+01
      2.198  0.3251E+00  0.2811E+01
      2.420  0.3404E+00  0.2886E+01
      2.642  0.4153E+00  0.2978E+01
      2.864  0.4821E+00  0.3085E+01
      3.086  0.5484E+00  0.3207E+01
      3.308  0.6073E+00  0.3342E+01
      3.530  0.6348E+00  0.3483E+01
      3.752  0.6188E+00  0.3621E+01
      3.974  0.6026E+00  0.3754E+01
      4.196  0.5044E+00  0.3866E+01
      4.419  0.3979E+00  0.3955E+01
      4.641  0.3066E+00  0.4023E+01
      4.863  0.2655E+00  0.4082E+01
      5.085  0.2866E+00  0.4145E+01
      5.307  0.1862E+00  0.4187E+01
      5.529  0.1769E+00  0.4226E+01
      5.751  0.1140E+00  0.4251E+01
      5.973  0.9453E-01  0.4272E+01
      6.195  0.1589E+00  0.4308E+01
      6.417  0.1666E+00  0.4345E+01
      6.639  0.1723E+00  0.4383E+01
      6.862  0.2066E+00  0.4429E+01
      7.084  0.1576E+00  0.4464E+01
      7.306  0.1833E+00  0.4505E+01
      7.528  0.2099E+00  0.4551E+01
      7.750  0.2341E+00  0.4603E+01
      7.972  0.2527E+00  0.4659E+01
      8.194  0.1875E+00  0.4701E+01
      8.416  0.1992E+00  0.4745E+01
      8.638  0.2487E+00  0.4800E+01
      8.860  0.2823E+00  0.4863E+01
      9.083  0.3713E+00  0.4946E+01
      9.305  0.4320E+00  0.5042E+01
      9.527  0.4547E+00  0.5143E+01
      9.749  0.4962E+00  0.5253E+01
      9.971  0.5193E+00  0.5368E+01
     10.193  0.5473E+00  0.5490E+01
     10.415  0.5000E+00  0.5601E+01
     10.637  0.4524E+00  0.5701E+01
     10.859  0.2161E+00  0.5749E+01
     11.081  0.4863E-01  0.5760E+01
     11.303  0.4013E-03  0.5760E+01
     11.526  0.1491E-08  0.5760E+01
     11.748  0.0000E+00  0.5760E+01
     11.970  0.0000E+00  0.5760E+01
     12.192  0.0000E+00  0.5760E+01
     12.414  0.0000E+00  0.5760E+01
     12.636  0.0000E+00  0.5760E+01
     12.858  0.0000E+00  0.5760E+01
     13.080  0.0000E+00  0.5760E+01
     13.302  0.0000E+00  0.5760E+01
     13.524  0.0000E+00  0.5760E+01
     13.746  0.0000E+00  0.5760E+01
     13.969  0.0000E+00  0.5760E+01
