HECN                                    
           1
    11.240000    0.000000    0.000000
     0.000000   11.240000    0.000000
     0.000000    0.000000   11.240000
   Ti   Mo   Hf   N    C    W    Ta
   7   6   7  13  19   6   6
Direct configuration=     1
   0.00000000  0.00000000  0.00000000
   0.25000000  0.00000000  0.25000000
   0.25000000  0.50000000  0.25000000
   0.50000000  0.50000000  0.00000000
   0.50000000  0.25000000  0.75000004
   0.00000000  0.50000000  0.50000000
   0.50000000  0.75000004  0.75000004
   0.00000000  0.25000000  0.25000000
   0.75000004  0.75000004  0.00000000
   0.00000000  0.25000000  0.75000004
   0.75000004  0.25000000  0.50000000
   0.00000000  0.75000004  0.75000004
   0.25000000  0.50000000  0.75000004
   0.25000000  0.25000000  0.00000000
   0.50000000  0.25000000  0.25000000
   0.75000004  0.00000000  0.25000000
   0.75000004  0.25000000  0.00000000
   0.25000000  0.75000004  0.00000000
   0.25000000  0.25000000  0.50000000
   0.25000000  0.75000004  0.50000000
   0.25000000  0.25000000  0.25000000
   0.25000000  0.00000000  0.00000000
   0.00000000  0.25000000  0.00000000
   0.75000004  0.25000000  0.25000000
   0.75000004  0.00000000  0.00000000
   0.50000000  0.00000000  0.25000000
   0.00000000  0.50000000  0.25000000
   0.50000000  0.75000004  0.00000000
   0.00000000  0.00000000  0.75000004
   0.75000004  0.25000000  0.75000004
   0.75000004  0.00000000  0.50000000
   0.50000000  0.25000000  0.50000000
   0.50000000  0.00000000  0.75000004
   0.00000000  0.00000000  0.25000000
   0.50000000  0.25000000  0.00000000
   0.25000000  0.75000004  0.25000000
   0.25000000  0.50000000  0.00000000
   0.00000000  0.75000004  0.00000000
   0.75000004  0.75000004  0.25000000
   0.75000004  0.50000000  0.00000000
   0.50000000  0.50000000  0.25000000
   0.25000000  0.25000000  0.75000004
   0.25000000  0.00000000  0.50000000
   0.00000000  0.25000000  0.50000000
   0.25000000  0.75000004  0.75000004
   0.25000000  0.50000000  0.50000000
   0.00000000  0.75000004  0.50000000
   0.00000000  0.50000000  0.75000004
   0.75000004  0.75000004  0.75000004
   0.75000004  0.50000000  0.50000000
   0.50000000  0.75000004  0.50000000
   0.50000000  0.50000000  0.75000004
   0.50000000  0.00000000  0.00000000
   0.00000000  0.50000000  0.00000000
   0.50000000  0.75000004  0.25000000
   0.25000000  0.00000000  0.75000004
   0.50000000  0.00000000  0.50000000
   0.75000004  0.00000000  0.75000004
   0.00000000  0.75000004  0.25000000
   0.75000004  0.50000000  0.25000000
   0.00000000  0.00000000  0.50000000
   0.50000000  0.50000000  0.50000000
   0.75000004  0.50000000  0.75000004
   0.75000004  0.75000004  0.50000000
HECN                                    
           1
     7.967099   -0.000520    0.000051
    -0.000520    7.960251   -0.001602
     0.000051   -0.001602    7.982790
   Ti   Mo   Hf   N    C    W    Ta
   7   6   7  13  19   6   6
Direct configuration=     2
  -0.00014043 -0.00137786  0.00030304
   0.24907837 -0.00160342  0.25131908
   0.25102624  0.50148100  0.24990417
   0.49992383  0.49918088 -0.00027100
   0.49896185  0.25005401  0.75068013
  -0.00020164  0.49943121  0.50139342
   0.50000383  0.74965481  0.74899180
  -0.00062255  0.24765774  0.25196984
   0.75249436  0.74781347 -0.00022691
   0.00203532  0.25162155  0.74765132
   0.75276562  0.25227525  0.50082781
  -0.00033084  0.74834163  0.75014362
   0.24996756  0.50018521  0.75022903
   0.24983933  0.25097995 -0.00191615
   0.50011737  0.25093476  0.24946044
   0.75052896 -0.00171510  0.25020092
   0.74982635  0.25107021 -0.00097234
   0.24935857  0.74905930 -0.00054878
   0.24856807  0.24990921  0.50187426
   0.25009952  0.75011356  0.50058809
   0.25278806  0.24980612  0.24985189
   0.25132984  0.00010846 -0.00091880
   0.00011111  0.25105017  0.00003238
   0.74757385  0.24951716  0.24775458
   0.74862451  0.00243882  0.00074007
   0.50243739  0.00131146  0.24988225
  -0.00240016  0.50194584  0.24874372
   0.49765358  0.75147436  0.00108021
  -0.00037391  0.00015621  0.74808609
   0.74975878  0.25049635  0.75223265
   0.75095677 -0.00174787  0.49926194
   0.49778694  0.25094519  0.49784187
   0.50030020  0.00013138  0.75010745
  -0.00198308 -0.00151412  0.25222943
   0.50021736  0.24754092  0.00197713
   0.24957549  0.75019047  0.24964006
   0.24783341  0.49981855 -0.00009994
   0.00065706  0.74798236  0.00150663
   0.75035805  0.74957498  0.25147852
   0.75190686  0.49880495  0.00015160
   0.50263275  0.49992813  0.25224509
   0.24921762  0.24836288  0.75025611
   0.24973180  0.00027181  0.50193782
   0.00055467  0.24775460  0.50013262
   0.24941642  0.75167174  0.75029191
   0.25219051  0.49972725  0.50002729
  -0.00074463  0.75220260  0.49844300
  -0.00182248  0.49986637  0.75232432
   0.75051051  0.75012991  0.74849579
   0.74814007  0.50158302  0.49991733
   0.50077137  0.74991706  0.49813122
   0.50211745  0.49994060  0.74756220
   0.50047856  0.00190952 -0.00067516
  -0.00008799  0.50225581 -0.00257333
   0.50054816  0.74800623  0.25189659
   0.24983171 -0.00026786  0.74773185
   0.49776897 -0.00272687  0.50070662
   0.75015894 -0.00293703  0.74968247
  -0.00016960  0.75178887  0.24977136
   0.74873581  0.50264346  0.24985172
   0.00170646  0.00071427  0.49967391
   0.49998427  0.50201046  0.50051893
   0.74994766  0.50210839  0.75009947
   0.74996988  0.74804034  0.50036997
HECN                                    
           1
     8.973357   -0.000360    0.000035
    -0.000360    8.968614   -0.001110
     0.000035   -0.001110    8.984223
   Ti   Mo   Hf   N    C    W    Ta
   7   6   7  13  19   6   6
Direct configuration=     3
  -0.00007948 -0.00077972  0.00017197
   0.24947818 -0.00090742  0.25074819
   0.25058106  0.50083804  0.24994553
   0.49995689  0.49953651 -0.00015361
   0.49941215  0.25003053  0.75038571
  -0.00011416  0.49967802  0.50079026
   0.50000218  0.74980477  0.74942830
  -0.00035245  0.24867442  0.25111730
   0.75141250  0.74876266 -0.00012848
   0.00115244  0.25091774  0.74866795
   0.75156598  0.25128736  0.50046926
  -0.00018729  0.74906159  0.75008161
   0.24998163  0.50010478  0.75012988
   0.24990899  0.25055470 -0.00108673
   0.50006643  0.25052900  0.24969394
   0.75029959 -0.00097056  0.25011409
   0.74990166  0.25060569 -0.00055151
   0.24963682  0.74946777 -0.00031113
   0.24918918  0.24994850  0.50106290
   0.25005635  0.75006423  0.50033350
   0.25157874  0.24989022  0.24991603
   0.25075301  0.00006142 -0.00052106
   0.00006289  0.25059426  0.00001827
   0.74862623  0.24972704  0.24872666
   0.74922109  0.00138004  0.00041948
   0.50138013  0.00074206  0.24993312
  -0.00135914  0.50110128  0.24928739
   0.49867131  0.75083429  0.00061245
  -0.00021174  0.00008857  0.74891463
   0.74986342  0.25028068  0.75126611
   0.75054183 -0.00098904  0.49958160
   0.49874683  0.25053511  0.49877603
   0.50016998  0.00007433  0.75006094
  -0.00112287 -0.00085694  0.25126444
   0.50012315  0.24860829  0.00112145
   0.24975961  0.75010784  0.24979586
   0.24877318  0.49989739 -0.00005667
   0.00037212  0.74885814  0.00085459
   0.75020278  0.74975937  0.25083851
   0.75107981  0.49932369  0.00008608
   0.50149079  0.49995906  0.25127321
   0.24955703  0.24907360  0.75014540
   0.24984813  0.00015365  0.50109891
   0.00031414  0.24872936  0.50007540
   0.24966950  0.75094600  0.75016541
   0.25124038  0.49984560  0.50001551
  -0.00042171  0.75124657  0.49911683
  -0.00103197  0.49992423  0.75131815
   0.75028908  0.75007365  0.74914697
   0.74894679  0.50089585  0.49995298
   0.50043678  0.74995323  0.49894023
   0.50119900  0.49996654  0.74861755
   0.50027092  0.00108059 -0.00038305
  -0.00004990  0.50127673 -0.00145953
   0.50031045  0.74887161  0.25107573
   0.24990471 -0.00015137  0.74871377
   0.49873677 -0.00154306  0.50040096
   0.75009010 -0.00166197  0.74982020
  -0.00009609  0.75101232  0.24987018
   0.74928410  0.50149591  0.24991567
   0.00096626  0.00040417  0.49981502
   0.49999104  0.50113762  0.50029411
   0.74997032  0.50119307  0.75005624
   0.74998302  0.74889106  0.50020998
HECN                                    
           1
     8.890231   -0.000374    0.000037
    -0.000374    8.885314   -0.001150
     0.000037   -0.001150    8.901496
   Ti   Mo   Hf   N    C    W    Ta
   7   6   7  13  19   6   6
Direct configuration=     4
  -0.00008395 -0.00082358  0.00018160
   0.24944886 -0.00095846  0.25079010
   0.25061371  0.50088518  0.24994249
   0.49995447  0.49951043 -0.00016222
   0.49937912  0.25003225  0.75040733
  -0.00012057  0.49965992  0.50083453
   0.50000230  0.74979378  0.74939626
  -0.00037225  0.24859987  0.25117988
   0.75149185  0.74869307 -0.00013570
   0.00121720  0.25096935  0.74859332
   0.75165397  0.25135979  0.50049557
  -0.00019782  0.74900880  0.75008616
   0.24998060  0.50011068  0.75013716
   0.24990388  0.25058588 -0.00114762
   0.50007017  0.25055875  0.24967679
   0.75031641 -0.00102515  0.25012047
   0.74989613  0.25063975 -0.00058240
   0.24961641  0.74943782 -0.00032857
   0.24914363  0.24994562  0.50112245
   0.25005951  0.75006784  0.50035218
   0.25166744  0.24988405  0.24991132
   0.25079532  0.00006487 -0.00055025
   0.00006642  0.25062768  0.00001930
   0.74854904  0.24971166  0.24865531
   0.74917733  0.00145767  0.00044300
   0.50145767  0.00078381  0.24992938
  -0.00143550  0.50116321  0.24924748
   0.49859666  0.75088122  0.00064678
  -0.00022363  0.00009354  0.74885381
   0.74985575  0.25029649  0.75133706
   0.75057227 -0.00104468  0.49955814
   0.49867643  0.25056519  0.49870746
   0.50017953  0.00007851  0.75006435
  -0.00118596 -0.00090513  0.25133527
   0.50013006  0.24853003  0.00118426
   0.24974611  0.75011390  0.24978443
   0.24870425  0.49989161 -0.00005984
   0.00039302  0.74879392  0.00090245
   0.75021417  0.74974585  0.25088549
   0.75114047  0.49928565  0.00009090
   0.50157455  0.49995678  0.25134454
   0.24953213  0.24902149  0.75015353
   0.24983960  0.00016231  0.50116049
   0.00033179  0.24865789  0.50007961
   0.24965094  0.75099922  0.75017470
   0.25131007  0.49983692  0.50001637
  -0.00044540  0.75131667  0.49906737
  -0.00108995  0.49991999  0.75139200
   0.75030532  0.75007778  0.74909917
   0.74888762  0.50094623  0.49995036
   0.50046132  0.74995058  0.49888085
   0.50126636  0.49996464  0.74854009
   0.50028615  0.00114137 -0.00040449
  -0.00005269  0.50134852 -0.00154129
   0.50032789  0.74880816  0.25113599
   0.24989936 -0.00015991  0.74864170
   0.49866578 -0.00162986  0.50042340
   0.75009515 -0.00175545  0.74981010
  -0.00010148  0.75106926  0.24986292
   0.74924388  0.50158005  0.24991097
   0.00102055  0.00042690  0.49980466
   0.49999054  0.50120162  0.50031061
   0.74996866  0.50126019  0.75005941
   0.74998206  0.74882869  0.50022173
HECN                                    
           1
     8.845501   -0.000381    0.000037
    -0.000381    8.840490   -0.001172
     0.000037   -0.001172    8.856980
   Ti   Mo   Hf   N    C    W    Ta
   7   6   7  13  19   6   6
Direct configuration=     5
  -0.00008638 -0.00084740  0.00018682
   0.24943293 -0.00098617  0.25081286
   0.25063144  0.50091078  0.24994084
   0.49995315  0.49949627 -0.00016690
   0.49936118  0.25003319  0.75041906
  -0.00012406  0.49965009  0.50085858
   0.50000236  0.74978781  0.74937886
  -0.00038301  0.24855938  0.25121387
   0.75153495  0.74865527 -0.00013962
   0.00125237  0.25099738  0.74855279
   0.75170176  0.25139913  0.50050986
  -0.00020353  0.74898013  0.75008864
   0.24998004  0.50011388  0.75014111
   0.24990110  0.25060282 -0.00118068
   0.50007220  0.25057491  0.24966749
   0.75032555 -0.00105481  0.25012393
   0.74989313  0.25065825 -0.00059918
   0.24960533  0.74942156 -0.00033805
   0.24911889  0.24994405  0.50115479
   0.25006123  0.75006981  0.50036233
   0.25171561  0.24988070  0.24990877
   0.25081830  0.00006674 -0.00056611
   0.00006834  0.25064584  0.00001986
   0.74850712  0.24970330  0.24861656
   0.74915356  0.00149983  0.00045578
   0.50149979  0.00080648  0.24992735
  -0.00147697  0.50119684  0.24922580
   0.49855612  0.75090671  0.00066543
  -0.00023009  0.00009623  0.74882078
   0.74985158  0.25030508  0.75137559
   0.75058880 -0.00107489  0.49954540
   0.49863819  0.25058152  0.49867022
   0.50018472  0.00008078  0.75006621
  -0.00122022 -0.00093130  0.25137374
   0.50013382  0.24848752  0.00121837
   0.24973877  0.75011720  0.24977821
   0.24866681  0.49988847 -0.00006157
   0.00040437  0.74875904  0.00092845
   0.75022036  0.74973851  0.25091100
   0.75117341  0.49926499  0.00009351
   0.50162004  0.49995555  0.25138329
   0.24951861  0.24899318  0.75015794
   0.24983496  0.00016701  0.50119393
   0.00034137  0.24861907  0.50008189
   0.24964085  0.75102812  0.75017974
   0.25134792  0.49983220  0.50001684
  -0.00045826  0.75135475  0.49904050
  -0.00112144  0.49991768  0.75143211
   0.75031414  0.75008002  0.74907322
   0.74885548  0.50097360  0.49994893
   0.50047465  0.74994914  0.49884860
   0.50130295  0.49996361  0.74849802
   0.50029442  0.00117438 -0.00041614
  -0.00005421  0.50138752 -0.00158569
   0.50033736  0.74877369  0.25116872
   0.24989645 -0.00016455  0.74860256
   0.49862723 -0.00167700  0.50043559
   0.75009789 -0.00180623  0.74980461
  -0.00010441  0.75110018  0.24985898
   0.74922204  0.50162576  0.24990842
   0.00105003  0.00043925  0.49979903
   0.49999027  0.50123638  0.50031957
   0.74996776  0.50129664  0.75006113
   0.74998153  0.74879481  0.50022811
HECN                                    
           1
     8.846599   -0.000381    0.000037
    -0.000381    8.841591   -0.001172
     0.000037   -0.001172    8.858074
   Ti   Mo   Hf   N    C    W    Ta
   7   6   7  13  19   6   6
Direct configuration=     6
  -0.00008632 -0.00084681  0.00018669
   0.24943332 -0.00098549  0.25081229
   0.25063101  0.50091015  0.24994088
   0.49995319  0.49949662 -0.00016679
   0.49936163  0.25003316  0.75041877
  -0.00012397  0.49965033  0.50085798
   0.50000236  0.74978795  0.74937929
  -0.00038275  0.24856038  0.25121303
   0.75153389  0.74865620 -0.00013953
   0.00125150  0.25099669  0.74855379
   0.75170058  0.25139815  0.50050951
  -0.00020339  0.74898083  0.75008858
   0.24998005  0.50011380  0.75014101
   0.24990117  0.25060240 -0.00117986
   0.50007215  0.25057451  0.24966772
   0.75032532 -0.00105407  0.25012385
   0.74989321  0.25065780 -0.00059876
   0.24960560  0.74942196 -0.00033781
   0.24911950  0.24994409  0.50115400
   0.25006119  0.75006976  0.50036208
   0.25171442  0.24988078  0.24990883
   0.25081773  0.00006670 -0.00056571
   0.00006830  0.25064539  0.00001985
   0.74850815  0.24970351  0.24861752
   0.74915415  0.00149879  0.00045547
   0.50149875  0.00080592  0.24992740
  -0.00147594  0.50119601  0.24922634
   0.49855712  0.75090608  0.00066497
  -0.00022993  0.00009616  0.74882160
   0.74985168  0.25030486  0.75137463
   0.75058839 -0.00107415  0.49954571
   0.49863913  0.25058112  0.49867114
   0.50018459  0.00008072  0.75006616
  -0.00121938 -0.00093066  0.25137279
   0.50013373  0.24848857  0.00121753
   0.24973895  0.75011711  0.24977837
   0.24866774  0.49988855 -0.00006152
   0.00040409  0.74875990  0.00092781
   0.75022020  0.74973869  0.25091037
   0.75117260  0.49926550  0.00009344
   0.50161892  0.49995558  0.25138233
   0.24951895  0.24899388  0.75015783
   0.24983508  0.00016689  0.50119310
   0.00034113  0.24862003  0.50008184
   0.24964110  0.75102740  0.75017961
   0.25134698  0.49983232  0.50001683
  -0.00045794  0.75135381  0.49904117
  -0.00112066  0.49991774  0.75143112
   0.75031393  0.75007996  0.74907386
   0.74885628  0.50097293  0.49994897
   0.50047432  0.74994918  0.49884939
   0.50130205  0.49996364  0.74849906
   0.50029422  0.00117357 -0.00041585
  -0.00005417  0.50138656 -0.00158460
   0.50033713  0.74877454  0.25116791
   0.24989652 -0.00016443  0.74860352
   0.49862818 -0.00167584  0.50043529
   0.75009783 -0.00180498  0.74980475
  -0.00010434  0.75109942  0.24985908
   0.74922258  0.50162463  0.24990848
   0.00104930  0.00043895  0.49979917
   0.49999028  0.50123552  0.50031935
   0.74996778  0.50129574  0.75006109
   0.74998155  0.74879564  0.50022795
HECN                                    
           1
     8.829776    0.001436   -0.000651
     0.001437    8.858787   -0.000956
    -0.000652   -0.000961    8.831274
   Ti   Mo   Hf   N    C    W    Ta
   7   6   7  13  19   6   6
Direct configuration=     7
   0.00043607 -0.00315597  0.00060372
   0.24841934 -0.00251336  0.25209824
   0.25226204  0.50241062  0.24989461
   0.49930782  0.49661107 -0.00094819
   0.49766515  0.24887274  0.75141609
  -0.00019007  0.49732938  0.50242683
   0.50046441  0.74946905  0.74794137
  -0.00060768  0.24319955  0.25389345
   0.75642962  0.74552584 -0.00085359
   0.00607003  0.25425274  0.74526746
   0.75600818  0.25632832  0.50252164
  -0.00098478  0.74485240  0.75154117
   0.25091623  0.50071435  0.75051491
   0.24644925  0.24898496 -0.00072109
   0.49816434  0.25169343  0.24968243
   0.75072633 -0.00107752  0.24926130
   0.75191614  0.25099111 -0.00280268
   0.25057594  0.75039876 -0.00127041
   0.24810802  0.25070909  0.50106520
   0.25050209  0.74979951  0.50154351
   0.25231565  0.24952335  0.24981042
   0.24952909  0.00012417  0.00169428
   0.00053578  0.24952786  0.00028432
   0.74821100  0.25083458  0.24890700
   0.75118702  0.00103261 -0.00162851
   0.49806255 -0.00016494  0.24950559
   0.00019932  0.50189845  0.25074546
   0.49842668  0.74946020 -0.00122738
  -0.00040592  0.00028710  0.75124437
   0.74609262  0.25016016  0.75052166
   0.75052794 -0.00167971  0.50144583
   0.49870469  0.25083500  0.50216694
   0.50025935  0.00025843  0.75017363
   0.00342701 -0.00052841  0.24890313
   0.50023753  0.24932086 -0.00331690
   0.25103871  0.75051998  0.24912745
   0.24861868  0.49969053  0.00300437
  -0.00247406  0.74975181  0.00024802
   0.74921482  0.74750758  0.25022093
   0.74985904  0.50226941  0.00030325
   0.49960239  0.50344553  0.24902683
   0.25144101  0.24817597  0.75044367
   0.25118311  0.00031996  0.49975159
  -0.00298897  0.25196741  0.50054172
   0.25149948  0.75215608  0.75052414
   0.24844923  0.49961892  0.49694749
  -0.00212665  0.74898947  0.49979691
  -0.00083454  0.49983510  0.75040737
   0.74727772  0.75210379  0.75014235
   0.75247954  0.50057266  0.49986591
   0.50176220  0.75127728  0.50063189
   0.50144065  0.50007729  0.75068067
   0.49986399  0.00700254 -0.00164864
   0.00014741  0.50526478 -0.00558752
   0.50099380  0.74462774  0.25399395
   0.24937501 -0.00096365  0.74599299
   0.49314511 -0.00600018  0.50156822
   0.75096392 -0.00671527  0.75010439
   0.00099819  0.75386104  0.24933498
   0.74829639  0.50345705  0.24906115
   0.00411232  0.00299790  0.49995027
   0.49865708  0.50331986  0.50169575
   0.74816193  0.50358323  0.75070377
   0.74989439  0.74500110  0.50086098
HECN                                    
           1
     8.817508    0.002761   -0.001153
     0.002762    8.871327   -0.000798
    -0.001155   -0.000808    8.811730
   Ti   Mo   Hf   N    C    W    Ta
   7   6   7  13  19   6   6
Direct configuration=     8
   0.00081811 -0.00483670  0.00090883
   0.24767881 -0.00362523  0.25303881
   0.25345348  0.50350243  0.24986084
   0.49883669  0.49451104 -0.00151972
   0.49642590  0.24802840  0.75214549
  -0.00023792  0.49564013  0.50357439
   0.50080196  0.74923690  0.74688966
  -0.00077106  0.23929785  0.25585411
   0.76000695  0.74324681 -0.00137556
   0.00958986  0.25662187  0.74286392
   0.75915477  0.25991589  0.50399355
  -0.00155497  0.74184776  0.75260369
   0.25160015  0.50115129  0.75078844
   0.24392747  0.24780828 -0.00038570
   0.49677030  0.25250807  0.24969306
   0.75101927 -0.00109463  0.24863042
   0.75339396  0.25123343 -0.00441462
   0.25128469  0.75110957 -0.00195251
   0.24736889  0.25126603  0.50100017
   0.25082432  0.74960273  0.50240768
   0.25275497  0.24926311  0.24973847
   0.24858770  0.00016615  0.00334725
   0.00087752  0.24871443  0.00047782
   0.74799374  0.25165782  0.24911871
   0.75267223  0.00069304 -0.00315270
   0.49555213 -0.00087102  0.24919688
   0.00142327  0.50240941  0.25185669
   0.49833148  0.74840792 -0.00261151
  -0.00053439  0.00042605  0.75301647
   0.74334615  0.25005541  0.74989754
   0.75048398 -0.00212046  0.50283567
   0.49875275  0.25101971  0.50472391
   0.50031395  0.00038775  0.75025223
   0.00682154 -0.00023630  0.24709697
   0.50031299  0.24992667 -0.00663359
   0.25198824  0.75081302  0.24865140
   0.24858303  0.49954637  0.00524690
  -0.00457708  0.75047417 -0.00024938
   0.74848056  0.74588392  0.24971663
   0.74889889  0.50445588  0.00045658
   0.49812842  0.50598591  0.24730374
   0.25284545  0.24758039  0.75065288
   0.25216790  0.00043118  0.49869729
  -0.00542248  0.25440417  0.50087785
   0.25285710  0.75297726  0.75077623
   0.24633193  0.49946410  0.49470228
  -0.00334544  0.74726891  0.50034964
  -0.00062555  0.49977494  0.74965858
   0.74505916  0.75357720  0.75092368
   0.75512681  0.50028080  0.49980537
   0.50270305  0.75224367  0.50193573
   0.50154203  0.50015994  0.75227640
   0.49954871  0.01124504 -0.00255048
   0.00029389  0.50808745 -0.00851548
   0.50147435  0.74160949  0.25606114
   0.24899396 -0.00154521  0.74408352
   0.48913979 -0.00914670  0.50239666
   0.75159745 -0.01028918  0.75032370
   0.00180327  0.75587082  0.24895165
   0.74761939  0.50479087  0.24844130
   0.00634985  0.00485988  0.50006091
   0.49768279  0.50483705  0.50270240
   0.74684223  0.50524835  0.75117371
   0.74983132  0.74223938  0.50132407
HECN                                    
           1
     8.884858    0.009476    0.006598
     0.009523    8.919232   -0.002181
     0.006592   -0.002182    8.882910
   Ti   Mo   Hf   N    C    W    Ta
   7   6   7  13  19   6   6
Direct configuration=     9
   0.00102076 -0.00788723  0.00109248
   0.24801466 -0.00449568  0.25365738
   0.25355872  0.50603073  0.24933607
   0.49660030  0.48942319 -0.00337322
   0.49241904  0.24692308  0.75366864
   0.00007913  0.49524005  0.50425436
   0.50051566  0.74927179  0.74559936
  -0.00098758  0.23359072  0.25889637
   0.76346618  0.74063999 -0.00222407
   0.01591933  0.25926150  0.74045709
   0.76133155  0.26476390  0.50459262
  -0.00374694  0.73723115  0.75595870
   0.25324411  0.50126142  0.75209037
   0.24346742  0.24734761  0.00047229
   0.49776520  0.25461526  0.24854209
   0.75063695 -0.00146703  0.24926147
   0.75537695  0.25274317 -0.00648902
   0.25210188  0.75146235 -0.00209280
   0.24705552  0.25291906  0.50058694
   0.24949738  0.74864978  0.50210947
   0.25195354  0.24851625  0.25052649
   0.24833028  0.00024219  0.00430228
  -0.00059323  0.24923069  0.00143432
   0.74782475  0.25165643  0.24952613
   0.75354221  0.00043313 -0.00310561
   0.49456202 -0.00154077  0.24862525
   0.00115271  0.50165197  0.25130151
   0.49961322  0.75004016 -0.00285174
  -0.00151770  0.00190746  0.75374781
   0.74154952  0.25008200  0.74801471
   0.74965086 -0.00177038  0.50369509
   0.49950438  0.25004788  0.50596207
   0.50107477  0.00079131  0.74960914
   0.00691646 -0.00165162  0.24649485
   0.49966113  0.25284991 -0.00694982
   0.25311436  0.75115705  0.24921129
   0.24753244  0.49973245  0.00619072
  -0.00081912  0.75223447 -0.00001330
   0.74893185  0.74791862  0.24884822
   0.74858329  0.50372779  0.00052050
   0.49764413  0.50416728  0.24677598
   0.25445744  0.24810657  0.75039130
   0.25042022  0.00035195  0.49665890
  -0.00448352  0.25569513  0.50104704
   0.25304428  0.75357106  0.75046518
   0.24595350  0.49963668  0.49364913
  -0.00338561  0.74781524  0.50138973
  -0.00044726  0.49841838  0.74846623
   0.74341426  0.75305280  0.75200471
   0.75522090  0.50057361  0.49966934
   0.50169458  0.75081324  0.50428191
   0.50041640  0.50021575  0.75316452
   0.49960892  0.01622640 -0.00403158
   0.00026593  0.51540057 -0.01174474
   0.50034041  0.74010711  0.25953217
   0.24684432 -0.00300010  0.74320092
   0.48654872 -0.01184992  0.50219510
   0.75320236 -0.01550150  0.75032787
   0.00230040  0.75820046  0.24919139
   0.74744039  0.50376274  0.24796330
   0.00787558  0.00515007  0.49995138
   0.49736516  0.50705544  0.50284930
   0.74440189  0.50747110  0.75122312
   0.75195333  0.73977883  0.49989198
HECN                                    
           1
     8.873435    0.008337    0.005284
     0.008377    8.911107   -0.001946
     0.005278   -0.001949    8.870838
   Ti   Mo   Hf   N    C    W    Ta
   7   6   7  13  19   6   6
Direct configuration=    10
   0.00098629 -0.00737261  0.00106170
   0.24795811 -0.00434881  0.25355338
   0.25354125  0.50560426  0.24942430
   0.49697580  0.49028123 -0.00306158
   0.49309354  0.24710899  0.75341182
   0.00002581  0.49530757  0.50414001
   0.50056366  0.74926590  0.74581640
  -0.00095142  0.23455336  0.25838465
   0.76288348  0.74108020 -0.00208074
   0.01485396  0.25881708  0.74086288
   0.76096587  0.26394634  0.50449203
  -0.00337810  0.73800957  0.75539404
   0.25296761  0.50124302  0.75187157
   0.24354492  0.24742524  0.00032789
   0.49759785  0.25425995  0.24873582
   0.75070134 -0.00140427  0.24915525
   0.75504307  0.25248879 -0.00613976
   0.25196436  0.75140295 -0.00206909
   0.24710842  0.25264018  0.50065638
   0.24972056  0.74881037  0.50215948
   0.25208845  0.24864212  0.25039381
   0.24837376  0.00022931  0.00414156
  -0.00034547  0.24914339  0.00127317
   0.74785325  0.25165663  0.24945756
   0.75339575  0.00047708 -0.00311340
   0.49472850 -0.00142790  0.24872130
   0.00119807  0.50177972  0.25139489
   0.49939765  0.74976498 -0.00281118
  -0.00135190  0.00165741  0.75362458
   0.74185165  0.25007733  0.74833122
   0.74979126 -0.00182957  0.50355037
   0.49937793  0.25021189  0.50575389
   0.50094667  0.00072334  0.74971744
   0.00690022 -0.00141284  0.24659621
   0.49977118  0.25235671 -0.00689678
   0.25292494  0.75109914  0.24911725
   0.24770943  0.49970091  0.00603177
  -0.00145138  0.75193799 -0.00005252
   0.74885602  0.74757546  0.24899434
   0.74863633  0.50385057  0.00050971
   0.49772533  0.50447402  0.24686475
   0.25418614  0.24801802  0.75043553
   0.25071407  0.00036514  0.49700159
  -0.00464137  0.25547747  0.50101868
   0.25301280  0.75347092  0.75051752
   0.24601706  0.49960754  0.49382625
  -0.00337863  0.74772305  0.50121472
  -0.00047762  0.49864727  0.74866690
   0.74369121  0.75314102  0.75182260
   0.75520508  0.50052423  0.49969223
   0.50186448  0.75105435  0.50388707
   0.50060600  0.50020617  0.75301494
   0.49959921  0.01538614 -0.00378251
   0.00027110  0.51416699 -0.01120163
   0.50053159  0.74036031  0.25894806
   0.24720583 -0.00275492  0.74334913
   0.48698446 -0.01139423  0.50222871
   0.75293156 -0.01462203  0.75032754
   0.00221705  0.75780752  0.24915107
   0.74747031  0.50393617  0.24804372
   0.00761879  0.00510131  0.49997003
   0.49741893  0.50668117  0.50282448
   0.74481293  0.50709583  0.75121439
   0.75159564  0.74019421  0.50013329
HECN                                    
           1
     8.843359    0.013692    0.015924
     0.013745    8.890391   -0.004135
     0.015917   -0.004138    8.837969
   Ti   Mo   Hf   N    C    W    Ta
   7   6   7  13  19   6   6
Direct configuration=    11
   0.00067904 -0.01018642  0.00085483
   0.24892741 -0.00468788  0.25356363
   0.25281327  0.50777220  0.24859819
   0.49441687  0.48573698 -0.00484007
   0.48837152  0.24633200  0.75455906
   0.00042837  0.49638253  0.50398330
   0.49968596  0.74938155  0.74500928
  -0.00194472  0.23056970  0.26145450
   0.76548866  0.73954675 -0.00263737
   0.02178229  0.26008344  0.73917773
   0.76209250  0.26753415  0.50325789
  -0.00586226  0.73477526  0.75877439
   0.25429312  0.50156024  0.75343359
   0.24344454  0.24766072  0.00108883
   0.49920884  0.25534725  0.24782495
   0.74959463 -0.00132515  0.25031283
   0.75616599  0.25349831 -0.00853687
   0.25451528  0.75164484 -0.00195147
   0.24830861  0.25390529  0.50022512
   0.24786300  0.74802003  0.50198814
   0.25098806  0.24775271  0.25129840
   0.24905587  0.00046941  0.00390103
  -0.00177141  0.25041527  0.00247604
   0.74818673  0.25110670  0.24968567
   0.75308029  0.00049214 -0.00227885
   0.49543238 -0.00185394  0.24810541
  -0.00027974  0.50053184  0.24946498
   0.50124865  0.75299588 -0.00183215
  -0.00285595  0.00387623  0.75294345
   0.74165574  0.25002534  0.74648533
   0.74864714 -0.00114306  0.50415901
   0.50023705  0.24859692  0.50518535
   0.50221764  0.00127059  0.74864762
   0.00472335 -0.00349009  0.24726636
   0.49930790  0.25545599 -0.00482177
   0.25350701  0.75127014  0.24985511
   0.24608245  0.50030871  0.00559727
   0.00404455  0.75434393  0.00099637
   0.74935775  0.74959028  0.24816518
   0.74920004  0.50214646  0.00023442
   0.49836123  0.50187171  0.24743610
   0.25521724  0.24884264  0.75018087
   0.24864803  0.00023441  0.49608760
  -0.00246944  0.25516265  0.50151673
   0.25188444  0.75385671  0.75022146
   0.24736477  0.50005331  0.49414346
  -0.00313794  0.74936813  0.50221124
  -0.00067676  0.49675389  0.74823326
   0.74315883  0.75127752  0.75204727
   0.75360433  0.50134737  0.49955978
   0.50056846  0.74903260  0.50568602
   0.49940959  0.50026215  0.75248040
   0.50005181  0.01847710 -0.00526688
   0.00051309  0.52055098 -0.01290183
   0.49952210  0.74044407  0.26241359
   0.24434765 -0.00426573  0.74300417
   0.48562847 -0.01302753  0.50116195
   0.75468951 -0.01967411  0.75074570
   0.00240809  0.75873200  0.24973862
   0.74780501  0.50286460  0.24787730
   0.00762118  0.00442153  0.50006222
   0.49731233  0.50792294  0.50262029
   0.74225732  0.50875493  0.75096294
   0.75357296  0.73902355  0.49810372
HECN                                    
           1
     8.846693    0.013099    0.014744
     0.013149    8.892688   -0.003892
     0.014738   -0.003895    8.841613
   Ti   Mo   Hf   N    C    W    Ta
   7   6   7  13  19   6   6
Direct configuration=    12
   0.00071301 -0.00987373  0.00087789
   0.24881955 -0.00465014  0.25356263
   0.25289429  0.50753125  0.24868996