HECN                                    
           1
     8.932500    0.000000    0.000000
     0.005753    9.055598    0.000000
     0.032102   -0.015743    8.937128
   Hf   V    Zr   N    C    Cr   W 
   7   6   7  13  19   6   6
Direct configuration=     1
   0.99688001  0.99204997  0.99924002
   0.25398003  0.99714995  0.24912000
   0.24803003  0.50165000  0.24955001
   0.50501006  0.49745998  0.99834003
   0.50479003  0.24631001  0.74710002
   0.99427992  0.50449999  0.49779000
   0.49950005  0.75481999  0.74817004
   0.99437004  0.23617001  0.26379999
   0.75718000  0.74102998  0.01100000
   0.00201000  0.25541000  0.73894001
   0.75307001  0.26163001  0.50533002
   0.99514004  0.74492004  0.74511997
   0.25679999  0.49462002  0.74545002
   0.24788999  0.24839000  0.99657997
   0.50833000  0.25676999  0.25376001
   0.74879004  0.98787999  0.26967001
   0.75719000  0.25603001  0.99591997
   0.24762001  0.74973999  0.99974006
   0.25272001  0.24823001  0.50015003
   0.24457999  0.75048999  0.49983999
   0.24982001  0.24942998  0.24825000
   0.26146999  0.99984002  0.99295996
   0.00281000  0.25024000  0.00130000
   0.75313998  0.24617000  0.25492002
   0.74767001  0.99748000  0.01202000
   0.50714994  0.99977000  0.24673000
   0.99051999  0.48088002  0.24100998
   0.50519005  0.76130999  0.00855000
   0.98896989  0.00202000  0.73708999
   0.75744996  0.24437997  0.74896999
   0.73632001  0.00417000  0.51063000
   0.50563996  0.23264999  0.49544997
   0.50008998  0.00061000  0.73471998
   0.99720000  0.99771992  0.25899999
   0.50427997  0.24673000  0.00262000
   0.25133999  0.74958002  0.24910999
   0.24328000  0.50072997  0.99510994
   0.99837005  0.74313996  0.00460000
   0.75633000  0.73891003  0.25767000
   0.75839004  0.50315998  0.00288000
   0.50700002  0.50333002  0.25878999
   0.24900999  0.25315000  0.74854000
   0.24446000  0.99823996  0.50287998
   0.99804009  0.24229999  0.50128003
   0.24177002  0.75340997  0.75018002
   0.25841001  0.50062002  0.50129001
   0.99000004  0.76215003  0.49746000
   0.99203996  0.50055999  0.75138002
   0.75036005  0.74888000  0.74756004
   0.74036002  0.50197000  0.50067003
   0.50575006  0.74958002  0.49720000
   0.50501003  0.50217998  0.73912003
   0.51588997  0.01358000  0.98075008
   0.99841994  0.50976998  0.98613004
   0.50379003  0.73926997  0.25905001
   0.23780002  0.01082000  0.74607998
   0.47957999  0.98308000  0.49717999
   0.74279003  0.97869994  0.76450995
   0.99864998  0.77573999  0.26102000
   0.73551001  0.51468004  0.26666001
   0.02362000  0.99783001  0.49557002
   0.50539000  0.52833005  0.49917999
   0.73876003  0.52828003  0.73814999
   0.75400003  0.72937999  0.49116997
HECN                                    
           1
     8.619245   -0.006552   -0.016473
    -0.001091    8.752923   -0.015825
     0.014506   -0.030848    8.629972
   Hf   V    Zr   N    C    Cr   W 
   7   6   7  13  19   6   6
Direct configuration=     2
   0.99367134  0.99500247  0.99185850
   0.26169728  0.99913463  0.24546191
   0.24538870  0.49990384  0.24610179
   0.50202044  0.50221706  0.99815826
   0.50721436  0.23905653  0.74299614
   0.99605353  0.49823888  0.50030121
   0.49656086  0.76508169  0.75413448
   0.99179270  0.23035376  0.26712954
   0.75956365  0.73958768  0.01135273
   0.00395234  0.25649392  0.73504176
   0.75601803  0.26089833  0.50576036
   0.99655444  0.74286123  0.74818153
   0.25452089  0.49303880  0.74862606
   0.24445509  0.24818140  0.99462909
   0.50902959  0.24878495  0.25505909
   0.73975573  0.99455283  0.26830898
   0.76124806  0.25315980  0.99482564
   0.25018525  0.74997243  0.99620508
   0.25375165  0.24887985  0.50239688
   0.24765209  0.75080690  0.50405362
   0.24896326  0.24956637  0.24910533
   0.25785353  0.00039794  0.99485572
   0.00204830  0.24808587  0.00044531
   0.75766632  0.24879772  0.25781298
   0.74721522  0.99463813  0.00424700
   0.50091045  0.99732987  0.24823800
   0.99125829  0.48204386  0.24431978
   0.50877736  0.75919719  0.00527654
   0.98958103  0.00203424  0.74045343
   0.75672180  0.24490366  0.74447421
   0.73831371  0.00263362  0.51302079
   0.50812331  0.23359342  0.50180261
   0.50285754  0.00022234  0.73835387
   0.00147543  0.00524436  0.25386666
   0.50472543  0.24658715 -0.00286891
   0.25118715  0.74905297  0.24957865
   0.24381980  0.50062405  0.99388525
   0.99130966  0.74122919  0.00282364
   0.75258427  0.73987185  0.24909909
   0.75984324  0.50987135  0.00222416
   0.50048689  0.50754627  0.25383194
   0.24651398  0.25335302  0.74779342
   0.25302782  0.99840789  0.50549120
   0.99281053  0.24499821  0.50251884
   0.24014191  0.75254159  0.74975793
   0.25526261  0.50068511  0.50283991
   0.99075233  0.75774164  0.50400671
   0.99348946  0.50052871  0.75507915
   0.75248929  0.75631236  0.75097882
   0.74601177  0.49264285  0.50327355
   0.50495594  0.75716514  0.49461382
   0.49935889  0.50116117  0.74389546
   0.51883651  0.01366787  0.98015230
   0.99827942  0.51361141  0.98070765
   0.50487526  0.73836080  0.25753397
   0.23599855  0.01191428  0.74646641
   0.47654641  0.98386998  0.49883525
   0.74111048  0.97410043  0.76575201
   0.00254680  0.77044088  0.25475087
   0.74113114  0.51090751  0.26015330
   0.01615518  0.00355663  0.50336234
   0.50235362  0.52215262  0.49827599
   0.74628388  0.52202514  0.74264417
   0.75426057  0.74017610  0.49568832
HECN                                    
           1
     8.744988   -0.003922   -0.009861
     0.001656    8.874419   -0.009473
     0.021569   -0.024785    8.753267
   Hf   V    Zr   N    C    Cr   W 
   7   6   7  13  19   6   6
Direct configuration=     3
   0.99501106  0.99378282  0.99492727
   0.25848922  0.99831071  0.24697492
   0.24649078  0.50063240  0.24753864
   0.50326274  0.50024256  0.99823257
   0.50621143  0.24207113  0.74470571
   0.99531572  0.50083664  0.49926067
   0.49777553  0.76081659  0.75164959
   0.99286407  0.23276753  0.26575194
   0.75857224  0.74018564  0.01120531
   0.00314709  0.25604606  0.73665988
   0.75479156  0.26120094  0.50557968
   0.99596428  0.74371351  0.74690930
   0.25546696  0.49369382  0.74730881
   0.24588561  0.24827056  0.99544295
   0.50874008  0.25209988  0.25452459
   0.74351291  0.99178551  0.26887685
   0.75956172  0.25435131  0.99527951
   0.24912086  0.74987772  0.99767235
   0.25332050  0.24860798  0.50146156
   0.24637066  0.75067119  0.50229934
   0.24931894  0.24950936  0.24875035
   0.25935627  0.00016597  0.99407011
   0.00236653  0.24898134  0.00080285
   0.75578024  0.24770288  0.25660478
   0.74741150  0.99582425  0.00748074
   0.50350562  0.99834407  0.24761795
   0.99094816  0.48155784  0.24294243
   0.50728833  0.76007592  0.00663607
   0.98932412  0.00202563  0.73905476
   0.75702812  0.24468975  0.74634327
   0.73748293  0.00326926  0.51202653
   0.50708489  0.23319612  0.49915914
   0.50170348  0.00037976  0.73684137
  -0.00030145  0.00212200  0.25599144
   0.50454453  0.24665042 -0.00058743
   0.25125052  0.74927155  0.24938435
   0.24359626  0.50066878  0.99439400
   0.99424877  0.74202626  0.00356914
   0.75414899  0.73947996  0.25266423
   0.75923710  0.50708420  0.00249052
   0.50319892  0.50580103  0.25589495
   0.24755283  0.25327005  0.74810560
   0.24946152  0.99833351  0.50439879
   0.99498415  0.24387839  0.50200597
   0.24081981  0.75290305  0.74993535
   0.25657066  0.50065792  0.50219807
   0.99043558  0.75956730  0.50128802
   0.99288355  0.50053849  0.75354030
   0.75159845  0.75322255  0.74955028
   0.74366157  0.49651262  0.50219389
   0.50528593  0.75401728  0.49568374
   0.50170626  0.50158250  0.74191560
   0.51761121  0.01363090  0.98039839
   0.99834097  0.51202018  0.98295890
   0.50442531  0.73873916  0.25816401
   0.23674730  0.01146011  0.74630637
   0.47780680  0.98354163  0.49814897
   0.74180964  0.97601017  0.76524053
   0.00093242  0.77264499  0.25735787
   0.73879916  0.51247728  0.26285653
   0.01925248  0.00117497  0.50012466
   0.50361943  0.52471968  0.49865890
   0.74315242  0.52461703  0.74077474
   0.75414515  0.73568913  0.49380162
HECN                                    
           1
     8.818489   -0.003585   -0.020327
     0.002022    8.907383   -0.024025
     0.011350   -0.039149    8.827291
   Hf   V    Zr   N    C    Cr   W 
   7   6   7  13  19   6   6
Direct configuration=     4
   0.99324702  0.99585921  0.98735596
   0.26291129  0.99975398  0.24434211
   0.24267196  0.49846338  0.24506801
   0.50098314  0.50320737  0.99804622
   0.50835370  0.23684544  0.74265899
   0.99814802  0.49610433  0.50160779
   0.49673723  0.76679161  0.75606713
   0.99080662  0.22787122  0.26833998
   0.76044625  0.73926017  0.01094114
   0.00457044  0.25626568  0.73380524
   0.75749835  0.25980289  0.50598782
   0.99735893  0.74148674  0.75161260
   0.25221093  0.49212308  0.75078259
   0.24387006  0.24791031  0.99407602
   0.50839563  0.24826670  0.25395693
   0.73978005  0.99609489  0.26586727
   0.76095823  0.25333225  0.99416698
   0.24966809  0.75122400  0.99552205
   0.25353577  0.24909670  0.50218070
   0.24792258  0.75130470  0.50481304
   0.24777793  0.24929369  0.24931370
   0.25649074  0.00047556  0.99488939
   0.00185588  0.24761556 -0.00004996
   0.76102936  0.25023952  0.25941802
   0.74585816  0.99284715 -0.00063464
   0.49781621  0.99524481  0.24797167
   0.99155969  0.48381981  0.24506686
   0.51090617  0.75903708  0.00408360
   0.98981509  0.00239415  0.74292145
   0.75782082  0.24588141  0.74120667
   0.74105667  0.00096014  0.51619684
   0.51049440  0.23522670  0.50393444
   0.50467131  0.00045628  0.74149130
   0.00212853  0.00620361  0.25189699
   0.50488968  0.24591320 -0.00460333
   0.25186356  0.74878012  0.24943542
   0.24318931  0.50065114  0.99191498
   0.98929183  0.74017925  0.00089902
   0.74971040  0.74199784  0.24545029
   0.76129697  0.51211787  0.00184721
   0.49821822  0.50842469  0.25123589
   0.24468922  0.25333748  0.74767348
   0.25560957  0.99906163  0.50784609
   0.99083596  0.24651068  0.50338668
   0.23862880  0.75243596  0.75026345
   0.25376669  0.50039624  0.50396552
   0.99241251  0.75583526  0.50707774
   0.99626232  0.49988011  0.75753081
   0.75390408  0.75904094  0.75350727
   0.74738355  0.49010470  0.50319009
   0.50468046  0.76055970  0.49372200
   0.49667835  0.50124102  0.74567964
   0.52020990  0.01306559  0.97946883
   0.99815809  0.51574415  0.97816688
   0.50406904  0.73772418  0.25643907
   0.23350622  0.01238071  0.74645648
   0.47636983  0.98509171  0.49965616
   0.73982948  0.97279925  0.76658120
   0.00396158  0.77031357  0.25110433
   0.74367433  0.50797778  0.25633718
   0.01389691  0.00583729  0.50713993
   0.50206218  0.51940382  0.49828458
   0.74913702  0.51978820  0.74748059
   0.75245902  0.74264557  0.49795776
HECN                                    
           1
     8.803150   -0.003655   -0.018143
     0.001946    8.900504   -0.020988
     0.013483   -0.036152    8.811843
   Hf   V    Zr   N    C    Cr   W 
   7   6   7  13  19   6   6
Direct configuration=     5
   0.99361395  0.99542997  0.98892247
   0.26199681  0.99945480  0.24488537
   0.24346284  0.49891514  0.24558095
   0.50145497  0.50259098  0.99808432
   0.50791082  0.23793263  0.74308380
   0.99756127  0.49708750  0.50112301
   0.49695108  0.76554785  0.75515119
   0.99123173  0.22888838  0.26780659
   0.76005849  0.73945269  0.01099567
   0.00427658  0.25622097  0.73439555
   0.75693808  0.26009345  0.50590318
   0.99706915  0.74194818  0.75063973
   0.25288389  0.49244849  0.75006506
   0.24428751  0.24798564  0.99435951
   0.50846702  0.24906386  0.25407580
   0.74055333  0.99519986  0.26648950
   0.76066949  0.25354450  0.99439721
   0.24955538  0.75094480  0.99596643
   0.25349105  0.24899485  0.50203166
   0.24760081  0.75117216  0.50429226
   0.24809669  0.24933834  0.24919757
   0.25708355  0.00041090  0.99472044
   0.00196175  0.24789980  0.00012711
   0.75994241  0.24971123  0.25883371
   0.74618157  0.99346879  0.00104614
   0.49899350  0.99588904  0.24790092
   0.99143264  0.48334881  0.24462631
   0.51015808  0.75925394  0.00461127
   0.98971254  0.00231626  0.74212104
   0.75765804  0.24563534  0.74226903
   0.74031606  0.00143890  0.51533376
   0.50978767  0.23480296  0.50294472
   0.50405599  0.00043886  0.74052830
   0.00162669  0.00535634  0.25274230
   0.50481922  0.24606780 -0.00377212
   0.25173668  0.74888228  0.24942487
   0.24327413  0.50065562  0.99242809
   0.99031829  0.74056411  0.00145341
   0.75063073  0.74147668  0.24694335
   0.76087089  0.51107152  0.00197811
   0.49925012  0.50788068  0.25220034
   0.24528194  0.25332358  0.74776358
   0.25433642  0.99890916  0.50713097
   0.99169410  0.24596290  0.50310106
   0.23908214  0.75253295  0.75019624
   0.25434653  0.50045005  0.50360054
   0.99200194  0.75660932  0.50588042
   0.99556212  0.50001571  0.75670442
   0.75342603  0.75782992  0.75268587
   0.74661300  0.49143671  0.50298523
   0.50480630  0.75920006  0.49412587
   0.49771794  0.50131074  0.74490206
   0.51967233  0.01318345  0.97966075
   0.99819714  0.51497146  0.97915731
   0.50414318  0.73793577  0.25679646
   0.23417692  0.01218923  0.74642589
   0.47666685  0.98476891  0.49934408
   0.74023891  0.97346639  0.76630535
   0.00333621  0.77080039  0.25239848
   0.74266698  0.50891548  0.25768663
   0.01500356  0.00486557  0.50568791
   0.50238450  0.52050918  0.49836424
   0.74789685  0.52079003  0.74609309
   0.75280701  0.74119784  0.49709573
HECN                                    
           1
     8.805200    0.001576   -0.018860
     0.007225    8.890424   -0.024768
     0.012744   -0.039846    8.811407
   Hf   V    Zr   N    C    Cr   W 
   7   6   7  13  19   6   6
Direct configuration=     6
   0.99346646  0.99532230  0.98594462
   0.26000045  0.99889816  0.24535492
   0.24082121  0.49832963  0.24520501
   0.50146912  0.50204598  0.99771388
   0.50859639  0.23779891  0.74387451
   0.99829848  0.49772369  0.50270536
   0.49805910  0.76378340  0.75482071
   0.99004625  0.22730284  0.26972675
   0.76110497  0.73860558  0.01081169
   0.00447964  0.25534898  0.73310398
   0.75825081  0.25925637  0.50606822
   0.99784083  0.73967444  0.75414513
   0.25062488  0.49125733  0.75178826
   0.24404887  0.24751587  0.99372427
   0.50891809  0.25131737  0.25319076
   0.74214024  0.99466346  0.26502300
   0.75960122  0.25500753  0.99340238
   0.24765202  0.75216856  0.99643682
   0.25283321  0.24886589  0.50185085
   0.24705777  0.75144407  0.50394509
   0.24752314  0.24868181  0.24910361
   0.25507018  0.00059392  0.99487876
   0.00146193  0.24690680 -0.00041297
   0.76155349  0.25069372  0.25926217
   0.74547117  0.99290529 -0.00276456
   0.49892535  0.99442908  0.24773808
   0.99184484  0.48571432  0.24617586
   0.51087699  0.75907492  0.00340773
   0.99046362  0.00301899  0.74307431
   0.75857164  0.24772049  0.74057677
   0.74441530 -0.00084169  0.51656718
   0.51123491  0.23766248  0.50227530
   0.50650391  0.00080870  0.74413447
   0.00132804  0.00282812  0.25245736
   0.50504972  0.24535232 -0.00411574
   0.25154482  0.74884782  0.24910197
   0.24260430  0.50094817  0.99101149
   0.99097390  0.74095953  0.00010846
   0.74890419  0.74230468  0.24690055
   0.76164504  0.51126603  0.00153940
   0.49960419  0.50787054  0.25168356
   0.24423167  0.25287466  0.74761960
   0.25376726  0.00004370  0.50943936
   0.99210445  0.24622303  0.50353313
   0.23826410  0.75289767  0.75094259
   0.25412106  0.50030623  0.50386588
   0.99211976  0.75582778  0.50655543
   0.99830727  0.49916895  0.75776615
   0.75404209  0.75704035  0.75404524
   0.74634375  0.49169949  0.50262272
   0.50528188  0.75978789  0.49401918
   0.49735071  0.50211159  0.74450625
   0.52188807  0.01265687  0.97822492
   0.99757552  0.51735578  0.97685299
   0.50283553  0.73600935  0.25698197
   0.23014692  0.01288548  0.74519965
   0.47715757  0.98591318  0.50031483
   0.73815266  0.97234962  0.76682378
   0.00293433  0.77366234  0.25064023
   0.74231692  0.50924965  0.25559452
   0.01539545  0.00510443  0.50835100
   0.50383061  0.52066430  0.49797956
   0.74929102  0.52171526  0.74941156
   0.75166109  0.74037577  0.49716964
HECN                                    
           1
     8.806487    0.004862   -0.019311
     0.010541    8.884090   -0.027143
     0.012280   -0.042167    8.811133
   Hf   V    Zr   N    C    Cr   W 
   7   6   7  13  19   6   6
Direct configuration=     7
   0.99337370  0.99525385  0.98407355
   0.25874669  0.99854890  0.24564969
   0.23916211  0.49796222  0.24496851
   0.50147819  0.50170307  0.99748097
   0.50902711  0.23771475  0.74437132
   0.99876139  0.49812399  0.50369978
   0.49875574  0.76267307  0.75461265
   0.98930231  0.22630648  0.27093273
   0.76176261  0.73807232  0.01069592
   0.00460746  0.25480009  0.73229224
   0.75907571  0.25872940  0.50617176
   0.99832659  0.73824488  0.75634705
   0.24920645  0.49050938  0.75287055
   0.24389912  0.24722030  0.99332501
   0.50920053  0.25273443  0.25263531
   0.74313717  0.99432510  0.26410150
   0.75892959  0.25592791  0.99277765
   0.24645602  0.75293912  0.99673260
   0.25242003  0.24878497  0.50173718
   0.24671654  0.75161520  0.50372701
   0.24716312  0.24826904  0.24904437
   0.25380545  0.00070982  0.99497819
   0.00114832  0.24628224 -0.00075261
   0.76256512  0.25131122  0.25953173
   0.74502495  0.99255011 -0.00515908
   0.49888308  0.99351074  0.24763537
   0.99210295  0.48720247  0.24715013
   0.51132857  0.75896174  0.00265152
   0.99093519  0.00346097  0.74367349
   0.75914463  0.24903127  0.73951410
   0.74699111 -0.00227737  0.51734174
   0.51214286  0.23946040  0.50185554
   0.50804158  0.00104137  0.74640051
   0.00114139  0.00123791  0.25227762
   0.50519476  0.24490210 -0.00433182
   0.25142430  0.74882612  0.24889907
   0.24218338  0.50113205  0.99012146
   0.99138549  0.74120766 -0.00073646
   0.74781936  0.74282612  0.24687380
   0.76213122  0.51138797  0.00126385
   0.49982657  0.50786389  0.25135887
   0.24357211  0.25259264  0.74752896
   0.25340945  0.00075814  0.51089004
   0.99236214  0.24638661  0.50380470
   0.23775017  0.75312758  0.75141159
   0.25397950  0.50021592  0.50403254
   0.99219410  0.75533632  0.50697934
   0.00003199  0.49863561  0.75843316
   0.75442943  0.75654384  0.75489917
   0.74617450  0.49186478  0.50239501
   0.50558039  0.76015743  0.49395232
   0.49711972  0.50261536  0.74425775
   0.52327999  0.01232446  0.97732273
   0.99718404  0.51885515  0.97540577
   0.50201488  0.73479816  0.25709793
   0.22761520  0.01332459  0.74442917
   0.47746542  0.98663300  0.50092509
   0.73684265  0.97164807  0.76714912
   0.00268072  0.77546219  0.24953625
   0.74209680  0.50945943  0.25428009
   0.01564165  0.00525522  0.51002435
   0.50473889  0.52076123  0.49773797
   0.75016657  0.52229759  0.75149693
   0.75094160  0.73985913  0.49721580
HECN                                    
           1
     8.811261    0.007302   -0.018468
     0.012993    8.922125   -0.023563
     0.013118   -0.038792    8.811846
   Hf   V    Zr   N    C    Cr   W 
   7   6   7  13  19   6   6
Direct configuration=     8
   0.99289986  0.99645665  0.98311947
   0.25924025  0.99957615  0.24753739
   0.23729589  0.49766959  0.24460429
   0.50076053  0.50206002  0.99671010
   0.50908655  0.24013302  0.74286741
   0.99760453  0.50019098  0.50446595
   0.49852277  0.76021199  0.75366573
   0.98914440  0.22501804  0.27231057
   0.76270309  0.73815751  0.01062688
   0.00420510  0.25261901  0.73169176
   0.75956356  0.25912073  0.50623743
   0.99959929  0.73593382  0.75901278
   0.24675761  0.48946231  0.75364592
   0.24309586  0.24615304  0.99390724
   0.50991574  0.25387493  0.25291222
   0.74260048  0.99425715  0.26399183
   0.76010921  0.25666675  0.99191885
   0.24713801  0.75325355  0.99678835
   0.25358672  0.24964058  0.50106980
   0.24725518  0.75156773  0.50388651
   0.24660066  0.24776054  0.24869672
   0.25133635  0.00097676  0.99521480
   0.00019822  0.24514150 -0.00117926
   0.76266745  0.25177280  0.25881676
   0.74551729  0.99277877 -0.00673581
   0.49929329  0.99301595  0.24780915
   0.99195637  0.48942351  0.24908791
   0.51105114  0.75870384  0.00213989
   0.99158499  0.00431922  0.74279986
   0.75953363  0.25164129  0.73927958
   0.75179557 -0.00424364  0.51735331
   0.51298356  0.24284021  0.50088582
   0.51113017  0.00015413  0.74884860
   0.00007904  0.00190972  0.25289230
   0.50488871  0.24416614 -0.00386737
   0.25066633  0.74842779  0.24916244
   0.24127749  0.50133446  0.98963696
   0.99260653  0.74286772 -0.00079780
   0.74713358  0.74304837  0.24803774
   0.76249879  0.51041334  0.00141045
   0.49907062  0.50722971  0.25120723
   0.24384019  0.25182216  0.74737201
   0.25403358  0.00066994  0.51270404
   0.99404237  0.24638083  0.50365959
   0.23735350  0.75393821  0.75139694
   0.25454338  0.50050953  0.50373243
   0.99110350  0.75612134  0.50631560
   0.00187003  0.49762361  0.75767088
   0.75492359  0.75541069  0.75572282
   0.74674925  0.49242334  0.50254763
   0.50517120  0.76076867  0.49400979
   0.49830919  0.50318347  0.74304757
   0.52552200  0.01148836  0.97553321
   0.99690207  0.52023497  0.97517504
   0.50113214  0.73348103  0.25800806
   0.22240021  0.01461226  0.74274184
   0.47788290  0.98779014  0.50235399
   0.73422946  0.97005766  0.76663614
   0.00117722  0.77303252  0.24925973
   0.74202168  0.51085802  0.25314604
   0.01373087  0.00366369  0.51166182
   0.50567208  0.51983994  0.49694693
   0.75179067  0.52178494  0.75332092
   0.75064486  0.73859871  0.49536740
HECN                                    
           1
     8.812507    0.007939   -0.018248
     0.013633    8.932051   -0.022629
     0.013336   -0.037912    8.812032
   Hf   V    Zr   N    C    Cr   W 
   7   6   7  13  19   6   6
Direct configuration=     9
   0.99277620  0.99676937  0.98287036
   0.25936888  0.99984289  0.24802991
   0.23680912  0.49759371  0.24450931
   0.50057333  0.50215292  0.99650890
   0.50910192  0.24076163  0.74247466
   0.99730260  0.50072816  0.50466570
   0.49846220  0.75957251  0.75341888
   0.98910327  0.22468307  0.27267029
   0.76294842  0.73817959  0.01060883
   0.00410031  0.25205228  0.73153530
   0.75969078  0.25922239  0.50625451
   0.99993137  0.73533287  0.75970868
   0.24611888  0.48919030  0.75384844
   0.24288640  0.24587568  0.99405932
   0.51010222  0.25417125  0.25298435
   0.74246049  0.99423954  0.26396323
   0.76041688  0.25685876  0.99169461
   0.24731588  0.75333521  0.99680285
   0.25389101  0.24986292  0.50089551
   0.24739569  0.75155534  0.50392812
   0.24645398  0.24762847  0.24860606
   0.25069226  0.00104629  0.99527658
  -0.00004953  0.24484516 -0.00129045
   0.76269412  0.25189282  0.25863012
   0.74564575  0.99283831 -0.00714733
   0.49940032  0.99288732  0.24785455
   0.99191792  0.49000053  0.24959337
   0.51097881  0.75863689  0.00200641
   0.99175445  0.00454230  0.74257176
   0.75963493  0.25231958  0.73921808
   0.75304897 -0.00475497  0.51735642
   0.51320264  0.24371859  0.50063237
   0.51193583 -0.00007691  0.74948750
  -0.00019813  0.00208433  0.25305267
   0.50480892  0.24397486 -0.00374608
   0.25046863  0.74832430  0.24923124
   0.24104118  0.50138717  0.98951053
   0.99292493  0.74329905 -0.00081402
   0.74695464  0.74310606  0.24834148
   0.76259474  0.51016001  0.00144880
   0.49887348  0.50706497  0.25116775
   0.24391018  0.25162192  0.74733113
   0.25419635  0.00064679  0.51317744
   0.99448067  0.24637922  0.50362167
   0.23724998  0.75414891  0.75139303
   0.25469046  0.50058582  0.50365406
   0.99081897  0.75632549  0.50614232
   0.00234957  0.49736056  0.75747201
   0.75505255  0.75511609  0.75593788
   0.74689913  0.49256845  0.50258739
   0.50506442  0.76092754  0.49402473
   0.49861946  0.50333115  0.74273166
   0.52610693  0.01127109  0.97506623
   0.99682842  0.52059360  0.97511468
   0.50090194  0.73313871  0.25824575
   0.22103983  0.01494745  0.74230149
   0.47799168  0.98809069  0.50272675
   0.73354793  0.96964458  0.76650250
   0.00078521  0.77240124  0.24918787
   0.74200202  0.51122161  0.25284993
   0.01323251  0.00325006  0.51208938
   0.50591559  0.51960053  0.49674056
   0.75221431  0.52165142  0.75379694
   0.75056759  0.73827135  0.49488516
HECN                                    
           1
     8.806973    0.004252   -0.016360
     0.009915    8.900790   -0.020427
     0.015211   -0.035638    8.802982
   Hf   V    Zr   N    C    Cr   W 
   7   6   7  13  19   6   6
Direct configuration=    10
   0.99278710  0.99705453  0.98438177
   0.26008862  0.99941486  0.25002636
   0.23666779  0.49800549  0.24431802
   0.49986481  0.50245201  0.99632838
   0.50918526  0.24258109  0.74180875
   0.99712748  0.50161405  0.50434200
   0.49806006  0.75845711  0.75228780
   0.98891583  0.22384863  0.27368193
   0.76341424  0.73830453  0.01061348
   0.00393337  0.24978416  0.73043391
   0.76007843  0.26134417  0.50614746
   0.00092702  0.73363439  0.76052961
   0.24365143  0.48814469  0.75368690
   0.24256345  0.24518414  0.99448094
   0.51090349  0.25409977  0.25277199
   0.74132167  0.99400904  0.26514291
   0.76046715  0.25697487  0.99120151
   0.24942803  0.75411662  0.99744029
   0.25467708  0.25031158  0.50083224
   0.24751844  0.75137471  0.50391713
   0.24584466  0.24770277  0.24855133
   0.24854759  0.00108757  0.99576002
   0.00003494  0.24379886 -0.00141776
   0.76247844  0.25174976  0.25779204
   0.74671675  0.99344024 -0.00666547
   0.49921659  0.99391361  0.24845205
   0.99110662  0.49208538  0.25040351
   0.51022372  0.75803072  0.00200611
   0.99055638  0.00520001  0.74277453
   0.75935162  0.25461405  0.73959381
   0.75642088 -0.00564439  0.51694975
   0.51363828  0.24653969  0.50051577
   0.51459161 -0.00024513  0.74883214
  -0.00064934  0.00128701  0.25347088
   0.50474758  0.24326581 -0.00408428
   0.24983650  0.74826004  0.24984246
   0.24032319  0.50093546  0.98989295
   0.99344068  0.74468730  0.00017064
   0.74659732  0.74354843  0.24840075
   0.76254424  0.50988692  0.00223039
   0.49771167  0.50653916  0.25051433
   0.24467010  0.25087378  0.74719605
   0.25522999  0.00058689  0.51409311
   0.99539752  0.24645522  0.50317210
   0.23709630  0.75484561  0.75119303
   0.25478875  0.50089978  0.50334596
   0.99028218  0.75699796  0.50586524
   0.00235409  0.49687866  0.75704293
   0.75542071  0.75457160  0.75593284
   0.74743388  0.49263303  0.50272764
   0.50495437  0.76145790  0.49339784
   0.50011659  0.50281415  0.74215890
   0.52704822  0.01129318  0.97340607
   0.99744601  0.52138604  0.97608235
   0.50063667  0.73159315  0.25963899
   0.21790603  0.01676692  0.74062550
   0.47821125  0.98818151  0.50547655
   0.73251675  0.96678838  0.76551322
  -0.00000754  0.77214792  0.24929317
   0.74177206  0.51212860  0.25258335
   0.01169494  0.00256823  0.50992055
   0.50630718  0.51871931  0.49545891
   0.75447955  0.52059701  0.75422976
   0.74938407  0.73742120  0.49328677
HECN                                    
           1
     8.805907    0.003541   -0.015996
     0.009198    8.894767   -0.020003
     0.015572   -0.035200    8.801238
   Hf   V    Zr   N    C    Cr   W 
   7   6   7  13  19   6   6
Direct configuration=    11
   0.99278917  0.99710959  0.98467326
   0.26022726  0.99933207  0.25041139
   0.23664058  0.49808510  0.24428111
   0.49972825  0.50250979  0.99629358
   0.50920150  0.24293291  0.74168023
   0.99709380  0.50178533  0.50427953
   0.49798249  0.75824148  0.75206973
   0.98887958  0.22368724  0.27387709
   0.76350405  0.73832872  0.01061436
   0.00390105  0.24934568  0.73022161
   0.76015333  0.26175444  0.50612670
   0.00111880  0.73330604  0.76068798
   0.24317567  0.48794234  0.75365589
   0.24250112  0.24505039  0.99456230
   0.51105796  0.25408603  0.25273100
   0.74110205  0.99396432  0.26537048
   0.76047687  0.25699735  0.99110641
   0.24983526  0.75426783  0.99756310
   0.25482866  0.25039839  0.50081999
   0.24754209  0.75133980  0.50391501
   0.24572720  0.24771709  0.24854079
   0.24813411  0.00109535  0.99585335
   0.00005114  0.24359657 -0.00144226
   0.76243689  0.25172212  0.25763042
   0.74692326  0.99355668 -0.00657261
   0.49918123  0.99411200  0.24856724
   0.99095034  0.49248836  0.25055969
   0.51007810  0.75791346  0.00200611
   0.99032545  0.00532707  0.74281366
   0.75929717  0.25505763  0.73966617
   0.75707088 -0.00581606  0.51687122
   0.51372250  0.24708516  0.50049313
   0.51510362 -0.00027741  0.74870564
  -0.00073640  0.00113280  0.25355159
   0.50473571  0.24312873 -0.00414947
   0.24971460  0.74824754  0.24996038
   0.24018472  0.50084805  0.98996675
   0.99354019  0.74495570  0.00036045
   0.74652846  0.74363393  0.24841218
   0.76253446  0.50983408  0.00238114
   0.49748768  0.50643744  0.25038838
   0.24481654  0.25072920  0.74717000
   0.25542922  0.00057535  0.51426966
   0.99557430  0.24647001  0.50308535
   0.23706674  0.75498031  0.75115443
   0.25480774  0.50096051  0.50328652
   0.99017876  0.75712794  0.50581179
   0.00235494  0.49678551  0.75696020
   0.75549164  0.75446636  0.75593188
   0.74753697  0.49264555  0.50275467
   0.50493323  0.76156046  0.49327692
   0.50040519  0.50271433  0.74204840
   0.52722976  0.01129761  0.97308585
   0.99756510  0.52153925  0.97626891
   0.50058534  0.73129424  0.25990777
   0.21730209  0.01711853  0.74030230
   0.47825348  0.98819895  0.50600687
   0.73231777  0.96623613  0.76532260
  -0.00016039  0.77209888  0.24931352
   0.74172781  0.51230395  0.25253190
   0.01139855  0.00243639  0.50950236
   0.50638266  0.51854903  0.49521176
   0.75491615  0.52039331  0.75431319
   0.74915591  0.73725681  0.49297858
HECN                                    
           1
     8.828723    0.001468   -0.016107
     0.007122    8.904780   -0.021244
     0.015541   -0.036434    8.818046
   Hf   V    Zr   N    C    Cr   W 
   7   6   7  13  19   6   6
Direct configuration=    12
   0.99288250  0.99687880  0.98611088
   0.26049139  0.99896061  0.25195433
   0.23689582  0.49818034  0.24428686