  64  64   0   0
  0.1129557E+02  0.8932500E-09  0.9055600E-09  0.8937200E-09  0.5000000E-15
  1.000000000000000E-004
  CAR 
 HECN                                    
     13.95645892    -52.82008599  301      7.91542557      1.00000000
    -52.820  0.0000E+00  0.0000E+00
    -52.597  0.0000E+00  0.0000E+00
    -52.375  0.0000E+00  0.0000E+00
    -52.152  0.0000E+00  0.0000E+00
    -51.930  0.0000E+00  0.0000E+00
    -51.707  0.0000E+00  0.0000E+00
    -51.485  0.0000E+00  0.0000E+00
    -51.262  0.0000E+00  0.0000E+00
    -51.039  0.0000E+00  0.0000E+00
    -50.817  0.0000E+00  0.0000E+00
    -50.594  0.0000E+00  0.0000E+00
    -50.372  0.4988E-17  0.1110E-17
    -50.149  0.1361E-07  0.3030E-08
    -49.926  0.2980E-02  0.6634E-03
    -49.704  0.1883E+00  0.4257E-01
    -49.481  0.2263E+00  0.9294E-01
    -49.259  0.1657E+00  0.1298E+00
    -49.036  0.4561E-01  0.1400E+00
    -48.813  0.7822E-04  0.1400E+00
    -48.591  0.1530E-10  0.1400E+00
    -48.368  0.0000E+00  0.1400E+00
    -48.146  0.0000E+00  0.1400E+00
    -47.923  0.0000E+00  0.1400E+00
    -47.701  0.0000E+00  0.1400E+00
    -47.478  0.0000E+00  0.1400E+00
    -47.255  0.0000E+00  0.1400E+00
    -47.033  0.0000E+00  0.1400E+00
    -46.810  0.0000E+00  0.1400E+00
    -46.588  0.0000E+00  0.1400E+00
    -46.365  0.0000E+00  0.1400E+00
    -46.142  0.0000E+00  0.1400E+00
    -45.920  0.0000E+00  0.1400E+00
    -45.697  0.0000E+00  0.1400E+00
    -45.475  0.0000E+00  0.1400E+00
    -45.252  0.0000E+00  0.1400E+00
    -45.029  0.0000E+00  0.1400E+00
    -44.807  0.0000E+00  0.1400E+00
    -44.584  0.0000E+00  0.1400E+00
    -44.362  0.0000E+00  0.1400E+00
    -44.139  0.0000E+00  0.1400E+00
    -43.917  0.0000E+00  0.1400E+00
    -43.694  0.0000E+00  0.1400E+00
    -43.471  0.0000E+00  0.1400E+00
    -43.249  0.0000E+00  0.1400E+00
    -43.026  0.0000E+00  0.1400E+00
    -42.804  0.0000E+00  0.1400E+00
    -42.581  0.0000E+00  0.1400E+00
    -42.358  0.0000E+00  0.1400E+00
    -42.136  0.0000E+00  0.1400E+00
    -41.913  0.0000E+00  0.1400E+00
    -41.691  0.1638E-09  0.1400E+00
    -41.468  0.2664E-03  0.1401E+00
    -41.245  0.5850E-01  0.1531E+00
    -41.023  0.4184E-01  0.1624E+00
    -40.800  0.2095E+00  0.2090E+00
    -40.578  0.2847E+00  0.2724E+00
    -40.355  0.3406E-01  0.2800E+00
    -40.133  0.6478E-05  0.2800E+00
    -39.910  0.1381E-12  0.2800E+00
    -39.687  0.0000E+00  0.2800E+00
    -39.465  0.0000E+00  0.2800E+00
    -39.242  0.0000E+00  0.2800E+00
    -39.020  0.0000E+00  0.2800E+00
    -38.797  0.0000E+00  0.2800E+00
    -38.574  0.0000E+00  0.2800E+00
    -38.352  0.0000E+00  0.2800E+00
    -38.129  0.0000E+00  0.2800E+00
    -37.907  0.0000E+00  0.2800E+00
    -37.684  0.0000E+00  0.2800E+00
    -37.461  0.0000E+00  0.2800E+00
    -37.239  0.0000E+00  0.2800E+00
    -37.016  0.0000E+00  0.2800E+00
    -36.794  0.0000E+00  0.2800E+00
    -36.571  0.2278E-14  0.2800E+00
    -36.349  0.5277E-06  0.2800E+00
    -36.126  0.9752E-02  0.2822E+00
    -35.903  0.9342E-01  0.3030E+00
    -35.681  0.5878E+00  0.4338E+00
    -35.458  0.8459E+00  0.6221E+00
    -35.236  0.8041E-01  0.6400E+00
    -35.013  0.6205E-04  0.6400E+00
    -34.790  0.9417E-11  0.6400E+00
    -34.568  0.0000E+00  0.6400E+00
    -34.345  0.0000E+00  0.6400E+00
    -34.123  0.0000E+00  0.6400E+00
    -33.900  0.0000E+00  0.6400E+00
    -33.677  0.0000E+00  0.6400E+00
    -33.455  0.0000E+00  0.6400E+00
    -33.232  0.0000E+00  0.6400E+00
    -33.010  0.0000E+00  0.6400E+00
    -32.787  0.0000E+00  0.6400E+00
    -32.565  0.0000E+00  0.6400E+00
    -32.342  0.4125E-14  0.6400E+00
    -32.119  0.7526E-06  0.6400E+00
    -31.897  0.1113E-01  0.6425E+00
    -31.674  0.1358E+00  0.6727E+00
    -31.452  0.5666E+00  0.7988E+00
    -31.229  0.6877E+00  0.9519E+00
    -31.006  0.2125E+00  0.9992E+00
    -30.784  0.3617E-02  0.1000E+01
    -30.561  0.3407E-07  0.1000E+01
    -30.339  0.1995E-16  0.1000E+01
    -30.116  0.0000E+00  0.1000E+01
    -29.893  0.0000E+00  0.1000E+01
    -29.671  0.0000E+00  0.1000E+01
    -29.448  0.0000E+00  0.1000E+01
    -29.226  0.0000E+00  0.1000E+01
    -29.003  0.0000E+00  0.1000E+01
    -28.781  0.0000E+00  0.1000E+01
    -28.558  0.0000E+00  0.1000E+01
    -28.335  0.0000E+00  0.1000E+01
    -28.113  0.0000E+00  0.1000E+01
    -27.890  0.0000E+00  0.1000E+01
    -27.668  0.0000E+00  0.1000E+01
    -27.445  0.0000E+00  0.1000E+01
    -27.222  0.0000E+00  0.1000E+01
    -27.000  0.0000E+00  0.1000E+01
    -26.777  0.1409E-12  0.1000E+01
    -26.555  0.5915E-05  0.1000E+01
    -26.332  0.2537E-01  0.1006E+01
    -26.109  0.4127E+00  0.1098E+01
    -25.887  0.6733E+00  0.1247E+01
    -25.664  0.6055E+00  0.1382E+01
    -25.442  0.1691E+00  0.1420E+01
    -25.219  0.9572E-03  0.1420E+01
    -24.997  0.1326E-08  0.1420E+01
    -24.774  0.0000E+00  0.1420E+01
    -24.551  0.0000E+00  0.1420E+01
    -24.329  0.0000E+00  0.1420E+01
    -24.106  0.0000E+00  0.1420E+01
    -23.884  0.0000E+00  0.1420E+01
    -23.661  0.0000E+00  0.1420E+01
    -23.438  0.0000E+00  0.1420E+01
    -23.216  0.0000E+00  0.1420E+01
    -22.993  0.0000E+00  0.1420E+01
    -22.771  0.0000E+00  0.1420E+01
    -22.548  0.0000E+00  0.1420E+01
    -22.325  0.0000E+00  0.1420E+01
    -22.103  0.0000E+00  0.1420E+01
    -21.880  0.0000E+00  0.1420E+01
    -21.658  0.0000E+00  0.1420E+01
    -21.435  0.0000E+00  0.1420E+01
    -21.213  0.0000E+00  0.1420E+01
    -20.990  0.0000E+00  0.1420E+01
    -20.767  0.0000E+00  0.1420E+01
    -20.545  0.0000E+00  0.1420E+01
    -20.322  0.0000E+00  0.1420E+01
    -20.100  0.6392E-09  0.1420E+01
    -19.877  0.5576E-03  0.1420E+01
    -19.654  0.1187E+00  0.1447E+01
    -19.432  0.1801E+00  0.1487E+01
    -19.209  0.5721E+00  0.1614E+01
    -18.987  0.6811E+00  0.1766E+01
    -18.764  0.2688E+00  0.1825E+01
    -18.541  0.6529E-01  0.1840E+01
    -18.319  0.2154E-03  0.1840E+01
    -18.096  0.1075E-09  0.1840E+01
    -17.874  0.0000E+00  0.1840E+01
    -17.651  0.0000E+00  0.1840E+01
    -17.429  0.0000E+00  0.1840E+01
    -17.206  0.0000E+00  0.1840E+01
    -16.983  0.0000E+00  0.1840E+01
    -16.761  0.0000E+00  0.1840E+01
    -16.538  0.0000E+00  0.1840E+01
    -16.316  0.0000E+00  0.1840E+01
    -16.093  0.0000E+00  0.1840E+01
    -15.870  0.0000E+00  0.1840E+01
    -15.648  0.0000E+00  0.1840E+01
    -15.425  0.0000E+00  0.1840E+01
    -15.203  0.0000E+00  0.1840E+01
    -14.980  0.0000E+00  0.1840E+01
    -14.757  0.0000E+00  0.1840E+01
    -14.535  0.0000E+00  0.1840E+01
    -14.312  0.0000E+00  0.1840E+01
    -14.090  0.0000E+00  0.1840E+01
    -13.867  0.0000E+00  0.1840E+01
    -13.645  0.0000E+00  0.1840E+01
    -13.422  0.0000E+00  0.1840E+01
    -13.199  0.0000E+00  0.1840E+01
    -12.977  0.0000E+00  0.1840E+01
    -12.754  0.0000E+00  0.1840E+01
    -12.532  0.0000E+00  0.1840E+01
    -12.309  0.0000E+00  0.1840E+01
    -12.086  0.0000E+00  0.1840E+01
    -11.864  0.0000E+00  0.1840E+01
    -11.641  0.0000E+00  0.1840E+01
    -11.419  0.0000E+00  0.1840E+01
    -11.196  0.0000E+00  0.1840E+01
    -10.973  0.0000E+00  0.1840E+01
    -10.751  0.0000E+00  0.1840E+01
    -10.528  0.0000E+00  0.1840E+01
    -10.306  0.0000E+00  0.1840E+01
    -10.083  0.0000E+00  0.1840E+01
     -9.861  0.0000E+00  0.1840E+01
     -9.638  0.0000E+00  0.1840E+01
     -9.415  0.0000E+00  0.1840E+01
     -9.193  0.0000E+00  0.1840E+01
     -8.970  0.2891E-13  0.1840E+01
     -8.748  0.8156E-06  0.1840E+01
     -8.525  0.4886E-02  0.1841E+01
     -8.302  0.7201E-01  0.1857E+01
     -8.080  0.3363E-01  0.1865E+01
     -7.857  0.9386E-01  0.1885E+01
     -7.635  0.6548E-01  0.1900E+01
     -7.412  0.6661E-01  0.1915E+01
     -7.189  0.1556E+00  0.1950E+01
     -6.967  0.1623E+00  0.1986E+01
     -6.744  0.2146E+00  0.2033E+01
     -6.522  0.2396E+00  0.2087E+01
     -6.299  0.5938E-01  0.2100E+01
     -6.077  0.1839E-03  0.2100E+01
     -5.854  0.8115E-10  0.2100E+01
     -5.631  0.5173E-17  0.2100E+01
     -5.409  0.4730E-08  0.2100E+01
     -5.186  0.4367E-03  0.2100E+01
     -4.964  0.4089E-01  0.2109E+01
     -4.741  0.4834E-01  0.2120E+01
     -4.518  0.4868E-01  0.2131E+01
     -4.296  0.1218E+00  0.2158E+01
     -4.073  0.1235E+00  0.2185E+01
     -3.851  0.2022E+00  0.2230E+01
     -3.628  0.2005E+00  0.2275E+01
     -3.405  0.1966E+00  0.2319E+01
     -3.183  0.1862E+00  0.2360E+01
     -2.960  0.1868E+00  0.2402E+01
     -2.738  0.1574E+00  0.2437E+01
     -2.515  0.1462E+00  0.2469E+01
     -2.293  0.4224E-01  0.2479E+01
     -2.070  0.5467E-02  0.2480E+01
     -1.847  0.1509E-04  0.2480E+01
     -1.625  0.1243E-10  0.2480E+01
     -1.402  0.0000E+00  0.2480E+01
     -1.180  0.0000E+00  0.2480E+01
     -0.957  0.0000E+00  0.2480E+01
     -0.734  0.1328E-13  0.2480E+01
     -0.512  0.3717E-06  0.2480E+01
     -0.289  0.9991E-03  0.2480E+01
     -0.067  0.8045E-02  0.2482E+01
      0.156  0.3644E-01  0.2490E+01
      0.379  0.8894E-01  0.2510E+01
      0.601  0.1171E+00  0.2536E+01
      0.824  0.1581E+00  0.2571E+01
      1.046  0.1928E+00  0.2614E+01
      1.269  0.2336E+00  0.2666E+01
      1.492  0.2767E+00  0.2728E+01
      1.714  0.2694E+00  0.2788E+01
      1.937  0.3210E+00  0.2859E+01
      2.159  0.3804E+00  0.2944E+01
      2.382  0.4079E+00  0.3035E+01
      2.604  0.4311E+00  0.3131E+01
      2.827  0.4847E+00  0.3238E+01
      3.050  0.5803E+00  0.3368E+01
      3.272  0.6221E+00  0.3506E+01
      3.495  0.6146E+00  0.3643E+01
      3.717  0.6122E+00  0.3779E+01
      3.940  0.5477E+00  0.3901E+01
      4.163  0.4565E+00  0.4003E+01
      4.385  0.3725E+00  0.4086E+01
      4.608  0.3457E+00  0.4162E+01
      4.830  0.3202E+00  0.4234E+01
      5.053  0.2501E+00  0.4289E+01
      5.276  0.2050E+00  0.4335E+01
      5.498  0.1836E+00  0.4376E+01
      5.721  0.1132E+00  0.4401E+01
      5.943  0.1292E+00  0.4430E+01
      6.166  0.1838E+00  0.4471E+01
      6.388  0.1671E+00  0.4508E+01
      6.611  0.2192E+00  0.4557E+01
      6.834  0.2507E+00  0.4613E+01
      7.056  0.2124E+00  0.4660E+01
      7.279  0.2524E+00  0.4716E+01
      7.501  0.2842E+00  0.4779E+01
      7.724  0.2747E+00  0.4840E+01
      7.947  0.2576E+00  0.4898E+01
      8.169  0.2993E+00  0.4964E+01
      8.392  0.3934E+00  0.5052E+01
      8.614  0.4179E+00  0.5145E+01
      8.837  0.4972E+00  0.5256E+01
      9.060  0.5612E+00  0.5381E+01
      9.282  0.5369E+00  0.5500E+01
      9.505  0.5211E+00  0.5616E+01
      9.727  0.5155E+00  0.5731E+01
      9.950  0.5421E+00  0.5851E+01
     10.172  0.5187E+00  0.5967E+01
     10.395  0.4887E+00  0.6076E+01
     10.618  0.3883E+00  0.6162E+01
     10.840  0.2896E+00  0.6227E+01
     11.063  0.6005E-01  0.6240E+01
     11.285  0.5320E-03  0.6240E+01
     11.508  0.2095E-08  0.6240E+01
     11.731  0.0000E+00  0.6240E+01
     11.953  0.0000E+00  0.6240E+01
     12.176  0.0000E+00  0.6240E+01
     12.398  0.0000E+00  0.6240E+01
     12.621  0.0000E+00  0.6240E+01
     12.844  0.0000E+00  0.6240E+01
     13.066  0.0000E+00  0.6240E+01
     13.289  0.0000E+00  0.6240E+01
     13.511  0.0000E+00  0.6240E+01
     13.734  0.0000E+00  0.6240E+01
     13.956  0.0000E+00  0.6240E+01
