 running on   24 total cores
 distrk:  each k-point on   24 cores,    1 groups
 distr:  one band on    1 cores,   24 groups
 using from now: INCAR     
 vasp.5.4.4.18Apr17-6-g9f103f2a35 (build Oct 18 2021 20:38:43) complex          
  
 POSCAR found type information on POSCAR  Zr W  Ti N  C  Cr Mo
 POSCAR found :  7 types and      64 ions
 scaLAPACK will be used

 ----------------------------------------------------------------------------- 
|                                                                             |
|           W    W    AA    RRRRR   N    N  II  N    N   GGGG   !!!           |
|           W    W   A  A   R    R  NN   N  II  NN   N  G    G  !!!           |
|           W    W  A    A  R    R  N N  N  II  N N  N  G       !!!           |
|           W WW W  AAAAAA  RRRRR   N  N N  II  N  N N  G  GGG   !            |
|           WW  WW  A    A  R   R   N   NN  II  N   NN  G    G                |
|           W    W  A    A  R    R  N    N  II  N    N   GGGG   !!!           |
|                                                                             |
|      For optimal performance we recommend to set                            |
|        NCORE= 4 - approx SQRT( number of cores)                             |
|      NCORE specifies how many cores store one orbital (NPAR=cpu/NCORE).     |
|      This setting can  greatly improve the performance of VASP for DFT.     |
|      The default,   NCORE=1            might be grossly inefficient         |
|      on modern multi-core architectures or massively parallel machines.     |
|      Do your own testing !!!!                                               |
|      Unfortunately you need to use the default for GW and RPA calculations. |
|      (for HF NCORE is supported but not extensively tested yet)             |
|                                                                             |
 ----------------------------------------------------------------------------- 


 ----------------------------------------------------------------------------- 
|                                                                             |
|  ADVICE TO THIS USER RUNNING 'VASP/VAMP'   (HEAR YOUR MASTER'S VOICE ...):  |
|                                                                             |
|      You have a (more or less) 'large supercell' and for larger cells       |
|      it might be more efficient to use real space projection operators      |
|      So try LREAL= Auto  in the INCAR   file.                               |
|      Mind: If you want to do a very accurate calculations keep the          |
|      reciprocal projection scheme          (i.e. LREAL=.FALSE.)             |
|                                                                             |
 ----------------------------------------------------------------------------- 

 LDA part: xc-table for Pade appr. of Perdew
 POSCAR, INCAR and KPOINTS ok, starting setup
 FFT: planning ...
 WAVECAR not read
 entering main loop
       N       E                     dE             d eps       ncg     rms          rms(c)
DAV:   1     0.596759017105E+04    0.59676E+04   -0.19568E+05  8736   0.148E+03
DAV:   2     0.275895150604E+03   -0.56917E+04   -0.54843E+04  8952   0.543E+02
DAV:   3    -0.647046510748E+03   -0.92294E+03   -0.85940E+03 13296   0.188E+02
DAV:   4    -0.766195521172E+03   -0.11915E+03   -0.11583E+03 15960   0.814E+01
DAV:   5    -0.778309804124E+03   -0.12114E+02   -0.11931E+02 16656   0.216E+01    0.771E+01
RMM:   6    -0.947527621668E+03   -0.16922E+03   -0.25952E+03 12287   0.137E+02    0.127E+02
RMM:   7    -0.649097387611E+03    0.29843E+03   -0.28528E+02 14432   0.355E+01    0.500E+01
RMM:   8    -0.635475635611E+03    0.13622E+02   -0.43723E+01 14003   0.167E+01    0.321E+01
RMM:   9    -0.629668269494E+03    0.58074E+01   -0.15667E+01 13910   0.819E+00    0.259E+01
RMM:  10    -0.626569976927E+03    0.30983E+01   -0.56254E+00 14067   0.662E+00    0.111E+01
RMM:  11    -0.627333269857E+03   -0.76329E+00   -0.62116E+00 13918   0.572E+00    0.179E+01
RMM:  12    -0.627407922828E+03   -0.74653E-01   -0.41411E+00 13913   0.387E+00    0.200E+01
RMM:  13    -0.625786260948E+03    0.16217E+01   -0.22254E+00 14223   0.348E+00    0.687E+00
RMM:  14    -0.626940238069E+03   -0.11540E+01   -0.14565E+00 13819   0.285E+00    0.183E+01
RMM:  15    -0.625668227735E+03    0.12720E+01   -0.99996E-01 13607   0.279E+00    0.476E+00
RMM:  16    -0.625770617108E+03   -0.10239E+00   -0.62251E-01 14102   0.149E+00    0.695E+00
RMM:  17    -0.625639226436E+03    0.13139E+00   -0.33968E-01 14139   0.125E+00    0.311E+00
RMM:  18    -0.625719576787E+03   -0.80350E-01   -0.26027E-01 13952   0.961E-01    0.528E+00
RMM:  19    -0.625630775826E+03    0.88801E-01   -0.18402E-01 14074   0.834E-01    0.130E+00
RMM:  20    -0.625634998596E+03   -0.42228E-02   -0.10488E-01 14262   0.546E-01    0.953E-01
RMM:  21    -0.625633367207E+03    0.16314E-02   -0.47400E-02 14053   0.380E-01    0.639E-01
RMM:  22    -0.625631941628E+03    0.14256E-02   -0.33004E-02 14083   0.263E-01    0.170E-01
RMM:  23    -0.625633005344E+03   -0.10637E-02   -0.18032E-02 13661   0.213E-01    0.118E-01
RMM:  24    -0.625633791344E+03   -0.78600E-03   -0.10159E-02 13039   0.136E-01    0.753E-02
RMM:  25    -0.625634286884E+03   -0.49554E-03   -0.64432E-03 12784   0.102E-01    0.490E-02
RMM:  26    -0.625634631695E+03   -0.34481E-03   -0.42991E-03 12478   0.810E-02    0.366E-02
RMM:  27    -0.625634885918E+03   -0.25422E-03   -0.30162E-03 12078   0.640E-02    0.233E-02
RMM:  28    -0.625635047040E+03   -0.16112E-03   -0.19015E-03 11911   0.512E-02    0.171E-02
RMM:  29    -0.625635160883E+03   -0.11384E-03   -0.12804E-03 11910   0.421E-02    0.867E-03
RMM:  30    -0.625635236456E+03   -0.75573E-04   -0.85149E-04 11512   0.347E-02    0.598E-03
RMM:  31    -0.625635287619E+03   -0.51163E-04   -0.57957E-04 11164   0.287E-02    0.729E-03
RMM:  32    -0.625635322524E+03   -0.34905E-04   -0.39526E-04 10821   0.245E-02    0.494E-03
RMM:  33    -0.625635346302E+03   -0.23778E-04   -0.27004E-04 10544   0.209E-02    0.276E-03
RMM:  34    -0.625635361666E+03   -0.15364E-04   -0.17425E-04 10075   0.183E-02    0.159E-03
RMM:  35    -0.625635371466E+03   -0.98004E-05   -0.11517E-04  9596   0.160E-02    0.175E-03
RMM:  36    -0.625635377938E+03   -0.64716E-05   -0.76876E-05  9168   0.144E-02
   1 F= -.62563538E+03 E0= -.62552364E+03  d E =-.625635E+03
 curvature:   0.00 expect dE= 0.000E+00 dE for cont linesearch  0.000E+00
 trial: gam= 0.00000 g(F)=  0.348E+01 g(S)=  0.127E+02 ort = 0.000E+00 (trialstep = 0.100E+01)
 search vector abs. value=  0.161E+02
 bond charge predicted
       N       E                     dE             d eps       ncg     rms          rms(c)
DAV:   1    -0.717731147318E+03   -0.92096E+02   -0.30228E+03 12456   0.247E+02    0.734E+01
RMM:   2    -0.876954238524E+03   -0.15922E+03   -0.14872E+03 10459   0.142E+02    0.104E+02
RMM:   3    -0.639295898445E+03    0.23766E+03   -0.11101E+02 12486   0.355E+01    0.404E+01
RMM:   4    -0.634508969911E+03    0.47869E+01   -0.49278E+01 13441   0.223E+01    0.332E+01
RMM:   5    -0.641494506325E+03   -0.69855E+01   -0.35336E+01 10966   0.208E+01    0.467E+01
RMM:   6    -0.623162570585E+03    0.18332E+02   -0.18781E+01 12733   0.124E+01    0.123E+01
RMM:   7    -0.625193130383E+03   -0.20306E+01   -0.56247E+00 12582   0.704E+00    0.220E+01
RMM:   8    -0.622526248391E+03    0.26669E+01   -0.25072E+00 12597   0.478E+00    0.722E+00
RMM:   9    -0.622593856648E+03   -0.67608E-01   -0.12032E+00 13978   0.267E+00    0.835E+00
RMM:  10    -0.622317923552E+03    0.27593E+00   -0.60337E-01 14494   0.179E+00    0.362E+00
RMM:  11    -0.622446711748E+03   -0.12879E+00   -0.32352E-01 14248   0.135E+00    0.557E+00
RMM:  12    -0.622376090552E+03    0.70621E-01   -0.24413E-01 13761   0.130E+00    0.187E+00
RMM:  13    -0.622480456816E+03   -0.10437E+00   -0.21628E-01 13978   0.116E+00    0.406E+00
RMM:  14    -0.622439888089E+03    0.40569E-01   -0.16037E-01 14151   0.998E-01    0.133E+00
RMM:  15    -0.622453681213E+03   -0.13793E-01   -0.15473E-01 14689   0.593E-01    0.498E-01
RMM:  16    -0.622459361796E+03   -0.56806E-02   -0.68457E-02 14673   0.476E-01    0.413E-01
RMM:  17    -0.622462736842E+03   -0.33750E-02   -0.40563E-02 14654   0.306E-01    0.183E-01
RMM:  18    -0.622464525842E+03   -0.17890E-02   -0.23211E-02 14317   0.240E-01    0.110E-01
RMM:  19    -0.622465521574E+03   -0.99573E-03   -0.13064E-02 14115   0.173E-01    0.713E-02
RMM:  20    -0.622466055092E+03   -0.53352E-03   -0.70159E-03 13602   0.127E-01    0.267E-02
RMM:  21    -0.622466397868E+03   -0.34278E-03   -0.40469E-03 12456   0.974E-02    0.390E-02
RMM:  22    -0.622466591464E+03   -0.19360E-03   -0.23700E-03 12078   0.730E-02    0.281E-02
RMM:  23    -0.622466706421E+03   -0.11496E-03   -0.14038E-03 11993   0.587E-02    0.125E-02
RMM:  24    -0.622466784114E+03   -0.77692E-04   -0.89130E-04 11720   0.470E-02    0.185E-02
RMM:  25    -0.622466829934E+03   -0.45820E-04   -0.54828E-04 11679   0.362E-02    0.599E-03
RMM:  26    -0.622466858503E+03   -0.28569E-04   -0.33686E-04 11485   0.312E-02    0.359E-03
RMM:  27    -0.622466875871E+03   -0.17368E-04   -0.20962E-04 10996   0.239E-02    0.647E-03
RMM:  28    -0.622466886460E+03   -0.10590E-04   -0.13206E-04 10797   0.221E-02    0.234E-03
RMM:  29    -0.622466895224E+03   -0.87639E-05   -0.99471E-05 10192   0.178E-02
   2 F= -.62246690E+03 E0= -.62238444E+03  d E =0.316848E+01
 trial-energy change:    3.168483  1 .order    4.560593  -16.147903   25.269089
 step:   0.4396(harm=  0.3899)  dis= 0.03958  next Energy=  -629.302661 (dE=-0.367E+01)
 bond charge predicted
       N       E                     dE             d eps       ncg     rms          rms(c)
DAV:   1    -0.670087993898E+03   -0.47621E+02   -0.10079E+03 12456   0.132E+02    0.686E+01
RMM:   2    -0.932139563757E+03   -0.26205E+03   -0.33472E+02 13830   0.443E+01    0.834E+01
RMM:   3    -0.677136456776E+03    0.25500E+03   -0.99308E+01 13326   0.338E+01    0.553E+01
RMM:   4    -0.633881541233E+03    0.43255E+02   -0.48310E+01 12128   0.236E+01    0.163E+01
RMM:   5    -0.644754382321E+03   -0.10873E+02   -0.39263E+01 12756   0.168E+01    0.442E+01
RMM:   6    -0.634490042454E+03    0.10264E+02   -0.10303E+01 12779   0.992E+00    0.267E+01
RMM:   7    -0.635457286009E+03   -0.96724E+00   -0.74235E+00 11968   0.951E+00    0.276E+01
RMM:   8    -0.634291139592E+03    0.11661E+01   -0.38408E+00 13648   0.509E+00    0.249E+01
RMM:   9    -0.629453672709E+03    0.48375E+01   -0.23066E+00 12014   0.578E+00    0.500E+00
RMM:  10    -0.629592536474E+03   -0.13886E+00   -0.74761E-01 13745   0.205E+00    0.797E+00
RMM:  11    -0.629362488231E+03    0.23005E+00   -0.26728E-01 13802   0.140E+00    0.345E+00
RMM:  12    -0.629392032868E+03   -0.29545E-01   -0.22689E-01 13852   0.122E+00    0.457E+00
RMM:  13    -0.629316367451E+03    0.75665E-01   -0.14132E-01 14192   0.907E-01    0.124E+00
RMM:  14    -0.629362788008E+03   -0.46421E-01   -0.97144E-02 14588   0.648E-01    0.288E+00
RMM:  15    -0.629356080627E+03    0.67074E-02   -0.51246E-02 13881   0.577E-01    0.231E+00
RMM:  16    -0.629336149281E+03    0.19931E-01   -0.59217E-02 14175   0.551E-01    0.467E-01
RMM:  17    -0.629343006001E+03   -0.68567E-02   -0.40132E-02 14416   0.298E-01    0.526E-01
RMM:  18    -0.629346524751E+03   -0.35187E-02   -0.22886E-02 14444   0.237E-01    0.311E-01
RMM:  19    -0.629348823203E+03   -0.22985E-02   -0.14119E-02 14151   0.190E-01    0.518E-01
RMM:  20    -0.629348669051E+03    0.15415E-03   -0.90051E-03 13790   0.163E-01    0.280E-01
RMM:  21    -0.629348747861E+03   -0.78810E-04   -0.62642E-03 13252   0.124E-01    0.623E-02
RMM:  22    -0.629348979180E+03   -0.23132E-03   -0.30801E-03 12609   0.870E-02    0.397E-02
RMM:  23    -0.629349132146E+03   -0.15297E-03   -0.18340E-03 12380   0.647E-02    0.261E-02
RMM:  24    -0.629349225061E+03   -0.92915E-04   -0.10723E-03 12179   0.532E-02    0.334E-02
RMM:  25    -0.629349278320E+03   -0.53259E-04   -0.67961E-04 11838   0.427E-02    0.177E-02
RMM:  26    -0.629349312877E+03   -0.34557E-04   -0.41339E-04 11848   0.335E-02    0.119E-02
RMM:  27    -0.629349337182E+03   -0.24305E-04   -0.28565E-04 11736   0.275E-02    0.431E-03
RMM:  28    -0.629349350475E+03   -0.13293E-04   -0.15997E-04 10920   0.224E-02    0.506E-03
RMM:  29    -0.629349359706E+03   -0.92312E-05   -0.10806E-04 10482   0.196E-02    0.236E-03
RMM:  30    -0.629349364893E+03   -0.51876E-05   -0.63620E-05  9618   0.170E-02
   3 F= -.62934936E+03 E0= -.62925145E+03  d E =-.371399E+01
 curvature:  -0.19 expect dE=-0.634E+00 dE for cont linesearch -0.534E-02
 ZBRENT: interpolating
 opt :   0.4540  next Energy=  -629.354173 (dE=-0.372E+01)
 bond charge predicted
       N       E                     dE             d eps       ncg     rms          rms(c)
DAV:   1    -0.629379576142E+03   -0.30216E-01   -0.65519E-01 12792   0.344E+00    0.174E+00
RMM:   2    -0.630046412873E+03   -0.66684E+00   -0.52991E-01 11420   0.257E+00    0.113E+01
RMM:   3    -0.629427437777E+03    0.61898E+00   -0.18248E-01 11298   0.171E+00    0.387E+00
RMM:   4    -0.629364150606E+03    0.63287E-01   -0.37032E-02 11880   0.661E-01    0.113E+00
RMM:   5    -0.629360978486E+03    0.31721E-02   -0.12861E-02 13125   0.303E-01    0.116E+00
RMM:   6    -0.629357925120E+03    0.30534E-02   -0.54487E-03 11674   0.265E-01    0.862E-01
RMM:   7    -0.629354801078E+03    0.31240E-02   -0.47359E-03 12969   0.191E-01    0.463E-01
RMM:   8    -0.629354824053E+03   -0.22975E-04   -0.19870E-03 11909   0.153E-01    0.481E-01
RMM:   9    -0.629353890575E+03    0.93348E-03   -0.13430E-03 12885   0.104E-01    0.193E-01
RMM:  10    -0.629353916611E+03   -0.26035E-04   -0.50966E-04 11438   0.647E-02    0.214E-01
RMM:  11    -0.629353743914E+03    0.17270E-03   -0.24776E-04 11181   0.416E-02    0.422E-02
RMM:  12    -0.629353757215E+03   -0.13300E-04   -0.14305E-04 10721   0.256E-02    0.363E-02
RMM:  13    -0.629353773961E+03   -0.16747E-04   -0.62166E-05  8529   0.212E-02    0.519E-02
RMM:  14    -0.629353777437E+03   -0.34754E-05   -0.44307E-05  7695   0.211E-02
   4 F= -.62935378E+03 E0= -.62925629E+03  d E =-.371840E+01
 curvature:  -0.17 expect dE=-0.601E+00 dE for cont linesearch -0.148E-03
 trial: gam= 0.20620 g(F)=  0.281E+01 g(S)=  0.634E+00 ort = 0.117E+00 (trialstep = 0.891E+00)
 search vector abs. value=  0.418E+01
 bond charge predicted
       N       E                     dE             d eps       ncg     rms          rms(c)
DAV:   1    -0.626510755004E+03    0.28430E+01   -0.46959E+02  9456   0.803E+01    0.778E+00
RMM:   2    -0.641803025291E+03   -0.15292E+02   -0.53231E+01 14279   0.196E+01    0.302E+01
RMM:   3    -0.631289395484E+03    0.10514E+02   -0.69095E+00 11467   0.113E+01    0.103E+01
RMM:   4    -0.631042577172E+03    0.24682E+00   -0.28344E+00 14410   0.352E+00    0.553E+00
RMM:   5    -0.630919317216E+03    0.12326E+00   -0.65647E-01 14133   0.187E+00    0.389E+00
RMM:   6    -0.630885278862E+03    0.34038E-01   -0.30910E-01 14106   0.129E+00    0.340E+00
RMM:   7    -0.630844727259E+03    0.40552E-01   -0.22051E-01 14138   0.101E+00    0.210E+00
RMM:   8    -0.630876634733E+03   -0.31907E-01   -0.15909E-01 14110   0.939E-01    0.391E+00
RMM:   9    -0.630823401727E+03    0.53233E-01   -0.67142E-02 13519   0.787E-01    0.181E+00
RMM:  10    -0.630824531216E+03   -0.11295E-02   -0.60937E-02 14100   0.553E-01    0.161E+00
RMM:  11    -0.630816093781E+03    0.84374E-02   -0.27491E-02 14018   0.415E-01    0.838E-01
RMM:  12    -0.630813817059E+03    0.22767E-02   -0.19969E-02 13942   0.198E-01    0.366E-01
RMM:  13    -0.630813866157E+03   -0.49098E-04   -0.81662E-03 13862   0.157E-01    0.221E-01
RMM:  14    -0.630814188577E+03   -0.32242E-03   -0.47290E-03 12963   0.113E-01    0.203E-01
RMM:  15    -0.630814270972E+03   -0.82396E-04   -0.30681E-03 12639   0.849E-02    0.720E-02
RMM:  16    -0.630814390249E+03   -0.11928E-03   -0.17327E-03 12134   0.632E-02    0.571E-02
RMM:  17    -0.630814459303E+03   -0.69054E-04   -0.10373E-03 11761   0.483E-02    0.152E-02
RMM:  18    -0.630814510854E+03   -0.51551E-04   -0.62469E-04 11259   0.380E-02    0.174E-02
RMM:  19    -0.630814550091E+03   -0.39237E-04   -0.45673E-04 11485   0.319E-02    0.811E-03
RMM:  20    -0.630814572954E+03   -0.22863E-04   -0.27274E-04 10951   0.248E-02    0.418E-03
RMM:  21    -0.630814589156E+03   -0.16202E-04   -0.18817E-04 10479   0.208E-02    0.257E-03
RMM:  22    -0.630814599013E+03   -0.98568E-05   -0.11801E-04 10070   0.186E-02    0.141E-03
RMM:  23    -0.630814605083E+03   -0.60702E-05   -0.73678E-05  9469   0.157E-02
   5 F= -.63081461E+03 E0= -.63072334E+03  d E =-.146083E+01
 trial-energy change:   -1.460828  1 .order   -1.510675   -3.091728    0.070379
 step:   0.8690(harm=  0.8710)  dis= 0.08756  next Energy=  -630.815469 (dE=-0.146E+01)
 bond charge predicted
       N       E                     dE             d eps       ncg     rms          rms(c)
DAV:   1    -0.630812907131E+03    0.16919E-02   -0.28274E-01  9720   0.199E+00    0.185E-01
RMM:   2    -0.630825570956E+03   -0.12664E-01   -0.34769E-02 14241   0.520E-01    0.146E+00
RMM:   3    -0.630816318337E+03    0.92526E-02   -0.47128E-03 11590   0.254E-01    0.387E-01
RMM:   4    -0.630815683930E+03    0.63441E-03   -0.15729E-03 12307   0.111E-01    0.185E-01
RMM:   5    -0.630815596407E+03    0.87523E-04   -0.56162E-04 12170   0.543E-02    0.158E-01
RMM:   6    -0.630815513188E+03    0.83219E-04   -0.20271E-04 11122   0.409E-02    0.839E-02
RMM:   7    -0.630815495591E+03    0.17597E-04   -0.13817E-04 11080   0.272E-02    0.814E-02
RMM:   8    -0.630815481885E+03    0.13706E-04   -0.62157E-05  9027   0.255E-02    0.623E-02
RMM:   9    -0.630815463203E+03    0.18683E-04   -0.72902E-05  9802   0.218E-02    0.287E-02
RMM:  10    -0.630815469674E+03   -0.64713E-05   -0.25299E-05  5930   0.185E-02
   6 F= -.63081547E+03 E0= -.63072395E+03  d E =-.146169E+01
 curvature:  -0.52 expect dE=-0.387E+00 dE for cont linesearch -0.264E-06
 trial: gam= 0.12667 g(F)=  0.613E+00 g(S)=  0.133E+00 ort = 0.146E-02 (trialstep = 0.886E+00)
 search vector abs. value=  0.813E+00
 bond charge predicted
       N       E                     dE             d eps       ncg     rms          rms(c)
DAV:   1    -0.630294257224E+03    0.52121E+00   -0.11508E+02 11976   0.579E+01    0.111E+01
RMM:   2    -0.650768650035E+03   -0.20474E+02   -0.29780E+01 13170   0.165E+01    0.407E+01
RMM:   3    -0.631527575308E+03    0.19241E+02   -0.76843E+00 11693   0.109E+01    0.759E+00
RMM:   4    -0.631629205600E+03   -0.10163E+00   -0.19072E+00 14269   0.338E+00    0.878E+00
RMM:   5    -0.631277453064E+03    0.35175E+00   -0.49637E-01 13316   0.213E+00    0.415E+00
RMM:   6    -0.631253798573E+03    0.23654E-01   -0.24429E-01 13378   0.141E+00    0.404E+00
RMM:   7    -0.631186154353E+03    0.67644E-01   -0.15883E-01 13924   0.104E+00    0.247E+00
RMM:   8    -0.631243361497E+03   -0.57207E-01   -0.11242E-01 13235   0.102E+00    0.441E+00
RMM:   9    -0.631156447112E+03    0.86914E-01   -0.68820E-02 13176   0.810E-01    0.917E-01
RMM:  10    -0.631168598641E+03   -0.12152E-01   -0.43312E-02 13924   0.485E-01    0.184E+00
RMM:  11    -0.631154176589E+03    0.14422E-01   -0.18769E-02 13335   0.385E-01    0.408E-01
RMM:  12    -0.631156261513E+03   -0.20849E-02   -0.16191E-02 13822   0.207E-01    0.682E-01
RMM:  13    -0.631154837628E+03    0.14239E-02   -0.60059E-03 13607   0.160E-01    0.202E-01
RMM:  14    -0.631155362868E+03   -0.52524E-03   -0.45571E-03 13523   0.976E-02    0.125E-01
RMM:  15    -0.631155723809E+03   -0.36094E-03   -0.23938E-03 13328   0.880E-02    0.859E-02
RMM:  16    -0.631155933637E+03   -0.20983E-03   -0.18515E-03 13111   0.740E-02    0.417E-02
RMM:  17    -0.631156007101E+03   -0.73464E-04   -0.10462E-03 12186   0.530E-02    0.338E-02
RMM:  18    -0.631156048252E+03   -0.41151E-04   -0.56435E-04 11495   0.412E-02    0.218E-02
RMM:  19    -0.631156076929E+03   -0.28677E-04   -0.35580E-04 11544   0.337E-02    0.151E-02
RMM:  20    -0.631156095322E+03   -0.18392E-04   -0.23657E-04 11367   0.260E-02    0.870E-03
RMM:  21    -0.631156104614E+03   -0.92923E-05   -0.12937E-04 10716   0.209E-02    0.291E-03
RMM:  22    -0.631156111396E+03   -0.67826E-05   -0.81847E-05 10120   0.187E-02
   7 F= -.63115611E+03 E0= -.63106900E+03  d E =-.340642E+00
 trial-energy change:   -0.340642  1 .order   -0.343255   -0.661467   -0.025043
 step:   0.9222(harm=  0.9213)  dis= 0.04911  next Energy=  -631.156617 (dE=-0.341E+00)
 bond charge predicted
       N       E                     dE             d eps       ncg     rms          rms(c)
DAV:   1    -0.631154993916E+03    0.11107E-02   -0.18159E-01 12360   0.236E+00    0.435E-01
RMM:   2    -0.631197949077E+03   -0.42955E-01   -0.60128E-02 12158   0.824E-01    0.268E+00
RMM:   3    -0.631161096286E+03    0.36853E-01   -0.15670E-02 11494   0.474E-01    0.940E-01
RMM:   4    -0.631157303556E+03    0.37927E-02   -0.34284E-03 12228   0.194E-01    0.266E-01
RMM:   5    -0.631157391957E+03   -0.88402E-04   -0.13941E-03 12523   0.943E-02    0.368E-01
RMM:   6    -0.631156873262E+03    0.51870E-03   -0.50327E-04 10921   0.774E-02    0.154E-01
RMM:   7    -0.631156871909E+03    0.13531E-05   -0.38826E-04 12674   0.536E-02    0.185E-01
RMM:   8    -0.631156743521E+03    0.12839E-03   -0.21015E-04 11013   0.517E-02    0.906E-02
RMM:   9    -0.631156752105E+03   -0.85843E-05   -0.19411E-04 11937   0.371E-02    0.109E-01
RMM:  10    -0.631156702482E+03    0.49623E-04   -0.76334E-05 10325   0.301E-02    0.358E-02
RMM:  11    -0.631156708760E+03   -0.62773E-05   -0.58472E-05  9010   0.190E-02
   8 F= -.63115671E+03 E0= -.63106978E+03  d E =-.341239E+00
 curvature:  -0.50 expect dE=-0.324E+00 dE for cont linesearch -0.136E-06
 trial: gam= 0.87082 g(F)=  0.253E+00 g(S)=  0.393E+00 ort =-0.470E-03 (trialstep = 0.576E+00)
 search vector abs. value=  0.126E+01
 bond charge predicted
       N       E                     dE             d eps       ncg     rms          rms(c)
DAV:   1    -0.629747991504E+03    0.14087E+01   -0.80180E+01 11304   0.538E+01    0.537E+00
RMM:   2    -0.636566165715E+03   -0.68182E+01   -0.25292E+01 13172   0.140E+01    0.262E+01
RMM:   3    -0.631548545983E+03    0.50176E+01   -0.31874E+00 11850   0.656E+00    0.543E+00
RMM:   4    -0.631587460363E+03   -0.38914E-01   -0.10406E+00 14173   0.222E+00    0.550E+00
RMM:   5    -0.631446934543E+03    0.14053E+00   -0.18400E-01 13565   0.125E+00    0.242E+00
RMM:   6    -0.631446277130E+03    0.65741E-03   -0.10466E-01 13724   0.823E-01    0.293E+00
RMM:   7    -0.631412588621E+03    0.33689E-01   -0.60052E-02 13695   0.703E-01    0.179E+00
RMM:   8    -0.631419704291E+03   -0.71157E-02   -0.48768E-02 13111   0.662E-01    0.219E+00
RMM:   9    -0.631394357071E+03    0.25347E-01   -0.47005E-02 13934   0.580E-01    0.674E-01
RMM:  10    -0.631396550404E+03   -0.21933E-02   -0.18174E-02 13957   0.306E-01    0.941E-01
RMM:  11    -0.631393185901E+03    0.33645E-02   -0.81403E-03 13815   0.213E-01    0.278E-01
RMM:  12    -0.631393989731E+03   -0.80383E-03   -0.56965E-03 13125   0.137E-01    0.407E-01
RMM:  13    -0.631393537293E+03    0.45244E-03   -0.26942E-03 13463   0.108E-01    0.130E-01
RMM:  14    -0.631393807813E+03   -0.27052E-03   -0.17662E-03 13043   0.672E-02    0.932E-02
RMM:  15    -0.631394005964E+03   -0.19815E-03   -0.11418E-03 12798   0.596E-02    0.472E-02
RMM:  16    -0.631394087156E+03   -0.81191E-04   -0.75423E-04 12382   0.482E-02    0.218E-02
RMM:  17    -0.631394120235E+03   -0.33080E-04   -0.41982E-04 11533   0.374E-02    0.160E-02
RMM:  18    -0.631394138805E+03   -0.18569E-04   -0.24186E-04 10937   0.286E-02    0.102E-02
RMM:  19    -0.631394151624E+03   -0.12819E-04   -0.15920E-04 11159   0.242E-02    0.705E-03
RMM:  20    -0.631394158348E+03   -0.67240E-05   -0.89014E-05  9967   0.190E-02
   9 F= -.63139416E+03 E0= -.63131489E+03  d E =-.237450E+00
 trial-energy change:   -0.237450  1 .order   -0.232197   -0.371953   -0.092441
 step:   0.7421(harm=  0.7662)  dis= 0.04904  next Energy=  -631.407632 (dE=-0.251E+00)
 bond charge predicted
       N       E                     dE             d eps       ncg     rms          rms(c)
DAV:   1    -0.631249256859E+03    0.14489E+00   -0.64748E+00 10848   0.156E+01    0.155E+00
RMM:   2    -0.631831895141E+03   -0.58264E+00   -0.21480E+00 13472   0.407E+00    0.815E+00
RMM:   3    -0.631443672733E+03    0.38822E+00   -0.31153E-01 11985   0.190E+00    0.270E+00
RMM:   4    -0.631420232533E+03    0.23440E-01   -0.82757E-02 13689   0.709E-01    0.133E+00
RMM:   5    -0.631413609515E+03    0.66230E-02   -0.19491E-02 13740   0.362E-01    0.941E-01
RMM:   6    -0.631410679990E+03    0.29295E-02   -0.77778E-03 12926   0.246E-01    0.668E-01
RMM:   7    -0.631409373063E+03    0.13069E-02   -0.56586E-03 13911   0.194E-01    0.571E-01
RMM:   8    -0.631409049107E+03    0.32396E-03   -0.35779E-03 12740   0.195E-01    0.519E-01
RMM:   9    -0.631407866404E+03    0.11827E-02   -0.40048E-03 13893   0.165E-01    0.343E-01
RMM:  10    -0.631407499935E+03    0.36647E-03   -0.14574E-03 12876   0.103E-01    0.192E-01
RMM:  11    -0.631407416403E+03    0.83531E-04   -0.87257E-04 12504   0.614E-02    0.101E-01
RMM:  12    -0.631407439979E+03   -0.23576E-04   -0.45894E-04 12039   0.451E-02    0.906E-02
WARNING in EDDRMM: call to ZHEGV failed, returncode =   8  4      7
RMM:  13    -0.631407439001E+03    0.97787E-06   -0.27265E-04 11585   0.297E-02    0.372E-02
WARNING in EDDRMM: call to ZHEGV failed, returncode =   6  3     11
RMM:  14    -0.631407467271E+03   -0.28270E-04   -0.15765E-04 11096   0.248E-02    0.263E-02
RMM:  15    -0.631407489238E+03   -0.21968E-04   -0.10466E-04 10842   0.214E-02    0.122E-02
RMM:  16    -0.631407497294E+03   -0.80551E-05   -0.68007E-05 10335   0.194E-02
  10 F= -.63140750E+03 E0= -.63133029E+03  d E =-.250789E+00
 curvature:  -0.74 expect dE=-0.219E+00 dE for cont linesearch -0.814E-07
 trial: gam= 0.39045 g(F)=  0.280E+00 g(S)=  0.179E-01 ort =-0.373E-03 (trialstep = 0.609E+00)
 search vector abs. value=  0.490E+00
 bond charge predicted
       N       E                     dE             d eps       ncg     rms          rms(c)
DAV:   1    -0.630714883966E+03    0.69261E+00   -0.33998E+01  9168   0.337E+01    0.141E+00
RMM:   2    -0.631591540372E+03   -0.87666E+00   -0.83640E+00 14277   0.710E+00    0.424E+00
RMM:   3    -0.631563143671E+03    0.28397E-01   -0.54406E-01 13793   0.203E+00    0.234E+00
RMM:   4    -0.631572089721E+03   -0.89460E-02   -0.13714E-01 13809   0.901E-01    0.234E+00
RMM:   5    -0.631545654375E+03    0.26435E-01   -0.36153E-02 13547   0.532E-01    0.653E-01
RMM:   6    -0.631546625426E+03   -0.97105E-03   -0.22460E-02 13993   0.273E-01    0.798E-01
RMM:   7    -0.631544744823E+03    0.18806E-02   -0.10558E-02 13769   0.215E-01    0.631E-01
RMM:   8    -0.631545328214E+03   -0.58339E-03   -0.76106E-03 13250   0.246E-01    0.748E-01
RMM:   9    -0.631542044226E+03    0.32840E-02   -0.79900E-03 13928   0.201E-01    0.149E-01
RMM:  10    -0.631542806979E+03   -0.76275E-03   -0.27762E-03 13201   0.122E-01    0.387E-01
RMM:  11    -0.631542150040E+03    0.65694E-03   -0.13940E-03 12211   0.957E-02    0.101E-01
RMM:  12    -0.631542297655E+03   -0.14762E-03   -0.10702E-03 12048   0.606E-02    0.172E-01
RMM:  13    -0.631542176033E+03    0.12162E-03   -0.53987E-04 11811   0.501E-02    0.319E-02
RMM:  14    -0.631542190622E+03   -0.14589E-04   -0.32315E-04 11188   0.293E-02    0.148E-02
RMM:  15    -0.631542201380E+03   -0.10758E-04   -0.16276E-04 10840   0.267E-02    0.841E-03
RMM:  16    -0.631542208319E+03   -0.69392E-05   -0.88850E-05  9471   0.190E-02
  11 F= -.63154221E+03 E0= -.63146870E+03  d E =-.134711E+00
 trial-energy change:   -0.134711  1 .order   -0.133639   -0.181316   -0.085962
 step:   1.0986(harm=  1.1581)  dis= 0.03418  next Energy=  -631.577310 (dE=-0.170E+00)
 bond charge predicted
       N       E                     dE             d eps       ncg     rms          rms(c)
DAV:   1    -0.631038714370E+03    0.50349E+00   -0.21918E+01  9096   0.272E+01    0.113E+00
RMM:   2    -0.631600322747E+03   -0.56161E+00   -0.54483E+00 14264   0.572E+00    0.306E+00
RMM:   3    -0.631594042826E+03    0.62799E-02   -0.35608E-01 13894   0.159E+00    0.194E+00
RMM:   4    -0.631594744912E+03   -0.70209E-03   -0.83702E-02 13743   0.715E-01    0.167E+00
RMM:   5    -0.631581322371E+03    0.13423E-01   -0.23434E-02 13588   0.411E-01    0.553E-01
RMM:   6    -0.631581771526E+03   -0.44915E-03   -0.13574E-02 13871   0.217E-01    0.615E-01
RMM:   7    -0.631580502806E+03    0.12687E-02   -0.67910E-03 13765   0.172E-01    0.479E-01
RMM:   8    -0.631580980403E+03   -0.47760E-03   -0.48024E-03 13019   0.200E-01    0.609E-01
RMM:   9    -0.631578913583E+03    0.20668E-02   -0.51990E-03 13864   0.166E-01    0.151E-01
RMM:  10    -0.631579434753E+03   -0.52117E-03   -0.18768E-03 12873   0.103E-01    0.332E-01
RMM:  11    -0.631578947093E+03    0.48766E-03   -0.97671E-04 12112   0.768E-02    0.720E-02
RMM:  12    -0.631579032866E+03   -0.85774E-04   -0.68872E-04 11860   0.513E-02    0.126E-01
RMM:  13    -0.631578966091E+03    0.66775E-04   -0.37231E-04 11535   0.388E-02    0.256E-02
RMM:  14    -0.631578974864E+03   -0.87727E-05   -0.20019E-04 10835   0.260E-02    0.120E-02
RMM:  15    -0.631578981834E+03   -0.69699E-05   -0.10677E-04 10363   0.219E-02    0.673E-03
RMM:  16    -0.631578986376E+03   -0.45419E-05   -0.59700E-05  9288   0.173E-02
  12 F= -.63157899E+03 E0= -.63150800E+03  d E =-.171489E+00
 curvature:  -0.94 expect dE=-0.183E+00 dE for cont linesearch -0.526E-04
 trial: gam= 0.50777 g(F)=  0.175E+00 g(S)=  0.202E-01 ort = 0.523E-02 (trialstep = 0.707E+00)
 search vector abs. value=  0.326E+00
 bond charge predicted
       N       E                     dE             d eps       ncg     rms          rms(c)
DAV:   1    -0.631221740731E+03    0.35724E+00   -0.28584E+01 11040   0.282E+01    0.316E+00
RMM:   2    -0.633324022157E+03   -0.21023E+01   -0.65946E+00 13866   0.707E+00    0.156E+01
RMM:   3    -0.631786721132E+03    0.15373E+01   -0.98863E-01 11784   0.378E+00    0.445E+00
RMM:   4    -0.631707566505E+03    0.79155E-01   -0.28522E-01 13857   0.136E+00    0.232E+00
RMM:   5    -0.631689945200E+03    0.17621E-01   -0.87356E-02 14228   0.667E-01    0.177E+00
RMM:   6    -0.631678597550E+03    0.11348E-01   -0.28184E-02 13033   0.510E-01    0.117E+00
RMM:   7    -0.631675135119E+03    0.34624E-02   -0.22785E-02 14079   0.358E-01    0.106E+00
RMM:   8    -0.631675904153E+03   -0.76903E-03   -0.14050E-02 12838   0.396E-01    0.115E+00
RMM:   9    -0.631670181290E+03    0.57229E-02   -0.11633E-02 13862   0.289E-01    0.616E-01
RMM:  10    -0.631668980296E+03    0.12010E-02   -0.51035E-03 13484   0.191E-01    0.354E-01
RMM:  11    -0.631668721337E+03    0.25896E-03   -0.34417E-03 13307   0.107E-01    0.178E-01
RMM:  12    -0.631668774765E+03   -0.53428E-04   -0.16003E-03 12448   0.810E-02    0.163E-01
RMM:  13    -0.631668732638E+03    0.42127E-04   -0.97977E-04 12327   0.545E-02    0.623E-02
RMM:  14    -0.631668789699E+03   -0.57061E-04   -0.55757E-04 12221   0.425E-02    0.408E-02
RMM:  15    -0.631668826121E+03   -0.36422E-04   -0.35701E-04 12119   0.355E-02    0.203E-02
WARNING in EDDRMM: call to ZHEGV failed, returncode =   6  3      5
RMM:  16    -0.631668837708E+03   -0.11586E-04   -0.21017E-04 11146   0.283E-02    0.967E-03
RMM:  17    -0.631668847183E+03   -0.94750E-05   -0.12184E-04 10719   0.232E-02    0.748E-03
RMM:  18    -0.631668853280E+03   -0.60968E-05   -0.73775E-05 10225   0.198E-02
  13 F= -.63166885E+03 E0= -.63159913E+03  d E =-.898669E-01
 trial-energy change:   -0.089867  1 .order   -0.089588   -0.139600   -0.039576
 step:   0.9803(harm=  0.9867)  dis= 0.02406  next Energy=  -631.676521 (dE=-0.975E-01)
 bond charge predicted
       N       E                     dE             d eps       ncg     rms          rms(c)
DAV:   1    -0.631606208559E+03    0.62639E-01   -0.42248E+00 11160   0.110E+01    0.122E+00
RMM:   2    -0.631924245879E+03   -0.31804E+00   -0.10423E+00 13683   0.287E+00    0.627E+00
RMM:   3    -0.631699627971E+03    0.22462E+00   -0.15945E-01 11868   0.145E+00    0.204E+00
RMM:   4    -0.631682374894E+03    0.17253E-01   -0.43896E-02 13714   0.541E-01    0.844E-01
RMM:   5    -0.631680491933E+03    0.18830E-02   -0.14095E-02 14091   0.263E-01    0.743E-01
RMM:   6    -0.631678222152E+03    0.22698E-02   -0.42357E-03 12309   0.203E-01    0.427E-01
RMM:   7    -0.631677923282E+03    0.29887E-03   -0.36424E-03 13995   0.145E-01    0.444E-01
RMM:   8    -0.631677748243E+03    0.17504E-03   -0.21250E-03 12519   0.155E-01    0.404E-01
RMM:   9    -0.631677096711E+03    0.65153E-03   -0.18805E-03 13605   0.113E-01    0.255E-01
RMM:  10    -0.631676849035E+03    0.24768E-03   -0.78288E-04 12508   0.791E-02    0.118E-01
WARNING in EDDRMM: call to ZHEGV failed, returncode =   6  3      8
RMM:  11    -0.631676830956E+03    0.18079E-04   -0.54576E-04 12137   0.431E-02    0.637E-02
RMM:  12    -0.631676842376E+03   -0.11419E-04   -0.24220E-04 11771   0.349E-02    0.644E-02
WARNING in EDDRMM: call to ZHEGV failed, returncode =   8  4      5
RMM:  13    -0.631676834280E+03    0.80955E-05   -0.15905E-04 11229   0.230E-02    0.249E-02
WARNING in EDDRMM: call to ZHEGV failed, returncode =   8  4      6
RMM:  14    -0.631676840406E+03   -0.61259E-05   -0.92150E-05 10469   0.200E-02
  14 F= -.63167684E+03 E0= -.63160758E+03  d E =-.978540E-01
 curvature:  -0.82 expect dE=-0.115E+00 dE for cont linesearch -0.821E-05
 trial: gam= 0.70079 g(F)=  0.635E-01 g(S)=  0.770E-01 ort = 0.181E-02 (trialstep = 0.762E+00)
 search vector abs. value=  0.303E+00
 bond charge predicted
       N       E                     dE             d eps       ncg     rms          rms(c)
DAV:   1    -0.631218655745E+03    0.45818E+00   -0.30774E+01 11448   0.318E+01    0.401E+00
RMM:   2    -0.634277769501E+03   -0.30591E+01   -0.92355E+00 12301   0.966E+00    0.187E+01
RMM:   3    -0.631861362021E+03    0.24164E+01   -0.16642E+00 11924   0.457E+00    0.453E+00
RMM:   4    -0.631807218429E+03    0.54144E-01   -0.41194E-01 13865   0.156E+00    0.314E+00
RMM:   5    -0.631766658153E+03    0.40560E-01   -0.10313E-01 13767   0.854E-01    0.202E+00
RMM:   6    -0.631752530059E+03    0.14128E-01   -0.44720E-02 12967   0.621E-01    0.147E+00
RMM:   7    -0.631740287019E+03    0.12243E-01   -0.32612E-02 14024   0.458E-01    0.104E+00
RMM:   8    -0.631753489834E+03   -0.13203E-01   -0.23783E-02 12778   0.506E-01    0.197E+00
RMM:   9    -0.631735420926E+03    0.18069E-01   -0.18498E-02 13352   0.422E-01    0.641E-01
RMM:  10    -0.631734272494E+03    0.11484E-02   -0.81719E-03 13756   0.219E-01    0.398E-01
RMM:  11    -0.631733770680E+03    0.50181E-03   -0.39899E-03 13465   0.120E-01    0.151E-01
RMM:  12    -0.631734036944E+03   -0.26626E-03   -0.20279E-03 12756   0.897E-02    0.214E-01
RMM:  13    -0.631733944063E+03    0.92881E-04   -0.11271E-03 12655   0.639E-02    0.821E-02
RMM:  14    -0.631734077333E+03   -0.13327E-03   -0.72746E-04 12467   0.460E-02    0.507E-02
RMM:  15    -0.631734167818E+03   -0.90484E-04   -0.50358E-04 12208   0.419E-02    0.270E-02
RMM:  16    -0.631734196464E+03   -0.28646E-04   -0.31809E-04 11758   0.331E-02    0.133E-02
RMM:  17    -0.631734208945E+03   -0.12481E-04   -0.15607E-04 10553   0.254E-02    0.115E-02
RMM:  18    -0.631734217346E+03   -0.84012E-05   -0.10274E-04 11049   0.228E-02    0.783E-03
RMM:  19    -0.631734220424E+03   -0.30774E-05   -0.45884E-05  8950   0.165E-02
  15 F= -.63173422E+03 E0= -.63166739E+03  d E =-.573800E-01
 trial-energy change:   -0.057380  1 .order   -0.056283   -0.107999   -0.004567
 step:   0.7932(harm=  0.7953)  dis= 0.02015  next Energy=  -631.734315 (dE=-0.575E-01)
 bond charge predicted
       N       E                     dE             d eps       ncg     rms          rms(c)
DAV:   1    -0.631733395473E+03    0.82187E-03   -0.52894E-02 12192   0.132E+00    0.169E-01
RMM:   2    -0.631738808103E+03   -0.54126E-02   -0.15426E-02 12742   0.386E-01    0.796E-01
RMM:   3    -0.631734585596E+03    0.42225E-02   -0.29546E-03 11088   0.194E-01    0.222E-01
RMM:   4    -0.631734421733E+03    0.16386E-03   -0.70544E-04 12123   0.726E-02    0.124E-01
RMM:   5    -0.631734363750E+03    0.57983E-04   -0.21027E-04 11365   0.390E-02    0.811E-02
RMM:   6    -0.631734337684E+03    0.26066E-04   -0.82973E-05  9559   0.305E-02    0.549E-02
RMM:   7    -0.631734321220E+03    0.16464E-04   -0.61113E-05 10133   0.232E-02    0.363E-02
RMM:   8    -0.631734346757E+03   -0.25538E-04   -0.41481E-05  6651   0.251E-02    0.828E-02
RMM:   9    -0.631734316322E+03    0.30435E-04   -0.35420E-05  6245   0.250E-02    0.131E-02
RMM:  10    -0.631734319739E+03   -0.34166E-05   -0.19740E-05  5873   0.160E-02
  16 F= -.63173432E+03 E0= -.63166759E+03  d E =-.574793E-01
 curvature:  -0.85 expect dE=-0.808E-01 dE for cont linesearch -0.402E-06
 trial: gam= 0.64510 g(F)=  0.738E-01 g(S)=  0.215E-01 ort = 0.379E-03 (trialstep = 0.768E+00)
 search vector abs. value=  0.222E+00
 bond charge predicted
       N       E                     dE             d eps       ncg     rms          rms(c)
DAV:   1    -0.631227916801E+03    0.50640E+00   -0.23977E+01  9552   0.288E+01    0.116E+00
RMM:   2    -0.631796154095E+03   -0.56824E+00   -0.56590E+00 14335   0.588E+00    0.223E+00
RMM:   3    -0.631799559858E+03   -0.34058E-02   -0.36365E-01 13748   0.174E+00    0.185E+00
RMM:   4    -0.631800872504E+03   -0.13126E-02   -0.93732E-02 13839   0.770E-01    0.172E+00
RMM:   5    -0.631787924009E+03    0.12948E-01   -0.25612E-02 13902   0.435E-01    0.552E-01
RMM:   6    -0.631788339413E+03   -0.41540E-03   -0.15558E-02 13992   0.222E-01    0.579E-01
RMM:   7    -0.631787421947E+03    0.91747E-03   -0.71739E-03 13888   0.206E-01    0.502E-01
RMM:   8    -0.631788609602E+03   -0.11877E-02   -0.67097E-03 13766   0.207E-01    0.737E-01
RMM:   9    -0.631785784710E+03    0.28249E-02   -0.44218E-03 13539   0.187E-01    0.237E-01
RMM:  10    -0.631785973832E+03   -0.18912E-03   -0.23330E-03 13284   0.112E-01    0.268E-01
RMM:  11    -0.631785670131E+03    0.30370E-03   -0.11724E-03 12839   0.716E-02    0.516E-02
RMM:  12    -0.631785725301E+03   -0.55171E-04   -0.69815E-04 12375   0.477E-02    0.968E-02
WARNING in EDDRMM: call to ZHEGV failed, returncode =   6  3      6
RMM:  13    -0.631785702766E+03    0.22535E-04   -0.31845E-04 11685   0.437E-02    0.438E-02
RMM:  14    -0.631785710348E+03   -0.75822E-05   -0.23514E-04 11102   0.262E-02    0.174E-02
RMM:  15    -0.631785717455E+03   -0.71067E-05   -0.11065E-04 10599   0.232E-02    0.912E-03
RMM:  16    -0.631785721109E+03   -0.36544E-05   -0.61704E-05  9608   0.188E-02
  17 F= -.63178572E+03 E0= -.63171962E+03  d E =-.514014E-01
 trial-energy change:   -0.051401  1 .order   -0.050912   -0.073363   -0.028461
 step:   1.2093(harm=  1.2547)  dis= 0.02906  next Energy=  -631.793992 (dE=-0.597E-01)
 bond charge predicted
       N       E                     dE             d eps       ncg     rms          rms(c)
DAV:   1    -0.631614135685E+03    0.17158E+00   -0.79490E+00  9624   0.166E+01    0.664E-01
RMM:   2    -0.631797835058E+03   -0.18370E+00   -0.18400E+00 14313   0.334E+00    0.117E+00
RMM:   3    -0.631800027833E+03   -0.21928E-02   -0.11271E-01 13878   0.986E-01    0.109E+00
RMM:   4    -0.631799615234E+03    0.41260E-03   -0.29963E-02 13691   0.441E-01    0.954E-01
RMM:   5    -0.631795712741E+03    0.39025E-02   -0.83768E-03 13653   0.249E-01    0.333E-01
RMM:   6    -0.631795807151E+03   -0.94410E-04   -0.51834E-03 13546   0.133E-01    0.323E-01
RMM:   7    -0.631795419609E+03    0.38754E-03   -0.25356E-03 13625   0.116E-01    0.248E-01
RMM:   8    -0.631795837407E+03   -0.41780E-03   -0.24740E-03 13660   0.132E-01    0.408E-01
RMM:   9    -0.631794897429E+03    0.93998E-03   -0.12786E-03 13063   0.107E-01    0.508E-02
RMM:  10    -0.631794956992E+03   -0.59564E-04   -0.79745E-04 12498   0.504E-02    0.706E-02
RMM:  11    -0.631794961779E+03   -0.47869E-05   -0.28924E-04 11658   0.402E-02    0.639E-02
WARNING in EDDRMM: call to ZHEGV failed, returncode =   8  4      6
RMM:  12    -0.631794958495E+03    0.32838E-05   -0.24185E-04 11269   0.288E-02    0.394E-02
RMM:  13    -0.631794965082E+03   -0.65870E-05   -0.11846E-04 10661   0.248E-02    0.391E-02
RMM:  14    -0.631794962289E+03    0.27937E-05   -0.79697E-05  9918   0.198E-02
  18 F= -.63179496E+03 E0= -.63172922E+03  d E =-.606425E-01
 curvature:  -1.45 expect dE=-0.530E-01 dE for cont linesearch -0.671E-04
 trial: gam= 0.26258 g(F)=  0.337E-01 g(S)=  0.300E-02 ort = 0.321E-02 (trialstep = 0.856E+00)
 search vector abs. value=  0.537E-01
 bond charge predicted
       N       E                     dE             d eps       ncg     rms          rms(c)
DAV:   1    -0.631687714564E+03    0.10725E+00   -0.68162E+00 10320   0.148E+01    0.121E+00
RMM:   2    -0.631981752229E+03   -0.29404E+00   -0.16261E+00 14243   0.328E+00    0.477E+00
RMM:   3    -0.631825547648E+03    0.15620E+00   -0.15636E-01 11837   0.155E+00    0.130E+00
RMM:   4    -0.631829143672E+03   -0.35960E-02   -0.56484E-02 13925   0.564E-01    0.150E+00
RMM:   5    -0.631819120554E+03    0.10023E-01   -0.14669E-02 13664   0.341E-01    0.614E-01
RMM:   6    -0.631818303520E+03    0.81703E-03   -0.81227E-03 13385   0.226E-01    0.539E-01
RMM:   7    -0.631817338027E+03    0.96549E-03   -0.45468E-03 13826   0.175E-01    0.466E-01
RMM:   8    -0.631817717290E+03   -0.37926E-03   -0.31005E-03 13124   0.170E-01    0.538E-01
RMM:   9    -0.631816201409E+03    0.15159E-02   -0.24007E-03 13636   0.134E-01    0.137E-01
RMM:  10    -0.631816445403E+03   -0.24399E-03   -0.13950E-03 12776   0.884E-02    0.239E-01
WARNING in EDDRMM: call to ZHEGV failed, returncode =   8  4      5
RMM:  11    -0.631816184633E+03    0.26077E-03   -0.66991E-04 12241   0.633E-02    0.472E-02
WARNING in EDDRMM: call to ZHEGV failed, returncode =   6  3      6
RMM:  12    -0.631816235887E+03   -0.51254E-04   -0.48824E-04 11833   0.368E-02    0.778E-02
RMM:  13    -0.631816219466E+03    0.16421E-04   -0.19968E-04 11475   0.312E-02    0.297E-02
RMM:  14    -0.631816225920E+03   -0.64539E-05   -0.11758E-04 10139   0.208E-02    0.158E-02
RMM:  15    -0.631816231900E+03   -0.59798E-05   -0.84115E-05 10724   0.220E-02
  19 F= -.63181623E+03 E0= -.63175010E+03  d E =-.212696E-01
 trial-energy change:   -0.021270  1 .order   -0.021213   -0.032113   -0.010313
 step:   1.2522(harm=  1.2612)  dis= 0.01600  next Energy=  -631.818622 (dE=-0.237E-01)
 bond charge predicted
       N       E                     dE             d eps       ncg     rms          rms(c)
DAV:   1    -0.631789850042E+03    0.26376E-01   -0.14422E+00 10392   0.684E+00    0.566E-01
RMM:   2    -0.631855595652E+03   -0.65746E-01   -0.36364E-01 14297   0.155E+00    0.226E+00
RMM:   3    -0.631820464206E+03    0.35131E-01   -0.36711E-02 12008   0.724E-01    0.570E-01
RMM:   4    -0.631821535120E+03   -0.10709E-02   -0.12858E-02 13839   0.266E-01    0.700E-01
RMM:   5    -0.631819370413E+03    0.21647E-02   -0.32708E-03 13270   0.162E-01    0.291E-01
RMM:   6    -0.631819167617E+03    0.20280E-03   -0.17920E-03 12627   0.106E-01    0.242E-01
RMM:   7    -0.631818968823E+03    0.19879E-03   -0.10310E-03 13567   0.829E-02    0.205E-01
RMM:   8    -0.631819088819E+03   -0.12000E-03   -0.67888E-04 12326   0.825E-02    0.259E-01
RMM:   9    -0.631818763171E+03    0.32565E-03   -0.55196E-04 12957   0.660E-02    0.841E-02
RMM:  10    -0.631818789175E+03   -0.26004E-04   -0.31609E-04 12245   0.461E-02    0.100E-01
RMM:  11    -0.631818746451E+03    0.42724E-04   -0.17233E-04 11713   0.315E-02    0.239E-02
RMM:  12    -0.631818757786E+03   -0.11335E-04   -0.11513E-04 10712   0.199E-02    0.385E-02
RMM:  13    -0.631818752752E+03    0.50342E-05   -0.53464E-05  9412   0.192E-02
  20 F= -.63181875E+03 E0= -.63175246E+03  d E =-.237905E-01
 curvature:  -0.90 expect dE=-0.309E-01 dE for cont linesearch -0.401E-05
 trial: gam= 0.94638 g(F)=  0.176E-01 g(S)=  0.166E-01 ort = 0.489E-03 (trialstep = 0.603E+00)
 search vector abs. value=  0.832E-01
 bond charge predicted
       N       E                     dE             d eps       ncg     rms          rms(c)
DAV:   1    -0.631751406430E+03    0.67351E-01   -0.54200E+00 11472   0.133E+01    0.153E+00
RMM:   2    -0.632202236519E+03   -0.45083E+00   -0.14255E+00 13162   0.351E+00    0.729E+00
RMM:   3    -0.631857200142E+03    0.34504E+00   -0.21866E-01 11951   0.178E+00    0.215E+00
RMM:   4    -0.631842829593E+03    0.14371E-01   -0.64800E-02 13810   0.665E-01    0.126E+00
RMM:   5    -0.631836523103E+03    0.63065E-02   -0.19118E-02 13772   0.366E-01    0.754E-01
RMM:   6    -0.631834221242E+03    0.23019E-02   -0.83601E-03 12998   0.266E-01    0.539E-01
RMM:   7    -0.631832355836E+03    0.18654E-02   -0.55133E-03 13960   0.194E-01    0.292E-01
RMM:   8    -0.631834295946E+03   -0.19401E-02   -0.39914E-03 12859   0.199E-01    0.658E-01
RMM:   9    -0.631831867227E+03    0.24287E-02   -0.22950E-03 12701   0.160E-01    0.106E-01
RMM:  10    -0.631832054059E+03   -0.18683E-03   -0.13959E-03 12670   0.734E-02    0.182E-01
RMM:  11    -0.631831928797E+03    0.12526E-03   -0.55551E-04 12262   0.563E-02    0.518E-02
RMM:  12    -0.631831983316E+03   -0.54519E-04   -0.37507E-04 11827   0.329E-02    0.820E-02
WARNING in EDDRMM: call to ZHEGV failed, returncode =   8  4      6
RMM:  13    -0.631831973128E+03    0.10189E-04   -0.16158E-04 11362   0.288E-02    0.343E-02
RMM:  14    -0.631831995990E+03   -0.22862E-04   -0.10543E-04 10120   0.201E-02    0.195E-02
RMM:  15    -0.631832014848E+03   -0.18858E-04   -0.90216E-05 11142   0.232E-02    0.869E-03
RMM:  16    -0.631832018916E+03   -0.40682E-05   -0.43985E-05  9208   0.160E-02
  21 F= -.63183202E+03 E0= -.63176614E+03  d E =-.132662E-01
 trial-energy change:   -0.013266  1 .order   -0.013285   -0.020920   -0.005650
 step:   0.8265(harm=  0.8265)  dis= 0.01379  next Energy=  -631.833083 (dE=-0.143E-01)
 bond charge predicted
       N       E                     dE             d eps       ncg     rms          rms(c)
DAV:   1    -0.631821631563E+03    0.10383E-01   -0.74005E-01 11784   0.490E+00    0.567E-01
RMM:   2    -0.631883790990E+03   -0.62159E-01   -0.19448E-01 13270   0.129E+00    0.272E+00
RMM:   3    -0.631836697151E+03    0.47094E-01   -0.30296E-02 11873   0.667E-01    0.838E-01
RMM:   4    -0.631834305974E+03    0.23912E-02   -0.89596E-03 13385   0.252E-01    0.447E-01
RMM:   5    -0.631833513654E+03    0.79232E-03   -0.26951E-03 13376   0.136E-01    0.272E-01
RMM:   6    -0.631833208228E+03    0.30543E-03   -0.11371E-03 12227   0.100E-01    0.191E-01
RMM:   7    -0.631832968749E+03    0.23948E-03   -0.76610E-04 13546   0.729E-02    0.940E-02
RMM:   8    -0.631833251344E+03   -0.28259E-03   -0.55613E-04 12343   0.750E-02    0.244E-01
RMM:   9    -0.631832929955E+03    0.32139E-03   -0.31256E-04 11557   0.613E-02    0.385E-02
RMM:  10    -0.631832961478E+03   -0.31523E-04   -0.20626E-04 11656   0.296E-02    0.733E-02
RMM:  11    -0.631832944473E+03    0.17005E-04   -0.86318E-05 10840   0.245E-02    0.217E-02
RMM:  12    -0.631832952506E+03   -0.80332E-05   -0.53939E-05  9478   0.154E-02
  22 F= -.63183295E+03 E0= -.63176724E+03  d E =-.141998E-01
 curvature:  -0.99 expect dE=-0.210E-01 dE for cont linesearch -0.326E-05
 trial: gam= 0.62592 g(F)=  0.125E-01 g(S)=  0.865E-02 ort =-0.523E-03 (trialstep = 0.648E+00)
 search vector abs. value=  0.531E-01
 bond charge predicted
       N       E                     dE             d eps       ncg     rms          rms(c)
DAV:   1    -0.631764030843E+03    0.68914E-01   -0.38520E+00  9552   0.111E+01    0.726E-01
RMM:   2    -0.631884916443E+03   -0.12089E+00   -0.89322E-01 14407   0.240E+00    0.241E+00
RMM:   3    -0.631843421305E+03    0.41495E-01   -0.71803E-02 12565   0.994E-01    0.617E-01
RMM:   4    -0.631847790053E+03   -0.43687E-02   -0.25827E-02 13805   0.381E-01    0.108E+00
RMM:   5    -0.631842433206E+03    0.53568E-02   -0.65145E-03 13330   0.254E-01    0.316E-01
RMM:   6    -0.631842597358E+03   -0.16415E-03   -0.42995E-03 13545   0.139E-01    0.377E-01
RMM:   7    -0.631841984613E+03    0.61274E-03   -0.19471E-03 13543   0.125E-01    0.201E-01
RMM:   8    -0.631842902017E+03   -0.91740E-03   -0.18863E-03 13297   0.118E-01    0.500E-01
RMM:   9    -0.631841724860E+03    0.11772E-02   -0.10972E-03 12640   0.106E-01    0.923E-02
RMM:  10    -0.631841855578E+03   -0.13072E-03   -0.78120E-04 12380   0.601E-02    0.169E-01
RMM:  11    -0.631841728056E+03    0.12752E-03   -0.34924E-04 11908   0.477E-02    0.321E-02
RMM:  12    -0.631841746645E+03   -0.18589E-04   -0.23344E-04 11352   0.256E-02    0.449E-02
RMM:  13    -0.631841744300E+03    0.23449E-05   -0.10021E-04 10910   0.225E-02    0.211E-02
RMM:  14    -0.631841746231E+03   -0.19309E-05   -0.61178E-05  9293   0.170E-02
  23 F= -.63184175E+03 E0= -.63177606E+03  d E =-.879372E-02
 trial-energy change:   -0.008794  1 .order   -0.008612   -0.013506   -0.003719
 step:   0.8624(harm=  0.8941)  dis= 0.00997  next Energy=  -631.842368 (dE=-0.942E-02)
 bond charge predicted
       N       E                     dE             d eps       ncg     rms          rms(c)
DAV:   1    -0.631833898863E+03    0.78454E-02   -0.42125E-01  9840   0.367E+00    0.242E-01
RMM:   2    -0.631847472223E+03   -0.13573E-01   -0.99054E-02 14359   0.796E-01    0.818E-01
RMM:   3    -0.631842646743E+03    0.48255E-02   -0.81633E-03 12507   0.336E-01    0.203E-01
RMM:   4    -0.631843133485E+03   -0.48674E-03   -0.29995E-03 13087   0.130E-01    0.353E-01
RMM:   5    -0.631842563975E+03    0.56951E-03   -0.76848E-04 12219   0.879E-02    0.107E-01
RMM:   6    -0.631842587037E+03   -0.23062E-04   -0.51904E-04 12115   0.499E-02    0.127E-01
RMM:   7    -0.631842520151E+03    0.66885E-04   -0.24496E-04 12020   0.456E-02    0.671E-02
RMM:   8    -0.631842612743E+03   -0.92592E-04   -0.22194E-04 11824   0.423E-02    0.157E-01
RMM:   9    -0.631842496945E+03    0.11580E-03   -0.13620E-04 11599   0.382E-02    0.347E-02
WARNING in EDDRMM: call to ZHEGV failed, returncode =   6  3      6
RMM:  10    -0.631842510314E+03   -0.13369E-04   -0.10286E-04 10973   0.245E-02    0.545E-02
RMM:  11    -0.631842497381E+03    0.12933E-04   -0.49946E-05  9524   0.208E-02    0.112E-02
RMM:  12    -0.631842498838E+03   -0.14578E-05   -0.25474E-05  7763   0.148E-02
  24 F= -.63184250E+03 E0= -.63177682E+03  d E =-.954633E-02
 curvature:  -1.12 expect dE=-0.713E-02 dE for cont linesearch -0.126E-04
 trial: gam= 0.21335 g(F)=  0.600E-02 g(S)=  0.368E-03 ort = 0.773E-03 (trialstep = 0.691E+00)
 search vector abs. value=  0.911E-02
 bond charge predicted
       N       E                     dE             d eps       ncg     rms          rms(c)
DAV:   1    -0.631834608343E+03    0.78890E-02   -0.70251E-01  9696   0.430E+00    0.340E-01
RMM:   2    -0.631856883358E+03   -0.22275E-01   -0.13872E-01 14233   0.995E-01    0.124E+00
RMM:   3    -0.631846423252E+03    0.10460E-01   -0.13121E-02 12292   0.461E-01    0.371E-01
WARNING in EDDRMM: call to ZHEGV failed, returncode =   6  3      6
RMM:   4    -0.631847027747E+03   -0.60450E-03   -0.53154E-03 13554   0.183E-01    0.486E-01
RMM:   5    -0.631845992221E+03    0.10355E-02   -0.15420E-03 12676   0.117E-01    0.182E-01
RMM:   6    -0.631845923839E+03    0.68382E-04   -0.92142E-04 12289   0.766E-02    0.154E-01
RMM:   7    -0.631845797693E+03    0.12615E-03   -0.49690E-04 13172   0.585E-02    0.877E-02
RMM:   8    -0.631845959966E+03   -0.16227E-03   -0.40344E-04 12076   0.593E-02    0.200E-01
RMM:   9    -0.631845752240E+03    0.20773E-03   -0.22689E-04 11628   0.498E-02    0.457E-02
RMM:  10    -0.631845779245E+03   -0.27006E-04   -0.17259E-04 11546   0.305E-02    0.786E-02
RMM:  11    -0.631845754404E+03    0.24842E-04   -0.77127E-05 10695   0.232E-02    0.143E-02
RMM:  12    -0.631845756865E+03   -0.24615E-05   -0.45003E-05  9309   0.149E-02
  25 F= -.63184576E+03 E0= -.63177994E+03  d E =-.325803E-02
 trial-energy change:   -0.003258  1 .order   -0.003224   -0.004512   -0.001935
 step:   1.2098(harm=  1.2098)  dis= 0.00562  next Energy=  -631.846450 (dE=-0.395E-02)
 bond charge predicted
       N       E                     dE             d eps       ncg     rms          rms(c)
DAV:   1    -0.631840223556E+03    0.55308E-02   -0.39645E-01  9888   0.323E+00    0.256E-01
RMM:   2    -0.631852862434E+03   -0.12639E-01   -0.78488E-02 14228   0.748E-01    0.934E-01
RMM:   3    -0.631846892958E+03    0.59695E-02   -0.75050E-03 12283   0.349E-01    0.278E-01
RMM:   4    -0.631847251967E+03   -0.35901E-03   -0.30919E-03 13250   0.139E-01    0.368E-01
RMM:   5    -0.631846666800E+03    0.58517E-03   -0.91532E-04 12470   0.911E-02    0.137E-01
RMM:   6    -0.631846630923E+03    0.35877E-04   -0.55166E-04 12050   0.581E-02    0.117E-01
RMM:   7    -0.631846560830E+03    0.70093E-04   -0.29414E-04 12579   0.450E-02    0.678E-02
RMM:   8    -0.631846652567E+03   -0.91737E-04   -0.23191E-04 11733   0.463E-02    0.151E-01
RMM:   9    -0.631846536583E+03    0.11598E-03   -0.14212E-04 11584   0.389E-02    0.372E-02
RMM:  10    -0.631846551235E+03   -0.14652E-04   -0.10536E-04 10939   0.246E-02    0.587E-02
RMM:  11    -0.631846537171E+03    0.14064E-04   -0.49390E-05  9763   0.197E-02    0.108E-02
RMM:  12    -0.631846537437E+03   -0.26588E-06   -0.20382E-05  7605   0.139E-02
  26 F= -.63184654E+03 E0= -.63178062E+03  d E =-.403860E-02
 curvature:  -0.84 expect dE=-0.410E-02 dE for cont linesearch -0.245E-06
 trial: gam= 0.79557 g(F)=  0.266E-02 g(S)=  0.220E-02 ort = 0.514E-04 (trialstep = 0.676E+00)
 search vector abs. value=  0.107E-01
 bond charge predicted
       N       E                     dE             d eps       ncg     rms          rms(c)
DAV:   1    -0.631837526390E+03    0.90108E-02   -0.81861E-01 10392   0.470E+00    0.634E-01
RMM:   2    -0.631910935757E+03   -0.73409E-01   -0.21078E-01 13070   0.147E+00    0.294E+00
RMM:   3    -0.631852367635E+03    0.58568E-01   -0.38584E-02 11904   0.739E-01    0.817E-01
RMM:   4    -0.631850300390E+03    0.20672E-02   -0.97922E-03 13463   0.261E-01    0.501E-01
RMM:   5    -0.631849312455E+03    0.98794E-03   -0.28034E-03 13364   0.141E-01    0.319E-01
RMM:   6    -0.631848888481E+03    0.42397E-03   -0.12795E-03 11893   0.110E-01    0.216E-01
RMM:   7    -0.631848664558E+03    0.22392E-03   -0.95302E-04 13593   0.808E-02    0.175E-01
RMM:   8    -0.631848823112E+03   -0.15855E-03   -0.56900E-04 11939   0.811E-02    0.253E-01
WARNING in EDDRMM: call to ZHEGV failed, returncode =   6  3      6
RMM:   9    -0.631848580105E+03    0.24301E-03   -0.45968E-04 12601   0.649E-02    0.129E-01
RMM:  10    -0.631848519392E+03    0.60713E-04   -0.23282E-04 11796   0.428E-02    0.598E-02
RMM:  11    -0.631848515802E+03    0.35900E-05   -0.13491E-04 11376   0.253E-02    0.300E-02
RMM:  12    -0.631848520943E+03   -0.51411E-05   -0.69945E-05  9706   0.189E-02
  27 F= -.63184852E+03 E0= -.63178281E+03  d E =-.198351E-02
 trial-energy change:   -0.001984  1 .order   -0.001978   -0.003314   -0.000641
 step:   0.8383(harm=  0.8383)  dis= 0.00454  next Energy=  -631.848592 (dE=-0.205E-02)
 bond charge predicted
       N       E                     dE             d eps       ncg     rms          rms(c)
DAV:   1    -0.631847946608E+03    0.56919E-03   -0.47278E-02 10632   0.113E+00    0.157E-01
RMM:   2    -0.631852559493E+03   -0.46129E-02   -0.12272E-02 13051   0.355E-01    0.745E-01
RMM:   3    -0.631848844776E+03    0.37147E-02   -0.23294E-03 11081   0.184E-01    0.212E-01
RMM:   4    -0.631848688154E+03    0.15662E-03   -0.59963E-04 12080   0.730E-02    0.111E-01
RMM:   5    -0.631848648941E+03    0.39213E-04   -0.18460E-04 11326   0.368E-02    0.782E-02
RMM:   6    -0.631848623474E+03    0.25467E-04   -0.79895E-05  9539   0.296E-02    0.483E-02
RMM:   7    -0.631848619116E+03    0.43579E-05   -0.61278E-05  9616   0.224E-02
  28 F= -.63184862E+03 E0= -.63178297E+03  d E =-.208168E-02
 curvature:  -0.92 expect dE=-0.263E-02 dE for cont linesearch -0.115E-04
 trial: gam= 0.47091 g(F)=  0.196E-02 g(S)=  0.910E-03 ort = 0.367E-03 (trialstep = 0.709E+00)
 search vector abs. value=  0.559E-02
 bond charge predicted
       N       E                     dE             d eps       ncg     rms          rms(c)
DAV:   1    -0.631840984008E+03    0.76395E-02   -0.49448E-01  9120   0.370E+00    0.282E-01
RMM:   2    -0.631857840010E+03   -0.16856E-01   -0.11033E-01 14370   0.852E-01    0.105E+00
RMM:   3    -0.631850742417E+03    0.70976E-02   -0.97035E-03 12522   0.352E-01    0.315E-01
RMM:   4    -0.631851121129E+03   -0.37871E-03   -0.36865E-03 13221   0.148E-01    0.404E-01
RMM:   5    -0.631850416427E+03    0.70470E-03   -0.10105E-03 12538   0.973E-02    0.165E-01
RMM:   6    -0.631850343246E+03    0.73181E-04   -0.60526E-04 11979   0.611E-02    0.136E-01
RMM:   7    -0.631850289710E+03    0.53536E-04   -0.35719E-04 12831   0.497E-02    0.121E-01
RMM:   8    -0.631850321578E+03   -0.31868E-04   -0.24423E-04 11508   0.506E-02    0.147E-01
RMM:   9    -0.631850223819E+03    0.97759E-04   -0.20090E-04 12197   0.400E-02    0.656E-02
RMM:  10    -0.631850213320E+03    0.10499E-04   -0.10181E-04 10789   0.288E-02    0.423E-02
RMM:  11    -0.631850207057E+03    0.62631E-05   -0.66039E-05  9667   0.182E-02
  29 F= -.63185021E+03 E0= -.63178459E+03  d E =-.158794E-02
 trial-energy change:   -0.001588  1 .order   -0.001497   -0.002154   -0.000841
 step:   0.9957(harm=  1.1625)  dis= 0.00450  next Energy=  -631.850384 (dE=-0.176E-02)
 bond charge predicted
       N       E                     dE             d eps       ncg     rms          rms(c)
DAV:   1    -0.631848931533E+03    0.12818E-02   -0.81233E-02  9552   0.150E+00    0.120E-01
RMM:   2    -0.631851937657E+03   -0.30061E-02   -0.18434E-02 14311   0.347E-01    0.459E-01
RMM:   3    -0.631850515544E+03    0.14221E-02   -0.17340E-03 11754   0.152E-01    0.113E-01
RMM:   4    -0.631850589788E+03   -0.74245E-04   -0.66636E-04 12318   0.668E-02    0.156E-01
RMM:   5    -0.631850483652E+03    0.10614E-03   -0.19338E-04 11428   0.439E-02    0.764E-02
RMM:   6    -0.631850469850E+03    0.13802E-04   -0.12599E-04 11057   0.271E-02    0.523E-02
RMM:   7    -0.631850459479E+03    0.10372E-04   -0.68297E-05 10352   0.221E-02    0.375E-02
RMM:   8    -0.631850467469E+03   -0.79908E-05   -0.43666E-05  8137   0.221E-02
  30 F= -.63185047E+03 E0= -.63178490E+03  d E =-.184835E-02
 curvature:  -0.92 expect dE=-0.144E-02 dE for cont linesearch -0.359E-04
 ZBRENT: increasing intervall
 opt :   1.5699  next Energy=  -631.850321 (dE=-0.170E-02)
 bond charge predicted
       N       E                     dE             d eps       ncg     rms          rms(c)
DAV:   1    -0.631844212551E+03    0.62469E-02   -0.32363E-01  9120   0.300E+00    0.232E-01
RMM:   2    -0.631855230183E+03   -0.11018E-01   -0.72521E-02 14364   0.690E-01    0.834E-01
RMM:   3    -0.631850525725E+03    0.47045E-02   -0.64875E-03 12368   0.290E-01    0.231E-01
RMM:   4    -0.631850874024E+03   -0.34830E-03   -0.24726E-03 12915   0.121E-01    0.341E-01
RMM:   5    -0.631850379632E+03    0.49439E-03   -0.67593E-04 12208   0.823E-02    0.140E-01
RMM:   6    -0.631850328294E+03    0.51338E-04   -0.41851E-04 11869   0.506E-02    0.107E-01
RMM:   7    -0.631850277171E+03    0.51124E-04   -0.24272E-04 12425   0.401E-02    0.699E-02
RMM:   8    -0.631850348137E+03   -0.70966E-04   -0.17371E-04 11407   0.428E-02    0.145E-01
RMM:   9    -0.631850250101E+03    0.98036E-04   -0.12053E-04 11375   0.334E-02    0.409E-02
RMM:  10    -0.631850252466E+03   -0.23649E-05   -0.79239E-05 10258   0.228E-02
  31 F= -.63185025E+03 E0= -.63178469E+03  d E =-.163335E-02
 curvature:   3.77 expect dE= 0.184E-01 dE for cont linesearch  0.982E-03
 ZBRENT: bracketing found
 ZBRENT: interpolating
 opt :   1.1556  next Energy=  -631.850505 (dE=-0.189E-02)
 bond charge predicted
       N       E                     dE             d eps       ncg     rms          rms(c)
DAV:   1    -0.631847379322E+03    0.28708E-02   -0.16910E-01  9264   0.216E+00    0.167E-01
RMM:   2    -0.631853061377E+03   -0.56821E-02   -0.37599E-02 14361   0.498E-01    0.593E-01
RMM:   3    -0.631850634910E+03    0.24265E-02   -0.32802E-03 11863   0.209E-01    0.150E-01
RMM:   4    -0.631850810888E+03   -0.17598E-03   -0.11444E-03 12498   0.879E-02    0.236E-01
RMM:   5    -0.631850559865E+03    0.25102E-03   -0.30784E-04 11550   0.599E-02    0.103E-01
RMM:   6    -0.631850530327E+03    0.29537E-04   -0.16486E-04 11045   0.381E-02    0.792E-02
RMM:   7    -0.631850499649E+03    0.30679E-04   -0.10371E-04 10850   0.295E-02    0.489E-02
RMM:   8    -0.631850537534E+03   -0.37885E-04   -0.80183E-05  9253   0.314E-02    0.105E-01
RMM:   9    -0.631850485352E+03    0.52182E-04   -0.47867E-05  7152   0.263E-02    0.343E-02
RMM:  10    -0.631850484547E+03    0.80414E-06   -0.26723E-05  6086   0.208E-02
  32 F= -.63185048E+03 E0= -.63178488E+03  d E =-.186543E-02
 curvature:  -0.14 expect dE=-0.337E-03 dE for cont linesearch -0.138E-06
 trial: gam= 0.93135 g(F)=  0.187E-02 g(S)=  0.482E-03 ort =-0.734E-04 (trialstep = 0.631E+00)
 search vector abs. value=  0.706E-02
 bond charge predicted
       N       E                     dE             d eps       ncg     rms          rms(c)
DAV:   1    -0.631838951507E+03    0.11534E-01   -0.54195E-01  9072   0.421E+00    0.197E-01
RMM:   2    -0.631852393206E+03   -0.13442E-01   -0.13090E-01 14316   0.872E-01    0.408E-01
RMM:   3    -0.631852007016E+03    0.38619E-03   -0.83111E-03 13705   0.262E-01    0.269E-01
RMM:   4    -0.631852135778E+03   -0.12876E-03   -0.23288E-03 12927   0.123E-01    0.282E-01
RMM:   5    -0.631851735739E+03    0.40004E-03   -0.57402E-04 11820   0.798E-02    0.947E-02
WARNING in EDDRMM: call to ZHEGV failed, returncode =   6  3      6
RMM:   6    -0.631851755513E+03   -0.19774E-04   -0.39657E-04 11919   0.427E-02    0.108E-01
RMM:   7    -0.631851712562E+03    0.42951E-04   -0.20327E-04 11695   0.368E-02    0.696E-02
RMM:   8    -0.631851761171E+03   -0.48609E-04   -0.15871E-04 11235   0.375E-02    0.130E-01
RMM:   9    -0.631851680773E+03    0.80397E-04   -0.10389E-04 10753   0.317E-02    0.402E-02
RMM:  10    -0.631851684345E+03   -0.35716E-05   -0.63884E-05  9679   0.219E-02
  33 F= -.63185168E+03 E0= -.63178613E+03  d E =-.119980E-02
 trial-energy change:   -0.001200  1 .order   -0.001199   -0.001443   -0.000955
 step:   1.8659(harm=  1.8659)  dis= 0.01268  next Energy=  -631.852617 (dE=-0.213E-02)
 bond charge predicted
       N       E                     dE             d eps       ncg     rms          rms(c)
DAV:   1    -0.631805178120E+03    0.46503E-01   -0.20893E+00  9240   0.823E+00    0.381E-01
RMM:   2    -0.631855031219E+03   -0.49853E-01   -0.48870E-01 14263   0.169E+00    0.768E-01
RMM:   3    -0.631853885134E+03    0.11461E-02   -0.31091E-02 13669   0.513E-01    0.551E-01
RMM:   4    -0.631854290293E+03   -0.40516E-03   -0.88625E-03 13584   0.241E-01    0.561E-01
RMM:   5    -0.631852722459E+03    0.15678E-02   -0.23815E-03 12807   0.152E-01    0.172E-01
RMM:   6    -0.631852836602E+03   -0.11414E-03   -0.16779E-03 12575   0.803E-02    0.214E-01
RMM:   7    -0.631852657138E+03    0.17946E-03   -0.83999E-04 12859   0.714E-02    0.122E-01
RMM:   8    -0.631852842050E+03   -0.18491E-03   -0.67648E-04 12619   0.714E-02    0.247E-01
RMM:   9    -0.631852561676E+03    0.28037E-03   -0.36709E-04 12133   0.590E-02    0.758E-02
RMM:  10    -0.631852585291E+03   -0.23615E-04   -0.27406E-04 11864   0.380E-02    0.858E-02
RMM:  11    -0.631852558914E+03    0.26377E-04   -0.13764E-04 11284   0.280E-02    0.254E-02
RMM:  12    -0.631852565829E+03   -0.69156E-05   -0.84545E-05 10399   0.199E-02
  34 F= -.63185257E+03 E0= -.63178716E+03  d E =-.208128E-02
 curvature:  -2.88 expect dE=-0.113E-01 dE for cont linesearch -0.633E-05
 trial: gam= 1.43970 g(F)=  0.207E-02 g(S)=  0.184E-02 ort =-0.125E-03 (trialstep = 0.341E+00)
 search vector abs. value=  0.182E-01
 bond charge predicted
       N       E                     dE             d eps       ncg     rms          rms(c)
DAV:   1    -0.631845004445E+03    0.75545E-02   -0.42032E-01 10320   0.364E+00    0.353E-01
RMM:   2    -0.631871516093E+03   -0.26512E-01   -0.11690E-01 13735   0.881E-01    0.160E+00
RMM:   3    -0.631854852826E+03    0.16663E-01   -0.13434E-02 11802   0.426E-01    0.510E-01
RMM:   4    -0.631854180532E+03    0.67229E-03   -0.41432E-03 13109   0.166E-01    0.313E-01
RMM:   5    -0.631853792458E+03    0.38807E-03   -0.11327E-03 12646   0.890E-02    0.183E-01
RMM:   6    -0.631853654109E+03    0.13835E-03   -0.47677E-04 11411   0.635E-02    0.126E-01
RMM:   7    -0.631853614387E+03    0.39722E-04   -0.33887E-04 12786   0.486E-02    0.126E-01
RMM:   8    -0.631853616067E+03   -0.16792E-05   -0.20279E-04 11117   0.485E-02    0.126E-01
RMM:   9    -0.631853568104E+03    0.47963E-04   -0.19428E-04 11930   0.390E-02    0.849E-02
RMM:  10    -0.631853539227E+03    0.28877E-04   -0.85951E-05 10494   0.286E-02    0.330E-02
RMM:  11    -0.631853539924E+03   -0.69753E-06   -0.59995E-05  8858   0.174E-02
  35 F= -.63185354E+03 E0= -.63178833E+03  d E =-.974095E-03
 trial-energy change:   -0.000974  1 .order   -0.000989   -0.001273   -0.000705
 step:   0.7642(harm=  0.7642)  dis= 0.00907  next Energy=  -631.853992 (dE=-0.143E-02)
 bond charge predicted
       N       E                     dE             d eps       ncg     rms          rms(c)
DAV:   1    -0.631841856013E+03    0.11683E-01   -0.65786E-01 10632   0.452E+00    0.438E-01
RMM:   2    -0.631882278830E+03   -0.40423E-01   -0.17096E-01 13716   0.108E+00    0.201E+00
RMM:   3    -0.631856082933E+03    0.26196E-01   -0.20005E-02 11752   0.530E-01    0.640E-01
RMM:   4    -0.631854960611E+03    0.11223E-02   -0.61434E-03 13072   0.197E-01    0.386E-01
RMM:   5    -0.631854376056E+03    0.58455E-03   -0.16935E-03 13001   0.109E-01    0.226E-01
RMM:   6    -0.631854159951E+03    0.21611E-03   -0.71849E-04 11686   0.776E-02    0.153E-01
RMM:   7    -0.631854104625E+03    0.55326E-04   -0.51981E-04 13150   0.585E-02    0.154E-01
RMM:   8    -0.631854106079E+03   -0.14533E-05   -0.29605E-04 11437   0.581E-02    0.152E-01
RMM:   9    -0.631854035109E+03    0.70970E-04   -0.27682E-04 12281   0.455E-02    0.954E-02
RMM:  10    -0.631853998838E+03    0.36271E-04   -0.12778E-04 11436   0.319E-02    0.372E-02
RMM:  11    -0.631854001145E+03   -0.23072E-05   -0.81214E-05  9991   0.187E-02
  36 F= -.63185400E+03 E0= -.63178904E+03  d E =-.143532E-02
 curvature:  -1.86 expect dE=-0.702E-02 dE for cont linesearch -0.256E-05
 trial: gam= 0.86739 g(F)=  0.237E-02 g(S)=  0.141E-02 ort = 0.158E-03 (trialstep = 0.426E+00)
 search vector abs. value=  0.177E-01
 bond charge predicted
       N       E                     dE             d eps       ncg     rms          rms(c)
DAV:   1    -0.631840556434E+03    0.13442E-01   -0.65898E-01  9216   0.448E+00    0.190E-01
RMM:   2    -0.631855363684E+03   -0.14807E-01   -0.14928E-01 14194   0.905E-01    0.271E-01
RMM:   3    -0.631855934463E+03   -0.57078E-03   -0.10533E-02 13997   0.239E-01    0.296E-01
RMM:   4    -0.631855799059E+03    0.13540E-03   -0.20777E-03 12533   0.121E-01    0.235E-01
RMM:   5    -0.631855561348E+03    0.23771E-03   -0.64635E-04 12087   0.662E-02    0.913E-02
RMM:   6    -0.631855582617E+03   -0.21268E-04   -0.34147E-04 11805   0.402E-02    0.106E-01
RMM:   7    -0.631855543307E+03    0.39309E-04   -0.18191E-04 11637   0.336E-02    0.652E-02
RMM:   8    -0.631855571727E+03   -0.28420E-04   -0.15387E-04 11229   0.362E-02    0.103E-01
RMM:   9    -0.631855514357E+03    0.57370E-04   -0.90400E-05 10223   0.313E-02    0.293E-02
RMM:  10    -0.631855531402E+03   -0.17046E-04   -0.59827E-05  9243   0.203E-02    0.622E-02
RMM:  11    -0.631855514589E+03    0.16813E-04   -0.28467E-05  6860   0.191E-02    0.114E-02
RMM:  12    -0.631855516320E+03   -0.17303E-05   -0.20949E-05  6288   0.156E-02
  37 F= -.63185552E+03 E0= -.63179073E+03  d E =-.151517E-02
 trial-energy change:   -0.001515  1 .order   -0.001469   -0.001663   -0.001274
 step:   0.9589(harm=  1.8190)  dis= 0.01262  next Energy=  -631.856406 (dE=-0.240E-02)
 bond charge predicted
       N       E                     dE             d eps       ncg     rms          rms(c)
DAV:   1    -0.631833262886E+03    0.22252E-01   -0.10344E+00  9144   0.561E+00    0.241E-01
RMM:   2    -0.631856690100E+03   -0.23427E-01   -0.23568E-01 14183   0.113E+00    0.346E-01
RMM:   3    -0.631857532205E+03   -0.84210E-03   -0.16759E-02 13950   0.303E-01    0.359E-01
RMM:   4    -0.631857269563E+03    0.26264E-03   -0.31822E-03 12766   0.145E-01    0.271E-01
RMM:   5    -0.631856970272E+03    0.29929E-03   -0.97266E-04 12303   0.798E-02    0.117E-01
RMM:   6    -0.631856992672E+03   -0.22399E-04   -0.49461E-04 12057   0.476E-02    0.126E-01
RMM:   7    -0.631856927422E+03    0.65250E-04   -0.26865E-04 11850   0.408E-02    0.717E-02
RMM:   8    -0.631856969116E+03   -0.41695E-04   -0.23740E-04 11971   0.418E-02    0.129E-01
RMM:   9    -0.631856890968E+03    0.78148E-04   -0.11094E-04 10608   0.347E-02    0.390E-02
RMM:  10    -0.631856909962E+03   -0.18994E-04   -0.89368E-05 10185   0.234E-02    0.652E-02
RMM:  11    -0.631856890314E+03    0.19649E-04   -0.40320E-05  8178   0.204E-02    0.148E-02
RMM:  12    -0.631856893315E+03   -0.30015E-05   -0.29113E-05  7334   0.155E-02
  38 F= -.63185689E+03 E0= -.63179234E+03  d E =-.289217E-02
 curvature:  -2.55 expect dE=-0.475E-02 dE for cont linesearch -0.531E-03
 ZBRENT: increasing intervall
 opt :   2.0255  next Energy=  -631.857796 (dE=-0.379E-02)
 bond charge predicted
       N       E                     dE             d eps       ncg     rms          rms(c)
DAV:   1    -0.631762576812E+03    0.94314E-01   -0.41420E+00  9168   0.113E+01    0.480E-01
RMM:   2    -0.631856608761E+03   -0.94032E-01   -0.95120E-01 14181   0.230E+00    0.651E-01
RMM:   3    -0.631860909502E+03   -0.43007E-02   -0.67442E-02 14044   0.619E-01    0.789E-01
RMM:   4    -0.631859818960E+03    0.10905E-02   -0.12667E-02 13342   0.294E-01    0.629E-01
RMM:   5    -0.631858148257E+03    0.16707E-02   -0.37736E-03 12984   0.159E-01    0.206E-01
RMM:   6    -0.631858320487E+03   -0.17223E-03   -0.20879E-03 12623   0.896E-02    0.265E-01
RMM:   7    -0.631858058289E+03    0.26220E-03   -0.10539E-03 12806   0.762E-02    0.164E-01
RMM:   8    -0.631858308880E+03   -0.25059E-03   -0.82899E-04 12384   0.798E-02    0.303E-01
RMM:   9    -0.631857880635E+03    0.42825E-03   -0.56936E-04 12431   0.691E-02    0.730E-02
RMM:  10    -0.631857947444E+03   -0.66809E-04   -0.34185E-04 11875   0.468E-02    0.121E-01
RMM:  11    -0.631857875109E+03    0.72334E-04   -0.16427E-04 11306   0.344E-02    0.268E-02
RMM:  12    -0.631857889512E+03   -0.14403E-04   -0.12899E-04 10541   0.219E-02    0.473E-02
RMM:  13    -0.631857880626E+03    0.88860E-05   -0.62333E-05  9642   0.202E-02
  39 F= -.63185788E+03 E0= -.63179382E+03  d E =-.387948E-02
 curvature:  -4.34 expect dE=-0.226E-01 dE for cont linesearch -0.228E-04
 trial: gam= 1.55993 g(F)=  0.441E-02 g(S)=  0.801E-03 ort =-0.305E-03 (trialstep = 0.279E+00)
 search vector abs. value=  0.474E-01
 bond charge predicted
       N       E                     dE             d eps       ncg     rms          rms(c)
DAV:   1    -0.631840415918E+03    0.17474E-01   -0.81242E-01  9696   0.503E+00    0.204E-01
RMM:   2    -0.631858641351E+03   -0.18225E-01   -0.18624E-01 14068   0.952E-01    0.246E-01
RMM:   3    -0.631860010374E+03   -0.13690E-02   -0.13297E-02 13609   0.251E-01    0.433E-01
RMM:   4    -0.631859533214E+03    0.47716E-03   -0.23166E-03 12253   0.130E-01    0.279E-01
RMM:   5    -0.631859196868E+03    0.33635E-03   -0.76979E-04 12042   0.688E-02    0.860E-02
RMM:   6    -0.631859209754E+03   -0.12886E-04   -0.38850E-04 11824   0.419E-02    0.934E-02
RMM:   7    -0.631859176161E+03    0.33593E-04   -0.19813E-04 11535   0.355E-02    0.617E-02
RMM:   8    -0.631859221244E+03   -0.45084E-04   -0.17869E-04 11604   0.332E-02    0.124E-01
RMM:   9    -0.631859152722E+03    0.68522E-04   -0.83912E-05 10085   0.294E-02    0.306E-02
RMM:  10    -0.631859164994E+03   -0.12272E-04   -0.66836E-05  9162   0.203E-02    0.498E-02
RMM:  11    -0.631859151809E+03    0.13185E-04   -0.30083E-05  6946   0.191E-02    0.971E-03
RMM:  12    -0.631859153999E+03   -0.21896E-05   -0.20455E-05  6396   0.143E-02
  40 F= -.63185915E+03 E0= -.63179531E+03  d E =-.127337E-02
 ZBRENT: can't locate minimum, use default step
 trial-energy change:   -0.001273  1 .order   -0.001237   -0.001322   -0.001153
 step:   1.1154(harm=  2.1894)  dis= 0.02634  next Energy=  -631.863069 (dE=-0.519E-02)
 bond charge predicted
       N       E                     dE             d eps       ncg     rms          rms(c)
DAV:   1    -0.631691503828E+03    0.16765E+00   -0.73441E+00  9504   0.154E+01    0.611E-01
RMM:   2    -0.631856003581E+03   -0.16450E+00   -0.16955E+00 14066   0.289E+00    0.580E-01
RMM:   3    -0.631871264386E+03   -0.15261E-01   -0.12131E-01 13971   0.757E-01    0.143E+00
RMM:   4    -0.631863285577E+03    0.79788E-02   -0.19654E-02 13105   0.383E-01    0.550E-01
RMM:   5    -0.631862279663E+03    0.10059E-02   -0.70314E-03 13401   0.165E-01    0.247E-01
RMM:   6    -0.631862354721E+03   -0.75058E-04   -0.25222E-03 12944   0.105E-01    0.295E-01
RMM:   7    -0.631862140731E+03    0.21399E-03   -0.14325E-03 12558   0.944E-02    0.242E-01
RMM:   8    -0.631862406767E+03   -0.26604E-03   -0.13434E-03 12698   0.993E-02    0.355E-01
RMM:   9    -0.631861803407E+03    0.60336E-03   -0.91188E-04 12373   0.874E-02    0.780E-02
RMM:  10    -0.631861909442E+03   -0.10603E-03   -0.52297E-04 11939   0.501E-02    0.148E-01
RMM:  11    -0.631861794371E+03    0.11507E-03   -0.21011E-04 11118   0.417E-02    0.345E-02
RMM:  12    -0.631861818165E+03   -0.23794E-04   -0.20010E-04 10885   0.245E-02    0.602E-02
RMM:  13    -0.631861803100E+03    0.15064E-04   -0.86402E-05 10121   0.223E-02    0.147E-02
RMM:  14    -0.631861804015E+03   -0.91462E-06   -0.35140E-05  8079   0.142E-02
  41 F= -.63186180E+03 E0= -.63179868E+03  d E =-.392339E-02
 curvature:  -7.49 expect dE=-0.323E-01 dE for cont linesearch -0.465E-03
 ZBRENT: increasing intervall
 opt :   2.7884  next Energy=  -631.860626 (dE=-0.275E-02)
 bond charge predicted
       N       E                     dE             d eps       ncg     rms          rms(c)
DAV:   1    -0.631164871953E+03    0.69693E+00   -0.29843E+01  9240   0.294E+01    0.127E+00
RMM:   2    -0.631896856425E+03   -0.73198E+00   -0.70881E+00 14117   0.603E+00    0.350E+00
RMM:   3    -0.631864953614E+03    0.31903E-01   -0.49038E-01 13749   0.157E+00    0.151E+00
RMM:   4    -0.631868412597E+03   -0.34590E-02   -0.95400E-02 13844   0.634E-01    0.133E+00
RMM:   5    -0.631861751868E+03    0.66607E-02   -0.19494E-02 13642   0.379E-01    0.638E-01
RMM:   6    -0.631862529125E+03   -0.77726E-03   -0.12584E-02 13691   0.214E-01    0.719E-01
RMM:   7    -0.631860302112E+03    0.22270E-02   -0.64985E-03 13399   0.179E-01    0.360E-01
RMM:   8    -0.631860403452E+03   -0.10134E-03   -0.63092E-03 13871   0.183E-01    0.486E-01
RMM:   9    -0.631859416555E+03    0.98690E-03   -0.22542E-03 12420   0.138E-01    0.192E-01
RMM:  10    -0.631859461060E+03   -0.44505E-04   -0.17156E-03 12341   0.708E-02    0.156E-01
RMM:  11    -0.631859383085E+03    0.77975E-04   -0.70232E-04 11685   0.603E-02    0.802E-02
WARNING in EDDRMM: call to ZHEGV failed, returncode =   6  3      7
RMM:  12    -0.631859394860E+03   -0.11775E-04   -0.54997E-04 11615   0.379E-02    0.387E-02
WARNING in EDDRMM: call to ZHEGV failed, returncode =   8  4      6
RMM:  13    -0.631859417516E+03   -0.22656E-04   -0.25849E-04 11315   0.336E-02    0.498E-02
RMM:  14    -0.631859415459E+03    0.20570E-05   -0.17920E-04 10808   0.254E-02    0.115E-02
RMM:  15    -0.631859419361E+03   -0.39015E-05   -0.73160E-05  9121   0.186E-02
  42 F= -.63185942E+03 E0= -.63179773E+03  d E =-.153873E-02
 curvature:  18.97 expect dE= 0.219E+00 dE for cont linesearch  0.134E-01
 ZBRENT: bracketing found
 ZBRENT: interpolating
 opt :   1.4975  next Energy=  -631.862132 (dE=-0.425E-02)
 bond charge predicted
       N       E                     dE             d eps       ncg     rms          rms(c)
DAV:   1    -0.631479975408E+03    0.37944E+00   -0.17808E+01  9648   0.226E+01    0.991E-01
RMM:   2    -0.631908791261E+03   -0.42882E+00   -0.39461E+00 14017   0.453E+00    0.333E+00
RMM:   3    -0.631866928501E+03    0.41863E-01   -0.26586E-01 13503   0.131E+00    0.133E+00
RMM:   4    -0.631879055299E+03   -0.12127E-01   -0.73552E-02 13492   0.619E-01    0.172E+00
RMM:   5    -0.631863845569E+03    0.15210E-01   -0.14522E-02 12582   0.394E-01    0.547E-01
RMM:   6    -0.631863644331E+03    0.20124E-03   -0.98727E-03 13182   0.184E-01    0.479E-01
RMM:   7    -0.631863496911E+03    0.14742E-03   -0.47344E-03 13324   0.147E-01    0.443E-01
RMM:   8    -0.631862896415E+03    0.60050E-03   -0.30423E-03 12540   0.156E-01    0.318E-01
RMM:   9    -0.631862347175E+03    0.54924E-03   -0.23954E-03 13474   0.110E-01    0.166E-01
RMM:  10    -0.631862396483E+03   -0.49307E-04   -0.95033E-04 12097   0.805E-02    0.173E-01
RMM:  11    -0.631862290732E+03    0.10575E-03   -0.58569E-04 11870   0.516E-02    0.716E-02
RMM:  12    -0.631862307759E+03   -0.17027E-04   -0.33702E-04 11387   0.363E-02    0.678E-02
RMM:  13    -0.631862296052E+03    0.11706E-04   -0.20029E-04 10893   0.262E-02    0.141E-02
RMM:  14    -0.631862300867E+03   -0.48145E-05   -0.85794E-05  9694   0.195E-02
  43 F= -.63186230E+03 E0= -.63179952E+03  d E =-.442024E-02
 curvature:  -0.46 expect dE=-0.229E-02 dE for cont linesearch -0.717E-05
 trial: gam= 0.34356 g(F)=  0.441E-02 g(S)=  0.532E-03 ort = 0.857E-03 (trialstep = 0.523E+00)
 search vector abs. value=  0.111E-01
 bond charge predicted
       N       E                     dE             d eps       ncg     rms          rms(c)
DAV:   1    -0.631847084912E+03    0.15211E-01   -0.63693E-01  9912   0.485E+00    0.352E-01
RMM:   2    -0.631879119747E+03   -0.32035E-01   -0.19950E-01 14259   0.105E+00    0.148E+00
RMM:   3    -0.631865762586E+03    0.13357E-01   -0.17392E-02 11816   0.443E-01    0.525E-01
RMM:   4    -0.631865439331E+03    0.32326E-03   -0.51033E-03 13093   0.176E-01    0.409E-01
RMM:   5    -0.631864727185E+03    0.71215E-03   -0.12762E-03 12459   0.101E-01    0.187E-01
RMM:   6    -0.631864588706E+03    0.13848E-03   -0.60647E-04 11606   0.635E-02    0.131E-01
RMM:   7    -0.631864543050E+03    0.45656E-04   -0.32363E-04 12420   0.479E-02    0.127E-01
RMM:   8    -0.631864555264E+03   -0.12213E-04   -0.22070E-04 11281   0.494E-02    0.137E-01
RMM:   9    -0.631864493188E+03    0.62076E-04   -0.24215E-04 12115   0.446E-02    0.991E-02
RMM:  10    -0.631864454156E+03    0.39031E-04   -0.98094E-05 10888   0.319E-02    0.411E-02
RMM:  11    -0.631864452536E+03    0.16203E-05   -0.65953E-05  9861   0.183E-02
  44 F= -.63186445E+03 E0= -.63180189E+03  d E =-.215167E-02
 trial-energy change:   -0.002152  1 .order   -0.002171   -0.002739   -0.001602
 step:   1.2590(harm=  1.2590)  dis= 0.01211  next Energy=  -631.865600 (dE=-0.330E-02)
 bond charge predicted
       N       E                     dE             d eps       ncg     rms          rms(c)
DAV:   1    -0.631831303216E+03    0.33151E-01   -0.12686E+00  9912   0.683E+00    0.499E-01
RMM:   2    -0.631895627996E+03   -0.64325E-01   -0.39558E-01 14252   0.148E+00    0.211E+00
RMM:   3    -0.631868024092E+03    0.27604E-01   -0.35283E-02 11941   0.630E-01    0.723E-01
RMM:   4    -0.631867508185E+03    0.51591E-03   -0.10552E-02 13399   0.245E-01    0.575E-01
RMM:   5    -0.631866149379E+03    0.13588E-02   -0.26864E-03 13073   0.142E-01    0.270E-01
[...]
RMM:  10    -0.631882080743E+03   -0.18415E-05   -0.25919E-05  6532   0.175E-02
  65 F= -.63188208E+03 E0= -.63181997E+03  d E =-.401714E-03
 trial-energy change:   -0.000402  1 .order   -0.000393   -0.000633   -0.000153
 step:   1.1896(harm=  1.1896)  dis= 0.00136  next Energy=  -631.882097 (dE=-0.418E-03)
 bond charge predicted
       N       E                     dE             d eps       ncg     rms          rms(c)
DAV:   1    -0.631881590740E+03    0.48816E-03   -0.15806E-02  9600   0.760E-01    0.401E-02
RMM:   2    -0.631882120220E+03   -0.52948E-03   -0.51959E-03 14191   0.171E-01    0.776E-02
RMM:   3    -0.631882113400E+03    0.68199E-05   -0.45495E-04 11758   0.542E-02    0.495E-02
RMM:   4    -0.631882121360E+03   -0.79597E-05   -0.91252E-05 10233   0.284E-02
  66 F= -.63188212E+03 E0= -.63181996E+03  d E =-.442330E-03
 curvature:  -0.87 expect dE=-0.297E-03 dE for cont linesearch -0.699E-05
 ZBRENT: interpolating
 opt :   1.0893  next Energy=  -631.882126 (dE=-0.447E-03)
 bond charge predicted
       N       E                     dE             d eps       ncg     rms          rms(c)
DAV:   1    -0.631882052839E+03    0.60560E-04   -0.20535E-03 13032   0.272E-01    0.205E-02
RMM:   2    -0.631882136814E+03   -0.83974E-04   -0.53017E-04 12060   0.523E-02    0.853E-02
RMM:   3    -0.631882102977E+03    0.33836E-04   -0.53138E-05  5945   0.293E-02    0.224E-02
RMM:   4    -0.631882106717E+03   -0.37400E-05   -0.12553E-05  5437   0.149E-02
  67 F= -.63188211E+03 E0= -.63181997E+03  d E =-.427688E-03
 curvature:  -0.57 expect dE=-0.544E-03 dE for cont linesearch -0.301E-05
 trial: gam= 1.19523 g(F)=  0.285E-03 g(S)=  0.676E-03 ort = 0.739E-04 (trialstep = 0.370E+00)
 search vector abs. value=  0.260E-02
 bond charge predicted
       N       E                     dE             d eps       ncg     rms          rms(c)
DAV:   1    -0.631880822501E+03    0.12805E-02   -0.69232E-02 12384   0.162E+00    0.246E-01
RMM:   2    -0.631891301909E+03   -0.10479E-01   -0.27060E-02 12184   0.513E-01    0.113E+00
RMM:   3    -0.631882708677E+03    0.85932E-02   -0.56029E-03 11234   0.267E-01    0.298E-01
RMM:   4    -0.631882417238E+03    0.29144E-03   -0.12031E-03 12232   0.975E-02    0.188E-01
RMM:   5    -0.631882318450E+03    0.98788E-04   -0.35887E-04 11385   0.543E-02    0.142E-01
RMM:   6    -0.631882218002E+03    0.10045E-03   -0.15838E-04  9820   0.449E-02    0.717E-02
RMM:   7    -0.631882182670E+03    0.35332E-04   -0.11773E-04 10960   0.287E-02    0.418E-02
RMM:   8    -0.631882223237E+03   -0.40568E-04   -0.78781E-05  7824   0.344E-02    0.937E-02
RMM:   9    -0.631882172549E+03    0.50688E-04   -0.49401E-05  7014   0.283E-02    0.187E-02
RMM:  10    -0.631882177232E+03   -0.46828E-05   -0.23859E-05  5896   0.199E-02
  68 F= -.63188218E+03 E0= -.63182009E+03  d E =-.705144E-04
 trial-energy change:   -0.000071  1 .order   -0.000170   -0.000388    0.000048
 step:   0.2038(harm=  0.3292)  dis= 0.00036  next Energy=  -631.882197 (dE=-0.903E-04)
 bond charge predicted
       N       E                     dE             d eps       ncg     rms          rms(c)
DAV:   1    -0.631881925610E+03    0.24694E-03   -0.14292E-02 12624   0.732E-01    0.111E-01
RMM:   2    -0.631884040932E+03   -0.21153E-02   -0.54040E-03 12217   0.229E-01    0.516E-01
RMM:   3    -0.631882320211E+03    0.17207E-02   -0.11172E-03 10454   0.119E-01    0.150E-01
RMM:   4    -0.631882236886E+03    0.83326E-04   -0.24828E-04 11054   0.494E-02    0.815E-02
RMM:   5    -0.631882219625E+03    0.17261E-04   -0.78034E-05  8452   0.273E-02    0.661E-02
RMM:   6    -0.631882196649E+03    0.22975E-04   -0.31338E-05  5973   0.238E-02    0.354E-02
RMM:   7    -0.631882190546E+03    0.61035E-05   -0.21183E-05  5488   0.201E-02
  69 F= -.63188219E+03 E0= -.63182008E+03  d E =-.838284E-04
 curvature:   3.45 expect dE= 0.181E-02 dE for cont linesearch  0.127E-07
 trial: gam= 0.56334 g(F)=  0.285E-03 g(S)=  0.239E-03 ort = 0.310E-05 (trialstep = 0.337E+00)
 search vector abs. value=  0.135E-02
 bond charge predicted
       N       E                     dE             d eps       ncg     rms          rms(c)
DAV:   1    -0.631881307915E+03    0.88873E-03   -0.29783E-02  8928   0.108E+00    0.658E-02
RMM:   2    -0.631882715972E+03   -0.14081E-02   -0.10446E-02 14130   0.237E-01    0.298E-01
RMM:   3    -0.631882340275E+03    0.37570E-03   -0.93245E-04 10487   0.864E-02    0.732E-02
RMM:   4    -0.631882368598E+03   -0.28323E-04   -0.18372E-04 10123   0.440E-02    0.923E-02
RMM:   5    -0.631882320218E+03    0.48379E-04   -0.51761E-05  6854   0.284E-02    0.303E-02
RMM:   6    -0.631882319744E+03    0.47396E-06   -0.24151E-05  6140   0.192E-02
  70 F= -.63188232E+03 E0= -.63182025E+03  d E =-.129198E-03
 trial-energy change:   -0.000129  1 .order   -0.000133   -0.000177   -0.000089
 step:   0.6788(harm=  0.6788)  dis= 0.00095  next Energy=  -631.882369 (dE=-0.178E-03)
 bond charge predicted
       N       E                     dE             d eps       ncg     rms          rms(c)
DAV:   1    -0.631881341644E+03    0.97857E-03   -0.30718E-02  8928   0.110E+00    0.590E-02
RMM:   2    -0.631882575408E+03   -0.12338E-02   -0.10707E-02 14219   0.242E-01    0.218E-01
RMM:   3    -0.631882416055E+03    0.15935E-03   -0.93566E-04 11991   0.752E-02    0.701E-02
RMM:   4    -0.631882451172E+03   -0.35117E-04   -0.17955E-04 11130   0.387E-02    0.100E-01
RMM:   5    -0.631882398892E+03    0.52281E-04   -0.58272E-05  8221   0.275E-02    0.255E-02
RMM:   6    -0.631882407892E+03   -0.90000E-05   -0.37825E-05  7484   0.198E-02
  71 F= -.63188241E+03 E0= -.63182031E+03  d E =-.217346E-03
 curvature:  -0.87 expect dE=-0.163E-03 dE for cont linesearch -0.102E-04
 ZBRENT: increasing intervall
 opt :   1.3629  next Energy=  -631.882399 (dE=-0.208E-03)
 bond charge predicted
       N       E                     dE             d eps       ncg     rms          rms(c)
DAV:   1    -0.631878192484E+03    0.42064E-02   -0.12291E-01  8928   0.219E+00    0.108E-01
RMM:   2    -0.631882254457E+03   -0.40620E-02   -0.41734E-02 14318   0.478E-01    0.145E-01
RMM:   3    -0.631882553905E+03   -0.29945E-03   -0.36157E-03 13209   0.134E-01    0.184E-01
RMM:   4    -0.631882394080E+03    0.15983E-03   -0.50355E-04 12304   0.636E-02    0.592E-02
RMM:   5    -0.631882402926E+03   -0.88463E-05   -0.19052E-04 11607   0.344E-02    0.696E-02
RMM:   6    -0.631882389520E+03    0.13407E-04   -0.89449E-05 10945   0.262E-02    0.482E-02
RMM:   7    -0.631882405715E+03   -0.16195E-04   -0.70526E-05 10187   0.257E-02    0.738E-02
RMM:   8    -0.631882382937E+03    0.22778E-04   -0.48116E-05  9107   0.233E-02    0.425E-02
RMM:   9    -0.631882375507E+03    0.74300E-05   -0.28840E-05  6743   0.172E-02
  72 F= -.63188238E+03 E0= -.63182033E+03  d E =-.184961E-03
 curvature:   0.80 expect dE= 0.439E-03 dE for cont linesearch  0.309E-04
 ZBRENT: bracketing found
 ZBRENT: interpolating
 opt :   0.9214  next Energy=  -631.882423 (dE=-0.233E-03)
 bond charge predicted
       N       E                     dE             d eps       ncg     rms          rms(c)
DAV:   1    -0.631880703346E+03    0.16796E-02   -0.51480E-02  8952   0.141E+00    0.723E-02
RMM:   2    -0.631882532701E+03   -0.18294E-02   -0.17109E-02 14197   0.308E-01    0.213E-01
RMM:   3    -0.631882464742E+03    0.67959E-04   -0.14473E-03 11854   0.881E-02    0.970E-02
RMM:   4    -0.631882480657E+03   -0.15914E-04   -0.21245E-04 10544   0.454E-02    0.101E-01
RMM:   5    -0.631882427255E+03    0.53401E-04   -0.61319E-05  7297   0.305E-02    0.370E-02
RMM:   6    -0.631882429242E+03   -0.19869E-05   -0.31370E-05  6409   0.207E-02
  73 F= -.63188243E+03 E0= -.63182038E+03  d E =-.238696E-03
 curvature:  -0.39 expect dE=-0.191E-03 dE for cont linesearch -0.425E-06
 trial: gam= 0.73317 g(F)=  0.237E-03 g(S)=  0.247E-03 ort = 0.382E-04 (trialstep = 0.454E+00)
 search vector abs. value=  0.127E-02
 bond charge predicted
       N       E                     dE             d eps       ncg     rms          rms(c)
DAV:   1    -0.631881110205E+03    0.13171E-02   -0.51918E-02 11928   0.143E+00    0.156E-01
RMM:   2    -0.631885947302E+03   -0.48371E-02   -0.19305E-02 13213   0.365E-01    0.699E-01
RMM:   3    -0.631882687278E+03    0.32600E-02   -0.28375E-03 10703   0.177E-01    0.173E-01
RMM:   4    -0.631882654817E+03    0.32461E-04   -0.68692E-04 11821   0.730E-02    0.153E-01
RMM:   5    -0.631882588233E+03    0.66584E-04   -0.18432E-04 10498   0.405E-02    0.102E-01
RMM:   6    -0.631882535170E+03    0.53063E-04   -0.76513E-05  8238   0.304E-02    0.471E-02
RMM:   7    -0.631882531207E+03    0.39634E-05   -0.48856E-05  7810   0.220E-02
  74 F= -.63188253E+03 E0= -.63182050E+03  d E =-.101965E-03
 trial-energy change:   -0.000102  1 .order   -0.000160   -0.000232   -0.000088
 step:   0.7318(harm=  0.7318)  dis= 0.00116  next Energy=  -631.882616 (dE=-0.187E-03)
 bond charge predicted
       N       E                     dE             d eps       ncg     rms          rms(c)
DAV:   1    -0.631881991538E+03    0.54363E-03   -0.19323E-02 11712   0.877E-01    0.998E-02
RMM:   2    -0.631884043020E+03   -0.20515E-02   -0.74950E-03 13082   0.227E-01    0.492E-01
RMM:   3    -0.631882631889E+03    0.14111E-02   -0.11280E-03 10073   0.115E-01    0.143E-01
RMM:   4    -0.631882555411E+03    0.76478E-04   -0.26493E-04 10707   0.512E-02    0.658E-02
RMM:   5    -0.631882533151E+03    0.22260E-04   -0.80704E-05  9473   0.242E-02    0.380E-02
RMM:   6    -0.631882530025E+03    0.31251E-05   -0.25455E-05  5905   0.205E-02
  75 F= -.63188253E+03 E0= -.63182043E+03  d E =-.100783E-03
 curvature:  -0.91 expect dE=-0.175E-03 dE for cont linesearch -0.545E-06
 trial: gam= 0.15932 g(F)=  0.161E-03 g(S)=  0.316E-04 ort = 0.276E-04 (trialstep = 0.509E+00)
 search vector abs. value=  0.234E-03
 bond charge predicted
       N       E                     dE             d eps       ncg     rms          rms(c)
DAV:   1    -0.631882444381E+03    0.88770E-04   -0.10261E-02 11112   0.545E-01    0.614E-02
RMM:   2    -0.631883345741E+03   -0.90136E-03   -0.25667E-03 13673   0.147E-01    0.365E-01
RMM:   3    -0.631882669257E+03    0.67648E-03   -0.43025E-04 10136   0.763E-02    0.100E-01
RMM:   4    -0.631882625510E+03    0.43747E-04   -0.11885E-04 10158   0.354E-02    0.498E-02
RMM:   5    -0.631882616415E+03    0.90951E-05   -0.47429E-05  8266   0.212E-02
  76 F= -.63188262E+03 E0= -.63182051E+03  d E =-.863897E-04
 trial-energy change:   -0.000086  1 .order   -0.000083   -0.000100   -0.000066
 step:   1.5017(harm=  1.5017)  dis= 0.00122  next Energy=  -631.882678 (dE=-0.148E-03)
 bond charge predicted
       N       E                     dE             d eps       ncg     rms          rms(c)
DAV:   1    -0.631881988364E+03    0.63715E-03   -0.38334E-02 10296   0.105E+00    0.110E-01
RMM:   2    -0.631884102136E+03   -0.21138E-02   -0.91639E-03 14005   0.265E-01    0.473E-01
RMM:   3    -0.631882744533E+03    0.13576E-02   -0.12007E-03 11202   0.127E-01    0.156E-01
RMM:   4    -0.631882693019E+03    0.51514E-04   -0.41003E-04 11948   0.564E-02    0.111E-01
RMM:   5    -0.631882650056E+03    0.42963E-04   -0.15469E-04 11007   0.364E-02    0.776E-02
RMM:   6    -0.631882626413E+03    0.23643E-04   -0.71587E-05  9173   0.277E-02    0.517E-02
RMM:   7    -0.631882619587E+03    0.68264E-05   -0.52659E-05  8772   0.235E-02
  77 F= -.63188262E+03 E0= -.63182052E+03  d E =-.895612E-04
 curvature:  -0.89 expect dE=-0.309E-03 dE for cont linesearch -0.118E-04
 ZBRENT: interpolating
 opt :   1.2048  next Energy=  -631.882628 (dE=-0.978E-04)
 bond charge predicted
       N       E                     dE             d eps       ncg     rms          rms(c)
DAV:   1    -0.631882589075E+03    0.37338E-04   -0.37454E-03 11904   0.327E-01    0.531E-02
RMM:   2    -0.631883455660E+03   -0.86659E-03   -0.11087E-03 11625   0.107E-01    0.399E-01
RMM:   3    -0.631882659350E+03    0.79631E-03   -0.28225E-04  8252   0.714E-02    0.607E-02
RMM:   4    -0.631882641488E+03    0.17861E-04   -0.44912E-05  6262   0.270E-02    0.383E-02
RMM:   5    -0.631882635972E+03    0.55168E-05   -0.14992E-05  5406   0.200E-02
  78 F= -.63188264E+03 E0= -.63182053E+03  d E =-.105946E-03
 curvature:  -0.62 expect dE=-0.143E-03 dE for cont linesearch -0.258E-05
 trial: gam= 1.42561 g(F)=  0.113E-03 g(S)=  0.115E-03 ort =-0.311E-04 (trialstep = 0.246E+00)
 search vector abs. value=  0.615E-03
 bond charge predicted
       N       E                     dE             d eps       ncg     rms          rms(c)
DAV:   1    -0.631882489287E+03    0.15220E-03   -0.67154E-03 10656   0.493E-01    0.420E-02
RMM:   2    -0.631882989878E+03   -0.50059E-03   -0.20061E-03 13676   0.113E-01    0.250E-01
RMM:   3    -0.631882672452E+03    0.31743E-03   -0.23799E-04  8193   0.568E-02    0.605E-02
RMM:   4    -0.631882659384E+03    0.13067E-04   -0.51029E-05  6799   0.253E-02    0.371E-02
RMM:   5    -0.631882656886E+03    0.24981E-05   -0.19794E-05  5685   0.197E-02
  79 F= -.63188266E+03 E0= -.63182054E+03  d E =-.209145E-04
 trial-energy change:   -0.000021  1 .order   -0.000024   -0.000045   -0.000003
 step:   0.2667(harm=  0.2667)  dis= 0.00030  next Energy=  -631.882661 (dE=-0.246E-04)
 bond charge predicted
       N       E                     dE             d eps       ncg     rms          rms(c)
DAV:   1    -0.631882653722E+03    0.56618E-05   -0.93536E-05 11952   0.558E-02    0.147E-02
RMM:   2    -0.631882708918E+03   -0.55196E-04   -0.37589E-05  5905   0.238E-02    0.108E-01
RMM:   3    -0.631882654407E+03    0.54511E-04   -0.17822E-05  5609   0.227E-02    0.104E-02
RMM:   4    -0.631882654620E+03   -0.21306E-06   -0.37133E-06  4519   0.719E-03
  80 F= -.63188265E+03 E0= -.63182053E+03  d E =-.186486E-04
 curvature:  -0.44 expect dE=-0.115E-03 dE for cont linesearch -0.205E-05
 ZBRENT: increasing intervall
 opt :   0.3074  next Energy=  -631.882658 (dE=-0.224E-04)
 bond charge predicted
       N       E                     dE             d eps       ncg     rms          rms(c)
DAV:   1    -0.631882650922E+03    0.34852E-05   -0.19561E-04 11904   0.832E-02    0.106E-02
RMM:   2    -0.631882681070E+03   -0.30148E-04   -0.51653E-05  6051   0.234E-02    0.735E-02
RMM:   3    -0.631882656244E+03    0.24827E-04   -0.15710E-05  5219   0.226E-02    0.155E-02
RMM:   4    -0.631882655154E+03    0.10900E-05   -0.43545E-06  4414   0.841E-03
  81 F= -.63188266E+03 E0= -.63182053E+03  d E =-.191820E-04
 curvature:  -0.82 expect dE=-0.191E-03 dE for cont linesearch -0.131E-07
 trial: gam= 0.45548 g(F)=  0.140E-03 g(S)=  0.949E-04 ort =-0.314E-05 (trialstep = 0.259E+00)
 search vector abs. value=  0.359E-03
 bond charge predicted
       N       E                     dE             d eps       ncg     rms          rms(c)
DAV:   1    -0.631882683056E+03   -0.26812E-04   -0.39148E-03 11760   0.326E-01    0.721E-02
RMM:   2    -0.631883441789E+03   -0.75873E-03   -0.13141E-03 11709   0.129E-01    0.323E-01
RMM:   3    -0.631882727446E+03    0.71434E-03   -0.34743E-04  9269   0.759E-02    0.807E-02
RMM:   4    -0.631882705553E+03    0.21893E-04   -0.72951E-05  8195   0.321E-02    0.591E-02
RMM:   5    -0.631882699960E+03    0.55927E-05   -0.30890E-05  6086   0.210E-02
  82 F= -.63188270E+03 E0= -.63182057E+03  d E =-.448064E-04
 ZBRENT: can't locate minimum, use default step
 trial-energy change:   -0.000045  1 .order   -0.000053   -0.000060   -0.000046
 step:   1.0343(harm=  1.1336)  dis= 0.00091  next Energy=  -631.882787 (dE=-0.132E-03)
 bond charge predicted
       N       E                     dE             d eps       ncg     rms          rms(c)
DAV:   1    -0.631882611585E+03    0.93967E-04   -0.35058E-02 11520   0.984E-01    0.216E-01
RMM:   2    -0.631889378929E+03   -0.67673E-02   -0.11798E-02 12113   0.386E-01    0.967E-01
RMM:   3    -0.631882962727E+03    0.64162E-02   -0.31768E-03 10999   0.219E-01    0.215E-01
RMM:   4    -0.631882845135E+03    0.11759E-03   -0.70812E-04 11700   0.835E-02    0.201E-01
RMM:   5    -0.631882741688E+03    0.10345E-03   -0.30666E-04 11283   0.542E-02    0.158E-01
RMM:   6    -0.631882641625E+03    0.10006E-03   -0.17926E-04  9820   0.495E-02    0.930E-02
RMM:   7    -0.631882611515E+03    0.30110E-04   -0.14885E-04 11186   0.355E-02    0.861E-02
RMM:   8    -0.631882589582E+03    0.21932E-04   -0.65853E-05  8514   0.314E-02    0.555E-02
RMM:   9    -0.631882592992E+03   -0.34093E-05   -0.48443E-05  7666   0.232E-02
  83 F= -.63188259E+03 E0= -.63182053E+03  d E =0.621618E-04
 curvature:  -0.86 expect dE=-0.579E-03 dE for cont linesearch -0.213E-03
 ZBRENT: interpolating
 opt :   0.5507  next Energy=  -631.882726 (dE=-0.711E-04)
 bond charge predicted
       N       E                     dE             d eps       ncg     rms          rms(c)
DAV:   1    -0.631882706966E+03   -0.11738E-03   -0.14083E-02 11520   0.619E-01    0.134E-01
RMM:   2    -0.631885298420E+03   -0.25915E-02   -0.45151E-03 12011   0.241E-01    0.604E-01
RMM:   3    -0.631882874214E+03    0.24242E-02   -0.11931E-03 10528   0.136E-01    0.165E-01
RMM:   4    -0.631882780882E+03    0.93332E-04   -0.25405E-04 10730   0.566E-02    0.112E-01
RMM:   5    -0.631882760460E+03    0.20422E-04   -0.12149E-04  9799   0.349E-02    0.991E-02
RMM:   6    -0.631882707152E+03    0.53309E-04   -0.60502E-05  7152   0.302E-02    0.453E-02
RMM:   7    -0.631882697275E+03    0.98764E-05   -0.45672E-05  6959   0.231E-02
  84 F= -.63188270E+03 E0= -.63182060E+03  d E =-.421216E-04
 curvature:  -0.11 expect dE=-0.501E-04 dE for cont linesearch -0.877E-05
 ZBRENT: interpolating
 opt :   0.4079  next Energy=  -631.882710 (dE=-0.544E-04)
 bond charge predicted
       N       E                     dE             d eps       ncg     rms          rms(c)
DAV:   1    -0.631882705542E+03    0.16097E-05   -0.12158E-03 12216   0.190E-01    0.553E-02
RMM:   2    -0.631883319348E+03   -0.61381E-03   -0.66565E-04 10196   0.919E-02    0.317E-01
RMM:   3    -0.631882721816E+03    0.59753E-03   -0.22583E-04  7921   0.675E-02    0.640E-02
RMM:   4    -0.631882698900E+03    0.22915E-04   -0.33167E-05  5905   0.248E-02    0.305E-02
RMM:   5    -0.631882705480E+03   -0.65793E-05   -0.15753E-05  5466   0.187E-02
  85 F= -.63188271E+03 E0= -.63182060E+03  d E =-.503262E-04
 curvature:  -0.15 expect dE=-0.838E-04 dE for cont linesearch -0.626E-05
 ZBRENT: bisectioning
 opt :   0.3332  next Energy=  -631.882714 (dE=-0.585E-04)
 bond charge predicted
       N       E                     dE             d eps       ncg     rms          rms(c)
DAV:   1    -0.631882695750E+03    0.31508E-05   -0.36894E-04 12504   0.992E-02    0.236E-02
RMM:   2    -0.631882762432E+03   -0.66683E-04   -0.10215E-04  7403   0.363E-02    0.100E-01
RMM:   3    -0.631882695671E+03    0.66762E-04   -0.30492E-05  5863   0.294E-02    0.225E-02
RMM:   4    -0.631882695440E+03    0.23074E-06   -0.93379E-06  4549   0.125E-02
  86 F= -.63188270E+03 E0= -.63182060E+03  d E =-.402864E-04
 curvature:  -0.20 expect dE=-0.616E-04 dE for cont linesearch -0.795E-06
 trial: gam= 1.41854 g(F)=  0.110E-03 g(S)=  0.206E-03 ort =-0.382E-04 (trialstep = 0.106E+00)
 search vector abs. value=  0.930E-03
 bond charge predicted
       N       E                     dE             d eps       ncg     rms          rms(c)
DAV:   1    -0.631882660053E+03    0.35618E-04   -0.18796E-03  9720   0.271E-01    0.248E-02
RMM:   2    -0.631882832273E+03   -0.17222E-03   -0.62068E-04 12215   0.680E-02    0.154E-01
RMM:   3    -0.631882713213E+03    0.11906E-03   -0.81868E-05  6484   0.374E-02    0.327E-02
RMM:   4    -0.631882709872E+03    0.33413E-05   -0.16503E-05  5374   0.168E-02
  87 F= -.63188271E+03 E0= -.63182060E+03  d E =-.144315E-04
 trial-energy change:   -0.000014  1 .order   -0.000017   -0.000028   -0.000006
 step:   0.1338(harm=  0.1338)  dis= 0.00020  next Energy=  -631.882713 (dE=-0.175E-04)
 reached required accuracy - stopping structural energy minimisation
