<?xml version="1.0" encoding="ISO-8859-1"?>
<modeling>
 <generator>
  <i name="program" type="string">vasp </i>
  <i name="version" type="string">5.4.4.18Apr17-6-g9f103f2a35  </i>
  <i name="subversion" type="string">(build Oct 18 2021 20:38:43) complex            parallel </i>
  <i name="platform" type="string">LinuxIFC </i>
  <i name="date" type="string">2024 06 18 </i>
  <i name="time" type="string">15:43:06 </i>
 </generator>
 <incar>
  <i type="string" name="SYSTEM">HECN</i>
  <i type="int" name="ISTART">     0</i>
  <i type="string" name="PREC">normal</i>
  <i type="string" name="ALGO">Fast</i>
  <i type="int" name="ICHARG">     2</i>
  <i type="int" name="NELM">    60</i>
  <i type="int" name="IBRION">     2</i>
  <i name="EDIFF">      0.00001000</i>
  <i name="EDIFFG">     -0.01000000</i>
  <i type="int" name="NSW">   100</i>
  <i type="int" name="ISIF">     3</i>
  <i name="ENCUT">    400.00000000</i>
  <i name="POTIM">      0.50000000</i>
  <i type="logical" name="LREAL"> F  </i>
  <i type="int" name="ISMEAR">     0</i>
  <i name="SIGMA">      0.10000000</i>
  <i type="logical" name="LWAVE"> F  </i>
  <i type="logical" name="LCHARG"> F  </i>
  <v type="int" name="KPOINT_BSE">    -1     0     0     0</v>
  <i type="int" name="NELM">    60</i>
 </incar>
 <structure name="primitive_cell" >
  <crystal>
   <varray name="basis" >
    <v>       8.93249989       0.00000000       0.00000000 </v>
    <v>       0.00575300       9.05559834       0.00000000 </v>
    <v>       0.03210180      -0.01574346       8.93712807 </v>
   </varray>
   <i name="volume">    722.91652451 </i>
   <varray name="rec_basis" >
    <v>       0.11195074      -0.00007112      -0.00040225 </v>
    <v>       0.00000000       0.11042893       0.00019453 </v>
    <v>       0.00000000       0.00000000       0.11189277 </v>
   </varray>
  </crystal>
  <varray name="positions" >
   <v>      -0.00311999      -0.00795003      -0.00075998 </v>
   <v>      -0.25232999      -0.00252000       0.01202000 </v>
   <v>      -0.00162995      -0.25686004       0.00460000 </v>
   <v>      -0.00280000      -0.00228008       0.25899999 </v>
   <v>       0.00281000       0.25024000       0.00130000 </v>
   <v>      -0.01103011       0.00202000      -0.26291001 </v>
   <v>       0.26146999      -0.00015998      -0.00704004 </v>
   <v>      -0.00135002      -0.22426001       0.26102000 </v>
   <v>      -0.25720997      -0.02130006      -0.23549005 </v>
   <v>       0.23780002       0.01082000      -0.25392002 </v>
   <v>      -0.24282000      -0.25897003       0.01100000 </v>
   <v>       0.24762001      -0.25026001      -0.00025994 </v>
   <v>      -0.00485996      -0.25507996      -0.25488003 </v>
   <v>      -0.24281000       0.25603001      -0.00408003 </v>
   <v>       0.25398003      -0.00285005       0.24912000 </v>
   <v>       0.24788999       0.24839000      -0.00342003 </v>
   <v>      -0.00562996       0.23617001       0.26379999 </v>
   <v>      -0.25120996      -0.01212001       0.26967001 </v>
   <v>       0.00201000       0.25541000      -0.26105999 </v>
   <v>       0.24177002      -0.24659003      -0.24981998 </v>
   <v>      -0.24963995      -0.25112000      -0.25243996 </v>
   <v>      -0.24255004       0.24437997      -0.25103001 </v>
   <v>       0.25133999      -0.25041998       0.24910999 </v>
   <v>      -0.24367000      -0.26108997       0.25767000 </v>
   <v>      -0.24686002       0.24616999       0.25492002 </v>
   <v>       0.24982001       0.24942998       0.24825000 </v>
   <v>       0.24900999       0.25315000      -0.25146000 </v>
   <v>      -0.48411003       0.01358000      -0.01924992 </v>
   <v>      -0.00158006      -0.49023002      -0.01386996 </v>
   <v>       0.02362000      -0.00216999       0.49557002 </v>
   <v>      -0.49480995      -0.23869001       0.00855000 </v>
   <v>      -0.49285006      -0.00023001       0.24673000 </v>
   <v>      -0.24160996      -0.49684002       0.00288000 </v>
   <v>      -0.00999997      -0.23784997       0.49746000 </v>
   <v>      -0.00948001       0.48088003       0.24100999 </v>
   <v>       0.24446000      -0.00176004      -0.49712002 </v>
   <v>      -0.26367999       0.00417000      -0.48937000 </v>
   <v>       0.24328000      -0.49927003      -0.00489006 </v>
   <v>      -0.49572003       0.24673000       0.00262000 </v>
   <v>      -0.00796004      -0.49944001      -0.24861998 </v>
   <v>      -0.00195991       0.24229999      -0.49871997 </v>
   <v>      -0.49991002       0.00061000      -0.26528002 </v>
   <v>      -0.26123997      -0.47171998      -0.26185001 </v>
   <v>       0.49950005      -0.24518001      -0.25182996 </v>
   <v>       0.24457999      -0.24951001       0.49983999 </v>
   <v>      -0.24599997      -0.27062001       0.49116997 </v>
   <v>      -0.49520997       0.24631001      -0.25289998 </v>
   <v>       0.24803003      -0.49835000       0.24955001 </v>
   <v>      -0.26448999      -0.48531996       0.26666001 </v>
   <v>      -0.49167000       0.25676999       0.25376001 </v>
   <v>      -0.49620997      -0.26073003       0.25905001 </v>
   <v>      -0.24692999       0.26163001      -0.49466998 </v>
   <v>       0.25272001       0.24823001      -0.49984997 </v>
   <v>       0.25679999       0.49462002      -0.25454998 </v>
   <v>       0.47957999      -0.01691999       0.49717999 </v>
   <v>      -0.49498994       0.49745998      -0.00165997 </v>
   <v>      -0.00572008      -0.49550001       0.49779000 </v>
   <v>      -0.49436004       0.23264998       0.49544997 </v>
   <v>      -0.49424994      -0.25041998       0.49720000 </v>
   <v>      -0.49299998      -0.49666998       0.25878999 </v>
   <v>      -0.49498997      -0.49782002      -0.26087997 </v>
   <v>      -0.25963999      -0.49803000      -0.49932997 </v>
   <v>       0.25841001      -0.49937998      -0.49870999 </v>
   <v>      -0.49461000      -0.47166995       0.49917999 </v>
  </varray>
 </structure>
 <varray name="primitive_index" >
  <v type="int" >        1 </v>
  <v type="int" >       25 </v>
  <v type="int" >       38 </v>
  <v type="int" >       34 </v>
  <v type="int" >       23 </v>
  <v type="int" >       29 </v>
  <v type="int" >       22 </v>
  <v type="int" >       59 </v>
  <v type="int" >       58 </v>
  <v type="int" >       56 </v>
  <v type="int" >        9 </v>
  <v type="int" >       18 </v>
  <v type="int" >       12 </v>
  <v type="int" >       17 </v>
  <v type="int" >        2 </v>
  <v type="int" >       14 </v>
  <v type="int" >        8 </v>
  <v type="int" >       16 </v>
  <v type="int" >       10 </v>
  <v type="int" >       45 </v>
  <v type="int" >       49 </v>
  <v type="int" >       30 </v>
  <v type="int" >       36 </v>
  <v type="int" >       39 </v>
  <v type="int" >       24 </v>
  <v type="int" >       21 </v>
  <v type="int" >       42 </v>
  <v type="int" >       53 </v>
  <v type="int" >       54 </v>
  <v type="int" >       61 </v>
  <v type="int" >       28 </v>
  <v type="int" >       26 </v>
  <v type="int" >       40 </v>
  <v type="int" >       47 </v>
  <v type="int" >       27 </v>
  <v type="int" >       43 </v>
  <v type="int" >       31 </v>
  <v type="int" >       37 </v>
  <v type="int" >       35 </v>
  <v type="int" >       48 </v>
  <v type="int" >       44 </v>
  <v type="int" >       33 </v>
  <v type="int" >       63 </v>
  <v type="int" >        7 </v>
  <v type="int" >       20 </v>
  <v type="int" >       64 </v>
  <v type="int" >        5 </v>
  <v type="int" >        3 </v>
  <v type="int" >       60 </v>
  <v type="int" >       15 </v>
  <v type="int" >       55 </v>
  <v type="int" >       11 </v>
  <v type="int" >       19 </v>
  <v type="int" >       13 </v>
  <v type="int" >       57 </v>
  <v type="int" >        4 </v>
  <v type="int" >        6 </v>
  <v type="int" >       32 </v>
  <v type="int" >       51 </v>
  <v type="int" >       41 </v>
  <v type="int" >       52 </v>
  <v type="int" >       50 </v>
  <v type="int" >       46 </v>
  <v type="int" >       62 </v>
 </varray>
 <kpoints>
  <generation param="Gamma">
   <v type="int" name="divisions">       3        3        3 </v>
   <v name="usershift">      0.00000000       0.00000000       0.00000000 </v>
   <v name="genvec1">      0.33333333      -0.00000000      -0.00000000 </v>
   <v name="genvec2">      0.00000000       0.33333333       0.00000000 </v>
   <v name="genvec3">      0.00000000       0.00000000       0.33333333 </v>
   <v name="shift">      0.00000000       0.00000000       0.00000000 </v>
  </generation>
  <varray name="kpointlist" >
   <v>       0.00000000       0.00000000       0.00000000 </v>
   <v>       0.33333333       0.00000000       0.00000000 </v>
   <v>       0.00000000       0.33333333       0.00000000 </v>
   <v>       0.33333333       0.33333333       0.00000000 </v>
   <v>      -0.33333333       0.33333333       0.00000000 </v>
   <v>       0.00000000       0.00000000       0.33333333 </v>
   <v>       0.33333333       0.00000000       0.33333333 </v>
   <v>      -0.33333333       0.00000000       0.33333333 </v>
   <v>       0.00000000       0.33333333       0.33333333 </v>
   <v>       0.33333333       0.33333333       0.33333333 </v>
   <v>      -0.33333333       0.33333333       0.33333333 </v>
   <v>       0.00000000      -0.33333333       0.33333333 </v>
   <v>       0.33333333      -0.33333333       0.33333333 </v>
   <v>      -0.33333333      -0.33333333       0.33333333 </v>
  </varray>
  <varray name="weights" >
   <v>       0.03703704 </v>
   <v>       0.07407407 </v>
   <v>       0.07407407 </v>
   <v>       0.07407407 </v>
   <v>       0.07407407 </v>
   <v>       0.07407407 </v>
   <v>       0.07407407 </v>
   <v>       0.07407407 </v>
   <v>       0.07407407 </v>
   <v>       0.07407407 </v>
   <v>       0.07407407 </v>
   <v>       0.07407407 </v>
   <v>       0.07407407 </v>
   <v>       0.07407407 </v>
  </varray>
 </kpoints>
 <parameters>
  <separator name="general" >
   <i type="string" name="SYSTEM">HECN</i>
   <i type="logical" name="LCOMPAT"> F  </i>
  </separator>
  <separator name="electronic" >
   <i type="string" name="PREC">normal</i>
   <i name="ENMAX">    400.00000000</i>
   <i name="ENAUG">    644.87300000</i>
   <i name="EDIFF">      0.00001000</i>
   <i type="int" name="IALGO">    68</i>
   <i type="int" name="IWAVPR">    11</i>
   <i type="int" name="NBANDS">   312</i>
   <i name="NELECT">    489.00000000</i>
   <i type="int" name="TURBO">     0</i>
   <i type="int" name="IRESTART">     0</i>
   <i type="int" name="NREBOOT">     0</i>
   <i type="int" name="NMIN">     0</i>
   <i name="EREF">      0.00000000</i>
   <separator name="electronic smearing" >
    <i type="int" name="ISMEAR">     0</i>
    <i name="SIGMA">      0.10000000</i>
    <i name="KSPACING">      0.50000000</i>
    <i type="logical" name="KGAMMA"> T  </i>
   </separator>
   <separator name="electronic projectors" >
    <i type="logical" name="LREAL"> F  </i>
    <v name="ROPT">      0.00000000      0.00000000      0.00000000      0.00000000      0.00000000      0.00000000      0.00000000</v>
    <i type="int" name="LMAXPAW">  -100</i>
    <i type="int" name="LMAXMIX">     2</i>
    <i type="logical" name="NLSPLINE"> F  </i>
   </separator>
   <separator name="electronic startup" >
    <i type="int" name="ISTART">     0</i>
    <i type="int" name="ICHARG">     2</i>
    <i type="int" name="INIWAV">     1</i>
   </separator>
   <separator name="electronic spin" >
    <i type="int" name="ISPIN">     1</i>
    <i type="logical" name="LNONCOLLINEAR"> F  </i>
    <v name="MAGMOM">      1.00000000      1.00000000      1.00000000      1.00000000      1.00000000      1.00000000      1.00000000      1.00000000      1.00000000      1.00000000      1.00000000      1.00000000      1.00000000      1.00000000      1.00000000      1.00000000      1.00000000      1.00000000      1.00000000      1.00000000
      1.00000000      1.00000000      1.00000000      1.00000000      1.00000000      1.00000000      1.00000000      1.00000000      1.00000000      1.00000000      1.00000000      1.00000000      1.00000000      1.00000000      1.00000000      1.00000000      1.00000000      1.00000000      1.00000000      1.00000000
      1.00000000      1.00000000      1.00000000      1.00000000      1.00000000      1.00000000      1.00000000      1.00000000      1.00000000      1.00000000      1.00000000      1.00000000      1.00000000      1.00000000      1.00000000      1.00000000      1.00000000      1.00000000      1.00000000      1.00000000
      1.00000000      1.00000000      1.00000000      1.00000000</v>
    <i name="NUPDOWN">     -1.00000000</i>
    <i type="logical" name="LSORBIT"> F  </i>
    <v name="SAXIS">      0.00000000      0.00000000      1.00000000</v>
    <i type="logical" name="LSPIRAL"> F  </i>
    <v name="QSPIRAL">      0.00000000      0.00000000      0.00000000</v>
    <i type="logical" name="LZEROZ"> F  </i>
   </separator>
   <separator name="electronic exchange-correlation" >
    <i type="logical" name="LASPH"> F  </i>
    <i type="logical" name="LMETAGGA"> F  </i>
   </separator>
   <separator name="electronic convergence" >
    <i type="int" name="NELM">    60</i>
    <i type="int" name="NELMDL">    -5</i>
    <i type="int" name="NELMIN">     2</i>
    <i name="ENINI">    400.00000000</i>
    <separator name="electronic convergence detail" >
     <i type="logical" name="LDIAG"> T  </i>
     <i type="logical" name="LSUBROT"> F  </i>
     <i name="WEIMIN">      0.00100000</i>
     <i name="EBREAK">      0.00000001</i>
     <i name="DEPER">      0.30000000</i>
     <i type="int" name="NRMM">     4</i>
     <i name="TIME">      0.40000000</i>
    </separator>
   </separator>
   <separator name="electronic mixer" >
    <i name="AMIX">      0.40000000</i>
    <i name="BMIX">      1.00000000</i>
    <i name="AMIN">      0.10000000</i>
    <i name="AMIX_MAG">      1.60000000</i>
    <i name="BMIX_MAG">      1.00000000</i>
    <separator name="electronic mixer details" >
     <i type="int" name="IMIX">     4</i>
     <i type="logical" name="MIXFIRST"> F  </i>
     <i type="int" name="MAXMIX">   -45</i>
     <i name="WC">    100.00000000</i>
     <i type="int" name="INIMIX">     1</i>
     <i type="int" name="MIXPRE">     1</i>
     <i type="int" name="MREMOVE">     5</i>
    </separator>
   </separator>
   <separator name="electronic dipolcorrection" >
    <i type="logical" name="LDIPOL"> F  </i>
    <i type="logical" name="LMONO"> F  </i>
    <i type="int" name="IDIPOL">     0</i>
    <i name="EPSILON">      1.00000000</i>
    <v name="DIPOL">   -100.00000000   -100.00000000   -100.00000000</v>
    <i name="EFIELD">      0.00000000</i>
   </separator>
  </separator>
  <separator name="grids" >
   <i type="int" name="NGX">    48</i>
   <i type="int" name="NGY">    48</i>
   <i type="int" name="NGZ">    48</i>
   <i type="int" name="NGXF">    96</i>
   <i type="int" name="NGYF">    96</i>
   <i type="int" name="NGZF">    96</i>
   <i type="logical" name="ADDGRID"> F  </i>
  </separator>
  <separator name="ionic" >
   <i type="int" name="NSW">   100</i>
   <i type="int" name="IBRION">     2</i>
   <i type="int" name="MDALGO">     0</i>
   <i type="int" name="ISIF">     3</i>
   <i name="PSTRESS">      0.00000000</i>
   <i name="EDIFFG">     -0.01000000</i>
   <i type="int" name="NFREE">     1</i>
   <i name="POTIM">      0.50000000</i>
   <i name="SMASS">     -3.00000000</i>
   <i name="SCALEE">      1.00000000</i>
  </separator>
  <separator name="ionic md" >
   <i name="TEBEG">      0.00010000</i>
   <i name="TEEND">      0.00010000</i>
   <i type="int" name="NBLOCK">     1</i>
   <i type="int" name="KBLOCK">   100</i>
   <i type="int" name="NPACO">   256</i>
   <i name="APACO">     16.00000000</i>
  </separator>
  <separator name="symmetry" >
   <i type="int" name="ISYM">     2</i>
   <i name="SYMPREC">      0.00001000</i>
  </separator>
  <separator name="dos" >
   <i type="int" name="LORBIT">     0</i>
   <v name="RWIGS">     -1.00000000     -1.00000000     -1.00000000     -1.00000000     -1.00000000     -1.00000000     -1.00000000</v>
   <i type="int" name="NEDOS">   301</i>
   <i name="EMIN">     10.00000000</i>
   <i name="EMAX">    -10.00000000</i>
   <i name="EFERMI">      0.00000000</i>
  </separator>
  <separator name="writing" >
   <i type="int" name="NWRITE">     2</i>
   <i type="logical" name="LWAVE"> F  </i>
   <i type="logical" name="LDOWNSAMPLE"> F  </i>
   <i type="logical" name="LCHARG"> F  </i>
   <i type="logical" name="LPARD"> F  </i>
   <i type="logical" name="LVTOT"> F  </i>
   <i type="logical" name="LVHAR"> F  </i>
   <i type="logical" name="LELF"> F  </i>
   <i type="logical" name="LOPTICS"> F  </i>
   <v name="STM">      0.00000000      0.00000000      0.00000000      0.00000000      0.00000000      0.00000000      0.00000000</v>
  </separator>
  <separator name="performance" >
   <i type="int" name="NPAR">    24</i>
   <i type="int" name="NSIM">     4</i>
   <i type="int" name="NBLK">    -1</i>
   <i type="logical" name="LPLANE"> T  </i>
   <i type="logical" name="LSCALAPACK"> T  </i>
   <i type="logical" name="LSCAAWARE"> F  </i>
   <i type="logical" name="LSCALU"> F  </i>
   <i type="logical" name="LASYNC"> F  </i>
   <i type="logical" name="LORBITALREAL"> F  </i>
  </separator>
  <separator name="miscellaneous" >
   <i type="int" name="IDIOT">     3</i>
   <i type="int" name="ISPECIAL">     0</i>
   <i type="logical" name="LMUSIC"> F  </i>
   <v name="POMASS">     91.22400000    183.85000000     47.88000000     14.00100000     12.01100000     51.99600000     95.94000000</v>
   <v name="DARWINR">      0.00000000      0.00000000      0.00000000      0.00000000      0.00000000      0.00000000      0.00000000</v>
   <v name="DARWINV">      1.00000000      1.00000000      1.00000000      1.00000000      1.00000000      1.00000000      1.00000000</v>
   <i type="logical" name="LCORR"> T  </i>
  </separator>
  <i type="logical" name="GGA_COMPAT"> T  </i>
  <i type="logical" name="LBERRY"> F  </i>
  <i type="int" name="ICORELEVEL">     0</i>
  <i type="logical" name="LDAU"> F  </i>
  <i type="int" name="I_CONSTRAINED_M">     0</i>
  <separator name="electronic exchange-correlation" >
   <i type="string" name="GGA">--</i>
   <i type="int" name="VOSKOWN">     0</i>
   <i type="logical" name="LHFCALC"> F  </i>
   <i type="string" name="PRECFOCK"></i>
   <i type="logical" name="LSYMGRAD"> F  </i>
   <i type="logical" name="LHFONE"> F  </i>
   <i type="logical" name="LRHFCALC"> F  </i>
   <i type="logical" name="LTHOMAS"> F  </i>
   <i type="logical" name="LMODELHF"> F  </i>
   <i name="ENCUT4O">     -1.00000000</i>
   <i type="int" name="EXXOEP">     0</i>
   <i type="int" name="FOURORBIT">     0</i>
   <i name="AEXX">      0.00000000</i>
   <i name="HFALPHA">      0.00000000</i>
   <i name="MCALPHA">      0.00000000</i>
   <i name="ALDAX">      1.00000000</i>
   <i name="AGGAX">      1.00000000</i>
   <i name="ALDAC">      1.00000000</i>
   <i name="AGGAC">      1.00000000</i>
   <i type="int" name="NKREDX">     1</i>
   <i type="int" name="NKREDY">     1</i>
   <i type="int" name="NKREDZ">     1</i>
   <i type="logical" name="SHIFTRED"> F  </i>
   <i type="logical" name="ODDONLY"> F  </i>
   <i type="logical" name="EVENONLY"> F  </i>
   <i type="int" name="LMAXFOCK">     0</i>
   <i type="int" name="NMAXFOCKAE">     0</i>
   <i type="logical" name="LFOCKAEDFT"> F  </i>
   <i name="HFSCREEN">      0.00000000</i>
   <i name="HFSCREENC">      0.00000000</i>
   <i type="int" name="NBANDSGWLOW">     0</i>
  </separator>
  <separator name="vdW DFT" >
   <i type="logical" name="LUSE_VDW"> F  </i>
   <i name="Zab_VDW">     -0.84910000</i>
   <i name="PARAM1">      0.12340000</i>
   <i name="PARAM2">      1.00000000</i>
   <i name="PARAM3">      0.00000000</i>
  </separator>
  <separator name="model GW" >
   <i type="int" name="MODEL_GW">     0</i>
   <i name="MODEL_EPS0">      6.77734242</i>
   <i name="MODEL_ALPHA">      1.00000000</i>
  </separator>
  <separator name="linear response parameters" >
   <i type="logical" name="LEPSILON"> F  </i>
   <i type="logical" name="LRPA"> F  </i>
   <i type="logical" name="LNABLA"> F  </i>
   <i type="logical" name="LVEL"> F  </i>
   <i type="int" name="KINTER">     0</i>
   <i name="CSHIFT">      0.10000000</i>
   <i name="OMEGAMAX">     -1.00000000</i>
   <i name="DEG_THRESHOLD">      0.00200000</i>
   <i name="RTIME">     -0.10000000</i>
   <i name="WPLASMAI">      0.00000000</i>
   <v name="DFIELD">      0.00000000      0.00000000      0.00000000</v>
   <v name="WPLASMA">      0.00000000      0.00000000      0.00000000      0.00000000      0.00000000      0.00000000      0.00000000      0.00000000      0.00000000</v>
  </separator>
  <separator name="orbital magnetization" >
   <i type="logical" name="NUCIND"> F  </i>
   <v name="MAGPOS">      0.00000000      0.00000000      0.00000000</v>
   <i type="logical" name="LNICSALL"> T  </i>
   <i type="logical" name="ORBITALMAG"> F  </i>
   <i type="logical" name="LMAGBLOCH"> F  </i>
   <i type="logical" name="LCHIMAG"> F  </i>
   <i type="logical" name="LGAUGE"> T  </i>
   <i type="int" name="MAGATOM">     0</i>
   <v name="MAGDIPOL">      0.00000000      0.00000000      0.00000000</v>
   <v name="AVECCONST">      0.00000000      0.00000000      0.00000000</v>
  </separator>
  <separator name="response functions" >
   <i type="logical" name="LADDER"> F  </i>
   <i type="logical" name="LRPAFORCE"> F  </i>
   <i type="logical" name="LFXC"> F  </i>
   <i type="logical" name="LHARTREE"> T  </i>
   <i type="int" name="IBSE">     0</i>
   <v type="int" name="KPOINT">    -1     0     0     0</v>
   <i type="logical" name="LTCTE"> F  </i>
   <i type="logical" name="LTETE"> F  </i>
   <i type="logical" name="LTRIPLET"> F  </i>
   <i type="logical" name="LFXCEPS"> F  </i>
   <i type="logical" name="LFXHEG"> F  </i>
   <i type="int" name="NATURALO">     2</i>
   <i type="logical" name="L2ORDER"> F  </i>
   <i type="logical" name="LMP2LT"> F  </i>
   <i type="logical" name="LUSEW"> F  </i>
   <i name="ENCUTGW">     -2.00000000</i>
   <i name="ENCUTGWSOFT">     -2.00000000</i>
   <i name="ENCUTLF">     -1.00000000</i>
   <i type="int" name="LMAXMP2">    -1</i>
   <i name="SCISSOR">      0.00000000</i>
   <i type="int" name="NOMEGA">     0</i>
   <i type="int" name="NOMEGAR">     0</i>
   <i type="int" name="NBANDSGW">    -1</i>
   <i type="int" name="NBANDSO">    -1</i>
   <i type="int" name="NBANDSV">    -1</i>
   <i type="int" name="NELM">    60</i>
   <i type="int" name="NELMHF">     1</i>
   <i type="int" name="DIM">     3</i>
   <i type="int" name="ANTIRES">     0</i>
   <i name="OMEGAMAX">    -30.00000000</i>
   <i name="OMEGAMIN">    -30.00000000</i>
   <i name="OMEGATL">   -200.00000000</i>
   <i type="int" name="OMEGAGRID">   140</i>
   <i name="CSHIFT">     -0.10000000</i>
   <i type="logical" name="SELFENERGY"> F  </i>
   <i type="logical" name="LSPECTRAL"> F  </i>
   <i type="logical" name="LSPECTRALGW"> F  </i>
   <i type="logical" name="LSINGLES"> F  </i>
   <i type="logical" name="LFERMIGW"> F  </i>
   <i type="logical" name="ODDONLYGW"> F  </i>
   <i type="logical" name="EVENONLYGW"> F  </i>
   <i type="int" name="NKREDLFX">     1</i>
   <i type="int" name="NKREDLFY">     1</i>
   <i type="int" name="NKREDLFZ">     1</i>
   <i type="int" name="MAXMEM">  2800</i>
   <i type="int" name="TELESCOPE">     0</i>
   <i type="int" name="TAUPAR">     1</i>
   <i type="int" name="OMEGAPAR">    -1</i>
   <i name="LAMBDA">      1.00000000</i>
  </separator>
  <separator name="External order field" >
   <i name="OFIELD_KAPPA">      0.00000000</i>
   <v name="OFIELD_K">      0.00000000      0.00000000      0.00000000</v>
   <i name="OFIELD_Q6_NEAR">      0.00000000</i>
   <i name="OFIELD_Q6_FAR">      0.00000000</i>
   <i name="OFIELD_A">      0.00000000</i>
  </separator>
 </parameters>
 <atominfo>
  <atoms>      64 </atoms>
  <types>       7 </types>
  <array name="atoms" >
   <dimension dim="1">ion</dimension>
   <field type="string">element</field>
   <field type="int">atomtype</field>
   <set>
    <rc><c>Zr</c><c>   1</c></rc>
    <rc><c>Zr</c><c>   1</c></rc>
    <rc><c>Zr</c><c>   1</c></rc>
    <rc><c>Zr</c><c>   1</c></rc>
    <rc><c>Zr</c><c>   1</c></rc>
    <rc><c>Zr</c><c>   1</c></rc>
    <rc><c>Zr</c><c>   1</c></rc>
    <rc><c>W </c><c>   2</c></rc>
    <rc><c>W </c><c>   2</c></rc>
    <rc><c>W </c><c>   2</c></rc>
    <rc><c>W </c><c>   2</c></rc>
    <rc><c>W </c><c>   2</c></rc>
    <rc><c>W </c><c>   2</c></rc>
    <rc><c>Ti</c><c>   3</c></rc>
    <rc><c>Ti</c><c>   3</c></rc>
    <rc><c>Ti</c><c>   3</c></rc>
    <rc><c>Ti</c><c>   3</c></rc>
    <rc><c>Ti</c><c>   3</c></rc>
    <rc><c>Ti</c><c>   3</c></rc>
    <rc><c>Ti</c><c>   3</c></rc>
    <rc><c>N </c><c>   4</c></rc>
    <rc><c>N </c><c>   4</c></rc>
    <rc><c>N </c><c>   4</c></rc>
    <rc><c>N </c><c>   4</c></rc>
    <rc><c>N </c><c>   4</c></rc>
    <rc><c>N </c><c>   4</c></rc>
    <rc><c>N </c><c>   4</c></rc>
    <rc><c>N </c><c>   4</c></rc>
    <rc><c>N </c><c>   4</c></rc>
    <rc><c>N </c><c>   4</c></rc>
    <rc><c>N </c><c>   4</c></rc>
    <rc><c>N </c><c>   4</c></rc>
    <rc><c>N </c><c>   4</c></rc>
    <rc><c>C </c><c>   5</c></rc>
    <rc><c>C </c><c>   5</c></rc>
    <rc><c>C </c><c>   5</c></rc>
    <rc><c>C </c><c>   5</c></rc>
    <rc><c>C </c><c>   5</c></rc>
    <rc><c>C </c><c>   5</c></rc>
    <rc><c>C </c><c>   5</c></rc>
    <rc><c>C </c><c>   5</c></rc>
    <rc><c>C </c><c>   5</c></rc>
    <rc><c>C </c><c>   5</c></rc>
    <rc><c>C </c><c>   5</c></rc>
    <rc><c>C </c><c>   5</c></rc>
    <rc><c>C </c><c>   5</c></rc>
    <rc><c>C </c><c>   5</c></rc>
    <rc><c>C </c><c>   5</c></rc>
    <rc><c>C </c><c>   5</c></rc>
    <rc><c>C </c><c>   5</c></rc>
    <rc><c>C </c><c>   5</c></rc>
    <rc><c>C </c><c>   5</c></rc>
    <rc><c>Cr</c><c>   6</c></rc>
    <rc><c>Cr</c><c>   6</c></rc>
    <rc><c>Cr</c><c>   6</c></rc>
    <rc><c>Cr</c><c>   6</c></rc>
    <rc><c>Cr</c><c>   6</c></rc>
    <rc><c>Cr</c><c>   6</c></rc>
    <rc><c>Mo</c><c>   7</c></rc>
    <rc><c>Mo</c><c>   7</c></rc>
    <rc><c>Mo</c><c>   7</c></rc>
    <rc><c>Mo</c><c>   7</c></rc>
    <rc><c>Mo</c><c>   7</c></rc>
    <rc><c>Mo</c><c>   7</c></rc>
   </set>
  </array>
  <array name="atomtypes" >
   <dimension dim="1">type</dimension>
   <field type="int">atomspertype</field>
   <field type="string">element</field>
   <field>mass</field>
   <field>valence</field>
   <field type="string">pseudopotential</field>
   <set>
    <rc><c>   7</c><c>Zr</c><c>     91.22400000</c><c>     12.00000000</c><c> PAW_PBE Zr_sv 07Sep2000                </c></rc>
    <rc><c>   6</c><c>W </c><c>    183.85000000</c><c>     12.00000000</c><c> PAW_PBE W_pv 06Sep2000                 </c></rc>
    <rc><c>   7</c><c>Ti</c><c>     47.88000000</c><c>     12.00000000</c><c> PAW_PBE Ti_sv 07Sep2000                </c></rc>
    <rc><c>  13</c><c>N </c><c>     14.00100000</c><c>      5.00000000</c><c> PAW_PBE N 08Apr2002                    </c></rc>
    <rc><c>  19</c><c>C </c><c>     12.01100000</c><c>      4.00000000</c><c> PAW_PBE C 08Apr2002                    </c></rc>
    <rc><c>   6</c><c>Cr</c><c>     51.99600000</c><c>     12.00000000</c><c> PAW_PBE Cr_pv 07Sep2000                </c></rc>
    <rc><c>   6</c><c>Mo</c><c>     95.94000000</c><c>      6.00000000</c><c> PAW_PBE Mo 08Apr2002                   </c></rc>
   </set>
  </array>
 </atominfo>
 <structure name="initialpos" >
  <crystal>
   <varray name="basis" >
    <v>       8.93249989       0.00000000       0.00000000 </v>
    <v>       0.00575300       9.05559834       0.00000000 </v>
    <v>       0.03210180      -0.01574346       8.93712807 </v>
   </varray>
   <i name="volume">    722.91652451 </i>
   <varray name="rec_basis" >
    <v>       0.11195074      -0.00007112      -0.00040225 </v>
    <v>       0.00000000       0.11042893       0.00019453 </v>
    <v>       0.00000000       0.00000000       0.11189277 </v>
   </varray>
  </crystal>
  <varray name="positions" >
   <v>       0.99688001       0.99204997       0.99924002 </v>
   <v>       0.25398003       0.99714995       0.24912000 </v>
   <v>       0.24803003       0.50165000       0.24955001 </v>
   <v>       0.50501006       0.49745998       0.99834003 </v>
   <v>       0.50479003       0.24631001       0.74710002 </v>
   <v>       0.99427992       0.50449999       0.49779000 </v>
   <v>       0.49950005       0.75481999       0.74817004 </v>
   <v>       0.99437004       0.23617001       0.26379999 </v>
   <v>       0.75718000       0.74102998       0.01100000 </v>
   <v>       0.00201000       0.25541000       0.73894001 </v>
   <v>       0.75307001       0.26163001       0.50533002 </v>
   <v>       0.99514004       0.74492004       0.74511997 </v>
   <v>       0.25679999       0.49462002       0.74545002 </v>
   <v>       0.24788999       0.24839000       0.99657997 </v>
   <v>       0.50833000       0.25676999       0.25376001 </v>
   <v>       0.74879004       0.98787999       0.26967001 </v>
   <v>       0.75719000       0.25603001       0.99591997 </v>
   <v>       0.24762001       0.74973999       0.99974006 </v>
   <v>       0.25272001       0.24823001       0.50015003 </v>
   <v>       0.24457999       0.75048999       0.49983999 </v>
   <v>       0.24982001       0.24942998       0.24825000 </v>
   <v>       0.26146999       0.99984002       0.99295996 </v>
   <v>       0.00281000       0.25024000       0.00130000 </v>
   <v>       0.75313998       0.24617000       0.25492002 </v>
   <v>       0.74767001       0.99748000       0.01202000 </v>
   <v>       0.50714994       0.99977000       0.24673000 </v>
   <v>       0.99051999       0.48088002       0.24100998 </v>
   <v>       0.50519005       0.76130999       0.00855000 </v>
   <v>       0.98896989       0.00202000       0.73708999 </v>
   <v>       0.75744996       0.24437997       0.74896999 </v>
   <v>       0.73632001       0.00417000       0.51063000 </v>
   <v>       0.50563996       0.23264999       0.49544997 </v>
   <v>       0.50008998       0.00061000       0.73471998 </v>
   <v>       0.99720000       0.99771992       0.25899999 </v>
   <v>       0.50427997       0.24673000       0.00262000 </v>
   <v>       0.25133999       0.74958002       0.24910999 </v>
   <v>       0.24328000       0.50072997       0.99510994 </v>
   <v>       0.99837005       0.74313996       0.00460000 </v>
   <v>       0.75633000       0.73891003       0.25767000 </v>
   <v>       0.75839004       0.50315998       0.00288000 </v>
   <v>       0.50700002       0.50333002       0.25878999 </v>
   <v>       0.24900999       0.25315000       0.74854000 </v>
   <v>       0.24446000       0.99823996       0.50287998 </v>
   <v>       0.99804009       0.24229999       0.50128003 </v>
   <v>       0.24177002       0.75340997       0.75018002 </v>
   <v>       0.25841001       0.50062002       0.50129001 </v>
   <v>       0.99000004       0.76215003       0.49746000 </v>
   <v>       0.99203996       0.50055999       0.75138002 </v>
   <v>       0.75036005       0.74888000       0.74756004 </v>
   <v>       0.74036002       0.50197000       0.50067003 </v>
   <v>       0.50575006       0.74958002       0.49720000 </v>
   <v>       0.50501003       0.50217998       0.73912003 </v>
   <v>       0.51588997       0.01358000       0.98075008 </v>
   <v>       0.99841994       0.50976998       0.98613004 </v>
   <v>       0.50379003       0.73926997       0.25905001 </v>
   <v>       0.23780002       0.01082000       0.74607998 </v>
   <v>       0.47957999       0.98308000       0.49717999 </v>
   <v>       0.74279003       0.97869994       0.76450995 </v>
   <v>       0.99864998       0.77573999       0.26102000 </v>
   <v>       0.73551001       0.51468004       0.26666001 </v>
   <v>       0.02362000       0.99783001       0.49557002 </v>
   <v>       0.50539000       0.52833005       0.49917999 </v>
   <v>       0.73876003       0.52828003       0.73814999 </v>
   <v>       0.75400003       0.72937999       0.49116997 </v>
  </varray>
 </structure>
 <calculation>
  <scstep>
   <time name="dav">   20.33   20.40</time>
   <time name="total">   20.37   20.44</time>
   <energy>
    <i name="alphaZ">   3968.91350978 </i>
    <i name="ewald"> -38114.96151900 </i>
    <i name="hartreedc">  -8719.44368617 </i>
    <i name="XCdc">   1483.73881652 </i>
    <i name="pawpsdc">  29014.94058085 </i>
    <i name="pawaedc"> -28577.82294647 </i>
    <i name="eentropy">     -0.09669888 </i>
    <i name="bandstr">   1832.05241564 </i>
    <i name="atom">  45080.26969879 </i>
    <i name="e_fr_energy">   5967.59017105 </i>
    <i name="e_wo_entrp">   5967.68686992 </i>
    <i name="e_0_energy">   5967.63852049 </i>
   </energy>
  </scstep>
  <scstep>
   <time name="dav">   21.82   21.84</time>
   <time name="total">   21.82   21.84</time>
   <energy>
    <i name="e_fr_energy">    275.89515060 </i>
    <i name="e_wo_entrp">    276.03982714 </i>
    <i name="e_0_energy">    275.96748887 </i>
   </energy>
  </scstep>
  <scstep>
   <time name="dav">   29.97   30.03</time>
   <time name="total">   29.97   30.03</time>
   <energy>
    <i name="e_fr_energy">   -647.04651075 </i>
    <i name="e_wo_entrp">   -646.93235917 </i>
    <i name="e_0_energy">   -646.98943496 </i>
   </energy>
  </scstep>
  <scstep>
   <time name="dav">   34.73   34.84</time>
   <time name="total">   34.73   34.85</time>
   <energy>
    <i name="e_fr_energy">   -766.19552117 </i>
    <i name="e_wo_entrp">   -766.08780856 </i>
    <i name="e_0_energy">   -766.14166487 </i>
   </energy>
  </scstep>
  <scstep>
   <time name="dav">   36.17   36.22</time>
   <time name="total">   36.42   36.48</time>
   <energy>
    <i name="e_fr_energy">   -778.30980412 </i>
    <i name="e_wo_entrp">   -778.19660360 </i>
    <i name="e_0_energy">   -778.25320386 </i>
   </energy>
  </scstep>
  <scstep>
   <time name="diag">    1.75    1.79</time>
   <time name="diis">   19.09   19.63</time>
   <time name="orth">    0.42    0.42</time>
   <time name="total">   21.54   22.12</time>
   <energy>
    <i name="e_fr_energy">   -947.52762167 </i>
    <i name="e_wo_entrp">   -947.32635615 </i>
    <i name="e_0_energy">   -947.42698891 </i>
   </energy>
  </scstep>
  <scstep>
   <time name="diag">    1.73    1.77</time>
   <time name="diis">   22.48   23.15</time>
   <time name="orth">    0.42    0.42</time>
   <time name="total">   24.90   25.62</time>
   <energy>
    <i name="e_fr_energy">   -649.09738761 </i>
    <i name="e_wo_entrp">   -648.93067656 </i>
    <i name="e_0_energy">   -649.01403209 </i>
   </energy>
  </scstep>
  <scstep>
   <time name="diag">    1.75    1.79</time>
   <time name="diis">   21.53   21.80</time>
   <time name="orth">    0.42    0.42</time>
   <time name="total">   23.99   24.29</time>
   <energy>
    <i name="e_fr_energy">   -635.47563561 </i>
    <i name="e_wo_entrp">   -635.30315716 </i>
    <i name="e_0_energy">   -635.38939639 </i>
   </energy>
  </scstep>
  <scstep>
   <time name="diag">    1.77    1.77</time>
   <time name="diis">   22.04   22.07</time>
   <time name="orth">    0.42    0.42</time>
   <time name="total">   24.51   24.55</time>
   <energy>
    <i name="e_fr_energy">   -629.66826949 </i>
    <i name="e_wo_entrp">   -629.47314368 </i>
    <i name="e_0_energy">   -629.57070659 </i>
   </energy>
  </scstep>
  <scstep>
   <time name="diag">    1.77    1.77</time>
   <time name="diis">   22.08   22.09</time>
   <time name="orth">    0.42    0.42</time>
   <time name="total">   24.55   24.56</time>
   <energy>
    <i name="e_fr_energy">   -626.56997693 </i>
    <i name="e_wo_entrp">   -626.35494243 </i>
    <i name="e_0_energy">   -626.46245968 </i>
   </energy>
  </scstep>
  <scstep>
   <time name="diag">    1.79    1.79</time>
   <time name="diis">   21.79   21.83</time>
   <time name="orth">    0.43    0.44</time>
   <time name="total">   24.30   24.36</time>
   <energy>
    <i name="e_fr_energy">   -627.33326986 </i>
    <i name="e_wo_entrp">   -627.13203560 </i>
    <i name="e_0_energy">   -627.23265273 </i>
   </energy>
  </scstep>
  <scstep>
   <time name="diag">    1.79    1.81</time>
   <time name="diis">   21.82   21.83</time>
   <time name="orth">    0.44    0.44</time>
   <time name="total">   24.34   24.37</time>
   <energy>
    <i name="e_fr_energy">   -627.40792283 </i>
    <i name="e_wo_entrp">   -627.20627974 </i>
    <i name="e_0_energy">   -627.30710128 </i>
   </energy>
  </scstep>
  <scstep>
   <time name="diag">    1.74    1.76</time>
   <time name="diis">   22.03   22.04</time>
   <time name="orth">    0.42    0.42</time>
   <time name="total">   24.47   24.51</time>
   <energy>
    <i name="e_fr_energy">   -625.78626095 </i>
    <i name="e_wo_entrp">   -625.55808711 </i>
    <i name="e_0_energy">   -625.67217403 </i>
   </energy>
  </scstep>
  <scstep>
   <time name="diag">    1.76    1.76</time>
   <time name="diis">   21.73   21.76</time>
   <time name="orth">    0.42    0.42</time>
   <time name="total">   24.19   24.23</time>
   <energy>
    <i name="e_fr_energy">   -626.94023807 </i>
    <i name="e_wo_entrp">   -626.74293929 </i>
    <i name="e_0_energy">   -626.84158868 </i>
   </energy>
  </scstep>
  <scstep>
   <time name="diag">    1.73    1.76</time>
   <time name="diis">   21.51   22.14</time>
   <time name="orth">    0.42    0.42</time>
   <time name="total">   23.93   24.61</time>
   <energy>
    <i name="e_fr_energy">   -625.66822774 </i>
    <i name="e_wo_entrp">   -625.44638277 </i>
    <i name="e_0_energy">   -625.55730525 </i>
   </energy>
  </scstep>
  <scstep>
   <time name="diag">    1.77    1.81</time>
   <time name="diis">   22.12   22.77</time>
   <time name="orth">    0.42    0.42</time>
   <time name="total">   24.58   25.28</time>
   <energy>
    <i name="e_fr_energy">   -625.77061711 </i>
    <i name="e_wo_entrp">   -625.54548226 </i>
    <i name="e_0_energy">   -625.65804968 </i>
   </energy>
  </scstep>
  <scstep>
   <time name="diag">    1.75    1.78</time>
   <time name="diis">   21.50   22.13</time>
   <time name="orth">    0.42    0.42</time>
   <time name="total">   23.94   24.61</time>
   <energy>
    <i name="e_fr_energy">   -625.63922644 </i>
    <i name="e_wo_entrp">   -625.42155003 </i>
    <i name="e_0_energy">   -625.53038823 </i>
   </energy>
  </scstep>
  <scstep>
   <time name="diag">    1.74    1.78</time>
   <time name="diis">   21.59   21.85</time>
   <time name="orth">    0.42    0.42</time>
   <time name="total">   24.03   24.33</time>
   <energy>
    <i name="e_fr_energy">   -625.71957679 </i>
    <i name="e_wo_entrp">   -625.49646635 </i>
    <i name="e_0_energy">   -625.60802157 </i>
   </energy>
  </scstep>
  <scstep>
   <time name="diag">    1.77    1.77</time>
   <time name="diis">   22.23   22.26</time>
   <time name="orth">    0.42    0.42</time>
   <time name="total">   24.70   24.74</time>
   <energy>
    <i name="e_fr_energy">   -625.63077583 </i>
    <i name="e_wo_entrp">   -625.40872552 </i>
    <i name="e_0_energy">   -625.51975067 </i>
   </energy>
  </scstep>
  <scstep>
   <time name="diag">    1.77    1.77</time>
   <time name="diis">   22.12   22.13</time>
   <time name="orth">    0.42    0.42</time>
   <time name="total">   24.58   24.59</time>
   <energy>
    <i name="e_fr_energy">   -625.63499860 </i>
    <i name="e_wo_entrp">   -625.41087306 </i>
    <i name="e_0_energy">   -625.52293583 </i>
   </energy>
  </scstep>
  <scstep>
   <time name="diag">    1.77    1.77</time>
   <time name="diis">   22.15   22.17</time>
   <time name="orth">    0.42    0.42</time>
   <time name="total">   24.62   24.65</time>
   <energy>
    <i name="e_fr_energy">   -625.63336721 </i>
    <i name="e_wo_entrp">   -625.40921333 </i>
    <i name="e_0_energy">   -625.52129027 </i>
   </energy>
  </scstep>
  <scstep>
   <time name="diag">    1.78    1.78</time>
   <time name="diis">   22.11   22.12</time>
   <time name="orth">    0.42    0.42</time>
   <time name="total">   24.59   24.61</time>
   <energy>
    <i name="e_fr_energy">   -625.63194163 </i>
    <i name="e_wo_entrp">   -625.40879500 </i>
    <i name="e_0_energy">   -625.52036831 </i>
   </energy>
  </scstep>
  <scstep>
   <time name="diag">    1.77    1.77</time>
   <time name="diis">   21.46   21.51</time>
   <time name="orth">    0.43    0.45</time>
   <time name="total">   23.94   24.02</time>
   <energy>
    <i name="e_fr_energy">   -625.63300534 </i>
    <i name="e_wo_entrp">   -625.40968072 </i>
    <i name="e_0_energy">   -625.52134303 </i>
   </energy>
  </scstep>
  <scstep>
   <time name="diag">    1.77    1.77</time>
   <time name="diis">   20.64   20.66</time>
   <time name="orth">    0.42    0.42</time>
   <time name="total">   23.11   23.14</time>
   <energy>
    <i name="e_fr_energy">   -625.63379134 </i>
    <i name="e_wo_entrp">   -625.41032672 </i>
    <i name="e_0_energy">   -625.52205903 </i>
   </energy>
  </scstep>
  <scstep>
   <time name="diag">    1.74    1.77</time>
   <time name="diis">   19.87   20.42</time>
   <time name="orth">    0.41    0.42</time>
   <time name="total">   22.29   22.89</time>
   <energy>
    <i name="e_fr_energy">   -625.63428688 </i>
    <i name="e_wo_entrp">   -625.41080079 </i>
    <i name="e_0_energy">   -625.52254384 </i>
   </energy>
  </scstep>
  <scstep>
   <time name="diag">    1.73    1.77</time>
   <time name="diis">   19.73   20.27</time>
   <time name="orth">    0.42    0.43</time>
   <time name="total">   22.16   22.75</time>
   <energy>
    <i name="e_fr_energy">   -625.63463169 </i>
    <i name="e_wo_entrp">   -625.41110223 </i>
    <i name="e_0_energy">   -625.52286696 </i>
   </energy>
  </scstep>
  <scstep>
   <time name="diag">    1.81    1.87</time>
   <time name="diis">   18.99   19.53</time>
   <time name="orth">    0.41    0.42</time>
   <time name="total">   21.50   22.10</time>
   <energy>
    <i name="e_fr_energy">   -625.63488592 </i>
    <i name="e_wo_entrp">   -625.41140628 </i>
    <i name="e_0_energy">   -625.52314610 </i>
   </energy>
  </scstep>
  <scstep>
   <time name="diag">    1.74    1.77</time>
   <time name="diis">   18.50   19.03</time>
   <time name="orth">    0.42    0.42</time>
   <time name="total">   20.92   21.50</time>
   <energy>
    <i name="e_fr_energy">   -625.63504704 </i>
    <i name="e_wo_entrp">   -625.41157841 </i>
    <i name="e_0_energy">   -625.52331272 </i>
   </energy>
  </scstep>
  <scstep>
   <time name="diag">    1.74    1.77</time>
   <time name="diis">   18.88   19.41</time>
   <time name="orth">    0.42    0.42</time>
   <time name="total">   21.31   21.88</time>
   <energy>
    <i name="e_fr_energy">   -625.63516088 </i>
    <i name="e_wo_entrp">   -625.41168744 </i>
    <i name="e_0_energy">   -625.52342416 </i>
   </energy>
  </scstep>
  <scstep>
   <time name="diag">    1.80    1.80</time>
   <time name="diis">   18.24   18.25</time>
   <time name="orth">    0.42    0.42</time>
   <time name="total">   20.74   20.75</time>
   <energy>
    <i name="e_fr_energy">   -625.63523646 </i>
    <i name="e_wo_entrp">   -625.41175495 </i>
    <i name="e_0_energy">   -625.52349570 </i>
   </energy>
  </scstep>
  <scstep>
   <time name="diag">    1.77    1.77</time>
   <time name="diis">   17.69   17.70</time>
   <time name="orth">    0.42    0.42</time>
   <time name="total">   20.17   20.17</time>
   <energy>
    <i name="e_fr_energy">   -625.63528762 </i>
    <i name="e_wo_entrp">   -625.41180330 </i>
    <i name="e_0_energy">   -625.52354546 </i>
   </energy>
  </scstep>
  <scstep>
   <time name="diag">    1.77    1.77</time>
   <time name="diis">   17.48   17.50</time>
   <time name="orth">    0.47    0.48</time>
   <time name="total">   20.01   20.04</time>
   <energy>
    <i name="e_fr_energy">   -625.63532252 </i>
    <i name="e_wo_entrp">   -625.41183309 </i>
    <i name="e_0_energy">   -625.52357781 </i>
   </energy>
  </scstep>
  <scstep>
   <time name="diag">    1.78    1.81</time>
   <time name="diis">   16.48   16.94</time>
   <time name="orth">    0.42    0.42</time>
   <time name="total">   18.95   19.46</time>
   <energy>
    <i name="e_fr_energy">   -625.63534630 </i>
    <i name="e_wo_entrp">   -625.41185892 </i>
    <i name="e_0_energy">   -625.52360261 </i>
   </energy>
  </scstep>
  <scstep>
   <time name="diag">    1.77    1.77</time>
   <time name="diis">   16.38   16.40</time>
   <time name="orth">    0.42    0.42</time>
   <time name="total">   18.85   18.87</time>
   <energy>
    <i name="e_fr_energy">   -625.63536167 </i>
    <i name="e_wo_entrp">   -625.41187863 </i>
    <i name="e_0_energy">   -625.52362015 </i>
   </energy>
  </scstep>
  <scstep>
   <time name="diag">    1.73    1.77</time>
   <time name="diis">   15.32   15.77</time>
   <time name="orth">    0.42    0.42</time>
   <time name="total">   17.75   18.24</time>
   <energy>
    <i name="e_fr_energy">   -625.63537147 </i>
    <i name="e_wo_entrp">   -625.41188679 </i>
    <i name="e_0_energy">   -625.52362913 </i>
   </energy>
  </scstep>
  <scstep>
   <time name="diag">    1.73    1.77</time>
   <time name="diis">   14.83   15.24</time>
   <time name="orth">    0.42    0.42</time>
   <time name="total">   17.01   17.46</time>
   <energy>
    <i name="alphaZ">   3968.91350978 </i>
    <i name="ewald"> -38114.96151900 </i>
    <i name="hartreedc">  -8174.63926146 </i>
    <i name="XCdc">   1474.12131235 </i>
    <i name="pawpsdc">  30027.89496640 </i>
    <i name="pawaedc"> -29638.05348130 </i>
    <i name="eentropy">     -0.22348373 </i>
    <i name="bandstr">  -5248.95711976 </i>
    <i name="atom">  45080.26969879 </i>
    <i name="e_fr_energy">   -625.63537794 </i>
    <i name="e_wo_entrp">   -625.41189421 </i>
    <i name="e_0_energy">   -625.52363607 </i>
   </energy>
  </scstep>
  <structure>
   <crystal>
    <varray name="basis" >
     <v>       8.93249989       0.00000000       0.00000000 </v>
     <v>       0.00575300       9.05559834       0.00000000 </v>
     <v>       0.03210180      -0.01574346       8.93712807 </v>
    </varray>
    <i name="volume">    722.91652451 </i>
    <varray name="rec_basis" >
     <v>       0.11195074      -0.00007112      -0.00040225 </v>
     <v>       0.00000000       0.11042893       0.00019453 </v>
     <v>       0.00000000       0.00000000       0.11189277 </v>
    </varray>
   </crystal>
   <varray name="positions" >
    <v>       0.99688001       0.99204997       0.99924002 </v>
    <v>       0.25398003       0.99714995       0.24912000 </v>
    <v>       0.24803003       0.50165000       0.24955001 </v>
    <v>       0.50501006       0.49745998       0.99834003 </v>
    <v>       0.50479003       0.24631001       0.74710002 </v>
    <v>       0.99427992       0.50449999       0.49779000 </v>
    <v>       0.49950005       0.75481999       0.74817004 </v>
    <v>       0.99437004       0.23617001       0.26379999 </v>
    <v>       0.75718000       0.74102998       0.01100000 </v>
    <v>       0.00201000       0.25541000       0.73894001 </v>
    <v>       0.75307001       0.26163001       0.50533002 </v>
    <v>       0.99514004       0.74492004       0.74511997 </v>
    <v>       0.25679999       0.49462002       0.74545002 </v>
    <v>       0.24788999       0.24839000       0.99657997 </v>
    <v>       0.50833000       0.25676999       0.25376001 </v>
    <v>       0.74879004       0.98787999       0.26967001 </v>
    <v>       0.75719000       0.25603001       0.99591997 </v>
    <v>       0.24762001       0.74973999       0.99974006 </v>
    <v>       0.25272001       0.24823001       0.50015003 </v>
    <v>       0.24457999       0.75048999       0.49983999 </v>
    <v>       0.24982001       0.24942998       0.24825000 </v>
    <v>       0.26146999       0.99984002       0.99295996 </v>
    <v>       0.00281000       0.25024000       0.00130000 </v>
    <v>       0.75313998       0.24617000       0.25492002 </v>
    <v>       0.74767001       0.99748000       0.01202000 </v>
    <v>       0.50714994       0.99977000       0.24673000 </v>
    <v>       0.99051999       0.48088002       0.24100998 </v>
    <v>       0.50519005       0.76130999       0.00855000 </v>
    <v>       0.98896989       0.00202000       0.73708999 </v>
    <v>       0.75744996       0.24437997       0.74896999 </v>
    <v>       0.73632001       0.00417000       0.51063000 </v>
    <v>       0.50563996       0.23264999       0.49544997 </v>
    <v>       0.50008998       0.00061000       0.73471998 </v>
    <v>       0.99720000       0.99771992       0.25899999 </v>
    <v>       0.50427997       0.24673000       0.00262000 </v>
    <v>       0.25133999       0.74958002       0.24910999 </v>
    <v>       0.24328000       0.50072997       0.99510994 </v>
    <v>       0.99837005       0.74313996       0.00460000 </v>
    <v>       0.75633000       0.73891003       0.25767000 </v>
    <v>       0.75839004       0.50315998       0.00288000 </v>
    <v>       0.50700002       0.50333002       0.25878999 </v>
    <v>       0.24900999       0.25315000       0.74854000 </v>
    <v>       0.24446000       0.99823996       0.50287998 </v>
    <v>       0.99804009       0.24229999       0.50128003 </v>
    <v>       0.24177002       0.75340997       0.75018002 </v>
    <v>       0.25841001       0.50062002       0.50129001 </v>
    <v>       0.99000004       0.76215003       0.49746000 </v>
    <v>       0.99203996       0.50055999       0.75138002 </v>
    <v>       0.75036005       0.74888000       0.74756004 </v>
    <v>       0.74036002       0.50197000       0.50067003 </v>
    <v>       0.50575006       0.74958002       0.49720000 </v>
    <v>       0.50501003       0.50217998       0.73912003 </v>
    <v>       0.51588997       0.01358000       0.98075008 </v>
    <v>       0.99841994       0.50976998       0.98613004 </v>
    <v>       0.50379003       0.73926997       0.25905001 </v>
    <v>       0.23780002       0.01082000       0.74607998 </v>
    <v>       0.47957999       0.98308000       0.49717999 </v>
    <v>       0.74279003       0.97869994       0.76450995 </v>
    <v>       0.99864998       0.77573999       0.26102000 </v>
    <v>       0.73551001       0.51468004       0.26666001 </v>
    <v>       0.02362000       0.99783001       0.49557002 </v>
    <v>       0.50539000       0.52833005       0.49917999 </v>
    <v>       0.73876003       0.52828003       0.73814999 </v>
    <v>       0.75400003       0.72937999       0.49116997 </v>
   </varray>
  </structure>
  <varray name="forces" >
   <v>      -0.13439509       0.79489608      -1.02430779 </v>
   <v>       1.68029928       0.39221038      -0.83114119 </v>
   <v>      -0.01860010      -0.26414257      -0.59754025 </v>
   <v>      -0.53645976       0.09480144       0.45507462 </v>
   <v>      -0.10071281      -1.22730106      -0.14643379 </v>
   <v>       0.65536425      -0.75318659       0.11360074 </v>
   <v>      -0.93231541       1.78291026       0.83185844 </v>
   <v>      -0.36883490      -0.94498842       0.52668103 </v>
   <v>       0.37533094      -0.27450931       0.09497838 </v>
   <v>       1.00417380       0.49413604      -0.60713363 </v>
   <v>       0.01235244      -0.32463810      -0.49542120 </v>
   <v>       0.70660962      -0.48428992       0.57975135 </v>
   <v>      -0.26966920       0.04407165       0.62159378 </v>
   <v>       0.22920648       0.14241354      -0.40305339 </v>
   <v>       0.42922331      -0.80231022      -0.19213990 </v>
   <v>      -1.19451065       0.51173376       0.23285196 </v>
   <v>      -0.54990789       0.13221824      -0.13676569 </v>
   <v>      -0.35541800      -0.22427980      -0.08703725 </v>
   <v>       0.12867977       0.00482481       0.48545634 </v>
   <v>       0.25952641       0.16365681       0.12693420 </v>
   <v>       0.00065893      -0.02207402       0.14396739 </v>
   <v>      -0.31199812       0.11391100      -0.25832104 </v>
   <v>      -0.06839930       0.05468253       0.02323224 </v>
   <v>      -0.14110858      -0.27806815      -0.08093935 </v>
   <v>      -0.65125582       0.03501383      -0.67706972 </v>
   <v>       0.55794185      -0.01661774       0.50388011 </v>
   <v>       0.13579894      -0.45802913       0.16115630 </v>
   <v>       0.05005196      -0.06838332      -0.11364034 </v>
   <v>      -0.08338106       0.08792969       0.74904881 </v>
   <v>       0.32493995      -0.31233556       0.19242028 </v>
   <v>       0.13048405       0.44437627      -0.78252866 </v>
   <v>      -0.14765007      -0.01966206      -0.57532968 </v>
   <v>       0.50540648      -0.03598565       0.64760997 </v>
   <v>      -0.71184611       1.06890379      -0.59777443 </v>
   <v>       0.17153745      -0.61637734       0.38310791 </v>
   <v>       0.28075764      -0.08646388       0.02503372 </v>
   <v>      -0.23649920       0.04902939      -0.61585524 </v>
   <v>       0.24822627      -0.79971735      -0.44151479 </v>
   <v>      -0.81739101       1.21696807      -1.43436548 </v>
   <v>       0.72058773      -0.15389356      -0.03317522 </v>
   <v>      -0.88270695      -0.11275816      -0.46502674 </v>
   <v>      -0.67973273      -0.41979852      -0.03342342 </v>
   <v>       1.86636265      -0.17469481       0.96869268 </v>
   <v>       0.29146910       0.26266881       0.21113316 </v>
   <v>      -0.52601834      -0.10402842      -0.02956888 </v>
   <v>      -0.47448540       0.06837428       0.53063483 </v>
   <v>       1.21148767      -0.41621842       1.06406474 </v>
   <v>       0.52477387      -0.26441198       0.86853245 </v>
   <v>       0.39622865       1.75330988       0.64254639 </v>
   <v>       0.65350486      -1.36932664       0.38521327 </v>
   <v>      -1.04667624       1.47615689      -1.02277672 </v>
   <v>      -1.21951215      -0.26240836       0.66155731 </v>
   <v>       0.57222940       0.48391385      -0.00611555 </v>
   <v>      -0.18005069       1.00309456      -0.66117201 </v>
   <v>       0.08946463      -0.35472233       0.08883805 </v>
   <v>      -0.14344651       0.28864582       0.08490068 </v>
   <v>      -0.54788365       0.00938898       0.12698434 </v>
   <v>      -0.51389284      -0.96523717       0.45099459 </v>
   <v>       0.45444391      -0.06802568      -0.46775846 </v>
   <v>      -0.03042665      -0.56493777      -1.24754873 </v>
   <v>      -0.56783715       0.44010937       0.49562471 </v>
   <v>      -0.54883575      -0.59750110      -0.59541073 </v>
   <v>       0.39646318      -1.09980527       1.04939453 </v>
   <v>      -0.07172732       1.52677835       0.13293998 </v>
  </varray>
  <varray name="stress" >
   <v>    -166.32363256       2.84279733      -2.15170434 </v>
   <v>       2.84279767    -168.45616447       0.91995357 </v>
   <v>      -2.15170550       0.91995434    -162.77788592 </v>
  </varray>
  <energy>
   <i name="e_fr_energy">   -625.63537794 </i>
   <i name="e_wo_entrp">   -625.52363607 </i>
   <i name="e_0_energy">     -0.22348373 </i>
  </energy>
  <time name="totalsc">  887.76  897.07</time>
 </calculation>
 <calculation>
  <scstep>
   <time name="dav">   27.63   28.36</time>
   <time name="total">   27.91   28.64</time>
   <energy>
    <i name="alphaZ">   4724.13125614 </i>
    <i name="ewald"> -40161.75805088 </i>
    <i name="hartreedc">  -8886.79887363 </i>
    <i name="XCdc">   1586.56219165 </i>
    <i name="pawpsdc">  30027.86164566 </i>
    <i name="pawaedc"> -29638.04206409 </i>
    <i name="eentropy">     -0.09524185 </i>
    <i name="bandstr">  -3449.86170910 </i>
    <i name="atom">  45080.26969879 </i>
    <i name="e_fr_energy">   -717.73114732 </i>
    <i name="e_wo_entrp">   -717.63590547 </i>
    <i name="e_0_energy">   -717.68352639 </i>
   </energy>
  </scstep>
  <scstep>
   <time name="diag">    1.73    1.76</time>
   <time name="diis">   16.78   17.22</time>
   <time name="orth">    0.42    0.42</time>
   <time name="total">   19.20   19.69</time>
   <energy>
    <i name="e_fr_energy">   -876.95423852 </i>
    <i name="e_wo_entrp">   -876.82308004 </i>
    <i name="e_0_energy">   -876.88865928 </i>
   </energy>
  </scstep>
  <scstep>
   <time name="diag">    1.76    1.76</time>
   <time name="diis">   19.88   19.89</time>
   <time name="orth">    0.42    0.42</time>
   <time name="total">   22.34   22.36</time>
   <energy>
    <i name="e_fr_energy">   -639.29589845 </i>
    <i name="e_wo_entrp">   -639.15825490 </i>
    <i name="e_0_energy">   -639.22707667 </i>
   </energy>
  </scstep>
  <scstep>
   <time name="diag">    1.76    1.76</time>
   <time name="diis">   21.22   21.23</time>
   <time name="orth">    0.42    0.42</time>
   <time name="total">   23.68   23.69</time>
   <energy>
    <i name="e_fr_energy">   -634.50896991 </i>
    <i name="e_wo_entrp">   -634.38903680 </i>
    <i name="e_0_energy">   -634.44900336 </i>
   </energy>
  </scstep>
  <scstep>
   <time name="diag">    1.74    1.77</time>
   <time name="diis">   17.09   17.56</time>
   <time name="orth">    0.42    0.42</time>
   <time name="total">   19.51   20.04</time>
   <energy>
    <i name="e_fr_energy">   -641.49450633 </i>
    <i name="e_wo_entrp">   -641.36223998 </i>
    <i name="e_0_energy">   -641.42837315 </i>
   </energy>
  </scstep>
  <scstep>
   <time name="diag">    1.76    1.78</time>
   <time name="diis">   20.02   20.75</time>
   <time name="orth">    0.42    0.42</time>
   <time name="total">   22.48   23.23</time>
   <energy>
    <i name="e_fr_energy">   -623.16257058 </i>
    <i name="e_wo_entrp">   -623.01191435 </i>
    <i name="e_0_energy">   -623.08724247 </i>
   </energy>
  </scstep>
  <scstep>
   <time name="diag">    1.75    1.75</time>
   <time name="diis">   20.13   20.15</time>
   <time name="orth">    0.42    0.42</time>
   <time name="total">   22.58   22.60</time>
   <energy>
    <i name="e_fr_energy">   -625.19313038 </i>
    <i name="e_wo_entrp">   -625.03770127 </i>
    <i name="e_0_energy">   -625.11541583 </i>
   </energy>
  </scstep>
  <scstep>
   <time name="diag">    1.76    1.76</time>
   <time name="diis">   19.83   19.93</time>
   <time name="orth">    0.42    0.42</time>
   <time name="total">   22.28   22.39</time>
   <energy>
    <i name="e_fr_energy">   -622.52624839 </i>
    <i name="e_wo_entrp">   -622.36736882 </i>
    <i name="e_0_energy">   -622.44680861 </i>
   </energy>
  </scstep>
  <scstep>
   <time name="diag">    1.76    1.76</time>
   <time name="diis">   22.13   22.19</time>
   <time name="orth">    0.42    0.42</time>
   <time name="total">   24.59   24.65</time>
   <energy>
    <i name="e_fr_energy">   -622.59385665 </i>
    <i name="e_wo_entrp">   -622.43594563 </i>
    <i name="e_0_energy">   -622.51490114 </i>
   </energy>
  </scstep>
  <scstep>
   <time name="diag">    1.79    1.79</time>
   <time name="diis">   22.65   22.67</time>
   <time name="orth">    0.42    0.42</time>
   <time name="total">   25.14   25.16</time>
   <energy>
    <i name="e_fr_energy">   -622.31792355 </i>
    <i name="e_wo_entrp">   -622.15569184 </i>
    <i name="e_0_energy">   -622.23680770 </i>
   </energy>
  </scstep>
  <scstep>
   <time name="diag">    1.77    1.77</time>
   <time name="diis">   22.46   22.53</time>
   <time name="orth">    0.42    0.42</time>
   <time name="total">   24.93   24.99</time>
   <energy>
    <i name="e_fr_energy">   -622.44671175 </i>
    <i name="e_wo_entrp">   -622.28606594 </i>
    <i name="e_0_energy">   -622.36638884 </i>
   </energy>
  </scstep>
  <scstep>
   <time name="diag">    1.73    1.77</time>
   <time name="diis">   21.71   22.34</time>
   <time name="orth">    0.42    0.42</time>
   <time name="total">   24.14   24.81</time>
   <energy>
    <i name="e_fr_energy">   -622.37609055 </i>
    <i name="e_wo_entrp">   -622.21228650 </i>
    <i name="e_0_energy">   -622.29418852 </i>
   </energy>
  </scstep>
  <scstep>
   <time name="diag">    1.76    1.76</time>
   <time name="diis">   22.06   22.09</time>
   <time name="orth">    0.42    0.42</time>
   <time name="total">   24.52   24.55</time>
   <energy>
    <i name="e_fr_energy">   -622.48045682 </i>
    <i name="e_wo_entrp">   -622.31399765 </i>
    <i name="e_0_energy">   -622.39722723 </i>
   </energy>
  </scstep>
  <scstep>
   <time name="diag">    1.73    1.76</time>
   <time name="diis">   21.88   21.99</time>
   <time name="orth">    0.43    0.44</time>
   <time name="total">   24.32   24.48</time>
   <energy>
    <i name="e_fr_energy">   -622.43988809 </i>
    <i name="e_wo_entrp">   -622.27569498 </i>
    <i name="e_0_energy">   -622.35779154 </i>
   </energy>
  </scstep>
  <scstep>
   <time name="diag">    1.73    1.76</time>
   <time name="diis">   22.76   22.93</time>
   <time name="orth">    0.46    0.48</time>
   <time name="total">   25.24   25.48</time>
   <energy>
    <i name="e_fr_energy">   -622.45368121 </i>
    <i name="e_wo_entrp">   -622.28848140 </i>
    <i name="e_0_energy">   -622.37108131 </i>
   </energy>
  </scstep>
  <scstep>
   <time name="diag">    1.80    1.82</time>
   <time name="diis">   22.84   22.94</time>
   <time name="orth">    0.42    0.42</time>
   <time name="total">   25.35   25.46</time>
   <energy>
    <i name="e_fr_energy">   -622.45936180 </i>
    <i name="e_wo_entrp">   -622.29470291 </i>
    <i name="e_0_energy">   -622.37703235 </i>
   </energy>
  </scstep>
  <scstep>
   <time name="diag">    1.73    1.77</time>
   <time name="diis">   22.68   23.33</time>
   <time name="orth">    0.41    0.42</time>
   <time name="total">   25.10   25.79</time>
   <energy>
    <i name="e_fr_energy">   -622.46273684 </i>
    <i name="e_wo_entrp">   -622.29786080 </i>
    <i name="e_0_energy">   -622.38029882 </i>
   </energy>
  </scstep>
  <scstep>
   <time name="diag">    1.73    1.77</time>
   <time name="diis">   22.02   22.66</time>
   <time name="orth">    0.41    0.42</time>
   <time name="total">   24.45   25.12</time>
   <energy>
    <i name="e_fr_energy">   -622.46452584 </i>
    <i name="e_wo_entrp">   -622.29962013 </i>
    <i name="e_0_energy">   -622.38207299 </i>
   </energy>
  </scstep>
  <scstep>
   <time name="diag">    1.73    1.76</time>
   <time name="diis">   21.97   22.29</time>
   <time name="orth">    0.42    0.42</time>
   <time name="total">   24.40   24.75</time>
   <energy>
    <i name="e_fr_energy">   -622.46552157 </i>
    <i name="e_wo_entrp">   -622.30060456 </i>
    <i name="e_0_energy">   -622.38306307 </i>
   </energy>
  </scstep>
  <scstep>
   <time name="diag">    1.75    1.75</time>
   <time name="diis">   21.28   21.34</time>
   <time name="orth">    0.49    0.51</time>
   <time name="total">   23.81   23.89</time>
   <energy>
    <i name="e_fr_energy">   -622.46605509 </i>
    <i name="e_wo_entrp">   -622.30116818 </i>
    <i name="e_0_energy">   -622.38361163 </i>
   </energy>
  </scstep>
  <scstep>
   <time name="diag">    1.78    1.79</time>
   <time name="diis">   19.52   19.57</time>
   <time name="orth">    0.42    0.42</time>
   <time name="total">   22.00   22.06</time>
   <energy>
    <i name="e_fr_energy">   -622.46639787 </i>
    <i name="e_wo_entrp">   -622.30150043 </i>
    <i name="e_0_energy">   -622.38394915 </i>
   </energy>
  </scstep>
  <scstep>
   <time name="diag">    1.77    1.77</time>
   <time name="diis">   19.34   19.39</time>
   <time name="orth">    0.42    0.42</time>
   <time name="total">   21.81   21.87</time>
   <energy>
    <i name="e_fr_energy">   -622.46659146 </i>
    <i name="e_wo_entrp">   -622.30169644 </i>
    <i name="e_0_energy">   -622.38414395 </i>
   </energy>
  </scstep>
  <scstep>
   <time name="diag">    1.76    1.80</time>
   <time name="diis">   19.02   19.57</time>
   <time name="orth">    0.42    0.42</time>
   <time name="total">   21.47   22.07</time>
   <energy>
    <i name="e_fr_energy">   -622.46670642 </i>
    <i name="e_wo_entrp">   -622.30179978 </i>
    <i name="e_0_energy">   -622.38425310 </i>
   </energy>
  </scstep>
  <scstep>
   <time name="diag">    1.73    1.76</time>
   <time name="diis">   18.11   18.62</time>
   <time name="orth">    0.42    0.42</time>
   <time name="total">   20.53   21.09</time>
   <energy>
    <i name="e_fr_energy">   -622.46678411 </i>
    <i name="e_wo_entrp">   -622.30187172 </i>
    <i name="e_0_energy">   -622.38432792 </i>
   </energy>
  </scstep>
  <scstep>
   <time name="diag">    1.76    1.76</time>
   <time name="diis">   18.45   18.50</time>
   <time name="orth">    0.43    0.43</time>
   <time name="total">   20.92   20.97</time>
   <energy>
    <i name="e_fr_energy">   -622.46682993 </i>
    <i name="e_wo_entrp">   -622.30191813 </i>
    <i name="e_0_energy">   -622.38437403 </i>
   </energy>
  </scstep>
  <scstep>
   <time name="diag">    1.76    1.76</time>
   <time name="diis">   18.24   18.28</time>
   <time name="orth">    0.42    0.42</time>
   <time name="total">   20.69   20.74</time>
   <energy>
    <i name="e_fr_energy">   -622.46685850 </i>
    <i name="e_wo_entrp">   -622.30194612 </i>
    <i name="e_0_energy">   -622.38440231 </i>
   </energy>
  </scstep>
  <scstep>
   <time name="diag">    1.75    1.75</time>
   <time name="diis">   17.36   17.40</time>
   <time name="orth">    0.42    0.42</time>
   <time name="total">   19.81   19.85</time>
   <energy>
    <i name="e_fr_energy">   -622.46687587 </i>
    <i name="e_wo_entrp">   -622.30196311 </i>
    <i name="e_0_energy">   -622.38441949 </i>
   </energy>
  </scstep>
  <scstep>
   <time name="diag">    1.74    1.80</time>
   <time name="diis">   16.71   17.19</time>
   <time name="orth">    0.42    0.43</time>
   <time name="total">   19.14   19.69</time>
   <energy>
    <i name="e_fr_energy">   -622.46688646 </i>
    <i name="e_wo_entrp">   -622.30197422 </i>
    <i name="e_0_energy">   -622.38443034 </i>
   </energy>
  </scstep>
  <scstep>
   <time name="diag">    1.79    1.79</time>
   <time name="diis">   16.43   16.46</time>
   <time name="orth">    0.42    0.42</time>
   <time name="total">   18.67   18.71</time>
   <energy>
    <i name="alphaZ">   4724.13125614 </i>
    <i name="ewald"> -40161.75805088 </i>
    <i name="hartreedc">  -7710.71570996 </i>
    <i name="XCdc">   1520.72222285 </i>
    <i name="pawpsdc">  32120.27068944 </i>
    <i name="pawaedc"> -31712.33708866 </i>
    <i name="eentropy">     -0.16491314 </i>
    <i name="bandstr">  -4482.88499980 </i>
    <i name="atom">  45080.26969879 </i>
    <i name="e_fr_energy">   -622.46689522 </i>
    <i name="e_wo_entrp">   -622.30198209 </i>
    <i name="e_0_energy">   -622.38443866 </i>
   </energy>
  </scstep>
  <structure>
   <crystal>
    <varray name="basis" >
     <v>       8.42719236       0.00863670      -0.00653709 </v>
     <v>       0.01418327       8.53676462       0.00282922 </v>
     <v>       0.02373012      -0.01201405       8.44230822 </v>
    </varray>
    <i name="volume">    607.34831549 </i>
    <varray name="rec_basis" >
     <v>       0.11866343      -0.00019704      -0.00033383 </v>
     <v>      -0.00011992       0.11714054       0.00016704 </v>
     <v>       0.00009192      -0.00003941       0.11845070 </v>
    </varray>
   </crystal>
   <varray name="positions" >
    <v>       0.99617132       0.99627507       0.99371080 </v>
    <v>       0.26306977       0.99923161       0.24463349 </v>
    <v>       0.24794207       0.50023721       0.24632448 </v>
    <v>       0.50210360       0.49796929       0.00079652 </v>
    <v>       0.50425315       0.23977033       0.74630956 </v>
    <v>       0.99781979       0.50048854       0.49840322 </v>
    <v>       0.49444254       0.76432605       0.75266042 </v>
    <v>       0.99237106       0.23114064       0.26664301 </v>
    <v>       0.75920618       0.73956845       0.01151269 </v>
    <v>       0.00744343       0.25803675       0.73566270 </v>
    <v>       0.75314745       0.25989589       0.50265574 </v>
    <v>       0.99894671       0.74234548       0.74824947 </v>
    <v>       0.25533135       0.49486064       0.74880539 </v>
    <v>       0.24913522       0.24914491       0.99440428 </v>
    <v>       0.51065463       0.25249397       0.25272284 </v>
    <v>       0.74233245       0.99060838       0.27092695 </v>
    <v>       0.75422225       0.25673310       0.99518171 </v>
    <v>       0.24570293       0.74854435       0.99927023 </v>
    <v>       0.25340554       0.24826027       0.50277053 </v>
    <v>       0.24597862       0.75136304       0.50052518 </v>
    <v>       0.24982086       0.24931374       0.24902713 </v>
    <v>       0.25978957       0.00044444       0.99156554 </v>
    <v>       0.00243995       0.25053154       0.00142541 </v>
    <v>       0.75238041       0.24468786       0.25448311 </v>
    <v>       0.74416573       0.99766017       0.00836517 </v>
    <v>       0.51015355       0.99968619       0.24944995 </v>
    <v>       0.99125186       0.47844144       0.24187991 </v>
    <v>       0.50546281       0.76094462       0.00793657 </v>
    <v>       0.98850473       0.00249546       0.74113336 </v>
    <v>       0.75920223       0.24271785       0.75000867 </v>
    <v>       0.73703839       0.00653002       0.50640591 </v>
    <v>       0.50485376       0.23253984       0.49234434 </v>
    <v>       0.50280714       0.00042437       0.73821578 </v>
    <v>       0.99336339       0.00340877       0.25577320 </v>
    <v>       0.50520109       0.24344991       0.00468802 </v>
    <v>       0.25285611       0.74911962       0.24924512 </v>
    <v>       0.24201450       0.50098539       0.99178555 </v>
    <v>       0.99972198       0.73887542       0.00221670 </v>
    <v>       0.75193909       0.74537982       0.24992728 </v>
    <v>       0.76228296       0.50233981       0.00270092 </v>
    <v>       0.50224211       0.50272495       0.25627977 </v>
    <v>       0.24534098       0.25091326       0.74835958 </v>
    <v>       0.25452166       0.99731838       0.50810898 </v>
    <v>       0.99960926       0.24370131       0.50241973 </v>
    <v>       0.23893003       0.75285549       0.75002041 </v>
    <v>       0.25583687       0.50098925       0.50415438 </v>
    <v>       0.99652382       0.75994266       0.50320382 </v>
    <v>       0.99485821       0.49915952       0.75606836 </v>
    <v>       0.75248152       0.75822659       0.75102851 </v>
    <v>       0.74388669       0.49467869       0.50274941 </v>
    <v>       0.50011195       0.75743448       0.49167905 </v>
    <v>       0.49841175       0.50078824       0.74269112 </v>
    <v>       0.51897892       0.01615794       0.98071706 </v>
    <v>       0.99745691       0.51510765       0.98256103 </v>
    <v>       0.50427270       0.73738106       0.25952956 </v>
    <v>       0.23702266       0.01235852       0.74653828 </v>
    <v>       0.47661849       0.98313122       0.49786546 </v>
    <v>       0.74000916       0.97356198       0.76694442 </v>
    <v>       0.00111365       0.77537320       0.25849504 </v>
    <v>       0.73537183       0.51165869       0.25992574 </v>
    <v>       0.02054210       0.00017929       0.49824540 </v>
    <v>       0.50243945       0.52514135       0.49596596 </v>
    <v>       0.74088466       0.52243079       0.74381463 </v>
    <v>       0.75360483       0.73751497       0.49188758 </v>
   </varray>
  </structure>
  <varray name="forces" >
   <v>       0.25092781       0.38241309      -0.46092981 </v>
   <v>       0.04382369       0.20257338      -0.23255277 </v>
   <v>      -0.68533553      -0.46124367      -0.01407581 </v>
   <v>      -0.07043336       0.09254449       0.02562550 </v>
   <v>      -0.24343171       0.38065916       0.01723025 </v>
   <v>       0.60178967       0.31581500      -0.24000551 </v>
   <v>      -0.40754796      -0.96083090       0.16964171 </v>
   <v>       0.34034535       1.14702738      -1.25562454 </v>
   <v>      -0.38941341       0.95361826      -0.81675713 </v>
   <v>      -0.11624837      -0.53519930       1.49202835 </v>
   <v>      -0.56024383      -1.32510824      -0.49901812 </v>
   <v>       0.37958811       0.01675819       0.88219887 </v>
   <v>      -0.52388783       0.39398118       0.32552050 </v>
   <v>       0.29682785      -0.18556391      -0.03003476 </v>
   <v>      -0.15894708      -0.36108315      -0.31757164 </v>
   <v>      -0.38050912       0.63351787      -0.55797279 </v>
   <v>      -0.43322719      -0.35277301       0.17129263 </v>
   <v>      -0.01109004       0.17814109       0.01913482 </v>
   <v>       0.43449298      -0.08283156      -0.09491995 </v>
   <v>       0.35839077       0.05463554      -0.13748564 </v>
   <v>       0.19316753      -0.08320112       0.03864265 </v>
   <v>       0.43356350       0.03611901      -0.79503717 </v>
   <v>      -0.03918096       0.79147970       0.26119080 </v>
   <v>      -0.82947526      -0.24068684      -1.04800237 </v>
   <v>      -0.63867804       0.46403935      -0.38809727 </v>
   <v>       0.68826359      -0.11588595      -0.10009863 </v>
   <v>      -0.12589589       0.57781322      -0.68760964 </v>
   <v>      -0.58293663       0.63617210       0.53948325 </v>
   <v>      -0.24611347      -0.00441484       0.10229707 </v>
   <v>       0.13921493      -0.24289750       0.59812011 </v>
   <v>       0.46065800      -0.26676456       0.28022076 </v>
   <v>      -0.58760770       0.41240826      -0.51007135 </v>
   <v>       0.22802629       0.32617525       0.47714839 </v>
   <v>      -0.12976681      -0.69694749      -0.68304448 </v>
   <v>      -0.13644854      -0.30110034       0.47329600 </v>
   <v>       0.69040064       0.06065126      -0.06967770 </v>
   <v>      -0.57228163      -0.02347477       0.23537973 </v>
   <v>       1.13189252       0.15025645       0.36364439 </v>
   <v>      -0.99417730       1.08820879      -0.00619000 </v>
   <v>       0.40108396      -1.23767378       0.05665172 </v>
   <v>      -1.02698416      -0.53103077      -0.45082324 </v>
   <v>       0.86900552      -0.86999697       0.11817836 </v>
   <v>       0.82745471       0.13418482       0.54165358 </v>
   <v>       1.04519908       0.34370343      -0.07321917 </v>
   <v>       0.37945682       0.54472604       0.14580833 </v>
   <v>      -0.01798521       0.02165160      -0.46051962 </v>
   <v>       1.00424855      -0.49541271       0.16548001 </v>
   <v>       0.33485677      -0.33609850       0.23856690 </v>
   <v>      -0.44770704       0.27399541      -0.07066961 </v>
   <v>       0.11893474       0.31593318      -0.03516927 </v>
   <v>      -0.78823710       1.08500141      -0.22611446 </v>
   <v>      -0.27754793       0.05761209       0.20816641 </v>
   <v>      -0.16191319      -0.51441829       0.27794405 </v>
   <v>       0.12846988      -0.30083796       0.46914671 </v>
   <v>      -0.52422860       0.21305045      -0.58211701 </v>
   <v>      -0.21668644      -0.32044927       0.45065393 </v>
   <v>       0.71019847       0.75013670      -0.19147095 </v>
   <v>      -0.37605013       1.14725875       0.55344766 </v>
   <v>       0.54811595      -1.37063874      -0.93459274 </v>
   <v>       1.10530752      -1.17805523      -1.27240146 </v>
   <v>      -0.58155031       0.34986334       1.00394971 </v>
   <v>      -0.57123397      -1.31940764      -0.01705083 </v>
   <v>       0.35792613      -1.10391531       1.92599558 </v>
   <v>      -0.64862962       1.28581708       0.63118673 </v>
  </varray>
  <varray name="stress" >
   <v>     420.99793244       3.93555353       4.77742325 </v>
   <v>       3.93555616     393.54794086      -1.61049034 </v>
   <v>       4.77742328      -1.61048942     412.71233840 </v>
  </varray>
  <energy>
   <i name="e_fr_energy">   -622.46689522 </i>
   <i name="e_wo_entrp">   -622.38443866 </i>
   <i name="e_0_energy">     -0.16491314 </i>
  </energy>
  <time name="totalsc">  704.51  712.78</time>
 </calculation>
 <calculation>
  <scstep>
   <time name="dav">   27.93   28.73</time>
   <time name="total">   28.21   29.02</time>
   <energy>
    <i name="alphaZ">   4279.42134143 </i>
    <i name="ewald"> -39003.73093996 </i>
    <i name="hartreedc">  -7320.42052529 </i>
    <i name="XCdc">   1458.41546040 </i>
    <i name="pawpsdc">  32120.42717815 </i>
    <i name="pawaedc"> -31712.39242800 </i>
    <i name="eentropy">     -0.14774558 </i>
    <i name="bandstr">  -5571.93003385 </i>
    <i name="atom">  45080.26969879 </i>
    <i name="e_fr_energy">   -670.08799390 </i>
    <i name="e_wo_entrp">   -669.94024832 </i>
    <i name="e_0_energy">   -670.01412111 </i>
   </energy>
  </scstep>
  <scstep>
   <time name="diag">    1.73    1.76</time>
   <time name="diis">   21.60   22.20</time>
   <time name="orth">    0.43    0.44</time>
   <time name="total">   24.03   24.68</time>
   <energy>
    <i name="e_fr_energy">   -932.13956376 </i>
    <i name="e_wo_entrp">   -932.00222311 </i>
    <i name="e_0_energy">   -932.07089343 </i>
   </energy>
  </scstep>
  <scstep>
   <time name="diag">    1.77    1.77</time>
   <time name="diis">   21.49   21.51</time>
   <time name="orth">    0.42    0.42</time>
   <time name="total">   23.96   23.98</time>
   <energy>
    <i name="e_fr_energy">   -677.13645678 </i>
    <i name="e_wo_entrp">   -676.98736310 </i>
    <i name="e_0_energy">   -677.06190994 </i>
   </energy>
  </scstep>
  <scstep>
   <time name="diag">    1.76    1.76</time>
   <time name="diis">   19.06   19.07</time>
   <time name="orth">    0.43    0.43</time>
   <time name="total">   21.52   21.53</time>
   <energy>
    <i name="e_fr_energy">   -633.88154123 </i>
    <i name="e_wo_entrp">   -633.69897371 </i>
    <i name="e_0_energy">   -633.79025747 </i>
   </energy>
  </scstep>
  <scstep>
   <time name="diag">    1.76    1.76</time>
   <time name="diis">   20.24   20.25</time>
   <time name="orth">    0.42    0.42</time>
   <time name="total">   22.70   22.71</time>
   <energy>
    <i name="e_fr_energy">   -644.75438232 </i>
    <i name="e_wo_entrp">   -644.62833036 </i>
    <i name="e_0_energy">   -644.69135634 </i>
   </energy>
  </scstep>
  <scstep>
   <time name="diag">    1.77    1.77</time>
   <time name="diis">   20.32   20.35</time>
   <time name="orth">    0.42    0.42</time>
   <time name="total">   22.78   22.81</time>
   <energy>
    <i name="e_fr_energy">   -634.49004245 </i>
    <i name="e_wo_entrp">   -634.30876882 </i>
    <i name="e_0_energy">   -634.39940564 </i>
   </energy>
  </scstep>
  <scstep>
   <time name="diag">    1.74    1.77</time>
   <time name="diis">   18.54   19.07</time>
   <time name="orth">    0.42    0.42</time>
   <time name="total">   20.97   21.54</time>
   <energy>
    <i name="e_fr_energy">   -635.45728601 </i>
    <i name="e_wo_entrp">   -635.31773156 </i>
    <i name="e_0_energy">   -635.38750878 </i>
   </energy>
  </scstep>
  <scstep>
   <time name="diag">    1.77    1.77</time>
   <time name="diis">   21.56   21.59</time>
   <time name="orth">    0.42    0.42</time>
   <time name="total">   24.02   24.05</time>
   <energy>
    <i name="e_fr_energy">   -634.29113959 </i>
    <i name="e_wo_entrp">   -634.13782798 </i>
    <i name="e_0_energy">   -634.21448378 </i>
   </energy>
  </scstep>
  <scstep>
   <time name="diag">    1.73    1.76</time>
   <time name="diis">   18.84   19.36</time>
   <time name="orth">    0.42    0.42</time>
   <time name="total">   21.26   21.82</time>
   <energy>
    <i name="e_fr_energy">   -629.45367271 </i>
    <i name="e_wo_entrp">   -629.26530838 </i>
    <i name="e_0_energy">   -629.35949054 </i>
   </energy>
  </scstep>
  <scstep>
   <time name="diag">    1.75    1.77</time>
   <time name="diis">   21.80   21.85</time>
   <time name="orth">    0.42    0.42</time>
   <time name="total">   24.24   24.33</time>
   <energy>
    <i name="e_fr_energy">   -629.59253647 </i>
    <i name="e_wo_entrp">   -629.40516423 </i>
    <i name="e_0_energy">   -629.49885035 </i>
   </energy>
  </scstep>
  <scstep>
   <time name="diag">    1.77    1.77</time>
   <time name="diis">   21.65   21.69</time>
   <time name="orth">    0.42    0.42</time>
[...]
      </set>
     </set>
    </set>
   </array>
  </eigenvalues>
  <separator name="orbital magnetization" >
   <v name="MAGDIPOLOUT">      0.00000000      0.00000000      0.00000000</v>
  </separator>
  <dos>
   <i name="efermi">      7.91542557 </i>
   <total>
    <array>
     <dimension dim="1">gridpoints</dimension>
     <dimension dim="2">spin</dimension>
     <field>energy</field>
     <field>total</field>
     <field>integrated</field>
     <set>
      <set comment="spin 1">
       <r>   -52.8201     0.0000     0.0000 </r>
       <r>   -52.5975     0.0000     0.0000 </r>
       <r>   -52.3749     0.0000     0.0000 </r>
       <r>   -52.1523     0.0000     0.0000 </r>
       <r>   -51.9297     0.0000     0.0000 </r>
       <r>   -51.7071     0.0000     0.0000 </r>
       <r>   -51.4846     0.0000     0.0000 </r>
       <r>   -51.2620     0.0000     0.0000 </r>
       <r>   -51.0394     0.0000     0.0000 </r>
       <r>   -50.8168     0.0000     0.0000 </r>
       <r>   -50.5942     0.0000     0.0000 </r>
       <r>   -50.3716     0.0000     0.0000 </r>
       <r>   -50.1490     0.0000     0.0000 </r>
       <r>   -49.9264     0.2980     0.0663 </r>
       <r>   -49.7038    18.8263     4.2569 </r>
       <r>   -49.4813    22.6307     9.2942 </r>
       <r>   -49.2587    16.5720    12.9829 </r>
       <r>   -49.0361     4.5615    13.9983 </r>
       <r>   -48.8135     0.0078    14.0000 </r>
       <r>   -48.5909     0.0000    14.0000 </r>
       <r>   -48.3683     0.0000    14.0000 </r>
       <r>   -48.1457     0.0000    14.0000 </r>
       <r>   -47.9231     0.0000    14.0000 </r>
       <r>   -47.7006     0.0000    14.0000 </r>
       <r>   -47.4780     0.0000    14.0000 </r>
       <r>   -47.2554     0.0000    14.0000 </r>
       <r>   -47.0328     0.0000    14.0000 </r>
       <r>   -46.8102     0.0000    14.0000 </r>
       <r>   -46.5876     0.0000    14.0000 </r>
       <r>   -46.3650     0.0000    14.0000 </r>
       <r>   -46.1424     0.0000    14.0000 </r>
       <r>   -45.9198     0.0000    14.0000 </r>
       <r>   -45.6973     0.0000    14.0000 </r>
       <r>   -45.4747     0.0000    14.0000 </r>
       <r>   -45.2521     0.0000    14.0000 </r>
       <r>   -45.0295     0.0000    14.0000 </r>
       <r>   -44.8069     0.0000    14.0000 </r>
       <r>   -44.5843     0.0000    14.0000 </r>
       <r>   -44.3617     0.0000    14.0000 </r>
       <r>   -44.1391     0.0000    14.0000 </r>
       <r>   -43.9165     0.0000    14.0000 </r>
       <r>   -43.6940     0.0000    14.0000 </r>
       <r>   -43.4714     0.0000    14.0000 </r>
       <r>   -43.2488     0.0000    14.0000 </r>
       <r>   -43.0262     0.0000    14.0000 </r>
       <r>   -42.8036     0.0000    14.0000 </r>
       <r>   -42.5810     0.0000    14.0000 </r>
       <r>   -42.3584     0.0000    14.0000 </r>
       <r>   -42.1358     0.0000    14.0000 </r>
       <r>   -41.9133     0.0000    14.0000 </r>
       <r>   -41.6907     0.0000    14.0000 </r>
       <r>   -41.4681     0.0266    14.0059 </r>
       <r>   -41.2455     5.8499    15.3081 </r>
       <r>   -41.0229     4.1843    16.2394 </r>
       <r>   -40.8003    20.9545    20.9037 </r>
       <r>   -40.5777    28.4745    27.2418 </r>
       <r>   -40.3551     3.4058    27.9999 </r>
       <r>   -40.1325     0.0006    28.0000 </r>
       <r>   -39.9100     0.0000    28.0000 </r>
       <r>   -39.6874     0.0000    28.0000 </r>
       <r>   -39.4648     0.0000    28.0000 </r>
       <r>   -39.2422     0.0000    28.0000 </r>
       <r>   -39.0196     0.0000    28.0000 </r>
       <r>   -38.7970     0.0000    28.0000 </r>
       <r>   -38.5744     0.0000    28.0000 </r>
       <r>   -38.3518     0.0000    28.0000 </r>
       <r>   -38.1292     0.0000    28.0000 </r>
       <r>   -37.9067     0.0000    28.0000 </r>
       <r>   -37.6841     0.0000    28.0000 </r>
       <r>   -37.4615     0.0000    28.0000 </r>
       <r>   -37.2389     0.0000    28.0000 </r>
       <r>   -37.0163     0.0000    28.0000 </r>
       <r>   -36.7937     0.0000    28.0000 </r>
       <r>   -36.5711     0.0000    28.0000 </r>
       <r>   -36.3485     0.0001    28.0000 </r>
       <r>   -36.1259     0.9752    28.2171 </r>
       <r>   -35.9034     9.3415    30.2964 </r>
       <r>   -35.6808    58.7774    43.3796 </r>
       <r>   -35.4582    84.5917    62.2087 </r>
       <r>   -35.2356     8.0413    63.9986 </r>
       <r>   -35.0130     0.0062    64.0000 </r>
       <r>   -34.7904     0.0000    64.0000 </r>
       <r>   -34.5678     0.0000    64.0000 </r>
       <r>   -34.3452     0.0000    64.0000 </r>
       <r>   -34.1227     0.0000    64.0000 </r>
       <r>   -33.9001     0.0000    64.0000 </r>
       <r>   -33.6775     0.0000    64.0000 </r>
       <r>   -33.4549     0.0000    64.0000 </r>
       <r>   -33.2323     0.0000    64.0000 </r>
       <r>   -33.0097     0.0000    64.0000 </r>
       <r>   -32.7871     0.0000    64.0000 </r>
       <r>   -32.5645     0.0000    64.0000 </r>
       <r>   -32.3419     0.0000    64.0000 </r>
       <r>   -32.1194     0.0001    64.0000 </r>
       <r>   -31.8968     1.1131    64.2478 </r>
       <r>   -31.6742    13.5840    67.2714 </r>
       <r>   -31.4516    56.6552    79.8822 </r>
       <r>   -31.2290    68.7691    95.1894 </r>
       <r>   -31.0064    21.2503    99.9195 </r>
       <r>   -30.7838     0.3617   100.0000 </r>
       <r>   -30.5612     0.0000   100.0000 </r>
       <r>   -30.3386     0.0000   100.0000 </r>
       <r>   -30.1161     0.0000   100.0000 </r>
       <r>   -29.8935     0.0000   100.0000 </r>
       <r>   -29.6709     0.0000   100.0000 </r>
       <r>   -29.4483     0.0000   100.0000 </r>
       <r>   -29.2257     0.0000   100.0000 </r>
       <r>   -29.0031     0.0000   100.0000 </r>
       <r>   -28.7805     0.0000   100.0000 </r>
       <r>   -28.5579     0.0000   100.0000 </r>
       <r>   -28.3354     0.0000   100.0000 </r>
       <r>   -28.1128     0.0000   100.0000 </r>
       <r>   -27.8902     0.0000   100.0000 </r>
       <r>   -27.6676     0.0000   100.0000 </r>
       <r>   -27.4450     0.0000   100.0000 </r>
       <r>   -27.2224     0.0000   100.0000 </r>
       <r>   -26.9998     0.0000   100.0000 </r>
       <r>   -26.7772     0.0000   100.0000 </r>
       <r>   -26.5546     0.0006   100.0001 </r>
       <r>   -26.3321     2.5373   100.5649 </r>
       <r>   -26.1095    41.2714   109.7515 </r>
       <r>   -25.8869    67.3313   124.7386 </r>
       <r>   -25.6643    60.5463   138.2155 </r>
       <r>   -25.4417    16.9064   141.9787 </r>
       <r>   -25.2191     0.0957   142.0000 </r>
       <r>   -24.9965     0.0000   142.0000 </r>
       <r>   -24.7739     0.0000   142.0000 </r>
       <r>   -24.5513     0.0000   142.0000 </r>
       <r>   -24.3288     0.0000   142.0000 </r>
       <r>   -24.1062     0.0000   142.0000 </r>
       <r>   -23.8836     0.0000   142.0000 </r>
       <r>   -23.6610     0.0000   142.0000 </r>
       <r>   -23.4384     0.0000   142.0000 </r>
       <r>   -23.2158     0.0000   142.0000 </r>
       <r>   -22.9932     0.0000   142.0000 </r>
       <r>   -22.7706     0.0000   142.0000 </r>
       <r>   -22.5481     0.0000   142.0000 </r>
       <r>   -22.3255     0.0000   142.0000 </r>
       <r>   -22.1029     0.0000   142.0000 </r>
       <r>   -21.8803     0.0000   142.0000 </r>
       <r>   -21.6577     0.0000   142.0000 </r>
       <r>   -21.4351     0.0000   142.0000 </r>
       <r>   -21.2125     0.0000   142.0000 </r>
       <r>   -20.9899     0.0000   142.0000 </r>
       <r>   -20.7673     0.0000   142.0000 </r>
       <r>   -20.5448     0.0000   142.0000 </r>
       <r>   -20.3222     0.0000   142.0000 </r>
       <r>   -20.0996     0.0000   142.0000 </r>
       <r>   -19.8770     0.0558   142.0124 </r>
       <r>   -19.6544    11.8698   144.6545 </r>
       <r>   -19.4318    18.0079   148.6629 </r>
       <r>   -19.2092    57.2084   161.3968 </r>
       <r>   -18.9866    68.1132   176.5580 </r>
       <r>   -18.7640    26.8832   182.5419 </r>
       <r>   -18.5415     6.5291   183.9952 </r>
       <r>   -18.3189     0.0215   184.0000 </r>
       <r>   -18.0963     0.0000   184.0000 </r>
       <r>   -17.8737     0.0000   184.0000 </r>
       <r>   -17.6511     0.0000   184.0000 </r>
       <r>   -17.4285     0.0000   184.0000 </r>
       <r>   -17.2059     0.0000   184.0000 </r>
       <r>   -16.9833     0.0000   184.0000 </r>
       <r>   -16.7608     0.0000   184.0000 </r>
       <r>   -16.5382     0.0000   184.0000 </r>
       <r>   -16.3156     0.0000   184.0000 </r>
       <r>   -16.0930     0.0000   184.0000 </r>
       <r>   -15.8704     0.0000   184.0000 </r>
       <r>   -15.6478     0.0000   184.0000 </r>
       <r>   -15.4252     0.0000   184.0000 </r>
       <r>   -15.2026     0.0000   184.0000 </r>
       <r>   -14.9800     0.0000   184.0000 </r>
       <r>   -14.7575     0.0000   184.0000 </r>
       <r>   -14.5349     0.0000   184.0000 </r>
       <r>   -14.3123     0.0000   184.0000 </r>
       <r>   -14.0897     0.0000   184.0000 </r>
       <r>   -13.8671     0.0000   184.0000 </r>
       <r>   -13.6445     0.0000   184.0000 </r>
       <r>   -13.4219     0.0000   184.0000 </r>
       <r>   -13.1993     0.0000   184.0000 </r>
       <r>   -12.9767     0.0000   184.0000 </r>
       <r>   -12.7542     0.0000   184.0000 </r>
       <r>   -12.5316     0.0000   184.0000 </r>
       <r>   -12.3090     0.0000   184.0000 </r>
       <r>   -12.0864     0.0000   184.0000 </r>
       <r>   -11.8638     0.0000   184.0000 </r>
       <r>   -11.6412     0.0000   184.0000 </r>
       <r>   -11.4186     0.0000   184.0000 </r>
       <r>   -11.1960     0.0000   184.0000 </r>
       <r>   -10.9735     0.0000   184.0000 </r>
       <r>   -10.7509     0.0000   184.0000 </r>
       <r>   -10.5283     0.0000   184.0000 </r>
       <r>   -10.3057     0.0000   184.0000 </r>
       <r>   -10.0831     0.0000   184.0000 </r>
       <r>    -9.8605     0.0000   184.0000 </r>
       <r>    -9.6379     0.0000   184.0000 </r>
       <r>    -9.4153     0.0000   184.0000 </r>
       <r>    -9.1927     0.0000   184.0000 </r>
       <r>    -8.9702     0.0000   184.0000 </r>
       <r>    -8.7476     0.0001   184.0000 </r>
       <r>    -8.5250     0.4886   184.1088 </r>
       <r>    -8.3024     7.2013   185.7117 </r>
       <r>    -8.0798     3.3634   186.4604 </r>
       <r>    -7.8572     9.3858   188.5495 </r>
       <r>    -7.6346     6.5482   190.0071 </r>
       <r>    -7.4120     6.6606   191.4897 </r>
       <r>    -7.1894    15.5610   194.9534 </r>
       <r>    -6.9669    16.2270   198.5653 </r>
       <r>    -6.7443    21.4562   203.3412 </r>
       <r>    -6.5217    23.9584   208.6741 </r>
       <r>    -6.2991     5.9385   209.9959 </r>
       <r>    -6.0765     0.0184   210.0000 </r>
       <r>    -5.8539     0.0000   210.0000 </r>
       <r>    -5.6313     0.0000   210.0000 </r>
       <r>    -5.4087     0.0000   210.0000 </r>
       <r>    -5.1862     0.0437   210.0097 </r>
       <r>    -4.9636     4.0894   210.9200 </r>
       <r>    -4.7410     4.8337   211.9959 </r>
       <r>    -4.5184     4.8681   213.0795 </r>
       <r>    -4.2958    12.1752   215.7896 </r>
       <r>    -4.0732    12.3547   218.5396 </r>
       <r>    -3.8506    20.2177   223.0398 </r>
       <r>    -3.6280    20.0457   227.5018 </r>
       <r>    -3.4054    19.6636   231.8786 </r>
       <r>    -3.1829    18.6211   236.0235 </r>
       <r>    -2.9603    18.6751   240.1803 </r>
       <r>    -2.7377    15.7430   243.6846 </r>
       <r>    -2.5151    14.6152   246.9377 </r>
       <r>    -2.2925     4.2241   247.8780 </r>
       <r>    -2.0699     0.5467   247.9997 </r>
       <r>    -1.8473     0.0015   248.0000 </r>
       <r>    -1.6247     0.0000   248.0000 </r>
       <r>    -1.4021     0.0000   248.0000 </r>
       <r>    -1.1796     0.0000   248.0000 </r>
       <r>    -0.9570     0.0000   248.0000 </r>
       <r>    -0.7344     0.0000   248.0000 </r>
       <r>    -0.5118     0.0000   248.0000 </r>
       <r>    -0.2892     0.0999   248.0222 </r>
       <r>    -0.0666     0.8045   248.2013 </r>
       <r>     0.1560     3.6437   249.0124 </r>
       <r>     0.3786     8.8936   250.9920 </r>
       <r>     0.6011    11.7144   253.5995 </r>
       <r>     0.8237    15.8059   257.1177 </r>
       <r>     1.0463    19.2777   261.4087 </r>
       <r>     1.2689    23.3632   266.6090 </r>
       <r>     1.4915    27.6734   272.7688 </r>
       <r>     1.7141    26.9371   278.7647 </r>
       <r>     1.9367    32.0971   285.9092 </r>
       <r>     2.1593    38.0369   294.3757 </r>
       <r>     2.3819    40.7947   303.4562 </r>
       <r>     2.6044    43.1076   313.0514 </r>
       <r>     2.8270    48.4724   323.8408 </r>
       <r>     3.0496    58.0329   336.7583 </r>
       <r>     3.2722    62.2074   350.6049 </r>
       <r>     3.4948    61.4576   364.2847 </r>
       <r>     3.7174    61.2182   377.9111 </r>
       <r>     3.9400    54.7665   390.1015 </r>
       <r>     4.1626    45.6456   400.2617 </r>
       <r>     4.3852    37.2523   408.5537 </r>
       <r>     4.6077    34.5686   416.2482 </r>
       <r>     4.8303    32.0214   423.3758 </r>
       <r>     5.0529    25.0138   428.9436 </r>
       <r>     5.2755    20.4962   433.5058 </r>
       <r>     5.4981    18.3605   437.5926 </r>
       <r>     5.7207    11.3168   440.1116 </r>
       <r>     5.9433    12.9188   442.9872 </r>
       <r>     6.1659    18.3761   447.0775 </r>
       <r>     6.3885    16.7054   450.7959 </r>
       <r>     6.6110    21.9211   455.6753 </r>
       <r>     6.8336    25.0672   461.2550 </r>
       <r>     7.0562    21.2413   465.9831 </r>
       <r>     7.2788    25.2365   471.6004 </r>
       <r>     7.5014    28.4197   477.9263 </r>
       <r>     7.7240    27.4660   484.0400 </r>
       <r>     7.9466    25.7568   489.7731 </r>
       <r>     8.1692    29.9318   496.4356 </r>
       <r>     8.3917    39.3392   505.1920 </r>
       <r>     8.6143    41.7860   514.4931 </r>
       <r>     8.8369    49.7173   525.5596 </r>
       <r>     9.0595    56.1165   538.0505 </r>
       <r>     9.2821    53.6868   550.0006 </r>
       <r>     9.5047    52.1124   561.6002 </r>
       <r>     9.7273    51.5476   573.0741 </r>
       <r>     9.9499    54.2109   585.1408 </r>
       <r>    10.1725    51.8697   596.6864 </r>
       <r>    10.3950    48.8683   607.5639 </r>
       <r>    10.6176    38.8252   616.2060 </r>
       <r>    10.8402    28.9569   622.6514 </r>
       <r>    11.0628     6.0053   623.9882 </r>
       <r>    11.2854     0.0532   624.0000 </r>
       <r>    11.5080     0.0000   624.0000 </r>
       <r>    11.7306     0.0000   624.0000 </r>
       <r>    11.9532     0.0000   624.0000 </r>
       <r>    12.1758     0.0000   624.0000 </r>
       <r>    12.3983     0.0000   624.0000 </r>
       <r>    12.6209     0.0000   624.0000 </r>
       <r>    12.8435     0.0000   624.0000 </r>
       <r>    13.0661     0.0000   624.0000 </r>
       <r>    13.2887     0.0000   624.0000 </r>
       <r>    13.5113     0.0000   624.0000 </r>
       <r>    13.7339     0.0000   624.0000 </r>
       <r>    13.9565     0.0000   624.0000 </r>
      </set>
     </set>
    </array>
   </total>
  </dos>
 </calculation>
 <structure name="finalpos" >
  <crystal>
   <varray name="basis" >
    <v>       8.74832444      -0.00029976       0.00142255 </v>
    <v>       0.00551102       8.81964344       0.00752849 </v>
    <v>       0.03282926      -0.00785892       8.75539364 </v>
   </varray>
   <i name="volume">    675.54092264 </i>
   <varray name="rec_basis" >
    <v>       0.11430767      -0.00007106      -0.00042867 </v>
    <v>       0.00000387       0.11338318       0.00010176 </v>
    <v>      -0.00001858      -0.00009748       0.11421529 </v>
   </varray>
  </crystal>
  <varray name="positions" >
   <v>       0.00231084      -0.00222504       0.99219982 </v>
   <v>       0.26460037       0.00148309       0.24794100 </v>
   <v>       0.23856863       0.49366637       0.24360907 </v>
   <v>       0.50451834       0.50021988       0.00128267 </v>
   <v>       0.51454833       0.24652680       0.73947371 </v>
   <v>       0.99575612       0.50010833       0.50140658 </v>
   <v>       0.49717730       0.76310394       0.75029225 </v>
   <v>       0.98994730       0.22723765       0.26016969 </v>
   <v>       0.76326828       0.74466259       0.00057524 </v>
   <v>       0.01396535       0.24156230       0.74048477 </v>
   <v>       0.75516690       0.25443394       0.48018464 </v>
   <v>      -0.00345936       0.73260915       0.75518990 </v>
   <v>       0.25812717       0.49218027       0.74852598 </v>
   <v>       0.25269358       0.24675521       0.98686884 </v>
   <v>       0.50967237       0.25530066       0.25107125 </v>
   <v>       0.73258576       0.98728019       0.26292089 </v>
   <v>       0.74880774       0.24492022       0.00323883 </v>
   <v>       0.24617679       0.74653665      -0.00266214 </v>
   <v>       0.25615013       0.24929686       0.50550780 </v>
   <v>       0.24839100       0.75207125       0.50229652 </v>
   <v>       0.24602020       0.24721137       0.24821713 </v>
   <v>       0.26042424       0.00261773       0.98735023 </v>
   <v>       0.00139743       0.25214551       0.00510168 </v>
   <v>       0.74679153       0.23930672       0.24362216 </v>
   <v>       0.74227581       0.99499910       0.00932742 </v>
   <v>       0.50940583       0.00879916       0.24798734 </v>
   <v>       0.98715237       0.48610428       0.24304255 </v>
   <v>       0.50096785       0.76247849       0.01005774 </v>
   <v>       0.99272169      -0.01039990       0.74392022 </v>
   <v>       0.76577407       0.22700715       0.74850035 </v>
   <v>       0.74559918       0.01302806       0.49224345 </v>
   <v>       0.50311340       0.24932098       0.48687658 </v>
   <v>       0.50613727       0.00426736       0.74561183 </v>
   <v>       0.99401235      -0.00170694       0.25578274 </v>
   <v>       0.50387686       0.24184750       0.00250971 </v>
   <v>       0.25546432       0.74875018       0.24942461 </v>
   <v>       0.23952943       0.50009598       0.98914983 </v>
   <v>       0.00416703       0.74011031       0.00553854 </v>
   <v>       0.74215105       0.74724175       0.25062772 </v>
   <v>       0.76469498       0.49573038       0.01142756 </v>
   <v>       0.49414076       0.49987253       0.25048151 </v>
   <v>       0.25690690       0.25049157       0.74618341 </v>
   <v>       0.26183089       0.00082521       0.51756316 </v>
   <v>       0.00233205       0.24552341       0.50152529 </v>
   <v>       0.23985992       0.75190597       0.75190182 </v>
   <v>       0.25431306       0.50130291       0.50303223 </v>
   <v>       0.00240461       0.75653678       0.50495165 </v>
   <v>       0.00130707       0.48627545       0.75971960 </v>
   <v>       0.75500727       0.77361330       0.74973064 </v>
   <v>       0.74234756       0.49423182       0.51359864 </v>
   <v>       0.49802985       0.76312446       0.48241792 </v>
   <v>       0.49934919       0.50503774       0.74260488 </v>
   <v>       0.51694989       0.01561262       0.97852913 </v>
   <v>       0.98835447       0.51888793       0.97968233 </v>
   <v>       0.48105201       0.72636221       0.25404566 </v>
   <v>       0.22143437       0.02731123       0.74646021 </v>
   <v>       0.48341480       0.98543372       0.50119270 </v>
   <v>       0.72513367       0.99824772       0.79053958 </v>
   <v>       0.00923069       0.77007921       0.25533113 </v>
   <v>       0.73408817       0.51412147       0.25965498 </v>
   <v>       0.02065881       0.00222457       0.50615480 </v>
   <v>       0.50254483       0.52102240       0.48670696 </v>
   <v>       0.75515383       0.52537063       0.76631286 </v>
   <v>       0.75350583       0.73989940       0.50478230 </v>
  </varray>
 </structure>
</modeling>
