  64  64   0   0
  0.1040305E+02  0.8710018E-09  0.8754545E-09  0.8731580E-09  0.5000000E-15
  1.000000000000000E-004
  CAR 
 HECN                                    
     13.34909613    -52.55134347  301      8.14096183      1.00000000
    -52.551  0.0000E+00  0.0000E+00
    -52.332  0.0000E+00  0.0000E+00
    -52.112  0.0000E+00  0.0000E+00
    -51.892  0.0000E+00  0.0000E+00
    -51.673  0.0000E+00  0.0000E+00
    -51.453  0.0000E+00  0.0000E+00
    -51.233  0.0000E+00  0.0000E+00
    -51.014  0.0000E+00  0.0000E+00
    -50.794  0.0000E+00  0.0000E+00
    -50.574  0.0000E+00  0.0000E+00
    -50.355  0.0000E+00  0.0000E+00
    -50.135  0.1011E-16  0.2220E-17
    -49.915  0.2175E-07  0.4777E-08
    -49.696  0.3604E-02  0.7916E-03
    -49.476  0.2040E+00  0.4561E-01
    -49.256  0.1904E+00  0.8744E-01
    -49.037  0.1741E+00  0.1257E+00
    -48.817  0.6467E-01  0.1399E+00
    -48.597  0.4851E-03  0.1400E+00
    -48.378  0.6877E-09  0.1400E+00
    -48.158  0.0000E+00  0.1400E+00
    -47.938  0.0000E+00  0.1400E+00
    -47.719  0.0000E+00  0.1400E+00
    -47.499  0.0000E+00  0.1400E+00
    -47.279  0.0000E+00  0.1400E+00
    -47.060  0.0000E+00  0.1400E+00
    -46.840  0.0000E+00  0.1400E+00
    -46.620  0.0000E+00  0.1400E+00
    -46.401  0.0000E+00  0.1400E+00
    -46.181  0.0000E+00  0.1400E+00
    -45.961  0.0000E+00  0.1400E+00
    -45.742  0.0000E+00  0.1400E+00
    -45.522  0.0000E+00  0.1400E+00
    -45.302  0.0000E+00  0.1400E+00
    -45.083  0.0000E+00  0.1400E+00
    -44.863  0.0000E+00  0.1400E+00
    -44.643  0.0000E+00  0.1400E+00
    -44.424  0.0000E+00  0.1400E+00
    -44.204  0.0000E+00  0.1400E+00
    -43.984  0.0000E+00  0.1400E+00
    -43.765  0.0000E+00  0.1400E+00
    -43.545  0.0000E+00  0.1400E+00
    -43.325  0.0000E+00  0.1400E+00
    -43.106  0.0000E+00  0.1400E+00
    -42.886  0.0000E+00  0.1400E+00
    -42.666  0.0000E+00  0.1400E+00
    -42.447  0.0000E+00  0.1400E+00
    -42.227  0.0000E+00  0.1400E+00
    -42.007  0.0000E+00  0.1400E+00
    -41.788  0.0000E+00  0.1400E+00
    -41.568  0.0000E+00  0.1400E+00
    -41.348  0.0000E+00  0.1400E+00
    -41.129  0.0000E+00  0.1400E+00
    -40.909  0.0000E+00  0.1400E+00
    -40.689  0.0000E+00  0.1400E+00
    -40.470  0.0000E+00  0.1400E+00
    -40.250  0.0000E+00  0.1400E+00
    -40.030  0.0000E+00  0.1400E+00
    -39.811  0.0000E+00  0.1400E+00
    -39.591  0.0000E+00  0.1400E+00
    -39.371  0.0000E+00  0.1400E+00
    -39.152  0.0000E+00  0.1400E+00
    -38.932  0.0000E+00  0.1400E+00
    -38.712  0.0000E+00  0.1400E+00
    -38.493  0.0000E+00  0.1400E+00
    -38.273  0.0000E+00  0.1400E+00
    -38.053  0.0000E+00  0.1400E+00
    -37.834  0.0000E+00  0.1400E+00
    -37.614  0.0000E+00  0.1400E+00
    -37.394  0.0000E+00  0.1400E+00
    -37.175  0.0000E+00  0.1400E+00
    -36.955  0.0000E+00  0.1400E+00
    -36.735  0.0000E+00  0.1400E+00
    -36.516  0.0000E+00  0.1400E+00
    -36.296  0.3902E-12  0.1400E+00
    -36.076  0.8994E-05  0.1400E+00
    -35.857  0.2450E-01  0.1454E+00
    -35.637  0.1151E+00  0.1707E+00
    -35.417  0.8344E+00  0.3540E+00
    -35.198  0.6437E+00  0.4954E+00
    -34.978  0.2111E-01  0.5000E+00
    -34.758  0.2706E-05  0.5000E+00
    -34.539  0.4785E-13  0.5000E+00
    -34.319  0.0000E+00  0.5000E+00
    -34.099  0.0000E+00  0.5000E+00
    -33.880  0.0000E+00  0.5000E+00
    -33.660  0.0000E+00  0.5000E+00
    -33.440  0.0000E+00  0.5000E+00
    -33.221  0.0000E+00  0.5000E+00
    -33.001  0.0000E+00  0.5000E+00
    -32.781  0.0000E+00  0.5000E+00
    -32.562  0.0000E+00  0.5000E+00
    -32.342  0.0000E+00  0.5000E+00
    -32.122  0.1619E-13  0.5000E+00
    -31.903  0.1418E-05  0.5000E+00
    -31.683  0.1321E-01  0.5029E+00
    -31.463  0.1354E+00  0.5326E+00
    -31.244  0.5564E+00  0.6549E+00
    -31.024  0.7144E+00  0.8118E+00
    -30.804  0.2163E+00  0.8593E+00
    -30.585  0.3161E-02  0.8600E+00
    -30.365  0.3193E-07  0.8600E+00
    -30.145  0.3032E-16  0.8600E+00
    -29.926  0.0000E+00  0.8600E+00
    -29.706  0.0000E+00  0.8600E+00
    -29.486  0.0000E+00  0.8600E+00
    -29.267  0.0000E+00  0.8600E+00
    -29.047  0.0000E+00  0.8600E+00
    -28.827  0.0000E+00  0.8600E+00
    -28.608  0.0000E+00  0.8600E+00
    -28.388  0.0000E+00  0.8600E+00
    -28.168  0.0000E+00  0.8600E+00
    -27.949  0.0000E+00  0.8600E+00
    -27.729  0.0000E+00  0.8600E+00
    -27.509  0.0000E+00  0.8600E+00
    -27.290  0.0000E+00  0.8600E+00
    -27.070  0.0000E+00  0.8600E+00
    -26.850  0.0000E+00  0.8600E+00
    -26.631  0.1157E-15  0.8600E+00
    -26.411  0.7067E-07  0.8600E+00
    -26.191  0.4224E-02  0.8609E+00
    -25.971  0.2294E+00  0.9113E+00
    -25.752  0.6041E+00  0.1044E+01
    -25.532  0.7208E+00  0.1202E+01
    -25.312  0.3169E+00  0.1272E+01
    -25.093  0.3653E-01  0.1280E+01
    -24.873  0.5129E-05  0.1280E+01
    -24.653  0.1048E-12  0.1280E+01
    -24.434  0.0000E+00  0.1280E+01
    -24.214  0.0000E+00  0.1280E+01
    -23.994  0.0000E+00  0.1280E+01
    -23.775  0.0000E+00  0.1280E+01
    -23.555  0.2613E-15  0.1280E+01
    -23.335  0.1225E-06  0.1280E+01
    -23.116  0.6526E-02  0.1281E+01
    -22.896  0.2057E+00  0.1327E+01
    -22.676  0.8497E-01  0.1345E+01
    -22.457  0.6394E+00  0.1486E+01
    -22.237  0.6603E+00  0.1631E+01
    -22.017  0.2870E+00  0.1694E+01
    -21.798  0.2810E-01  0.1700E+01
    -21.578  0.1171E-04  0.1700E+01
    -21.358  0.6217E-12  0.1700E+01
    -21.139  0.0000E+00  0.1700E+01
    -20.919  0.0000E+00  0.1700E+01
    -20.699  0.0000E+00  0.1700E+01
    -20.480  0.0000E+00  0.1700E+01
    -20.260  0.0000E+00  0.1700E+01
    -20.040  0.0000E+00  0.1700E+01
    -19.821  0.0000E+00  0.1700E+01
    -19.601  0.0000E+00  0.1700E+01
    -19.381  0.0000E+00  0.1700E+01
    -19.162  0.0000E+00  0.1700E+01
    -18.942  0.0000E+00  0.1700E+01
    -18.722  0.0000E+00  0.1700E+01
    -18.503  0.0000E+00  0.1700E+01
    -18.283  0.0000E+00  0.1700E+01
    -18.063  0.0000E+00  0.1700E+01
    -17.844  0.0000E+00  0.1700E+01
    -17.624  0.0000E+00  0.1700E+01
    -17.404  0.0000E+00  0.1700E+01
    -17.185  0.0000E+00  0.1700E+01
    -16.965  0.0000E+00  0.1700E+01
    -16.745  0.0000E+00  0.1700E+01
    -16.526  0.0000E+00  0.1700E+01
    -16.306  0.0000E+00  0.1700E+01
    -16.086  0.0000E+00  0.1700E+01
    -15.867  0.0000E+00  0.1700E+01
    -15.647  0.0000E+00  0.1700E+01
    -15.427  0.0000E+00  0.1700E+01
    -15.208  0.0000E+00  0.1700E+01
    -14.988  0.0000E+00  0.1700E+01
    -14.768  0.0000E+00  0.1700E+01
    -14.549  0.0000E+00  0.1700E+01
    -14.329  0.0000E+00  0.1700E+01
    -14.109  0.0000E+00  0.1700E+01
    -13.890  0.0000E+00  0.1700E+01
    -13.670  0.0000E+00  0.1700E+01
    -13.450  0.0000E+00  0.1700E+01
    -13.231  0.0000E+00  0.1700E+01
    -13.011  0.0000E+00  0.1700E+01
    -12.791  0.0000E+00  0.1700E+01
    -12.572  0.0000E+00  0.1700E+01
    -12.352  0.0000E+00  0.1700E+01
    -12.132  0.0000E+00  0.1700E+01
    -11.913  0.0000E+00  0.1700E+01
    -11.693  0.0000E+00  0.1700E+01
    -11.473  0.0000E+00  0.1700E+01
    -11.254  0.0000E+00  0.1700E+01
    -11.034  0.0000E+00  0.1700E+01
    -10.814  0.0000E+00  0.1700E+01
    -10.595  0.0000E+00  0.1700E+01
    -10.375  0.0000E+00  0.1700E+01
    -10.155  0.0000E+00  0.1700E+01
     -9.936  0.0000E+00  0.1700E+01
     -9.716  0.0000E+00  0.1700E+01
     -9.496  0.0000E+00  0.1700E+01
     -9.277  0.0000E+00  0.1700E+01
     -9.057  0.0000E+00  0.1700E+01
     -8.837  0.8650E-10  0.1700E+01
     -8.618  0.4870E-04  0.1700E+01
     -8.398  0.1779E-01  0.1704E+01
     -8.178  0.7023E-01  0.1719E+01
     -7.959  0.6837E-01  0.1734E+01
     -7.739  0.7137E-01  0.1750E+01
     -7.519  0.8768E-01  0.1769E+01
     -7.300  0.9258E-01  0.1790E+01
     -7.080  0.1382E+00  0.1820E+01
     -6.860  0.1489E+00  0.1853E+01
     -6.641  0.2332E+00  0.1904E+01
     -6.421  0.1980E+00  0.1947E+01
     -6.201  0.5705E-01  0.1960E+01
     -5.982  0.1911E-03  0.1960E+01
     -5.762  0.1107E-09  0.1960E+01
     -5.542  0.8953E-15  0.1960E+01
     -5.323  0.9789E-07  0.1960E+01
     -5.103  0.1761E-02  0.1960E+01
     -4.883  0.5842E-01  0.1973E+01
     -4.664  0.3104E-01  0.1980E+01
     -4.444  0.4693E-01  0.1990E+01
     -4.224  0.1256E+00  0.2018E+01
     -4.005  0.1267E+00  0.2046E+01
     -3.785  0.1971E+00  0.2089E+01
     -3.565  0.2121E+00  0.2136E+01
     -3.346  0.1737E+00  0.2174E+01
     -3.126  0.1815E+00  0.2214E+01
     -2.906  0.1906E+00  0.2256E+01
     -2.687  0.1503E+00  0.2289E+01
     -2.467  0.1672E+00  0.2325E+01
     -2.247  0.5833E-01  0.2338E+01
     -2.028  0.8571E-02  0.2340E+01
     -1.808  0.5908E-04  0.2340E+01
     -1.588  0.2591E-09  0.2340E+01
     -1.369  0.0000E+00  0.2340E+01
     -1.149  0.0000E+00  0.2340E+01
     -0.929  0.0000E+00  0.2340E+01
     -0.710  0.1293E-12  0.2340E+01
     -0.490  0.1135E-05  0.2340E+01
     -0.270  0.1297E-02  0.2340E+01
     -0.051  0.6104E-02  0.2342E+01
      0.169  0.2879E-01  0.2348E+01
      0.389  0.9732E-01  0.2369E+01
      0.608  0.9539E-01  0.2390E+01
      0.828  0.1561E+00  0.2425E+01
      1.048  0.1829E+00  0.2465E+01
      1.267  0.2395E+00  0.2517E+01
      1.487  0.2543E+00  0.2573E+01
      1.707  0.2643E+00  0.2631E+01
      1.926  0.2894E+00  0.2695E+01
      2.146  0.3400E+00  0.2770E+01
      2.366  0.3698E+00  0.2851E+01
      2.585  0.3752E+00  0.2933E+01
      2.805  0.4320E+00  0.3028E+01
      3.025  0.5140E+00  0.3141E+01
      3.244  0.5951E+00  0.3272E+01
      3.464  0.6237E+00  0.3409E+01
      3.684  0.6059E+00  0.3542E+01
      3.903  0.6024E+00  0.3674E+01
      4.123  0.5174E+00  0.3788E+01
      4.343  0.4276E+00  0.3882E+01
      4.562  0.3610E+00  0.3961E+01
      4.782  0.3225E+00  0.4032E+01
      5.002  0.3016E+00  0.4098E+01
      5.221  0.2408E+00  0.4151E+01
      5.441  0.2056E+00  0.4196E+01
      5.661  0.1719E+00  0.4234E+01
      5.880  0.1158E+00  0.4259E+01
      6.100  0.1241E+00  0.4287E+01
      6.320  0.1642E+00  0.4323E+01
      6.539  0.1757E+00  0.4361E+01
      6.759  0.2015E+00  0.4406E+01
      6.979  0.2419E+00  0.4459E+01
      7.198  0.2114E+00  0.4505E+01
      7.418  0.2336E+00  0.4557E+01
      7.638  0.2726E+00  0.4616E+01
      7.857  0.2715E+00  0.4676E+01
      8.077  0.2616E+00  0.4733E+01
      8.297  0.2623E+00  0.4791E+01
      8.516  0.3477E+00  0.4867E+01
      8.736  0.3887E+00  0.4953E+01
      8.956  0.4348E+00  0.5048E+01
      9.175  0.5524E+00  0.5170E+01
      9.395  0.5474E+00  0.5290E+01
      9.615  0.5252E+00  0.5405E+01
      9.834  0.4896E+00  0.5513E+01
     10.054  0.5228E+00  0.5628E+01
     10.274  0.4757E+00  0.5732E+01
     10.493  0.1257E+00  0.5760E+01
     10.713  0.7203E-03  0.5760E+01
     10.933  0.3243E-08  0.5760E+01
     11.152  0.7488E-18  0.5760E+01
     11.372  0.0000E+00  0.5760E+01
     11.592  0.0000E+00  0.5760E+01
     11.811  0.0000E+00  0.5760E+01
     12.031  0.0000E+00  0.5760E+01
     12.251  0.0000E+00  0.5760E+01
     12.470  0.0000E+00  0.5760E+01
     12.690  0.0000E+00  0.5760E+01
     12.910  0.0000E+00  0.5760E+01
     13.129  0.0000E+00  0.5760E+01
     13.349  0.0000E+00  0.5760E+01
