<?xml version="1.0" encoding="ISO-8859-1"?>
<modeling>
 <generator>
  <i name="program" type="string">vasp </i>
  <i name="version" type="string">5.4.4.18Apr17-6-g9f103f2a35  </i>
  <i name="subversion" type="string">(build Oct 18 2021 20:38:43) complex            parallel </i>
  <i name="platform" type="string">LinuxIFC </i>
  <i name="date" type="string">2024 06 21 </i>
  <i name="time" type="string">10:14:49 </i>
 </generator>
 <incar>
  <i type="string" name="SYSTEM">HECN</i>
  <i type="int" name="ISTART">     0</i>
  <i type="string" name="PREC">normal</i>
  <i type="string" name="ALGO">Fast</i>
  <i type="int" name="ICHARG">     2</i>
  <i type="int" name="NELM">    60</i>
  <i type="int" name="IBRION">     2</i>
  <i name="EDIFF">      0.00001000</i>
  <i name="EDIFFG">     -0.01000000</i>
  <i type="int" name="NSW">   100</i>
  <i type="int" name="ISIF">     3</i>
  <i name="ENCUT">    400.00000000</i>
  <i name="POTIM">      0.50000000</i>
  <i type="logical" name="LREAL"> F  </i>
  <i type="int" name="ISMEAR">     0</i>
  <i name="SIGMA">      0.10000000</i>
  <i type="logical" name="LWAVE"> F  </i>
  <i type="logical" name="LCHARG"> F  </i>
  <v type="int" name="KPOINT_BSE">    -1     0     0     0</v>
  <i type="int" name="NELM">    60</i>
 </incar>
 <structure name="primitive_cell" >
  <crystal>
   <varray name="basis" >
    <v>       8.71001623       0.00427956       0.00240674 </v>
    <v>       0.01012404       8.75453920       0.00174580 </v>
    <v>       0.03367313      -0.01345873       8.73150461 </v>
   </varray>
   <i name="volume">    665.79536515 </i>
   <varray name="rec_basis" >
    <v>       0.11481054      -0.00013268      -0.00044297 </v>
    <v>      -0.00005617       0.11422649       0.00017629 </v>
    <v>      -0.00003163      -0.00002280       0.11452789 </v>
   </varray>
  </crystal>
  <varray name="positions" >
   <v>       0.00210044      -0.00123801      -0.00687811 </v>
   <v>      -0.00885138      -0.00833015      -0.25234159 </v>
   <v>       0.00131012       0.24922412       0.00401151 </v>
   <v>       0.25581877       0.00235083      -0.00562303 </v>
   <v>      -0.25425608      -0.00422072       0.00871598 </v>
   <v>       0.00557727      -0.25663326       0.00526096 </v>
   <v>      -0.00409055      -0.00076017       0.25382156 </v>
   <v>       0.22264686       0.02178472      -0.26044912 </v>
   <v>      -0.27224130      -0.00736735      -0.21105516 </v>
   <v>       0.00532196      -0.22971687       0.25430028 </v>
   <v>      -0.23577850      -0.25579650       0.00157074 </v>
   <v>       0.24647728      -0.25165051      -0.00144038 </v>
   <v>       0.01560536       0.24287434      -0.25909008 </v>
   <v>       0.25237670       0.24629710      -0.01340148 </v>
   <v>      -0.01061368       0.22881494       0.26057347 </v>
   <v>      -0.00217992      -0.26477928      -0.24349017 </v>
   <v>      -0.25241164       0.24635740       0.00056895 </v>
   <v>       0.26584305       0.00125125       0.24813742 </v>
   <v>      -0.26616570      -0.00993166       0.26197485 </v>
   <v>      -0.23880083       0.22923338      -0.25267788 </v>
   <v>       0.24214041      -0.24540724      -0.24858748 </v>
   <v>      -0.24747776      -0.22968082      -0.25228000 </v>
   <v>      -0.25371219       0.24071849       0.24207422 </v>
   <v>       0.24704167       0.24753842       0.24844677 </v>
   <v>       0.25828308       0.24909227      -0.25364220 </v>
   <v>       0.25673644      -0.25073634       0.24976170 </v>
   <v>      -0.25955087      -0.25288723       0.24840068 </v>
   <v>      -0.00978730      -0.48022398      -0.02053868 </v>
   <v>      -0.48141740       0.01354436      -0.02148028 </v>
   <v>       0.01807464       0.00265584      -0.49436259 </v>
   <v>       0.26004492       0.00109655      -0.48683265 </v>
   <v>       0.00104743       0.48752027      -0.24243749 </v>
   <v>       0.00114520      -0.24448971      -0.49487529 </v>
   <v>      -0.00856203       0.48722471       0.24672888 </v>
   <v>       0.00144753       0.24811514      -0.49791325 </v>
   <v>      -0.23701042       0.49553046       0.01121911 </v>
   <v>      -0.49241997       0.00346983      -0.25332334 </v>
   <v>      -0.49827771      -0.24038326       0.00340928 </v>
   <v>       0.24116546      -0.49971823      -0.00801391 </v>
   <v>      -0.49626372       0.24387624       0.00060546 </v>
   <v>      -0.49299066       0.00708871       0.24731872 </v>
   <v>      -0.25259449       0.01195942       0.49131461 </v>
   <v>      -0.24391727      -0.47514495      -0.23343231 </v>
   <v>       0.49667973      -0.23791178      -0.25066303 </v>
   <v>       0.24926316      -0.24772291      -0.49884531 </v>
   <v>       0.25518900       0.24954984      -0.49322972 </v>
   <v>      -0.48710219       0.24552834      -0.25886320 </v>
   <v>      -0.24626528       0.25600104       0.48047311 </v>
   <v>       0.23938544       0.49455825       0.24438972 </v>
   <v>       0.25459120       0.49397377      -0.25074611 </v>
   <v>      -0.49117870       0.25550180       0.24994672 </v>
   <v>      -0.25066286      -0.26231837       0.49848441 </v>
   <v>      -0.26748884      -0.49079402       0.25955910 </v>
   <v>       0.48971364      -0.27314258       0.26320362 </v>
   <v>       0.48221737      -0.01108597      -0.49287001 </v>
   <v>      -0.00305968      -0.49860975      -0.49931000 </v>
   <v>      -0.49675514      -0.49830254       0.00038892 </v>
   <v>      -0.25438745       0.49481641      -0.48644766 </v>
   <v>       0.49753601      -0.23727928       0.48724386 </v>
   <v>       0.25253047      -0.49879707      -0.49839542 </v>
   <v>      -0.49994523      -0.49592523      -0.25539473 </v>
   <v>      -0.49701313       0.24859986       0.49068588 </v>
   <v>       0.49244811       0.49927984       0.24865853 </v>
   <v>      -0.49652850      -0.48444245       0.48768277 </v>
  </varray>
 </structure>
 <varray name="primitive_index" >
  <v type="int" >        1 </v>
  <v type="int" >       29 </v>
  <v type="int" >       23 </v>
  <v type="int" >       22 </v>
  <v type="int" >       25 </v>
  <v type="int" >       38 </v>
  <v type="int" >       34 </v>
  <v type="int" >       56 </v>
  <v type="int" >       58 </v>
  <v type="int" >       59 </v>
  <v type="int" >        9 </v>
  <v type="int" >       18 </v>
  <v type="int" >       10 </v>
  <v type="int" >       14 </v>
  <v type="int" >        8 </v>
  <v type="int" >       12 </v>
  <v type="int" >       17 </v>
  <v type="int" >        2 </v>
  <v type="int" >       16 </v>
  <v type="int" >       30 </v>
  <v type="int" >       45 </v>
  <v type="int" >       49 </v>
  <v type="int" >       24 </v>
  <v type="int" >       21 </v>
  <v type="int" >       42 </v>
  <v type="int" >       36 </v>
  <v type="int" >       39 </v>
  <v type="int" >       54 </v>
  <v type="int" >       53 </v>
  <v type="int" >       61 </v>
  <v type="int" >       43 </v>
  <v type="int" >       48 </v>
  <v type="int" >       47 </v>
  <v type="int" >       27 </v>
  <v type="int" >       44 </v>
  <v type="int" >       40 </v>
  <v type="int" >       33 </v>
  <v type="int" >       28 </v>
  <v type="int" >       37 </v>
  <v type="int" >       35 </v>
  <v type="int" >       26 </v>
  <v type="int" >       31 </v>
  <v type="int" >       63 </v>
  <v type="int" >        7 </v>
  <v type="int" >       20 </v>
  <v type="int" >       19 </v>
  <v type="int" >        5 </v>
  <v type="int" >       11 </v>
  <v type="int" >        3 </v>
  <v type="int" >       13 </v>
  <v type="int" >       15 </v>
  <v type="int" >       64 </v>
  <v type="int" >       60 </v>
  <v type="int" >       55 </v>
  <v type="int" >       57 </v>
  <v type="int" >        6 </v>
  <v type="int" >        4 </v>
  <v type="int" >       50 </v>
  <v type="int" >       51 </v>
  <v type="int" >       46 </v>
  <v type="int" >       52 </v>
  <v type="int" >       32 </v>
  <v type="int" >       41 </v>
  <v type="int" >       62 </v>
 </varray>
 <kpoints>
  <generation param="Gamma">
   <v type="int" name="divisions">       3        3        3 </v>
   <v name="usershift">      0.00000000       0.00000000       0.00000000 </v>
   <v name="genvec1">      0.33333333      -0.00000000       0.00000000 </v>
   <v name="genvec2">      0.00000000       0.33333333       0.00000000 </v>
   <v name="genvec3">     -0.00000000       0.00000000       0.33333333 </v>
   <v name="shift">      0.00000000       0.00000000       0.00000000 </v>
  </generation>
  <varray name="kpointlist" >
   <v>       0.00000000       0.00000000       0.00000000 </v>
   <v>       0.33333333      -0.00000000       0.00000000 </v>
   <v>      -0.00000000       0.33333333      -0.00000000 </v>
   <v>       0.33333333       0.33333333       0.00000000 </v>
   <v>      -0.33333333       0.33333333      -0.00000000 </v>
   <v>      -0.00000000       0.00000000       0.33333333 </v>
   <v>       0.33333333      -0.00000000       0.33333333 </v>
   <v>      -0.33333333       0.00000000       0.33333333 </v>
   <v>       0.00000000       0.33333333       0.33333333 </v>
   <v>       0.33333333       0.33333333       0.33333333 </v>
   <v>      -0.33333333       0.33333333       0.33333333 </v>
   <v>       0.00000000      -0.33333333       0.33333333 </v>
   <v>       0.33333333      -0.33333333       0.33333333 </v>
   <v>      -0.33333333      -0.33333333       0.33333333 </v>
  </varray>
  <varray name="weights" >
   <v>       0.03703704 </v>
   <v>       0.07407407 </v>
   <v>       0.07407407 </v>
   <v>       0.07407407 </v>
   <v>       0.07407407 </v>
   <v>       0.07407407 </v>
   <v>       0.07407407 </v>
   <v>       0.07407407 </v>
   <v>       0.07407407 </v>
   <v>       0.07407407 </v>
   <v>       0.07407407 </v>
   <v>       0.07407407 </v>
   <v>       0.07407407 </v>
   <v>       0.07407407 </v>
  </varray>
 </kpoints>
 <parameters>
  <separator name="general" >
   <i type="string" name="SYSTEM">HECN</i>
   <i type="logical" name="LCOMPAT"> F  </i>
  </separator>
  <separator name="electronic" >
   <i type="string" name="PREC">normal</i>
   <i name="ENMAX">    400.00000000</i>
   <i name="ENAUG">    644.87300000</i>
   <i name="EDIFF">      0.00001000</i>
   <i type="int" name="IALGO">    68</i>
   <i type="int" name="IWAVPR">    11</i>
   <i type="int" name="NBANDS">   288</i>
   <i name="NELECT">    475.00000000</i>
   <i type="int" name="TURBO">     0</i>
   <i type="int" name="IRESTART">     0</i>
   <i type="int" name="NREBOOT">     0</i>
   <i type="int" name="NMIN">     0</i>
   <i name="EREF">      0.00000000</i>
   <separator name="electronic smearing" >
    <i type="int" name="ISMEAR">     0</i>
    <i name="SIGMA">      0.10000000</i>
    <i name="KSPACING">      0.50000000</i>
    <i type="logical" name="KGAMMA"> T  </i>
   </separator>
   <separator name="electronic projectors" >
    <i type="logical" name="LREAL"> F  </i>
    <v name="ROPT">      0.00000000      0.00000000      0.00000000      0.00000000      0.00000000      0.00000000      0.00000000</v>
    <i type="int" name="LMAXPAW">  -100</i>
    <i type="int" name="LMAXMIX">     2</i>
    <i type="logical" name="NLSPLINE"> F  </i>
   </separator>
   <separator name="electronic startup" >
    <i type="int" name="ISTART">     0</i>
    <i type="int" name="ICHARG">     2</i>
    <i type="int" name="INIWAV">     1</i>
   </separator>
   <separator name="electronic spin" >
    <i type="int" name="ISPIN">     1</i>
    <i type="logical" name="LNONCOLLINEAR"> F  </i>
    <v name="MAGMOM">      1.00000000      1.00000000      1.00000000      1.00000000      1.00000000      1.00000000      1.00000000      1.00000000      1.00000000      1.00000000      1.00000000      1.00000000      1.00000000      1.00000000      1.00000000      1.00000000      1.00000000      1.00000000      1.00000000      1.00000000
      1.00000000      1.00000000      1.00000000      1.00000000      1.00000000      1.00000000      1.00000000      1.00000000      1.00000000      1.00000000      1.00000000      1.00000000      1.00000000      1.00000000      1.00000000      1.00000000      1.00000000      1.00000000      1.00000000      1.00000000
      1.00000000      1.00000000      1.00000000      1.00000000      1.00000000      1.00000000      1.00000000      1.00000000      1.00000000      1.00000000      1.00000000      1.00000000      1.00000000      1.00000000      1.00000000      1.00000000      1.00000000      1.00000000      1.00000000      1.00000000
      1.00000000      1.00000000      1.00000000      1.00000000</v>
    <i name="NUPDOWN">     -1.00000000</i>
    <i type="logical" name="LSORBIT"> F  </i>
    <v name="SAXIS">      0.00000000      0.00000000      1.00000000</v>
    <i type="logical" name="LSPIRAL"> F  </i>
    <v name="QSPIRAL">      0.00000000      0.00000000      0.00000000</v>
    <i type="logical" name="LZEROZ"> F  </i>
   </separator>
   <separator name="electronic exchange-correlation" >
    <i type="logical" name="LASPH"> F  </i>
    <i type="logical" name="LMETAGGA"> F  </i>
   </separator>
   <separator name="electronic convergence" >
    <i type="int" name="NELM">    60</i>
    <i type="int" name="NELMDL">    -5</i>
    <i type="int" name="NELMIN">     2</i>
    <i name="ENINI">    400.00000000</i>
    <separator name="electronic convergence detail" >
     <i type="logical" name="LDIAG"> T  </i>
     <i type="logical" name="LSUBROT"> F  </i>
     <i name="WEIMIN">      0.00100000</i>
     <i name="EBREAK">      0.00000001</i>
     <i name="DEPER">      0.30000000</i>
     <i type="int" name="NRMM">     4</i>
     <i name="TIME">      0.40000000</i>
    </separator>
   </separator>
   <separator name="electronic mixer" >
    <i name="AMIX">      0.40000000</i>
    <i name="BMIX">      1.00000000</i>
    <i name="AMIN">      0.10000000</i>
    <i name="AMIX_MAG">      1.60000000</i>
    <i name="BMIX_MAG">      1.00000000</i>
    <separator name="electronic mixer details" >
     <i type="int" name="IMIX">     4</i>
     <i type="logical" name="MIXFIRST"> F  </i>
     <i type="int" name="MAXMIX">   -45</i>
     <i name="WC">    100.00000000</i>
     <i type="int" name="INIMIX">     1</i>
     <i type="int" name="MIXPRE">     1</i>
     <i type="int" name="MREMOVE">     5</i>
    </separator>
   </separator>
   <separator name="electronic dipolcorrection" >
    <i type="logical" name="LDIPOL"> F  </i>
    <i type="logical" name="LMONO"> F  </i>
    <i type="int" name="IDIPOL">     0</i>
    <i name="EPSILON">      1.00000000</i>
    <v name="DIPOL">   -100.00000000   -100.00000000   -100.00000000</v>
    <i name="EFIELD">      0.00000000</i>
   </separator>
  </separator>
  <separator name="grids" >
   <i type="int" name="NGX">    48</i>
   <i type="int" name="NGY">    48</i>
   <i type="int" name="NGZ">    48</i>
   <i type="int" name="NGXF">    96</i>
   <i type="int" name="NGYF">    96</i>
   <i type="int" name="NGZF">    96</i>
   <i type="logical" name="ADDGRID"> F  </i>
  </separator>
  <separator name="ionic" >
   <i type="int" name="NSW">   100</i>
   <i type="int" name="IBRION">     2</i>
   <i type="int" name="MDALGO">     0</i>
   <i type="int" name="ISIF">     3</i>
   <i name="PSTRESS">      0.00000000</i>
   <i name="EDIFFG">     -0.01000000</i>
   <i type="int" name="NFREE">     1</i>
   <i name="POTIM">      0.50000000</i>
   <i name="SMASS">     -3.00000000</i>
   <i name="SCALEE">      1.00000000</i>
  </separator>
  <separator name="ionic md" >
   <i name="TEBEG">      0.00010000</i>
   <i name="TEEND">      0.00010000</i>
   <i type="int" name="NBLOCK">     1</i>
   <i type="int" name="KBLOCK">   100</i>
   <i type="int" name="NPACO">   256</i>
   <i name="APACO">     16.00000000</i>
  </separator>
  <separator name="symmetry" >
   <i type="int" name="ISYM">     2</i>
   <i name="SYMPREC">      0.00001000</i>
  </separator>
  <separator name="dos" >
   <i type="int" name="LORBIT">     0</i>
   <v name="RWIGS">     -1.00000000     -1.00000000     -1.00000000     -1.00000000     -1.00000000     -1.00000000     -1.00000000</v>
   <i type="int" name="NEDOS">   301</i>
   <i name="EMIN">     10.00000000</i>
   <i name="EMAX">    -10.00000000</i>
   <i name="EFERMI">      0.00000000</i>
  </separator>
  <separator name="writing" >
   <i type="int" name="NWRITE">     2</i>
   <i type="logical" name="LWAVE"> F  </i>
   <i type="logical" name="LDOWNSAMPLE"> F  </i>
   <i type="logical" name="LCHARG"> F  </i>
   <i type="logical" name="LPARD"> F  </i>
   <i type="logical" name="LVTOT"> F  </i>
   <i type="logical" name="LVHAR"> F  </i>
   <i type="logical" name="LELF"> F  </i>
   <i type="logical" name="LOPTICS"> F  </i>
   <v name="STM">      0.00000000      0.00000000      0.00000000      0.00000000      0.00000000      0.00000000      0.00000000</v>
  </separator>
  <separator name="performance" >
   <i type="int" name="NPAR">    24</i>
   <i type="int" name="NSIM">     4</i>
   <i type="int" name="NBLK">    -1</i>
   <i type="logical" name="LPLANE"> T  </i>
   <i type="logical" name="LSCALAPACK"> T  </i>
   <i type="logical" name="LSCAAWARE"> F  </i>
   <i type="logical" name="LSCALU"> F  </i>
   <i type="logical" name="LASYNC"> F  </i>
   <i type="logical" name="LORBITALREAL"> F  </i>
  </separator>
  <separator name="miscellaneous" >
   <i type="int" name="IDIOT">     3</i>
   <i type="int" name="ISPECIAL">     0</i>
   <i type="logical" name="LMUSIC"> F  </i>
   <v name="POMASS">    178.49000000    183.85000000     47.88000000     14.00100000     12.01100000     51.99600000     95.94000000</v>
   <v name="DARWINR">      0.00000000      0.00000000      0.00000000      0.00000000      0.00000000      0.00000000      0.00000000</v>
   <v name="DARWINV">      1.00000000      1.00000000      1.00000000      1.00000000      1.00000000      1.00000000      1.00000000</v>
   <i type="logical" name="LCORR"> T  </i>
  </separator>
  <i type="logical" name="GGA_COMPAT"> T  </i>
  <i type="logical" name="LBERRY"> F  </i>
  <i type="int" name="ICORELEVEL">     0</i>
  <i type="logical" name="LDAU"> F  </i>
  <i type="int" name="I_CONSTRAINED_M">     0</i>
  <separator name="electronic exchange-correlation" >
   <i type="string" name="GGA">--</i>
   <i type="int" name="VOSKOWN">     0</i>
   <i type="logical" name="LHFCALC"> F  </i>
   <i type="string" name="PRECFOCK"></i>
   <i type="logical" name="LSYMGRAD"> F  </i>
   <i type="logical" name="LHFONE"> F  </i>
   <i type="logical" name="LRHFCALC"> F  </i>
   <i type="logical" name="LTHOMAS"> F  </i>
   <i type="logical" name="LMODELHF"> F  </i>
   <i name="ENCUT4O">     -1.00000000</i>
   <i type="int" name="EXXOEP">     0</i>
   <i type="int" name="FOURORBIT">     0</i>
   <i name="AEXX">      0.00000000</i>
   <i name="HFALPHA">      0.00000000</i>
   <i name="MCALPHA">      0.00000000</i>
   <i name="ALDAX">      1.00000000</i>
   <i name="AGGAX">      1.00000000</i>
   <i name="ALDAC">      1.00000000</i>
   <i name="AGGAC">      1.00000000</i>
   <i type="int" name="NKREDX">     1</i>
   <i type="int" name="NKREDY">     1</i>
   <i type="int" name="NKREDZ">     1</i>
   <i type="logical" name="SHIFTRED"> F  </i>
   <i type="logical" name="ODDONLY"> F  </i>
   <i type="logical" name="EVENONLY"> F  </i>
   <i type="int" name="LMAXFOCK">     0</i>
   <i type="int" name="NMAXFOCKAE">     0</i>
   <i type="logical" name="LFOCKAEDFT"> F  </i>
   <i name="HFSCREEN">      0.00000000</i>
   <i name="HFSCREENC">      0.00000000</i>
   <i type="int" name="NBANDSGWLOW">     0</i>
  </separator>
  <separator name="vdW DFT" >
   <i type="logical" name="LUSE_VDW"> F  </i>
   <i name="Zab_VDW">     -0.84910000</i>
   <i name="PARAM1">      0.12340000</i>
   <i name="PARAM2">      1.00000000</i>
   <i name="PARAM3">      0.00000000</i>
  </separator>
  <separator name="model GW" >
   <i type="int" name="MODEL_GW">     0</i>
   <i name="MODEL_EPS0">      6.24183155</i>
   <i name="MODEL_ALPHA">      1.00000000</i>
  </separator>
  <separator name="linear response parameters" >
   <i type="logical" name="LEPSILON"> F  </i>
   <i type="logical" name="LRPA"> F  </i>
   <i type="logical" name="LNABLA"> F  </i>
   <i type="logical" name="LVEL"> F  </i>
   <i type="int" name="KINTER">     0</i>
   <i name="CSHIFT">      0.10000000</i>
   <i name="OMEGAMAX">     -1.00000000</i>
   <i name="DEG_THRESHOLD">      0.00200000</i>
   <i name="RTIME">     -0.10000000</i>
   <i name="WPLASMAI">      0.00000000</i>
   <v name="DFIELD">      0.00000000      0.00000000      0.00000000</v>
   <v name="WPLASMA">      0.00000000      0.00000000      0.00000000      0.00000000      0.00000000      0.00000000      0.00000000      0.00000000      0.00000000</v>
  </separator>
  <separator name="orbital magnetization" >
   <i type="logical" name="NUCIND"> F  </i>
   <v name="MAGPOS">      0.00000000      0.00000000      0.00000000</v>
   <i type="logical" name="LNICSALL"> T  </i>
   <i type="logical" name="ORBITALMAG"> F  </i>
   <i type="logical" name="LMAGBLOCH"> F  </i>
   <i type="logical" name="LCHIMAG"> F  </i>
   <i type="logical" name="LGAUGE"> T  </i>
   <i type="int" name="MAGATOM">     0</i>
   <v name="MAGDIPOL">      0.00000000      0.00000000      0.00000000</v>
   <v name="AVECCONST">      0.00000000      0.00000000      0.00000000</v>
  </separator>
  <separator name="response functions" >
   <i type="logical" name="LADDER"> F  </i>
   <i type="logical" name="LRPAFORCE"> F  </i>
   <i type="logical" name="LFXC"> F  </i>
   <i type="logical" name="LHARTREE"> T  </i>
   <i type="int" name="IBSE">     0</i>
   <v type="int" name="KPOINT">    -1     0     0     0</v>
   <i type="logical" name="LTCTE"> F  </i>
   <i type="logical" name="LTETE"> F  </i>
   <i type="logical" name="LTRIPLET"> F  </i>
   <i type="logical" name="LFXCEPS"> F  </i>
   <i type="logical" name="LFXHEG"> F  </i>
   <i type="int" name="NATURALO">     2</i>
   <i type="logical" name="L2ORDER"> F  </i>
   <i type="logical" name="LMP2LT"> F  </i>
   <i type="logical" name="LUSEW"> F  </i>
   <i name="ENCUTGW">     -2.00000000</i>
   <i name="ENCUTGWSOFT">     -2.00000000</i>
   <i name="ENCUTLF">     -1.00000000</i>
   <i type="int" name="LMAXMP2">    -1</i>
   <i name="SCISSOR">      0.00000000</i>
   <i type="int" name="NOMEGA">     0</i>
   <i type="int" name="NOMEGAR">     0</i>
   <i type="int" name="NBANDSGW">    -1</i>
   <i type="int" name="NBANDSO">    -1</i>
   <i type="int" name="NBANDSV">    -1</i>
   <i type="int" name="NELM">    60</i>
   <i type="int" name="NELMHF">     1</i>
   <i type="int" name="DIM">     3</i>
   <i type="int" name="ANTIRES">     0</i>
   <i name="OMEGAMAX">    -30.00000000</i>
   <i name="OMEGAMIN">    -30.00000000</i>
   <i name="OMEGATL">   -200.00000000</i>
   <i type="int" name="OMEGAGRID">   140</i>
   <i name="CSHIFT">     -0.10000000</i>
   <i type="logical" name="SELFENERGY"> F  </i>
   <i type="logical" name="LSPECTRAL"> F  </i>
   <i type="logical" name="LSPECTRALGW"> F  </i>
   <i type="logical" name="LSINGLES"> F  </i>
   <i type="logical" name="LFERMIGW"> F  </i>
   <i type="logical" name="ODDONLYGW"> F  </i>
   <i type="logical" name="EVENONLYGW"> F  </i>
   <i type="int" name="NKREDLFX">     1</i>
   <i type="int" name="NKREDLFY">     1</i>
   <i type="int" name="NKREDLFZ">     1</i>
   <i type="int" name="MAXMEM">  2800</i>
   <i type="int" name="TELESCOPE">     0</i>
   <i type="int" name="TAUPAR">     1</i>
   <i type="int" name="OMEGAPAR">    -1</i>
   <i name="LAMBDA">      1.00000000</i>
  </separator>
  <separator name="External order field" >
   <i name="OFIELD_KAPPA">      0.00000000</i>
   <v name="OFIELD_K">      0.00000000      0.00000000      0.00000000</v>
   <i name="OFIELD_Q6_NEAR">      0.00000000</i>
   <i name="OFIELD_Q6_FAR">      0.00000000</i>
   <i name="OFIELD_A">      0.00000000</i>
  </separator>
 </parameters>
 <atominfo>
  <atoms>      64 </atoms>
  <types>       7 </types>
  <array name="atoms" >
   <dimension dim="1">ion</dimension>
   <field type="string">element</field>
   <field type="int">atomtype</field>
   <set>
    <rc><c>Hf</c><c>   1</c></rc>
    <rc><c>Hf</c><c>   1</c></rc>
    <rc><c>Hf</c><c>   1</c></rc>
    <rc><c>Hf</c><c>   1</c></rc>
    <rc><c>Hf</c><c>   1</c></rc>
    <rc><c>Hf</c><c>   1</c></rc>
    <rc><c>Hf</c><c>   1</c></rc>
    <rc><c>W </c><c>   2</c></rc>
    <rc><c>W </c><c>   2</c></rc>
    <rc><c>W </c><c>   2</c></rc>
    <rc><c>W </c><c>   2</c></rc>
    <rc><c>W </c><c>   2</c></rc>
    <rc><c>W </c><c>   2</c></rc>
    <rc><c>Ti</c><c>   3</c></rc>
    <rc><c>Ti</c><c>   3</c></rc>
    <rc><c>Ti</c><c>   3</c></rc>
    <rc><c>Ti</c><c>   3</c></rc>
    <rc><c>Ti</c><c>   3</c></rc>
    <rc><c>Ti</c><c>   3</c></rc>
    <rc><c>Ti</c><c>   3</c></rc>
    <rc><c>N </c><c>   4</c></rc>
    <rc><c>N </c><c>   4</c></rc>
    <rc><c>N </c><c>   4</c></rc>
    <rc><c>N </c><c>   4</c></rc>
    <rc><c>N </c><c>   4</c></rc>
    <rc><c>N </c><c>   4</c></rc>
    <rc><c>N </c><c>   4</c></rc>
    <rc><c>N </c><c>   4</c></rc>
    <rc><c>N </c><c>   4</c></rc>
    <rc><c>N </c><c>   4</c></rc>
    <rc><c>N </c><c>   4</c></rc>
    <rc><c>N </c><c>   4</c></rc>
    <rc><c>N </c><c>   4</c></rc>
    <rc><c>C </c><c>   5</c></rc>
    <rc><c>C </c><c>   5</c></rc>
    <rc><c>C </c><c>   5</c></rc>
    <rc><c>C </c><c>   5</c></rc>
    <rc><c>C </c><c>   5</c></rc>
    <rc><c>C </c><c>   5</c></rc>
    <rc><c>C </c><c>   5</c></rc>
    <rc><c>C </c><c>   5</c></rc>
    <rc><c>C </c><c>   5</c></rc>
    <rc><c>C </c><c>   5</c></rc>
    <rc><c>C </c><c>   5</c></rc>
    <rc><c>C </c><c>   5</c></rc>
    <rc><c>C </c><c>   5</c></rc>
    <rc><c>C </c><c>   5</c></rc>
    <rc><c>C </c><c>   5</c></rc>
    <rc><c>C </c><c>   5</c></rc>
    <rc><c>C </c><c>   5</c></rc>
    <rc><c>C </c><c>   5</c></rc>
    <rc><c>C </c><c>   5</c></rc>
    <rc><c>Cr</c><c>   6</c></rc>
    <rc><c>Cr</c><c>   6</c></rc>
    <rc><c>Cr</c><c>   6</c></rc>
    <rc><c>Cr</c><c>   6</c></rc>
    <rc><c>Cr</c><c>   6</c></rc>
    <rc><c>Cr</c><c>   6</c></rc>
    <rc><c>Mo</c><c>   7</c></rc>
    <rc><c>Mo</c><c>   7</c></rc>
    <rc><c>Mo</c><c>   7</c></rc>
    <rc><c>Mo</c><c>   7</c></rc>
    <rc><c>Mo</c><c>   7</c></rc>
    <rc><c>Mo</c><c>   7</c></rc>
   </set>
  </array>
  <array name="atomtypes" >
   <dimension dim="1">type</dimension>
   <field type="int">atomspertype</field>
   <field type="string">element</field>
   <field>mass</field>
   <field>valence</field>
   <field type="string">pseudopotential</field>
   <set>
    <rc><c>   7</c><c>Hf</c><c>    178.49000000</c><c>     10.00000000</c><c> PAW_PBE Hf_pv 06Sep2000                </c></rc>
    <rc><c>   6</c><c>W </c><c>    183.85000000</c><c>     12.00000000</c><c> PAW_PBE W_pv 06Sep2000                 </c></rc>
    <rc><c>   7</c><c>Ti</c><c>     47.88000000</c><c>     12.00000000</c><c> PAW_PBE Ti_sv 07Sep2000                </c></rc>
    <rc><c>  13</c><c>N </c><c>     14.00100000</c><c>      5.00000000</c><c> PAW_PBE N 08Apr2002                    </c></rc>
    <rc><c>  19</c><c>C </c><c>     12.01100000</c><c>      4.00000000</c><c> PAW_PBE C 08Apr2002                    </c></rc>
    <rc><c>   6</c><c>Cr</c><c>     51.99600000</c><c>     12.00000000</c><c> PAW_PBE Cr_pv 07Sep2000                </c></rc>
    <rc><c>   6</c><c>Mo</c><c>     95.94000000</c><c>      6.00000000</c><c> PAW_PBE Mo 08Apr2002                   </c></rc>
   </set>
  </array>
 </atominfo>
 <structure name="initialpos" >
  <crystal>
   <varray name="basis" >
    <v>       8.71001623       0.00427956       0.00240674 </v>
    <v>       0.01012404       8.75453920       0.00174580 </v>
    <v>       0.03367313      -0.01345873       8.73150461 </v>
   </varray>
   <i name="volume">    665.79536515 </i>
   <varray name="rec_basis" >
    <v>       0.11481054      -0.00013268      -0.00044297 </v>
    <v>      -0.00005617       0.11422649       0.00017629 </v>
    <v>      -0.00003163      -0.00002280       0.11452789 </v>
   </varray>
  </crystal>
  <varray name="positions" >
   <v>       0.00210044       0.99876199       0.99312189 </v>
   <v>       0.26584305       0.00125125       0.24813742 </v>
   <v>       0.23938544       0.49455825       0.24438972 </v>
   <v>       0.50324486       0.50169746       0.00038892 </v>
   <v>       0.51289781       0.24552834       0.74113680 </v>
   <v>       0.99694032       0.50139025       0.50069000 </v>
   <v>       0.49667973       0.76208822       0.74933697 </v>
   <v>       0.98938632       0.22881494       0.26057347 </v>
   <v>       0.76422150       0.74420350       0.00157074 </v>
   <v>       0.01560536       0.24287434       0.74090992 </v>
   <v>       0.75373472       0.25600104       0.48047311 </v>
   <v>       0.99782008       0.73522072       0.75650983 </v>
   <v>       0.25459120       0.49397377       0.74925389 </v>
   <v>       0.25237670       0.24629710       0.98659852 </v>
   <v>       0.50882130       0.25550180       0.24994672 </v>
   <v>       0.73383430       0.99006834       0.26197485 </v>
   <v>       0.74758836       0.24635740       0.00056895 </v>
   <v>       0.24647728       0.74834949       0.99855962 </v>
   <v>       0.25518900       0.24954984       0.50677028 </v>
   <v>       0.24926316       0.75227709       0.50115469 </v>
   <v>       0.24704167       0.24753842       0.24844677 </v>
   <v>       0.25581877       0.00235083       0.99437697 </v>
   <v>       0.00131012       0.24922412       0.00401151 </v>
   <v>       0.74628781       0.24071849       0.24207422 </v>
   <v>       0.74574392       0.99577928       0.00871598 </v>
   <v>       0.50700934       0.00708871       0.24731872 </v>
   <v>       0.99143797       0.48722471       0.24672888 </v>
   <v>       0.50172229       0.75961674       0.00340928 </v>
   <v>       0.99114862       0.99166985       0.74765841 </v>
   <v>       0.76119917       0.22923338       0.74732212 </v>
   <v>       0.74740551       0.01195942       0.49131461 </v>
   <v>       0.50298687       0.24859986       0.49068588 </v>
   <v>       0.50758003       0.00346983       0.74667666 </v>
   <v>       0.99590945       0.99923983       0.25382156 </v>
   <v>       0.50373628       0.24387624       0.00060546 </v>
   <v>       0.25673644       0.74926366       0.24976170 </v>
   <v>       0.24116546       0.50028177       0.99198609 </v>
   <v>       0.00557727       0.74336674       0.00526096 </v>
   <v>       0.74044913       0.74711277       0.24840068 </v>
   <v>       0.76298958       0.49553046       0.01121911 </v>
   <v>       0.49244811       0.49927984       0.24865853 </v>
   <v>       0.25828308       0.24909227       0.74635780 </v>
   <v>       0.26004492       0.00109655       0.51316735 </v>
   <v>       0.00144753       0.24811514       0.50208675 </v>
   <v>       0.24214041       0.75459276       0.75141252 </v>
   <v>       0.25253047       0.50120293       0.50160458 </v>
   <v>       0.00114520       0.75551029       0.50512471 </v>
   <v>       0.00104743       0.48752027       0.75756251 </v>
   <v>       0.75252224       0.77031918       0.74772000 </v>
   <v>       0.74561255       0.49481641       0.51355234 </v>
   <v>       0.49753601       0.76272072       0.48724386 </v>
   <v>       0.50005477       0.50407477       0.74460527 </v>
   <v>       0.51858260       0.01354436       0.97851972 </v>
   <v>       0.99021270       0.51977602       0.97946132 </v>
   <v>       0.48971364       0.72685742       0.26320362 </v>
   <v>       0.22264686       0.02178472       0.73955088 </v>
   <v>       0.48221737       0.98891403       0.50712999 </v>
   <v>       0.72775870       0.99263265       0.78894484 </v>
   <v>       0.00532196       0.77028313       0.25430028 </v>
   <v>       0.73251116       0.50920598       0.25955910 </v>
   <v>       0.01807464       0.00265584       0.50563741 </v>
   <v>       0.50347150       0.51555755       0.48768277 </v>
   <v>       0.75608273       0.52485505       0.76656769 </v>
   <v>       0.74933714       0.73768163       0.49848441 </v>
  </varray>
 </structure>
 <calculation>
  <scstep>
   <time name="dav">   17.35   17.40</time>
   <time name="total">   17.38   17.44</time>
   <energy>
    <i name="alphaZ">   4039.15395196 </i>
    <i name="ewald"> -36154.71089410 </i>
    <i name="hartreedc">  -8258.47283622 </i>
    <i name="XCdc">   1295.95957623 </i>
    <i name="pawpsdc">  26859.32554568 </i>
    <i name="pawaedc"> -26460.21229990 </i>
    <i name="eentropy">     -0.09061945 </i>
    <i name="bandstr">   2540.49545243 </i>
    <i name="atom">  42113.85666951 </i>
    <i name="e_fr_energy">   5975.30454614 </i>
    <i name="e_wo_entrp">   5975.39516559 </i>
    <i name="e_0_energy">   5975.34985587 </i>
   </energy>
  </scstep>
  <scstep>
   <time name="dav">   18.08   18.11</time>
   <time name="total">   18.08   18.11</time>
   <energy>
    <i name="e_fr_energy">    329.81465977 </i>
    <i name="e_wo_entrp">    329.92359237 </i>
    <i name="e_0_energy">    329.86912607 </i>
   </energy>
  </scstep>
  <scstep>
   <time name="dav">   25.06   25.18</time>
   <time name="total">   25.06   25.18</time>
   <energy>
    <i name="e_fr_energy">   -647.55550106 </i>
    <i name="e_wo_entrp">   -647.44102825 </i>
    <i name="e_0_energy">   -647.49826465 </i>
   </energy>
  </scstep>
  <scstep>
   <time name="dav">   29.36   29.47</time>
   <time name="total">   29.36   29.47</time>
   <energy>
    <i name="e_fr_energy">   -776.83507872 </i>
    <i name="e_wo_entrp">   -776.74873971 </i>
    <i name="e_0_energy">   -776.79190921 </i>
   </energy>
  </scstep>
  <scstep>
   <time name="dav">   29.37   29.38</time>
   <time name="total">   29.63   29.63</time>
   <energy>
    <i name="e_fr_energy">   -788.39012999 </i>
    <i name="e_wo_entrp">   -788.29457084 </i>
    <i name="e_0_energy">   -788.34235041 </i>
   </energy>
  </scstep>
  <scstep>
   <time name="diag">    1.58    1.58</time>
   <time name="diis">   17.16   17.18</time>
   <time name="orth">    0.36    0.36</time>
   <time name="total">   19.37   19.39</time>
   <energy>
    <i name="e_fr_energy">   -837.93674907 </i>
    <i name="e_wo_entrp">   -837.80526690 </i>
    <i name="e_0_energy">   -837.87100798 </i>
   </energy>
  </scstep>
  <scstep>
   <time name="diag">    1.59    1.59</time>
   <time name="diis">   18.98   18.99</time>
   <time name="orth">    0.37    0.37</time>
   <time name="total">   21.21   21.22</time>
   <energy>
    <i name="e_fr_energy">   -666.78036620 </i>
    <i name="e_wo_entrp">   -666.65710443 </i>
    <i name="e_0_energy">   -666.71873531 </i>
   </energy>
  </scstep>
  <scstep>
   <time name="diag">    1.58    1.58</time>
   <time name="diis">   19.67   19.72</time>
   <time name="orth">    0.36    0.36</time>
   <time name="total">   21.89   21.93</time>
   <energy>
    <i name="e_fr_energy">   -647.74240828 </i>
    <i name="e_wo_entrp">   -647.61181666 </i>
    <i name="e_0_energy">   -647.67711247 </i>
   </energy>
  </scstep>
  <scstep>
   <time name="diag">    1.58    1.58</time>
   <time name="diis">   19.46   19.49</time>
   <time name="orth">    0.35    0.35</time>
   <time name="total">   21.66   21.70</time>
   <energy>
    <i name="e_fr_energy">   -646.84013149 </i>
    <i name="e_wo_entrp">   -646.73200440 </i>
    <i name="e_0_energy">   -646.78606795 </i>
   </energy>
  </scstep>
  <scstep>
   <time name="diag">    1.58    1.62</time>
   <time name="diis">   19.49   19.50</time>
   <time name="orth">    0.36    0.36</time>
   <time name="total">   21.71   21.75</time>
   <energy>
    <i name="e_fr_energy">   -644.89826058 </i>
    <i name="e_wo_entrp">   -644.77439384 </i>
    <i name="e_0_energy">   -644.83632721 </i>
   </energy>
  </scstep>
  <scstep>
   <time name="diag">    1.58    1.58</time>
   <time name="diis">   19.07   19.12</time>
   <time name="orth">    0.35    0.35</time>
   <time name="total">   21.27   21.33</time>
   <energy>
    <i name="e_fr_energy">   -646.29302329 </i>
    <i name="e_wo_entrp">   -646.16173385 </i>
    <i name="e_0_energy">   -646.22737857 </i>
   </energy>
  </scstep>
  <scstep>
   <time name="diag">    1.58    1.58</time>
   <time name="diis">   18.93   18.97</time>
   <time name="orth">    0.36    0.36</time>
   <time name="total">   21.14   21.18</time>
   <energy>
    <i name="e_fr_energy">   -644.28129493 </i>
    <i name="e_wo_entrp">   -644.16910455 </i>
    <i name="e_0_energy">   -644.22519974 </i>
   </energy>
  </scstep>
  <scstep>
   <time name="diag">    1.58    1.58</time>
   <time name="diis">   19.44   19.46</time>
   <time name="orth">    0.36    0.36</time>
   <time name="total">   21.65   21.67</time>
   <energy>
    <i name="e_fr_energy">   -644.63812981 </i>
    <i name="e_wo_entrp">   -644.50832427 </i>
    <i name="e_0_energy">   -644.57322704 </i>
   </energy>
  </scstep>
  <scstep>
   <time name="diag">    1.60    1.60</time>
   <time name="diis">   19.74   19.89</time>
   <time name="orth">    0.36    0.36</time>
   <time name="total">   21.97   22.12</time>
   <energy>
    <i name="e_fr_energy">   -644.18979080 </i>
    <i name="e_wo_entrp">   -644.06671406 </i>
    <i name="e_0_energy">   -644.12825243 </i>
   </energy>
  </scstep>
  <scstep>
   <time name="diag">    1.59    1.59</time>
   <time name="diis">   19.45   19.45</time>
   <time name="orth">    0.36    0.36</time>
   <time name="total">   21.67   21.68</time>
   <energy>
    <i name="e_fr_energy">   -644.39414059 </i>
    <i name="e_wo_entrp">   -644.25733202 </i>
    <i name="e_0_energy">   -644.32573630 </i>
   </energy>
  </scstep>
  <scstep>
   <time name="diag">    1.58    1.58</time>
   <time name="diis">   19.45   19.47</time>
   <time name="orth">    0.36    0.36</time>
   <time name="total">   21.65   21.68</time>
   <energy>
    <i name="e_fr_energy">   -644.08554104 </i>
    <i name="e_wo_entrp">   -643.96006434 </i>
    <i name="e_0_energy">   -644.02280269 </i>
   </energy>
  </scstep>
  <scstep>
   <time name="diag">    1.58    1.58</time>
   <time name="diis">   19.62   19.65</time>
   <time name="orth">    0.36    0.36</time>
   <time name="total">   21.83   21.86</time>
   <energy>
    <i name="e_fr_energy">   -644.09559599 </i>
    <i name="e_wo_entrp">   -643.96317073 </i>
    <i name="e_0_energy">   -644.02938336 </i>
   </energy>
  </scstep>
  <scstep>
   <time name="diag">    1.58    1.58</time>
   <time name="diis">   19.61   19.65</time>
   <time name="orth">    0.36    0.35</time>
   <time name="total">   21.81   21.86</time>
   <energy>
    <i name="e_fr_energy">   -644.07785128 </i>
    <i name="e_wo_entrp">   -643.95125292 </i>
    <i name="e_0_energy">   -644.01455210 </i>
   </energy>
  </scstep>
  <scstep>
   <time name="diag">    1.61    1.61</time>
   <time name="diis">   19.56   19.57</time>
   <time name="orth">    0.36    0.36</time>
   <time name="total">   21.80   21.82</time>
   <energy>
    <i name="e_fr_energy">   -644.08007629 </i>
    <i name="e_wo_entrp">   -643.95327151 </i>
    <i name="e_0_energy">   -644.01667390 </i>
   </energy>
  </scstep>
  <scstep>
   <time name="diag">    1.59    1.59</time>
   <time name="diis">   19.40   19.43</time>
   <time name="orth">    0.36    0.36</time>
   <time name="total">   21.62   21.66</time>
   <energy>
    <i name="e_fr_energy">   -644.08304107 </i>
    <i name="e_wo_entrp">   -643.95654005 </i>
    <i name="e_0_energy">   -644.01979056 </i>
   </energy>
  </scstep>
  <scstep>
   <time name="diag">    1.58    1.58</time>
   <time name="diis">   19.48   19.48</time>
   <time name="orth">    0.35    0.36</time>
   <time name="total">   21.69   21.69</time>
   <energy>
    <i name="e_fr_energy">   -644.08439335 </i>
    <i name="e_wo_entrp">   -643.95754682 </i>
    <i name="e_0_energy">   -644.02097008 </i>
   </energy>
  </scstep>
  <scstep>
   <time name="diag">    1.57    1.57</time>
   <time name="diis">   18.23   18.24</time>
   <time name="orth">    0.37    0.37</time>
   <time name="total">   20.48   20.49</time>
   <energy>
    <i name="e_fr_energy">   -644.08588866 </i>
    <i name="e_wo_entrp">   -643.95897748 </i>
    <i name="e_0_energy">   -644.02243307 </i>
   </energy>
  </scstep>
  <scstep>
   <time name="diag">    1.61    1.63</time>
   <time name="diis">   17.30   17.30</time>
   <time name="orth">    0.35    0.35</time>
   <time name="total">   19.55   19.57</time>
   <energy>
    <i name="e_fr_energy">   -644.08670522 </i>
    <i name="e_wo_entrp">   -643.95978974 </i>
    <i name="e_0_energy">   -644.02324748 </i>
   </energy>
  </scstep>
  <scstep>
   <time name="diag">    1.61    1.61</time>
   <time name="diis">   17.16   17.16</time>
   <time name="orth">    0.36    0.36</time>
   <time name="total">   19.40   19.40</time>
   <energy>
    <i name="e_fr_energy">   -644.08727831 </i>
    <i name="e_wo_entrp">   -643.96041140 </i>
    <i name="e_0_energy">   -644.02384485 </i>
   </energy>
  </scstep>
  <scstep>
   <time name="diag">    1.57    1.57</time>
   <time name="diis">   16.55   16.56</time>
   <time name="orth">    0.36    0.36</time>
   <time name="total">   18.76   18.77</time>
   <energy>
    <i name="e_fr_energy">   -644.08759966 </i>
    <i name="e_wo_entrp">   -643.96071017 </i>
    <i name="e_0_energy">   -644.02415491 </i>
   </energy>
  </scstep>
  <scstep>
   <time name="diag">    1.58    1.58</time>
   <time name="diis">   16.20   16.23</time>
   <time name="orth">    0.36    0.36</time>
   <time name="total">   18.42   18.45</time>
   <energy>
    <i name="e_fr_energy">   -644.08784246 </i>
    <i name="e_wo_entrp">   -643.96095698 </i>
    <i name="e_0_energy">   -644.02439972 </i>
   </energy>
  </scstep>
  <scstep>
   <time name="diag">    1.58    1.58</time>
   <time name="diis">   16.31   16.31</time>
   <time name="orth">    0.36    0.36</time>
   <time name="total">   18.52   18.52</time>
   <energy>
    <i name="e_fr_energy">   -644.08798527 </i>
    <i name="e_wo_entrp">   -643.96109555 </i>
    <i name="e_0_energy">   -644.02454041 </i>
   </energy>
  </scstep>
  <scstep>
   <time name="diag">    1.61    1.61</time>
   <time name="diis">   15.71   15.72</time>
   <time name="orth">    0.36    0.36</time>
   <time name="total">   17.95   17.96</time>
   <energy>
    <i name="e_fr_energy">   -644.08808845 </i>
    <i name="e_wo_entrp">   -643.96120024 </i>
    <i name="e_0_energy">   -644.02464434 </i>
   </energy>
  </scstep>
  <scstep>
   <time name="diag">    1.58    1.58</time>
   <time name="diis">   15.22   15.27</time>
   <time name="orth">    0.35    0.35</time>
   <time name="total">   17.43   17.48</time>
   <energy>
    <i name="e_fr_energy">   -644.08815131 </i>
    <i name="e_wo_entrp">   -643.96125406 </i>
    <i name="e_0_energy">   -644.02470269 </i>
   </energy>
  </scstep>
  <scstep>
   <time name="diag">    1.57    1.57</time>
   <time name="diis">   14.52   14.52</time>
   <time name="orth">    0.35    0.35</time>
   <time name="total">   16.72   16.73</time>
   <energy>
    <i name="e_fr_energy">   -644.08819463 </i>
    <i name="e_wo_entrp">   -643.96130059 </i>
    <i name="e_0_energy">   -644.02474761 </i>
   </energy>
  </scstep>
  <scstep>
   <time name="diag">    1.56    1.57</time>
   <time name="diis">   14.31   14.31</time>
   <time name="orth">    0.36    0.36</time>
   <time name="total">   16.52   16.52</time>
   <energy>
    <i name="e_fr_energy">   -644.08822252 </i>
    <i name="e_wo_entrp">   -643.96132587 </i>
    <i name="e_0_energy">   -644.02477420 </i>
   </energy>
  </scstep>
  <scstep>
   <time name="diag">    1.59    1.59</time>
   <time name="diis">   13.36   13.38</time>
   <time name="orth">    0.41    0.41</time>
   <time name="total">   15.65   15.68</time>
   <energy>
    <i name="e_fr_energy">   -644.08824091 </i>
    <i name="e_wo_entrp">   -643.96134503 </i>
    <i name="e_0_energy">   -644.02479297 </i>
   </energy>
  </scstep>
  <scstep>
   <time name="diag">    1.60    1.61</time>
   <time name="diis">   13.37   13.39</time>
   <time name="orth">    0.35    0.35</time>
   <time name="total">   15.60   15.63</time>
   <energy>
    <i name="e_fr_energy">   -644.08825303 </i>
    <i name="e_wo_entrp">   -643.96135451 </i>
    <i name="e_0_energy">   -644.02480377 </i>
   </energy>
  </scstep>
  <scstep>
   <time name="diag">    1.59    1.59</time>
   <time name="diis">   12.92   12.94</time>
   <time name="orth">    0.35    0.35</time>
   <time name="total">   14.90   14.93</time>
   <energy>
    <i name="alphaZ">   4039.15395196 </i>
    <i name="ewald"> -36154.71089410 </i>
    <i name="hartreedc">  -7807.57877529 </i>
    <i name="XCdc">   1291.64077238 </i>
    <i name="pawpsdc">  28938.12731437 </i>
    <i name="pawaedc"> -28590.16680069 </i>
    <i name="eentropy">     -0.12689748 </i>
    <i name="bandstr">  -4474.28360171 </i>
    <i name="atom">  42113.85666951 </i>
    <i name="e_fr_energy">   -644.08826105 </i>
    <i name="e_wo_entrp">   -643.96136357 </i>
    <i name="e_0_energy">   -644.02481231 </i>
   </energy>
  </scstep>
  <structure>
   <crystal>
    <varray name="basis" >
     <v>       8.71001623       0.00427956       0.00240674 </v>
     <v>       0.01012404       8.75453920       0.00174580 </v>
     <v>       0.03367313      -0.01345873       8.73150461 </v>
    </varray>
    <i name="volume">    665.79536515 </i>
    <varray name="rec_basis" >
     <v>       0.11481054      -0.00013268      -0.00044297 </v>
     <v>      -0.00005617       0.11422649       0.00017629 </v>
     <v>      -0.00003163      -0.00002280       0.11452789 </v>
    </varray>
   </crystal>
   <varray name="positions" >
    <v>       0.00210044       0.99876199       0.99312189 </v>
    <v>       0.26584305       0.00125125       0.24813742 </v>
    <v>       0.23938544       0.49455825       0.24438972 </v>
    <v>       0.50324486       0.50169746       0.00038892 </v>
    <v>       0.51289781       0.24552834       0.74113680 </v>
    <v>       0.99694032       0.50139025       0.50069000 </v>
    <v>       0.49667973       0.76208822       0.74933697 </v>
    <v>       0.98938632       0.22881494       0.26057347 </v>
    <v>       0.76422150       0.74420350       0.00157074 </v>
    <v>       0.01560536       0.24287434       0.74090992 </v>
    <v>       0.75373472       0.25600104       0.48047311 </v>
    <v>       0.99782008       0.73522072       0.75650983 </v>
    <v>       0.25459120       0.49397377       0.74925389 </v>
    <v>       0.25237670       0.24629710       0.98659852 </v>
    <v>       0.50882130       0.25550180       0.24994672 </v>
    <v>       0.73383430       0.99006834       0.26197485 </v>
    <v>       0.74758836       0.24635740       0.00056895 </v>
    <v>       0.24647728       0.74834949       0.99855962 </v>
    <v>       0.25518900       0.24954984       0.50677028 </v>
    <v>       0.24926316       0.75227709       0.50115469 </v>
    <v>       0.24704167       0.24753842       0.24844677 </v>
    <v>       0.25581877       0.00235083       0.99437697 </v>
    <v>       0.00131012       0.24922412       0.00401151 </v>
    <v>       0.74628781       0.24071849       0.24207422 </v>
    <v>       0.74574392       0.99577928       0.00871598 </v>
    <v>       0.50700934       0.00708871       0.24731872 </v>
    <v>       0.99143797       0.48722471       0.24672888 </v>
    <v>       0.50172229       0.75961674       0.00340928 </v>
    <v>       0.99114862       0.99166985       0.74765841 </v>
    <v>       0.76119917       0.22923338       0.74732212 </v>
    <v>       0.74740551       0.01195942       0.49131461 </v>
    <v>       0.50298687       0.24859986       0.49068588 </v>
    <v>       0.50758003       0.00346983       0.74667666 </v>
    <v>       0.99590945       0.99923983       0.25382156 </v>
    <v>       0.50373628       0.24387624       0.00060546 </v>
    <v>       0.25673644       0.74926366       0.24976170 </v>
    <v>       0.24116546       0.50028177       0.99198609 </v>
    <v>       0.00557727       0.74336674       0.00526096 </v>
    <v>       0.74044913       0.74711277       0.24840068 </v>
    <v>       0.76298958       0.49553046       0.01121911 </v>
    <v>       0.49244811       0.49927984       0.24865853 </v>
    <v>       0.25828308       0.24909227       0.74635780 </v>
    <v>       0.26004492       0.00109655       0.51316735 </v>
    <v>       0.00144753       0.24811514       0.50208675 </v>
    <v>       0.24214041       0.75459276       0.75141252 </v>
    <v>       0.25253047       0.50120293       0.50160458 </v>
    <v>       0.00114520       0.75551029       0.50512471 </v>
    <v>       0.00104743       0.48752027       0.75756251 </v>
    <v>       0.75252224       0.77031918       0.74772000 </v>
    <v>       0.74561255       0.49481641       0.51355234 </v>
    <v>       0.49753601       0.76272072       0.48724386 </v>
    <v>       0.50005477       0.50407477       0.74460527 </v>
    <v>       0.51858260       0.01354436       0.97851972 </v>
    <v>       0.99021270       0.51977602       0.97946132 </v>
    <v>       0.48971364       0.72685742       0.26320362 </v>
    <v>       0.22264686       0.02178472       0.73955088 </v>
    <v>       0.48221737       0.98891403       0.50712999 </v>
    <v>       0.72775870       0.99263265       0.78894484 </v>
    <v>       0.00532196       0.77028313       0.25430028 </v>
    <v>       0.73251116       0.50920598       0.25955910 </v>
    <v>       0.01807464       0.00265584       0.50563741 </v>
    <v>       0.50347150       0.51555755       0.48768277 </v>
    <v>       0.75608273       0.52485505       0.76656769 </v>
    <v>       0.74933714       0.73768163       0.49848441 </v>
   </varray>
  </structure>
  <varray name="forces" >
   <v>      -0.00204959      -0.00095071       0.00597069 </v>
   <v>      -0.01128179      -0.00075848       0.00158695 </v>
   <v>       0.00065202      -0.00055039      -0.00180798 </v>
   <v>      -0.00174847      -0.00374579      -0.00433361 </v>
   <v>      -0.00099974       0.00806604       0.00115308 </v>
   <v>       0.00391940      -0.00162993      -0.00077351 </v>
   <v>      -0.00075361      -0.00513452      -0.00286824 </v>
   <v>       0.00921527       0.01736103      -0.01242449 </v>
   <v>      -0.01701977       0.00970849       0.00170053 </v>
   <v>      -0.01212651       0.00094530       0.01625138 </v>
   <v>      -0.00983796       0.00209501       0.02053782 </v>
   <v>       0.00029093       0.00782482      -0.00572573 </v>
   <v>       0.00342878       0.00636536      -0.00319601 </v>
   <v>       0.00259923       0.00233378       0.00805784 </v>
   <v>      -0.00890513       0.00168403      -0.00514789 </v>
   <v>       0.00659753      -0.00157726      -0.00172395 </v>
   <v>       0.00193341      -0.00041514      -0.00183389 </v>
   <v>       0.00415561       0.00178080       0.00152869 </v>
   <v>       0.00076903      -0.00051676      -0.00970754 </v>
   <v>       0.00152131      -0.00183741      -0.00149418 </v>
   <v>       0.00141308       0.00024089      -0.00244981 </v>
   <v>       0.01692040      -0.00481691      -0.01244938 </v>
   <v>       0.00023029       0.02487305       0.00392809 </v>
   <v>      -0.00443315      -0.00019398      -0.01191854 </v>
   <v>      -0.00494709       0.00104827       0.01186447 </v>
   <v>       0.00779501      -0.01490570      -0.00654473 </v>
   <v>      -0.01034551       0.00087525      -0.01783273 </v>
   <v>       0.00147891       0.01736245       0.01513860 </v>
   <v>      -0.01389156      -0.00496955      -0.00501815 </v>
   <v>       0.01040951       0.00608252      -0.00742403 </v>
   <v>      -0.00303989      -0.00857276       0.02380919 </v>
   <v>      -0.00338046      -0.00548727      -0.00617833 </v>
   <v>      -0.01682687       0.00083396      -0.00694069 </v>
   <v>      -0.00603177       0.00128184      -0.00106822 </v>
   <v>      -0.00324394      -0.00350240       0.00550306 </v>
   <v>       0.00562686      -0.00168422      -0.00222168 </v>
   <v>      -0.00914163      -0.00309955       0.00529022 </v>
   <v>       0.01049172      -0.00595835       0.00661944 </v>
   <v>      -0.00361264       0.00856946       0.00293789 </v>
   <v>       0.00249206      -0.00841741       0.00847646 </v>
   <v>      -0.00822288      -0.00182468      -0.00537878 </v>
   <v>       0.00883722      -0.00531907       0.00017009 </v>
   <v>       0.00465240      -0.00071392       0.00192659 </v>
   <v>       0.00678869       0.00136904       0.00030765 </v>
   <v>       0.00147011       0.01035854      -0.00092318 </v>
   <v>       0.00048077       0.00034947      -0.00606851 </v>
   <v>       0.00312272       0.00399116       0.00255693 </v>
   <v>       0.00178222      -0.00677235       0.00617942 </v>
   <v>      -0.00042749       0.01334282      -0.00441352 </v>
   <v>       0.00276917       0.00080136       0.00781450 </v>
   <v>       0.00073730       0.00690038      -0.00011165 </v>
   <v>       0.00395023       0.00064806      -0.00371435 </v>
   <v>      -0.01020346      -0.00417247       0.01173634 </v>
   <v>       0.00929369      -0.01646855       0.00898421 </v>
   <v>      -0.01117748       0.02008231      -0.02690796 </v>
   <v>       0.01729179      -0.00959733       0.01990922 </v>
   <v>       0.01888540       0.00456686      -0.01932278 </v>
   <v>       0.00577329       0.01206244      -0.01424734 </v>
   <v>      -0.00114472      -0.03186928       0.00054281 </v>
   <v>       0.01470131      -0.01356217      -0.00085921 </v>
   <v>      -0.01024973      -0.00549415      -0.00300962 </v>
   <v>      -0.00539657      -0.01425704       0.01346098 </v>
   <v>      -0.00799618      -0.02784979      -0.00672247 </v>
   <v>       0.00595890       0.02282050       0.00881952 </v>
  </varray>
  <varray name="stress" >
   <v>      -0.40789438       0.18999933       0.02840342 </v>
   <v>       0.18999972      -1.04999311       0.10019938 </v>
   <v>       0.02840262       0.10019788      -0.16612435 </v>
  </varray>
  <energy>
   <i name="e_fr_energy">   -644.08826105 </i>
   <i name="e_wo_entrp">   -644.02481231 </i>
   <i name="e_0_energy">     -0.12689748 </i>
  </energy>
  <time name="totalsc">  731.98  733.33</time>
 </calculation>
 <calculation>
  <scstep>
   <time name="dav">   23.18   23.22</time>
   <time name="total">   23.47   23.51</time>
   <energy>
    <i name="alphaZ">   4041.20950992 </i>
    <i name="ewald"> -36162.42743247 </i>
    <i name="hartreedc">  -7807.67449751 </i>
    <i name="XCdc">   1291.91954126 </i>
    <i name="pawpsdc">  28938.14565699 </i>
    <i name="pawaedc"> -28590.17764745 </i>
    <i name="eentropy">     -0.12741483 </i>
    <i name="bandstr">  -4468.81023217 </i>
    <i name="atom">  42113.85666951 </i>
    <i name="e_fr_energy">   -644.08584675 </i>
    <i name="e_wo_entrp">   -643.95843192 </i>
    <i name="e_0_energy">   -644.02213934 </i>
   </energy>
  </scstep>
  <scstep>
   <time name="diag">    1.58    1.58</time>
   <time name="diis">   16.79   16.81</time>
   <time name="orth">    0.36    0.36</time>
   <time name="total">   19.00   19.03</time>
   <energy>
    <i name="e_fr_energy">   -644.10123817 </i>
    <i name="e_wo_entrp">   -643.97540762 </i>
    <i name="e_0_energy">   -644.03832289 </i>
   </energy>
  </scstep>
  <scstep>
   <time name="diag">    1.59    1.59</time>
   <time name="diis">   15.76   15.78</time>
   <time name="orth">    0.38    0.38</time>
   <time name="total">   18.00   18.03</time>
   <energy>
    <i name="e_fr_energy">   -644.09016861 </i>
    <i name="e_wo_entrp">   -643.96214090 </i>
    <i name="e_0_energy">   -644.02615476 </i>
   </energy>
  </scstep>
  <scstep>
   <time name="diag">    1.57    1.57</time>
   <time name="diis">   17.90   17.93</time>
   <time name="orth">    0.35    0.36</time>
   <time name="total">   20.10   20.13</time>
   <energy>
    <i name="e_fr_energy">   -644.08922247 </i>
    <i name="e_wo_entrp">   -643.96230301 </i>
    <i name="e_0_energy">   -644.02576274 </i>
   </energy>
  </scstep>
  <scstep>
   <time name="diag">    1.57    1.58</time>
   <time name="diis">   17.04   17.10</time>
   <time name="orth">    0.35    0.35</time>
   <time name="total">   19.24   19.30</time>
   <energy>
    <i name="e_fr_energy">   -644.08914525 </i>
    <i name="e_wo_entrp">   -643.96176688 </i>
    <i name="e_0_energy">   -644.02545607 </i>
   </energy>
  </scstep>
  <scstep>
   <time name="diag">    1.61    1.62</time>
   <time name="diis">   14.25   14.25</time>
   <time name="orth">    0.37    0.37</time>
   <time name="total">   16.52   16.52</time>
   <energy>
    <i name="e_fr_energy">   -644.08885226 </i>
    <i name="e_wo_entrp">   -643.96178356 </i>
    <i name="e_0_energy">   -644.02531791 </i>
   </energy>
  </scstep>
  <scstep>
   <time name="diag">    1.62    1.63</time>
   <time name="diis">   17.44   17.47</time>
   <time name="orth">    0.35    0.35</time>
   <time name="total">   19.69   19.74</time>
   <energy>
    <i name="e_fr_energy">   -644.08888475 </i>
    <i name="e_wo_entrp">   -643.96137090 </i>
    <i name="e_0_energy">   -644.02512783 </i>
   </energy>
  </scstep>
  <scstep>
   <time name="diag">    1.58    1.58</time>
   <time name="diis">   13.27   13.27</time>
   <time name="orth">    0.36    0.36</time>
   <time name="total">   15.48   15.48</time>
   <energy>
    <i name="e_fr_energy">   -644.08884722 </i>
    <i name="e_wo_entrp">   -643.96186671 </i>
    <i name="e_0_energy">   -644.02535697 </i>
   </energy>
  </scstep>
  <scstep>
   <time name="diag">    1.57    1.57</time>
   <time name="diis">   14.60   14.61</time>
   <time name="orth">    0.36    0.36</time>
   <time name="total">   16.81   16.82</time>
   <energy>
    <i name="e_fr_energy">   -644.08881977 </i>
    <i name="e_wo_entrp">   -643.96169130 </i>
    <i name="e_0_energy">   -644.02525553 </i>
   </energy>
  </scstep>
  <scstep>
   <time name="diag">    1.63    1.69</time>
   <time name="diis">   10.05   10.09</time>
   <time name="orth">    0.35    0.35</time>
   <time name="total">   12.31   12.41</time>
   <energy>
    <i name="e_fr_energy">   -644.08880349 </i>
    <i name="e_wo_entrp">   -643.96165240 </i>
    <i name="e_0_energy">   -644.02522795 </i>
   </energy>
  </scstep>
  <scstep>
   <time name="diag">    1.58    1.58</time>
   <time name="diis">   10.00   10.01</time>
   <time name="orth">    0.36    0.36</time>
   <time name="total">   11.97   11.98</time>
   <energy>
    <i name="alphaZ">   4041.20950992 </i>
    <i name="ewald"> -36162.42743247 </i>
    <i name="hartreedc">  -7804.37225570 </i>
    <i name="XCdc">   1291.73489732 </i>
    <i name="pawpsdc">  28940.73717390 </i>
    <i name="pawaedc"> -28592.73798866 </i>
    <i name="eentropy">     -0.12715360 </i>
    <i name="bandstr">  -4471.96222697 </i>
    <i name="atom">  42113.85666951 </i>
    <i name="e_fr_energy">   -644.08880676 </i>
    <i name="e_wo_entrp">   -643.96165316 </i>
    <i name="e_0_energy">   -644.02522996 </i>
   </energy>
  </scstep>
  <structure>
   <crystal>
    <varray name="basis" >
     <v>       8.70890362       0.00479661       0.00248424 </v>
     <v>       0.01064380       8.75166046       0.00202057 </v>
     <v>       0.03374571      -0.01317825       8.73105013 </v>
    </varray>
    <i name="volume">    665.45670888 </i>
    <varray name="rec_basis" >
     <v>       0.11482522      -0.00013955      -0.00044401 </v>
     <v>      -0.00006298       0.11426407       0.00017271 </v>
     <v>      -0.00003266      -0.00002640       0.11453385 </v>
    </varray>
   </crystal>
   <varray name="positions" >
    <v>       0.00208896       0.99875680       0.99315488 </v>
    <v>       0.26578054       0.00124711       0.24814620 </v>
    <v>       0.23938909       0.49455520       0.24437973 </v>
    <v>       0.50323530       0.50167678       0.00036498 </v>
    <v>       0.51289219       0.24557280       0.74114317 </v>
    <v>       0.99696206       0.50138125       0.50068573 </v>
    <v>       0.49667565       0.76205991       0.74932113 </v>
    <v>       0.98943751       0.22891048       0.26050479 </v>
    <v>       0.76412714       0.74425706       0.00158015 </v>
    <v>       0.01553784       0.24287972       0.74099973 </v>
    <v>       0.75367978       0.25601278       0.48058660 </v>
    <v>       0.99782176       0.73526379       0.75647818 </v>
    <v>       0.25461021       0.49400881       0.74923621 </v>
    <v>       0.25239091       0.24631002       0.98664304 </v>
    <v>       0.50877208       0.25551106       0.24991829 </v>
    <v>       0.73387089       0.99005961       0.26196531 </v>
    <v>       0.74759911       0.24635509       0.00055881 </v>
    <v>       0.24650026       0.74835931       0.99856806 </v>
    <v>       0.25519347       0.24954691       0.50671664 </v>
    <v>       0.24927163       0.75226694       0.50114644 </v>
    <v>       0.24704955       0.24753973       0.24843323 </v>
    <v>       0.25591279       0.00232413       0.99430817 </v>
    <v>       0.00131116       0.24936122       0.00403319 </v>
    <v>       0.74626351       0.24071733       0.24200838 </v>
    <v>       0.74571626       0.99578517       0.00878154 </v>
    <v>       0.50705275       0.00700649       0.24728257 </v>
    <v>       0.99138105       0.48722941       0.24663037 </v>
    <v>       0.50173005       0.75971255       0.00349290 </v>
    <v>       0.99107181       0.99164246       0.74763071 </v>
    <v>       0.76125694       0.22926681       0.74728108 </v>
    <v>       0.74738822       0.01191239       0.49144617 </v>
    <v>       0.50296832       0.24856958       0.49065175 </v>
    <v>       0.50748697       0.00347441       0.74663834 </v>
    <v>       0.99587606       0.99924690       0.25381566 </v>
    <v>       0.50371822       0.24385699       0.00063587 </v>
    <v>       0.25676766       0.74925434       0.24974942 </v>
    <v>       0.24111473       0.50026476       0.99201533 </v>
    <v>       0.00563528       0.74333394       0.00529752 </v>
    <v>       0.74042901       0.74716003       0.24841691 </v>
    <v>       0.76300326       0.49548414       0.01126595 </v>
    <v>       0.49240269       0.49926976       0.24862883 </v>
    <v>       0.25833206       0.24906294       0.74635873 </v>
    <v>       0.26007065       0.00109262       0.51317799 </v>
    <v>       0.00148511       0.24812267       0.50208843 </v>
    <v>       0.24214851       0.75464983       0.75140741 </v>
    <v>       0.25253326       0.50120480       0.50157105 </v>
    <v>       0.00116242       0.75553230       0.50513882 </v>
    <v>       0.00105721       0.48748300       0.75759665 </v>
    <v>       0.75251988       0.77039267       0.74769560 </v>
    <v>       0.74562771       0.49482089       0.51359551 </v>
    <v>       0.49754006       0.76275874       0.48724324 </v>
    <v>       0.50007673       0.50407830       0.74458474 </v>
    <v>       0.51852586       0.01352150       0.97858459 </v>
    <v>       0.99026409       0.51968532       0.97951097 </v>
    <v>       0.48965218       0.72696789       0.26305495 </v>
    <v>       0.22274227       0.02173195       0.73966087 </v>
    <v>       0.48232235       0.98893898       0.50702319 </v>
    <v>       0.72779090       0.99269899       0.78886610 </v>
    <v>       0.00531582       0.77010752       0.25430331 </v>
    <v>       0.73259269       0.50913120       0.25955434 </v>
    <v>       0.01801796       0.00262556       0.50562080 </v>
    <v>       0.50344142       0.51547912       0.48775717 </v>
    <v>       0.75603877       0.52470154       0.76653059 </v>
    <v>       0.74936981       0.73780745       0.49853311 </v>
   </varray>
  </structure>
  <varray name="forces" >
   <v>      -0.00261750      -0.00323881       0.00291270 </v>
   <v>      -0.00507927      -0.00459498       0.00297658 </v>
   <v>       0.00373884       0.00441940      -0.00199610 </v>
   <v>      -0.00016446      -0.00231528       0.00321491 </v>
   <v>      -0.00171708      -0.00323949       0.00308662 </v>
   <v>       0.00220211      -0.00140563       0.00730811 </v>
   <v>       0.00402574       0.00626078      -0.00183328 </v>
   <v>      -0.00545958       0.00713329      -0.00068759 </v>
   <v>      -0.00045766       0.00014956      -0.00396331 </v>
   <v>       0.01027310      -0.00148456       0.00282074 </v>
   <v>       0.00291276      -0.00266451      -0.00461424 </v>
   <v>      -0.00552873      -0.00264242       0.00549970 </v>
   <v>      -0.00195669       0.00073755       0.00011766 </v>
   <v>       0.00373547       0.00247256      -0.00006473 </v>
   <v>      -0.00274355      -0.00067357      -0.00433721 </v>
   <v>       0.00624981       0.00086622       0.00118744 </v>
   <v>      -0.00055701      -0.00043990       0.00029091 </v>
   <v>       0.00452179       0.00244259       0.00109858 </v>
   <v>      -0.00052783      -0.00395879       0.00243253 </v>
   <v>       0.00362914       0.00152768      -0.00338574 </v>
   <v>       0.00184127      -0.00021226      -0.00168589 </v>
   <v>       0.00997123      -0.00397599      -0.00592891 </v>
   <v>       0.00051041       0.01810253       0.00242731 </v>
   <v>      -0.00258614      -0.00082478       0.00538000 </v>
   <v>      -0.00099638       0.00466077      -0.00019366 </v>
   <v>      -0.00102853      -0.01385380      -0.00747495 </v>
   <v>      -0.00391120       0.00509901      -0.01092365 </v>
   <v>       0.00203944       0.01168748       0.00960934 </v>
   <v>      -0.00751369      -0.00396055       0.00341606 </v>
   <v>       0.00394993       0.00948588      -0.00858089 </v>
   <v>      -0.00165894      -0.00905058       0.01934611 </v>
   <v>      -0.00283104      -0.00450863      -0.00268076 </v>
   <v>      -0.01381041       0.00303468      -0.00220707 </v>
   <v>      -0.00088249      -0.00788221      -0.00144254 </v>
   <v>      -0.00243806      -0.00017292       0.00152302 </v>
   <v>      -0.00126380      -0.00182401      -0.00123984 </v>
   <v>      -0.00073625      -0.00228240      -0.00013113 </v>
   <v>      -0.00567375      -0.00591851      -0.00228787 </v>
   <v>      -0.00286441       0.00222556       0.00322288 </v>
   <v>      -0.00051645      -0.00308882       0.00015636 </v>
   <v>       0.00760550       0.00732624       0.00404067 </v>
   <v>      -0.00356316      -0.00240418      -0.00072422 </v>
   <v>       0.00393411       0.00027622       0.00007470 </v>
   <v>       0.00351621      -0.00003178       0.00044412 </v>
   <v>       0.00160662       0.00854721      -0.00137255 </v>
   <v>      -0.00117774      -0.00048966      -0.00242360 </v>
   <v>       0.00412842      -0.00533629       0.00308589 </v>
   <v>       0.00358336       0.00203423      -0.00095330 </v>
   <v>      -0.00046943       0.00027464      -0.00109363 </v>
   <v>       0.00229017       0.00808846       0.00228642 </v>
   <v>       0.00190680      -0.00162900      -0.00798038 </v>
   <v>       0.00105418      -0.00145629      -0.00025776 </v>
   <v>      -0.00581774      -0.00469782       0.00495865 </v>
   <v>       0.00105854      -0.00882801       0.00201372 </v>
   <v>      -0.00900707       0.00437500      -0.01374119 </v>
   <v>       0.00340932      -0.01010435       0.01364021 </v>
   <v>       0.00912716       0.00147427      -0.01832310 </v>
   <v>      -0.00228688       0.00990731       0.00375314 </v>
   <v>       0.00263189      -0.00539482      -0.00305395 </v>
   <v>      -0.00642381      -0.00727239       0.00407168 </v>
   <v>      -0.00254502       0.00387604      -0.00378659 </v>
   <v>      -0.00165571       0.00152709      -0.01158270 </v>
   <v>      -0.00198675      -0.00586877       0.00657006 </v>
   <v>       0.00500093       0.00971450       0.00798550 </v>
  </varray>
  <varray name="stress" >
   <v>       0.40928099      -0.00382156      -0.01293824 </v>
   <v>      -0.00382312       0.46004575       0.08029993 </v>
   <v>      -0.01293750       0.08030044       0.21053730 </v>
  </varray>
  <energy>
   <i name="e_fr_energy">   -644.08880676 </i>
   <i name="e_wo_entrp">   -644.02522996 </i>
   <i name="e_0_energy">     -0.12715360 </i>
  </energy>
  <time name="totalsc">  231.21  231.66</time>
 </calculation>
 <calculation>
  <scstep>
   <time name="dav">   22.74   22.81</time>
   <time name="total">   23.02   23.10</time>
   <energy>
    <i name="alphaZ">   4041.61820363 </i>
    <i name="ewald"> -36163.95871191 </i>
    <i name="hartreedc">  -7804.39945084 </i>
    <i name="XCdc">   1291.79087805 </i>
    <i name="pawpsdc">  28940.80938052 </i>
    <i name="pawaedc"> -28592.80628831 </i>
    <i name="eentropy">     -0.12725003 </i>
    <i name="bandstr">  -4470.87213432 </i>
    <i name="atom">  42113.85666951 </i>
    <i name="e_fr_energy">   -644.08870368 </i>
    <i name="e_wo_entrp">   -643.96145365 </i>
    <i name="e_0_energy">   -644.02507866 </i>
   </energy>
  </scstep>
  <scstep>
   <time name="diag">    1.58    1.58</time>
   <time name="diis">   16.36   16.39</time>
   <time name="orth">    0.35    0.35</time>
   <time name="total">   18.57   18.60</time>
   <energy>
    <i name="e_fr_energy">   -644.08940435 </i>
    <i name="e_wo_entrp">   -643.96246703 </i>
    <i name="e_0_energy">   -644.02593569 </i>
   </energy>
  </scstep>
  <scstep>
   <time name="diag">    1.58    1.58</time>
   <time name="diis">   12.44   12.49</time>
   <time name="orth">    0.35    0.35</time>
   <time name="total">   14.65   14.70</time>
   <energy>
    <i name="e_fr_energy">   -644.08887505 </i>
    <i name="e_wo_entrp">   -643.96149356 </i>
    <i name="e_0_energy">   -644.02518431 </i>
   </energy>
  </scstep>
  <scstep>
   <time name="diag">    1.59    1.59</time>
   <time name="diis">   12.00   12.04</time>
   <time name="orth">    0.38    0.38</time>
   <time name="total">   14.23   14.28</time>
   <energy>
    <i name="e_fr_energy">   -644.08883098 </i>
    <i name="e_wo_entrp">   -643.96167873 </i>
    <i name="e_0_energy">   -644.02525485 </i>
   </energy>
  </scstep>
  <scstep>
   <time name="diag">    1.58    1.58</time>
   <time name="diis">    9.51    9.53</time>
   <time name="orth">    0.35    0.35</time>
   <time name="total">   11.47   11.49</time>
   <energy>
    <i name="alphaZ">   4041.61820363 </i>
    <i name="ewald"> -36163.95871191 </i>
    <i name="hartreedc">  -7803.94053051 </i>
    <i name="XCdc">   1291.76647648 </i>
    <i name="pawpsdc">  28941.19167924 </i>
    <i name="pawaedc"> -28593.15640760 </i>
    <i name="eentropy">     -0.12726301 </i>
    <i name="bandstr">  -4471.33894780 </i>
    <i name="atom">  42113.85666951 </i>
    <i name="e_fr_energy">   -644.08883197 </i>
    <i name="e_wo_entrp">   -643.96156896 </i>
    <i name="e_0_energy">   -644.02520047 </i>
   </energy>
  </scstep>
  <structure>
   <crystal>
    <varray name="basis" >
     <v>       8.70868251       0.00489937       0.00249965 </v>
     <v>       0.01074709       8.75108837       0.00207518 </v>
     <v>       0.03376014      -0.01312251       8.73095981 </v>
    </varray>
    <i name="volume">    665.38941702 </i>
    <varray name="rec_basis" >
     <v>       0.11482814      -0.00014091      -0.00044422 </v>
     <v>      -0.00006434       0.11427154       0.00017200 </v>
     <v>      -0.00003286      -0.00002712       0.11453503 </v>
    </varray>
   </crystal>
   <varray name="positions" >
    <v>       0.00208668       0.99875577       0.99316144 </v>
    <v>       0.26576811       0.00124629       0.24814795 </v>
    <v>       0.23938982       0.49455460       0.24437775 </v>
    <v>       0.50323340       0.50167267       0.00036023 </v>
    <v>       0.51289108       0.24558164       0.74114443 </v>
    <v>       0.99696638       0.50137946       0.50068488 </v>
    <v>       0.49667483       0.76205428       0.74931798 </v>
    <v>       0.98944769       0.22892947       0.26049114 </v>
    <v>       0.76410838       0.74426771       0.00158202 </v>
    <v>       0.01552442       0.24288079       0.74101758 </v>
    <v>       0.75366886       0.25601512       0.48060916 </v>
    <v>       0.99782210       0.73527235       0.75647189 </v>
    <v>       0.25461399       0.49401577       0.74923270 </v>
    <v>       0.25239374       0.24631259       0.98665188 </v>
    <v>       0.50876230       0.25551290       0.24991264 </v>
    <v>       0.73387816       0.99005788       0.26196342 </v>
    <v>       0.74760125       0.24635463       0.00055680 </v>
    <v>       0.24650482       0.74836126       0.99856974 </v>
    <v>       0.25519436       0.24954632       0.50670598 </v>
    <v>       0.24927331       0.75226493       0.50114480 </v>
    <v>       0.24705111       0.24753998       0.24843054 </v>
    <v>       0.25593147       0.00231882       0.99429449 </v>
    <v>       0.00131136       0.24938848       0.00403750 </v>
    <v>       0.74625868       0.24071710       0.24199529 </v>
    <v>       0.74571076       0.99578634       0.00879457 </v>
    <v>       0.50706138       0.00699015       0.24727538 </v>
    <v>       0.99136973       0.48723035       0.24661079 </v>
    <v>       0.50173159       0.75973159       0.00350952 </v>
    <v>       0.99105655       0.99163702       0.74762521 </v>
    <v>       0.76126843       0.22927345       0.74727293 </v>
    <v>       0.74738478       0.01190304       0.49147232 </v>
    <v>       0.50296463       0.24856356       0.49064497 </v>
    <v>       0.50746848       0.00347532       0.74663072 </v>
    <v>       0.99586942       0.99924831       0.25381449 </v>
    <v>       0.50371463       0.24385317       0.00064192 </v>
    <v>       0.25677387       0.74925249       0.24974697 </v>
    <v>       0.24110465       0.50026137       0.99202114 </v>
    <v>       0.00564681       0.74332741       0.00530479 </v>
    <v>       0.74042500       0.74716943       0.24842014 </v>
    <v>       0.76300598       0.49547493       0.01127525 </v>
    <v>       0.49239366       0.49926776       0.24862292 </v>
    <v>       0.25834180       0.24905711       0.74635892 </v>
    <v>       0.26007576       0.00109184       0.51318010 </v>
    <v>       0.00149258       0.24812416       0.50208877 </v>
    <v>       0.24215012       0.75466118       0.75140639 </v>
    <v>       0.25253382       0.50120518       0.50156439 </v>
    <v>       0.00116584       0.75553667       0.50514163 </v>
    <v>       0.00105916       0.48747559       0.75760344 </v>
    <v>       0.75251941       0.77040728       0.74769076 </v>
    <v>       0.74563073       0.49482177       0.51360409 </v>
    <v>       0.49754086       0.76276630       0.48724311 </v>
    <v>       0.50008109       0.50407900       0.74458066 </v>
    <v>       0.51851458       0.01351695       0.97859748 </v>
    <v>       0.99027431       0.51966729       0.97952083 </v>
    <v>       0.48963996       0.72698985       0.26302540 </v>
    <v>       0.22276123       0.02172146       0.73968273 </v>
    <v>       0.48234322       0.98894394       0.50700197 </v>
    <v>       0.72779731       0.99271217       0.78885045 </v>
    <v>       0.00531460       0.77007261       0.25430392 </v>
    <v>       0.73260890       0.50911633       0.25955340 </v>
    <v>       0.01800670       0.00261954       0.50561750 </v>
    <v>       0.50343544       0.51546352       0.48777195 </v>
    <v>       0.75603003       0.52467103       0.76652322 </v>
    <v>       0.74937630       0.73783246       0.49854279 </v>
   </varray>
  </structure>
  <varray name="forces" >
   <v>      -0.00314397      -0.00492651       0.00067894 </v>
   <v>      -0.00237792      -0.00586548       0.00226772 </v>
   <v>       0.00473580       0.00564245      -0.00128761 </v>
   <v>       0.00071459      -0.00152217       0.00514217 </v>
   <v>      -0.00080530      -0.00792221       0.00505034 </v>
   <v>       0.00178768      -0.00047521       0.01033879 </v>
   <v>       0.00574072       0.01128022       0.00041646 </v>
   <v>      -0.00922575       0.00393255       0.00238454 </v>
   <v>       0.00407294      -0.00056803      -0.00587357 </v>
   <v>       0.01614328      -0.00128502      -0.00044616 </v>
   <v>       0.00594311      -0.00345096      -0.01114515 </v>
   <v>      -0.00622017      -0.00551408       0.00782627 </v>
   <v>      -0.00419538      -0.00095081       0.00126456 </v>
   <v>       0.00433948       0.00193563      -0.00239832 </v>
   <v>      -0.00033701      -0.00122906      -0.00412908 </v>
   <v>       0.00574226       0.00090541       0.00109373 </v>
   <v>      -0.00142821      -0.00124702       0.00058711 </v>
   <v>       0.00390508       0.00304944       0.00109829 </v>
   <v>      -0.00078602      -0.00413194       0.00598863 </v>
   <v>       0.00335938       0.00232871      -0.00366538 </v>
   <v>       0.00254234       0.00030013      -0.00161314 </v>
   <v>       0.00867150      -0.00368995      -0.00442855 </v>
   <v>       0.00031075       0.01747272       0.00141462 </v>
   <v>      -0.00251925      -0.00083420       0.00758099 </v>
   <v>      -0.00165080       0.00550810      -0.00404219 </v>
   <v>      -0.00296636      -0.01295439      -0.00726802 </v>
   <v>      -0.00178137       0.00560186      -0.01055169 </v>
   <v>       0.00188984       0.01093933       0.00818204 </v>
   <v>      -0.00645590      -0.00355244       0.00511350 </v>
   <v>       0.00190144       0.00915460      -0.00794142 </v>
   <v>      -0.00234722      -0.00892239       0.01838591 </v>
   <v>      -0.00314682      -0.00459171      -0.00114232 </v>
   <v>      -0.01226096       0.00382376      -0.00180955 </v>
   <v>       0.00016293      -0.00998324      -0.00141340 </v>
   <v>      -0.00246285      -0.00091370       0.00080691 </v>
   <v>      -0.00189120      -0.00182615      -0.00141935 </v>
   <v>       0.00127863      -0.00202617      -0.00086971 </v>
   <v>      -0.00807785      -0.00392918      -0.00399399 </v>
   <v>      -0.00346580       0.00182653       0.00286180 </v>
   <v>      -0.00241191      -0.00224774      -0.00165690 </v>
   <v>       0.01065221       0.00966931       0.00618116 </v>
   <v>      -0.00553884      -0.00162568      -0.00058106 </v>
   <v>       0.00340512       0.00037329      -0.00110552 </v>
   <v>       0.00351924      -0.00018534       0.00059515 </v>
   <v>       0.00147139       0.00851340      -0.00143983 </v>
   <v>      -0.00103468      -0.00065459      -0.00196125 </v>
   <v>       0.00469405      -0.00661413       0.00306453 </v>
   <v>       0.00406220       0.00318564      -0.00455243 </v>
   <v>       0.00017724       0.00037153      -0.00095930 </v>
   <v>       0.00177208       0.00894317       0.00140980 </v>
   <v>       0.00192435      -0.00358364      -0.00997610 </v>
   <v>       0.00053386      -0.00224641      -0.00037486 </v>
   <v>      -0.00061840      -0.00209992      -0.00294689 </v>
   <v>      -0.00201295      -0.00526608       0.00065565 </v>
   <v>      -0.00409764      -0.00454953      -0.00250058 </v>
   <v>      -0.00389449      -0.00724422       0.00642704 </v>
   <v>       0.00429409      -0.00184592      -0.01295636 </v>
   <v>      -0.00750284       0.00314410       0.01435107 </v>
   <v>       0.00377715       0.00085224      -0.00386151 </v>
   <v>      -0.01089841      -0.00572638       0.00433210 </v>
   <v>      -0.00051569       0.00584512      -0.00433464 </v>
   <v>      -0.00101227       0.00538924      -0.01678261 </v>
   <v>      -0.00160908      -0.00054130       0.00812319 </v>
   <v>       0.00516861       0.00675441       0.00780541 </v>
  </varray>
  <varray name="stress" >
   <v>       0.04984170      -0.04941455      -0.00275488 </v>
   <v>      -0.04941521       0.04147397       0.07544860 </v>
   <v>      -0.00275430       0.07544821      -0.12756068 </v>
  </varray>
  <energy>
[...]
      </set>
     </set>
    </set>
   </array>
  </eigenvalues>
  <separator name="orbital magnetization" >
   <v name="MAGDIPOLOUT">      0.00000000      0.00000000      0.00000000</v>
  </separator>
  <dos>
   <i name="efermi">      8.14096183 </i>
   <total>
    <array>
     <dimension dim="1">gridpoints</dimension>
     <dimension dim="2">spin</dimension>
     <field>energy</field>
     <field>total</field>
     <field>integrated</field>
     <set>
      <set comment="spin 1">
       <r>   -52.5513     0.0000     0.0000 </r>
       <r>   -52.3317     0.0000     0.0000 </r>
       <r>   -52.1120     0.0000     0.0000 </r>
       <r>   -51.8923     0.0000     0.0000 </r>
       <r>   -51.6727     0.0000     0.0000 </r>
       <r>   -51.4530     0.0000     0.0000 </r>
       <r>   -51.2333     0.0000     0.0000 </r>
       <r>   -51.0137     0.0000     0.0000 </r>
       <r>   -50.7940     0.0000     0.0000 </r>
       <r>   -50.5743     0.0000     0.0000 </r>
       <r>   -50.3547     0.0000     0.0000 </r>
       <r>   -50.1350     0.0000     0.0000 </r>
       <r>   -49.9153     0.0000     0.0000 </r>
       <r>   -49.6957     0.3604     0.0792 </r>
       <r>   -49.4760    20.4024     4.5609 </r>
       <r>   -49.2563    19.0414     8.7437 </r>
       <r>   -49.0367    17.4127    12.5687 </r>
       <r>   -48.8170     6.4671    13.9893 </r>
       <r>   -48.5973     0.0485    14.0000 </r>
       <r>   -48.3776     0.0000    14.0000 </r>
       <r>   -48.1580     0.0000    14.0000 </r>
       <r>   -47.9383     0.0000    14.0000 </r>
       <r>   -47.7186     0.0000    14.0000 </r>
       <r>   -47.4990     0.0000    14.0000 </r>
       <r>   -47.2793     0.0000    14.0000 </r>
       <r>   -47.0596     0.0000    14.0000 </r>
       <r>   -46.8400     0.0000    14.0000 </r>
       <r>   -46.6203     0.0000    14.0000 </r>
       <r>   -46.4006     0.0000    14.0000 </r>
       <r>   -46.1810     0.0000    14.0000 </r>
       <r>   -45.9613     0.0000    14.0000 </r>
       <r>   -45.7416     0.0000    14.0000 </r>
       <r>   -45.5220     0.0000    14.0000 </r>
       <r>   -45.3023     0.0000    14.0000 </r>
       <r>   -45.0826     0.0000    14.0000 </r>
       <r>   -44.8630     0.0000    14.0000 </r>
       <r>   -44.6433     0.0000    14.0000 </r>
       <r>   -44.4236     0.0000    14.0000 </r>
       <r>   -44.2040     0.0000    14.0000 </r>
       <r>   -43.9843     0.0000    14.0000 </r>
       <r>   -43.7646     0.0000    14.0000 </r>
       <r>   -43.5450     0.0000    14.0000 </r>
       <r>   -43.3253     0.0000    14.0000 </r>
       <r>   -43.1056     0.0000    14.0000 </r>
       <r>   -42.8859     0.0000    14.0000 </r>
       <r>   -42.6663     0.0000    14.0000 </r>
       <r>   -42.4466     0.0000    14.0000 </r>
       <r>   -42.2269     0.0000    14.0000 </r>
       <r>   -42.0073     0.0000    14.0000 </r>
       <r>   -41.7876     0.0000    14.0000 </r>
       <r>   -41.5679     0.0000    14.0000 </r>
       <r>   -41.3483     0.0000    14.0000 </r>
       <r>   -41.1286     0.0000    14.0000 </r>
       <r>   -40.9089     0.0000    14.0000 </r>
       <r>   -40.6893     0.0000    14.0000 </r>
       <r>   -40.4696     0.0000    14.0000 </r>
       <r>   -40.2499     0.0000    14.0000 </r>
       <r>   -40.0303     0.0000    14.0000 </r>
       <r>   -39.8106     0.0000    14.0000 </r>
       <r>   -39.5909     0.0000    14.0000 </r>
       <r>   -39.3713     0.0000    14.0000 </r>
       <r>   -39.1516     0.0000    14.0000 </r>
       <r>   -38.9319     0.0000    14.0000 </r>
       <r>   -38.7123     0.0000    14.0000 </r>
       <r>   -38.4926     0.0000    14.0000 </r>
       <r>   -38.2729     0.0000    14.0000 </r>
       <r>   -38.0532     0.0000    14.0000 </r>
       <r>   -37.8336     0.0000    14.0000 </r>
       <r>   -37.6139     0.0000    14.0000 </r>
       <r>   -37.3942     0.0000    14.0000 </r>
       <r>   -37.1746     0.0000    14.0000 </r>
       <r>   -36.9549     0.0000    14.0000 </r>
       <r>   -36.7352     0.0000    14.0000 </r>
       <r>   -36.5156     0.0000    14.0000 </r>
       <r>   -36.2959     0.0000    14.0000 </r>
       <r>   -36.0762     0.0009    14.0002 </r>
       <r>   -35.8566     2.4498    14.5384 </r>
       <r>   -35.6369    11.5132    17.0674 </r>
       <r>   -35.4172    83.4428    35.3971 </r>
       <r>   -35.1976    64.3657    49.5362 </r>
       <r>   -34.9779     2.1110    49.9999 </r>
       <r>   -34.7582     0.0003    50.0000 </r>
       <r>   -34.5386     0.0000    50.0000 </r>
       <r>   -34.3189     0.0000    50.0000 </r>
       <r>   -34.0992     0.0000    50.0000 </r>
       <r>   -33.8796     0.0000    50.0000 </r>
       <r>   -33.6599     0.0000    50.0000 </r>
       <r>   -33.4402     0.0000    50.0000 </r>
       <r>   -33.2205     0.0000    50.0000 </r>
       <r>   -33.0009     0.0000    50.0000 </r>
       <r>   -32.7812     0.0000    50.0000 </r>
       <r>   -32.5615     0.0000    50.0000 </r>
       <r>   -32.3419     0.0000    50.0000 </r>
       <r>   -32.1222     0.0000    50.0000 </r>
       <r>   -31.9025     0.0001    50.0000 </r>
       <r>   -31.6829     1.3210    50.2902 </r>
       <r>   -31.4632    13.5422    53.2650 </r>
       <r>   -31.2435    55.6387    65.4871 </r>
       <r>   -31.0239    71.4381    81.1797 </r>
       <r>   -30.8042    21.6274    85.9306 </r>
       <r>   -30.5845     0.3161    86.0000 </r>
       <r>   -30.3649     0.0000    86.0000 </r>
       <r>   -30.1452     0.0000    86.0000 </r>
       <r>   -29.9255     0.0000    86.0000 </r>
       <r>   -29.7059     0.0000    86.0000 </r>
       <r>   -29.4862     0.0000    86.0000 </r>
       <r>   -29.2665     0.0000    86.0000 </r>
       <r>   -29.0469     0.0000    86.0000 </r>
       <r>   -28.8272     0.0000    86.0000 </r>
       <r>   -28.6075     0.0000    86.0000 </r>
       <r>   -28.3878     0.0000    86.0000 </r>
       <r>   -28.1682     0.0000    86.0000 </r>
       <r>   -27.9485     0.0000    86.0000 </r>
       <r>   -27.7288     0.0000    86.0000 </r>
       <r>   -27.5092     0.0000    86.0000 </r>
       <r>   -27.2895     0.0000    86.0000 </r>
       <r>   -27.0698     0.0000    86.0000 </r>
       <r>   -26.8502     0.0000    86.0000 </r>
       <r>   -26.6305     0.0000    86.0000 </r>
       <r>   -26.4108     0.0000    86.0000 </r>
       <r>   -26.1912     0.4224    86.0928 </r>
       <r>   -25.9715    22.9419    91.1324 </r>
       <r>   -25.7518    60.4134   104.4033 </r>
       <r>   -25.5322    72.0781   120.2366 </r>
       <r>   -25.3125    31.6880   127.1974 </r>
       <r>   -25.0928     3.6531   127.9999 </r>
       <r>   -24.8732     0.0005   128.0000 </r>
       <r>   -24.6535     0.0000   128.0000 </r>
       <r>   -24.4338     0.0000   128.0000 </r>
       <r>   -24.2142     0.0000   128.0000 </r>
       <r>   -23.9945     0.0000   128.0000 </r>
       <r>   -23.7748     0.0000   128.0000 </r>
       <r>   -23.5552     0.0000   128.0000 </r>
       <r>   -23.3355     0.0000   128.0000 </r>
       <r>   -23.1158     0.6526   128.1434 </r>
       <r>   -22.8961    20.5653   132.6609 </r>
       <r>   -22.6765     8.4967   134.5273 </r>
       <r>   -22.4568    63.9358   148.5720 </r>
       <r>   -22.2371    66.0335   163.0774 </r>
       <r>   -22.0175    28.7027   169.3825 </r>
       <r>   -21.7978     2.8099   169.9997 </r>
       <r>   -21.5781     0.0012   170.0000 </r>
       <r>   -21.3585     0.0000   170.0000 </r>
       <r>   -21.1388     0.0000   170.0000 </r>
       <r>   -20.9191     0.0000   170.0000 </r>
       <r>   -20.6995     0.0000   170.0000 </r>
       <r>   -20.4798     0.0000   170.0000 </r>
       <r>   -20.2601     0.0000   170.0000 </r>
       <r>   -20.0405     0.0000   170.0000 </r>
       <r>   -19.8208     0.0000   170.0000 </r>
       <r>   -19.6011     0.0000   170.0000 </r>
       <r>   -19.3815     0.0000   170.0000 </r>
       <r>   -19.1618     0.0000   170.0000 </r>
       <r>   -18.9421     0.0000   170.0000 </r>
       <r>   -18.7225     0.0000   170.0000 </r>
       <r>   -18.5028     0.0000   170.0000 </r>
       <r>   -18.2831     0.0000   170.0000 </r>
       <r>   -18.0634     0.0000   170.0000 </r>
       <r>   -17.8438     0.0000   170.0000 </r>
       <r>   -17.6241     0.0000   170.0000 </r>
       <r>   -17.4044     0.0000   170.0000 </r>
       <r>   -17.1848     0.0000   170.0000 </r>
       <r>   -16.9651     0.0000   170.0000 </r>
       <r>   -16.7454     0.0000   170.0000 </r>
       <r>   -16.5258     0.0000   170.0000 </r>
       <r>   -16.3061     0.0000   170.0000 </r>
       <r>   -16.0864     0.0000   170.0000 </r>
       <r>   -15.8668     0.0000   170.0000 </r>
       <r>   -15.6471     0.0000   170.0000 </r>
       <r>   -15.4274     0.0000   170.0000 </r>
       <r>   -15.2078     0.0000   170.0000 </r>
       <r>   -14.9881     0.0000   170.0000 </r>
       <r>   -14.7684     0.0000   170.0000 </r>
       <r>   -14.5488     0.0000   170.0000 </r>
       <r>   -14.3291     0.0000   170.0000 </r>
       <r>   -14.1094     0.0000   170.0000 </r>
       <r>   -13.8898     0.0000   170.0000 </r>
       <r>   -13.6701     0.0000   170.0000 </r>
       <r>   -13.4504     0.0000   170.0000 </r>
       <r>   -13.2307     0.0000   170.0000 </r>
       <r>   -13.0111     0.0000   170.0000 </r>
       <r>   -12.7914     0.0000   170.0000 </r>
       <r>   -12.5717     0.0000   170.0000 </r>
       <r>   -12.3521     0.0000   170.0000 </r>
       <r>   -12.1324     0.0000   170.0000 </r>
       <r>   -11.9127     0.0000   170.0000 </r>
       <r>   -11.6931     0.0000   170.0000 </r>
       <r>   -11.4734     0.0000   170.0000 </r>
       <r>   -11.2537     0.0000   170.0000 </r>
       <r>   -11.0341     0.0000   170.0000 </r>
       <r>   -10.8144     0.0000   170.0000 </r>
       <r>   -10.5947     0.0000   170.0000 </r>
       <r>   -10.3751     0.0000   170.0000 </r>
       <r>   -10.1554     0.0000   170.0000 </r>
       <r>    -9.9357     0.0000   170.0000 </r>
       <r>    -9.7161     0.0000   170.0000 </r>
       <r>    -9.4964     0.0000   170.0000 </r>
       <r>    -9.2767     0.0000   170.0000 </r>
       <r>    -9.0571     0.0000   170.0000 </r>
       <r>    -8.8374     0.0000   170.0000 </r>
       <r>    -8.6177     0.0049   170.0011 </r>
       <r>    -8.3980     1.7794   170.3920 </r>
       <r>    -8.1784     7.0229   171.9347 </r>
       <r>    -7.9587     6.8366   173.4365 </r>
       <r>    -7.7390     7.1374   175.0043 </r>
       <r>    -7.5194     8.7678   176.9303 </r>
       <r>    -7.2997     9.2577   178.9639 </r>
       <r>    -7.0800    13.8246   182.0008 </r>
       <r>    -6.8604    14.8865   185.2708 </r>
       <r>    -6.6407    23.3167   190.3928 </r>
       <r>    -6.4210    19.8022   194.7427 </r>
       <r>    -6.2014     5.7045   195.9958 </r>
       <r>    -5.9817     0.0191   196.0000 </r>
       <r>    -5.7620     0.0000   196.0000 </r>
       <r>    -5.5424     0.0000   196.0000 </r>
       <r>    -5.3227     0.0000   196.0000 </r>
       <r>    -5.1030     0.1761   196.0387 </r>
       <r>    -4.8834     5.8421   197.3220 </r>
       <r>    -4.6637     3.1044   198.0040 </r>
       <r>    -4.4440     4.6932   199.0349 </r>
       <r>    -4.2244    12.5568   201.7932 </r>
       <r>    -4.0047    12.6703   204.5765 </r>
       <r>    -3.7850    19.7067   208.9054 </r>
       <r>    -3.5654    21.2120   213.5650 </r>
       <r>    -3.3457    17.3665   217.3799 </r>
       <r>    -3.1260    18.1520   221.3673 </r>
       <r>    -2.9063    19.0649   225.5552 </r>
       <r>    -2.6867    15.0267   228.8561 </r>
       <r>    -2.4670    16.7210   232.5292 </r>
       <r>    -2.2473     5.8326   233.8104 </r>
       <r>    -2.0277     0.8571   233.9987 </r>
       <r>    -1.8080     0.0059   234.0000 </r>
       <r>    -1.5883     0.0000   234.0000 </r>
       <r>    -1.3687     0.0000   234.0000 </r>
       <r>    -1.1490     0.0000   234.0000 </r>
       <r>    -0.9293     0.0000   234.0000 </r>
       <r>    -0.7097     0.0000   234.0000 </r>
       <r>    -0.4900     0.0001   234.0000 </r>
       <r>    -0.2703     0.1297   234.0285 </r>
       <r>    -0.0507     0.6104   234.1626 </r>
       <r>     0.1690     2.8788   234.7950 </r>
       <r>     0.3887     9.7322   236.9328 </r>
       <r>     0.6083     9.5386   239.0282 </r>
       <r>     0.8280    15.6120   242.4576 </r>
       <r>     1.0477    18.2890   246.4751 </r>
       <r>     1.2673    23.9538   251.7370 </r>
       <r>     1.4870    25.4303   257.3232 </r>
       <r>     1.7067    26.4334   263.1298 </r>
       <r>     1.9264    28.9384   269.4867 </r>
       <r>     2.1460    33.9989   276.9551 </r>
       <r>     2.3657    36.9783   285.0781 </r>
       <r>     2.5854    37.5207   293.3202 </r>
       <r>     2.8050    43.2017   302.8102 </r>
       <r>     3.0247    51.4026   314.1017 </r>
       <r>     3.2444    59.5064   327.1734 </r>
       <r>     3.4640    62.3724   340.8746 </r>
       <r>     3.6837    60.5942   354.1852 </r>
       <r>     3.9034    60.2402   367.4181 </r>
       <r>     4.1230    51.7403   378.7838 </r>
       <r>     4.3427    42.7563   388.1760 </r>
       <r>     4.5624    36.1019   396.1064 </r>
       <r>     4.7820    32.2480   403.1903 </r>
       <r>     5.0017    30.1591   409.8153 </r>
       <r>     5.2214    24.0807   415.1050 </r>
       <r>     5.4410    20.5560   419.6205 </r>
       <r>     5.6607    17.1938   423.3974 </r>
       <r>     5.8804    11.5840   425.9421 </r>
       <r>     6.1000    12.4127   428.6687 </r>
       <r>     6.3197    16.4214   432.2760 </r>
       <r>     6.5394    17.5675   436.1350 </r>
       <r>     6.7591    20.1547   440.5624 </r>
       <r>     6.9787    24.1890   445.8759 </r>
       <r>     7.1984    21.1376   450.5192 </r>
       <r>     7.4181    23.3577   455.6501 </r>
       <r>     7.6377    27.2644   461.6392 </r>
       <r>     7.8574    27.1493   467.6031 </r>
       <r>     8.0771    26.1611   473.3498 </r>
       <r>     8.2967    26.2267   479.1110 </r>
       <r>     8.5164    34.7746   486.7499 </r>
       <r>     8.7361    38.8670   495.2877 </r>
       <r>     8.9557    43.4828   504.8395 </r>
       <r>     9.1754    55.2354   516.9730 </r>
       <r>     9.3951    54.7419   528.9980 </r>
       <r>     9.6147    52.5208   540.5352 </r>
       <r>     9.8344    48.9587   551.2898 </r>
       <r>    10.0541    52.2809   562.7743 </r>
       <r>    10.2737    47.5671   573.2233 </r>
       <r>    10.4934    12.5685   575.9842 </r>
       <r>    10.7131     0.0720   576.0000 </r>
       <r>    10.9327     0.0000   576.0000 </r>
       <r>    11.1524     0.0000   576.0000 </r>
       <r>    11.3721     0.0000   576.0000 </r>
       <r>    11.5918     0.0000   576.0000 </r>
       <r>    11.8114     0.0000   576.0000 </r>
       <r>    12.0311     0.0000   576.0000 </r>
       <r>    12.2508     0.0000   576.0000 </r>
       <r>    12.4704     0.0000   576.0000 </r>
       <r>    12.6901     0.0000   576.0000 </r>
       <r>    12.9098     0.0000   576.0000 </r>
       <r>    13.1294     0.0000   576.0000 </r>
       <r>    13.3491     0.0000   576.0000 </r>
      </set>
     </set>
    </array>
   </total>
  </dos>
 </calculation>
 <structure name="finalpos" >
  <crystal>
   <varray name="basis" >
    <v>       8.70867123       0.00458025       0.00269519 </v>
    <v>       0.01042623       8.75118706       0.00283400 </v>
    <v>       0.03395648      -0.01236673       8.72977315 </v>
   </varray>
   <i name="volume">    665.30567103 </i>
   <varray name="rec_basis" >
    <v>       0.11482829      -0.00013666      -0.00044684 </v>
    <v>      -0.00006015       0.11427023       0.00016211 </v>
    <v>      -0.00003543      -0.00003705       0.11455060 </v>
   </varray>
  </crystal>
  <varray name="positions" >
   <v>       0.00202494       0.99876113       0.99321849 </v>
   <v>       0.26564148       0.00124025       0.24820708 </v>
   <v>       0.23942663       0.49451017       0.24433784 </v>
   <v>       0.50324367       0.50165687       0.00036754 </v>
   <v>       0.51285520       0.24549315       0.74111249 </v>
   <v>       0.99703915       0.50132325       0.50074417 </v>
   <v>       0.49677795       0.76224362       0.74926019 </v>
   <v>       0.98930820       0.22896869       0.26049293 </v>
   <v>       0.76402819       0.74425118       0.00150782 </v>
   <v>       0.01565491       0.24281056       0.74110470 </v>
   <v>       0.75374536       0.25602437       0.48066140 </v>
   <v>       0.99768503       0.73514632       0.75649335 </v>
   <v>       0.25479279       0.49406765       0.74921195 </v>
   <v>       0.25245151       0.24632524       0.98665421 </v>
   <v>       0.50869662       0.25544433       0.24990055 </v>
   <v>       0.73391497       0.98996376       0.26216000 </v>
   <v>       0.74755598       0.24639608       0.00060423 </v>
   <v>       0.24654593       0.74842213       0.99852552 </v>
   <v>       0.25521047       0.24942178       0.50676688 </v>
   <v>       0.24928982       0.75231129       0.50110613 </v>
   <v>       0.24707618       0.24750108       0.24841620 </v>
   <v>       0.25601776       0.00223386       0.99418419 </v>
   <v>       0.00131159       0.24960224       0.00405782 </v>
   <v>       0.74614502       0.24060313       0.24207149 </v>
   <v>       0.74573863       0.99586890       0.00880169 </v>
   <v>       0.50702052       0.00661826       0.24699271 </v>
   <v>       0.99135664       0.48736520       0.24649687 </v>
   <v>       0.50175592       0.75988393       0.00364745 </v>
   <v>       0.99092622       0.99157078       0.74770215 </v>
   <v>       0.76127723       0.22953851       0.74718242 </v>
   <v>       0.74736569       0.01177162       0.49189567 </v>
   <v>       0.50298265       0.24848413       0.49059528 </v>
   <v>       0.50700861       0.00353816       0.74654222 </v>
   <v>       0.99581852       0.99920540       0.25386638 </v>
   <v>       0.50368747       0.24386461       0.00067003 </v>
   <v>       0.25662741       0.74921077       0.24968331 </v>
   <v>       0.24116012       0.50025755       0.99197227 </v>
   <v>       0.00556182       0.74324774       0.00527129 </v>
   <v>       0.74045437       0.74716965       0.24856105 </v>
   <v>       0.76293895       0.49545878       0.01134506 </v>
   <v>       0.49244240       0.49932067       0.24858369 </v>
   <v>       0.25834951       0.24901619       0.74638372 </v>
   <v>       0.26022719       0.00104577       0.51330852 </v>
   <v>       0.00157354       0.24808436       0.50211777 </v>
   <v>       0.24218005       0.75476206       0.75139458 </v>
   <v>       0.25258445       0.50119553       0.50152825 </v>
   <v>       0.00134903       0.75544946       0.50518724 </v>
   <v>       0.00115468       0.48744000       0.75758859 </v>
   <v>       0.75254925       0.77057448       0.74780525 </v>
   <v>       0.74565704       0.49491025       0.51362149 </v>
   <v>       0.49761776       0.76270005       0.48700106 </v>
   <v>       0.50005820       0.50413796       0.74452972 </v>
   <v>       0.51854697       0.01349464       0.97873036 </v>
   <v>       0.99019871       0.51947822       0.97957238 </v>
   <v>       0.48927019       0.72712856       0.26251494 </v>
   <v>       0.22274774       0.02157249       0.74010448 </v>
   <v>       0.48258564       0.98882957       0.50608868 </v>
   <v>       0.72753308       0.99308385       0.78887928 </v>
   <v>       0.00544395       0.76999597       0.25425980 </v>
   <v>       0.73259047       0.50918646       0.25962165 </v>
   <v>       0.01803238       0.00261036       0.50570843 </v>
   <v>       0.50344427       0.51567221       0.48760685 </v>
   <v>       0.75600919       0.52452714       0.76658242 </v>
   <v>       0.74973459       0.73800740       0.49888796 </v>
  </varray>
 </structure>
</modeling>
