HECN                                    
           1
     8.710016    0.004280    0.002407
     0.010124    8.754539    0.001746
     0.033673   -0.013459    8.731505
   Hf   W    Ti   N    C    Cr   Mo
   7   6   7  13  19   6   6
Direct configuration=     1
   0.00210044  0.99876199  0.99312189
   0.26584305  0.00125125  0.24813742
   0.23938544  0.49455825  0.24438972
   0.50324486  0.50169746  0.00038892
   0.51289781  0.24552834  0.74113680
   0.99694032  0.50139025  0.50069000
   0.49667973  0.76208822  0.74933697
   0.98938632  0.22881494  0.26057347
   0.76422150  0.74420350  0.00157074
   0.01560536  0.24287434  0.74090992
   0.75373472  0.25600104  0.48047311
   0.99782008  0.73522072  0.75650983
   0.25459120  0.49397377  0.74925389
   0.25237670  0.24629710  0.98659852
   0.50882130  0.25550180  0.24994672
   0.73383430  0.99006834  0.26197485
   0.74758836  0.24635740  0.00056895
   0.24647728  0.74834949  0.99855962
   0.25518900  0.24954984  0.50677028
   0.24926316  0.75227709  0.50115469
   0.24704167  0.24753842  0.24844677
   0.25581877  0.00235083  0.99437697
   0.00131012  0.24922412  0.00401151
   0.74628781  0.24071849  0.24207422
   0.74574392  0.99577928  0.00871598
   0.50700934  0.00708871  0.24731872
   0.99143797  0.48722471  0.24672888
   0.50172229  0.75961674  0.00340928
   0.99114862  0.99166985  0.74765841
   0.76119917  0.22923338  0.74732212
   0.74740551  0.01195942  0.49131461
   0.50298687  0.24859986  0.49068588
   0.50758003  0.00346983  0.74667666
   0.99590945  0.99923983  0.25382156
   0.50373628  0.24387624  0.00060546
   0.25673644  0.74926366  0.24976170
   0.24116546  0.50028177  0.99198609
   0.00557727  0.74336674  0.00526096
   0.74044913  0.74711277  0.24840068
   0.76298958  0.49553046  0.01121911
   0.49244811  0.49927984  0.24865853
   0.25828308  0.24909227  0.74635780
   0.26004492  0.00109655  0.51316735
   0.00144753  0.24811514  0.50208675
   0.24214041  0.75459276  0.75141252
   0.25253047  0.50120293  0.50160458
   0.00114520  0.75551029  0.50512471
   0.00104743  0.48752027  0.75756251
   0.75252224  0.77031918  0.74772000
   0.74561255  0.49481641  0.51355234
   0.49753601  0.76272072  0.48724386
   0.50005477  0.50407477  0.74460527
   0.51858260  0.01354436  0.97851972
   0.99021270  0.51977602  0.97946132
   0.48971364  0.72685742  0.26320362
   0.22264686  0.02178472  0.73955088
   0.48221737  0.98891403  0.50712999
   0.72775870  0.99263265  0.78894484
   0.00532196  0.77028313  0.25430028
   0.73251116  0.50920598  0.25955910
   0.01807464  0.00265584  0.50563741
   0.50347150  0.51555755  0.48768277
   0.75608273  0.52485505  0.76656769
   0.74933714  0.73768163  0.49848441
HECN                                    
           1
     8.708904    0.004797    0.002484
     0.010644    8.751660    0.002021
     0.033746   -0.013178    8.731050
   Hf   W    Ti   N    C    Cr   Mo
   7   6   7  13  19   6   6
Direct configuration=     2
   0.00208896  0.99875680  0.99315488
   0.26578054  0.00124711  0.24814620
   0.23938909  0.49455520  0.24437973
   0.50323530  0.50167678  0.00036498
   0.51289219  0.24557280  0.74114317
   0.99696206  0.50138125  0.50068573
   0.49667565  0.76205991  0.74932113
   0.98943751  0.22891048  0.26050479
   0.76412714  0.74425706  0.00158015
   0.01553784  0.24287972  0.74099973
   0.75367978  0.25601278  0.48058660
   0.99782176  0.73526379  0.75647818
   0.25461021  0.49400881  0.74923621
   0.25239091  0.24631002  0.98664304
   0.50877208  0.25551106  0.24991829
   0.73387089  0.99005961  0.26196531
   0.74759911  0.24635509  0.00055881
   0.24650026  0.74835931  0.99856806
   0.25519347  0.24954691  0.50671664
   0.24927163  0.75226694  0.50114644
   0.24704955  0.24753973  0.24843323
   0.25591279  0.00232413  0.99430817
   0.00131116  0.24936122  0.00403319
   0.74626351  0.24071733  0.24200838
   0.74571626  0.99578517  0.00878154
   0.50705275  0.00700649  0.24728257
   0.99138105  0.48722941  0.24663037
   0.50173005  0.75971255  0.00349290
   0.99107181  0.99164246  0.74763071
   0.76125694  0.22926681  0.74728108
   0.74738822  0.01191239  0.49144617
   0.50296832  0.24856958  0.49065175
   0.50748697  0.00347441  0.74663834
   0.99587606  0.99924690  0.25381566
   0.50371822  0.24385699  0.00063587
   0.25676766  0.74925434  0.24974942
   0.24111473  0.50026476  0.99201533
   0.00563528  0.74333394  0.00529752
   0.74042901  0.74716003  0.24841691
   0.76300326  0.49548414  0.01126595
   0.49240269  0.49926976  0.24862883
   0.25833206  0.24906294  0.74635873
   0.26007065  0.00109262  0.51317799
   0.00148511  0.24812267  0.50208843
   0.24214851  0.75464983  0.75140741
   0.25253326  0.50120480  0.50157105
   0.00116242  0.75553230  0.50513882
   0.00105721  0.48748300  0.75759665
   0.75251988  0.77039267  0.74769560
   0.74562771  0.49482089  0.51359551
   0.49754006  0.76275874  0.48724324
   0.50007673  0.50407830  0.74458474
   0.51852586  0.01352150  0.97858459
   0.99026409  0.51968532  0.97951097
   0.48965218  0.72696789  0.26305495
   0.22274227  0.02173195  0.73966087
   0.48232235  0.98893898  0.50702319
   0.72779090  0.99269899  0.78886610
   0.00531582  0.77010752  0.25430331
   0.73259269  0.50913120  0.25955434
   0.01801796  0.00262556  0.50562080
   0.50344142  0.51547912  0.48775717
   0.75603877  0.52470154  0.76653059
   0.74936981  0.73780745  0.49853311
HECN                                    
           1
     8.708683    0.004899    0.002500
     0.010747    8.751088    0.002075
     0.033760   -0.013123    8.730960
   Hf   W    Ti   N    C    Cr   Mo
   7   6   7  13  19   6   6
Direct configuration=     3
   0.00208668  0.99875577  0.99316144
   0.26576811  0.00124629  0.24814795
   0.23938982  0.49455460  0.24437775
   0.50323340  0.50167267  0.00036023
   0.51289108  0.24558164  0.74114443
   0.99696638  0.50137946  0.50068488
   0.49667483  0.76205428  0.74931798
   0.98944769  0.22892947  0.26049114
   0.76410838  0.74426771  0.00158202
   0.01552442  0.24288079  0.74101758
   0.75366886  0.25601512  0.48060916
   0.99782210  0.73527235  0.75647189
   0.25461399  0.49401577  0.74923270
   0.25239374  0.24631259  0.98665188
   0.50876230  0.25551290  0.24991264
   0.73387816  0.99005788  0.26196342
   0.74760125  0.24635463  0.00055680
   0.24650482  0.74836126  0.99856974
   0.25519436  0.24954632  0.50670598
   0.24927331  0.75226493  0.50114480
   0.24705111  0.24753998  0.24843054
   0.25593147  0.00231882  0.99429449
   0.00131136  0.24938848  0.00403750
   0.74625868  0.24071710  0.24199529
   0.74571076  0.99578634  0.00879457
   0.50706138  0.00699015  0.24727538
   0.99136973  0.48723035  0.24661079
   0.50173159  0.75973159  0.00350952
   0.99105655  0.99163702  0.74762521
   0.76126843  0.22927345  0.74727293
   0.74738478  0.01190304  0.49147232
   0.50296463  0.24856356  0.49064497
   0.50746848  0.00347532  0.74663072
   0.99586942  0.99924831  0.25381449
   0.50371463  0.24385317  0.00064192
   0.25677387  0.74925249  0.24974697
   0.24110465  0.50026137  0.99202114
   0.00564681  0.74332741  0.00530479
   0.74042500  0.74716943  0.24842014
   0.76300598  0.49547493  0.01127525
   0.49239366  0.49926776  0.24862292
   0.25834180  0.24905711  0.74635892
   0.26007576  0.00109184  0.51318010
   0.00149258  0.24812416  0.50208877
   0.24215012  0.75466118  0.75140639
   0.25253382  0.50120518  0.50156439
   0.00116584  0.75553667  0.50514163
   0.00105916  0.48747559  0.75760344
   0.75251941  0.77040728  0.74769076
   0.74563073  0.49482177  0.51360409
   0.49754086  0.76276630  0.48724311
   0.50008109  0.50407900  0.74458066
   0.51851458  0.01351695  0.97859748
   0.99027431  0.51966729  0.97952083
   0.48963996  0.72698985  0.26302540
   0.22276123  0.02172146  0.73968273
   0.48234322  0.98894394  0.50700197
   0.72779731  0.99271217  0.78885045
   0.00531460  0.77007261  0.25430392
   0.73260890  0.50911633  0.25955340
   0.01800670  0.00261954  0.50561750
   0.50343544  0.51546352  0.48777195
   0.75603003  0.52467103  0.76652322
   0.74937630  0.73783246  0.49854279
HECN                                    
           1
     8.708240    0.005105    0.002530
     0.010954    8.749944    0.002184
     0.033789   -0.013011    8.730779
   Hf   W    Ti   N    C    Cr   Mo
   7   6   7  13  19   6   6
Direct configuration=     4
   0.00208212  0.99875371  0.99317455
   0.26574326  0.00124465  0.24815144
   0.23939127  0.49455338  0.24437378
   0.50322959  0.50166446  0.00035071
   0.51288884  0.24559932  0.74114696
   0.99697502  0.50137588  0.50068318
   0.49667321  0.76204302  0.74931169
   0.98946804  0.22896746  0.26046384
   0.76407086  0.74428900  0.00158576
   0.01549758  0.24288293  0.74105328
   0.75364702  0.25601979  0.48065427
   0.99782276  0.73528948  0.75645931
   0.25462155  0.49402971  0.74922568
   0.25239939  0.24631773  0.98666958
   0.50874273  0.25551658  0.24990134
   0.73389271  0.99005441  0.26195963
   0.74760552  0.24635372  0.00055277
   0.24651396  0.74836516  0.99857309
   0.25519613  0.24954516  0.50668466
   0.24927668  0.75226090  0.50114151
   0.24705424  0.24754050  0.24842516
   0.25596885  0.00230821  0.99426715
   0.00131177  0.24944299  0.00404611
   0.74624902  0.24071664  0.24196912
   0.74569976  0.99578869  0.00882063
   0.50707864  0.00695745  0.24726101
   0.99134710  0.48723222  0.24657164
   0.50173467  0.75976968  0.00354276
   0.99102602  0.99162613  0.74761420
   0.76129139  0.22928674  0.74725661
   0.74737791  0.01188434  0.49152462
   0.50295725  0.24855152  0.49063141
   0.50743149  0.00347715  0.74661549
   0.99585614  0.99925112  0.25381215
   0.50370745  0.24384551  0.00065401
   0.25678628  0.74924879  0.24974209
   0.24108449  0.50025461  0.99203277
   0.00566987  0.74331437  0.00531932
   0.74041700  0.74718822  0.24842659
   0.76301141  0.49545651  0.01129387
   0.49237561  0.49926376  0.24861112
   0.25836127  0.24904544  0.74635929
   0.26008599  0.00109028  0.51318433
   0.00150752  0.24812716  0.50208944
   0.24215333  0.75468387  0.75140436
   0.25253493  0.50120592  0.50155106
   0.00117268  0.75554542  0.50514724
   0.00106305  0.48746076  0.75761701
   0.75251847  0.77043650  0.74768106
   0.74563676  0.49482355  0.51362125
   0.49754246  0.76278142  0.48724286
   0.50008982  0.50408040  0.74457250
   0.51849203  0.01350786  0.97862326
   0.99029474  0.51963122  0.97954057
   0.48961553  0.72703378  0.26296630
   0.22279916  0.02170048  0.73972645
   0.48238495  0.98895386  0.50695952
   0.72781011  0.99273855  0.78881915
   0.00531216  0.77000278  0.25430513
   0.73264131  0.50908660  0.25955151
   0.01798417  0.00260751  0.50561090
   0.50342348  0.51543234  0.48780153
   0.75601256  0.52460999  0.76650847
   0.74938928  0.73788248  0.49856214
HECN                                    
           1
     8.708599    0.004938    0.002505
     0.010786    8.750872    0.002096
     0.033766   -0.013101    8.730926
   Hf   W    Ti   N    C    Cr   Mo
   7   6   7  13  19   6   6
Direct configuration=     5
   0.00208582  0.99875538  0.99316392
   0.26576341  0.00124598  0.24814861
   0.23939009  0.49455437  0.24437700
   0.50323268  0.50167112  0.00035843
   0.51289065  0.24558498  0.74114491
   0.99696801  0.50137878  0.50068455
   0.49667453  0.76205215  0.74931679
   0.98945154  0.22893666  0.26048598
   0.76410128  0.74427173  0.00158273
   0.01551934  0.24288119  0.74102433
   0.75366473  0.25601600  0.48061769
   0.99782222  0.73527559  0.75646951
   0.25461542  0.49401841  0.74923137
   0.25239481  0.24631356  0.98665523
   0.50875859  0.25551359  0.24991050
   0.73388091  0.99005722  0.26196270
   0.74760205  0.24635446  0.00055604
   0.24650655  0.74836200  0.99857037
   0.25519469  0.24954610  0.50670195
   0.24927395  0.75226417  0.50114418
   0.24705170  0.24754008  0.24842952
   0.25593854  0.00231682  0.99428932
   0.00131144  0.24939878  0.00403913
   0.74625686  0.24071701  0.24199034
   0.74570868  0.99578679  0.00879950
   0.50706464  0.00698397  0.24727266
   0.99136545  0.48723070  0.24660339
   0.50173217  0.75973879  0.00351581
   0.99105078  0.99163496  0.74762313
   0.76127277  0.22927596  0.74726984
   0.74738348  0.01189950  0.49148221
   0.50296323  0.24856128  0.49064240
   0.50746148  0.00347567  0.74662784
   0.99586691  0.99924884  0.25381405
   0.50371327  0.24385172  0.00064420
   0.25677621  0.74925179  0.24974605
   0.24110084  0.50026010  0.99202334
   0.00565117  0.74332495  0.00530754
   0.74042349  0.74717298  0.24842136
   0.76300700  0.49547145  0.01127878
   0.49239025  0.49926700  0.24862069
   0.25834548  0.24905490  0.74635899
   0.26007770  0.00109154  0.51318090
   0.00149541  0.24812473  0.50208890
   0.24215073  0.75466547  0.75140601
   0.25253403  0.50120532  0.50156187
   0.00116713  0.75553833  0.50514269
   0.00105989  0.48747278  0.75760601
   0.75251924  0.77041281  0.74768892
   0.74563187  0.49482211  0.51360733
   0.49754116  0.76276916  0.48724306
   0.50008274  0.50407926  0.74457912
   0.51851032  0.01351523  0.97860235
   0.99027817  0.51966047  0.97952457
   0.48963534  0.72699816  0.26301422
   0.22276841  0.02171750  0.73969100
   0.48235111  0.98894582  0.50699394
   0.72779973  0.99271716  0.78884453
   0.00531413  0.77005940  0.25430414
   0.73261503  0.50911071  0.25955304
   0.01800244  0.00261727  0.50561625
   0.50343318  0.51545763  0.48777755
   0.75602672  0.52465949  0.76652043
   0.74937876  0.73784192  0.49854645
HECN                                    
           1
     8.708663    0.004909    0.002501
     0.010756    8.751037    0.002080
     0.033761   -0.013117    8.730952
   Hf   W    Ti   N    C    Cr   Mo
   7   6   7  13  19   6   6
Direct configuration=     6
   0.00208648  0.99875568  0.99316203
   0.26576699  0.00124622  0.24814811
   0.23938988  0.49455454  0.24437757
   0.50323322  0.50167230  0.00035980
   0.51289098  0.24558243  0.74114454
   0.99696677  0.50137930  0.50068480
   0.49667476  0.76205377  0.74931770
   0.98944861  0.22893118  0.26048991
   0.76410669  0.74426866  0.00158219
   0.01552321  0.24288088  0.74101919
   0.75366788  0.25601533  0.48061119
   0.99782213  0.73527313  0.75647132
   0.25461434  0.49401640  0.74923239
   0.25239399  0.24631282  0.98665268
   0.50876141  0.25551306  0.24991213
   0.73387882  0.99005772  0.26196325
   0.74760144  0.24635459  0.00055662
   0.24650523  0.74836143  0.99856989
   0.25519444  0.24954627  0.50670502
   0.24927346  0.75226475  0.50114465
   0.24705125  0.24754001  0.24843029
   0.25593316  0.00231835  0.99429326
   0.00131138  0.24939093  0.00403789
   0.74625825  0.24071708  0.24199411
   0.74571026  0.99578645  0.00879574
   0.50706215  0.00698867  0.24727473
   0.99136871  0.48723043  0.24660903
   0.50173173  0.75973331  0.00351102
   0.99105517  0.99163652  0.74762471
   0.76126946  0.22927405  0.74727219
   0.74738447  0.01190220  0.49147468
   0.50296430  0.24856302  0.49064436
   0.50746681  0.00347540  0.74663004
   0.99586882  0.99924843  0.25381439
   0.50371431  0.24385282  0.00064246
   0.25677443  0.74925232  0.24974675
   0.24110374  0.50026107  0.99202167
   0.00564785  0.74332683  0.00530544
   0.74042464  0.74717027  0.24842043
   0.76300622  0.49547410  0.01127609
   0.49239285  0.49926758  0.24862239
   0.25834267  0.24905658  0.74635893
   0.26007622  0.00109177  0.51318029
   0.00149326  0.24812430  0.50208880
   0.24215026  0.75466220  0.75140630
   0.25253387  0.50120521  0.50156379
   0.00116615  0.75553707  0.50514188
   0.00105933  0.48747492  0.75760405
   0.75251937  0.77040860  0.74769032
   0.74563100  0.49482185  0.51360486
   0.49754093  0.76276698  0.48724310
   0.50008149  0.50407906  0.74458029
   0.51851357  0.01351654  0.97859864
   0.99027523  0.51966566  0.97952172
   0.48963886  0.72699183  0.26302274
   0.22276294  0.02172052  0.73968470
   0.48234510  0.98894439  0.50700005
   0.72779788  0.99271336  0.78884904
   0.00531449  0.77006946  0.25430397
   0.73261036  0.50911500  0.25955331
   0.01800569  0.00261900  0.50561720
   0.50343490  0.51546212  0.48777329
   0.75602924  0.52466828  0.76652255
   0.74937689  0.73783471  0.49854366
HECN                                    
           1
     8.709784    0.005090    0.002492
     0.010939    8.752174    0.002406
     0.033756   -0.012793    8.731743
   Hf   W    Ti   N    C    Cr   Mo
   7   6   7  13  19   6   6
Direct configuration=     7
   0.00206475  0.99873631  0.99318820
   0.26569380  0.00122451  0.24815994
   0.23940495  0.49457353  0.24436337
   0.50322666  0.50164684  0.00035486
   0.51289197  0.24558795  0.74117451
   0.99699025  0.50137305  0.50071890
   0.49670203  0.76206950  0.74931265
   0.98945024  0.22902215  0.26044902
   0.76405003  0.74430411  0.00156194
   0.01553531  0.24287450  0.74108572
   0.75364966  0.25600973  0.48065409
   0.99779782  0.73527794  0.75648103
   0.25461412  0.49404599  0.74922248
   0.25242020  0.24632873  0.98667840
   0.50871918  0.25551812  0.24987119
   0.73393777  0.99005717  0.26196450
   0.74760323  0.24634534  0.00054597
   0.24653929  0.74838046  0.99857767
   0.25519022  0.24952509  0.50669007
   0.24928672  0.75226327  0.50112811
   0.24706635  0.24754166  0.24841604
   0.25602138  0.00228462  0.99423876
   0.00131249  0.24954581  0.00406010
   0.74623470  0.24071769  0.24198815
   0.74569070  0.99581309  0.00881993
   0.50707420  0.00688224  0.24722408
   0.99132210  0.48726120  0.24651020
   0.50174597  0.75983301  0.00359052
   0.99098492  0.99160383  0.74762558
   0.76131697  0.22934167  0.74721083
   0.74737076  0.01183237  0.49162613
   0.50293982  0.24852840  0.49061759
   0.50735654  0.00349506  0.74660071
   0.99584742  0.99920907  0.25380616
   0.50369306  0.24384100  0.00066661
   0.25677427  0.74923723  0.24973565
   0.24107559  0.50023999  0.99203438
   0.00564834  0.74327967  0.00531135
   0.74040641  0.74720143  0.24844628
   0.76301153  0.49544145  0.01129933
   0.49240899  0.49929592  0.24862905
   0.25834676  0.24903108  0.74635667
   0.26009454  0.00109183  0.51318562
   0.00153081  0.24812553  0.50209163
   0.24216027  0.75473184  0.75139840
   0.25252949  0.50120406  0.50153671
   0.00119508  0.75552391  0.50516401
   0.00108163  0.48747064  0.75761596
   0.75251985  0.77045583  0.74767007
   0.74564924  0.49486846  0.51363713
   0.49755065  0.76276250  0.48721701
   0.50009602  0.50407469  0.74456932
   0.51844909  0.01347899  0.97864854
   0.99031717  0.51955597  0.97957195
   0.48955306  0.72709146  0.26285434
   0.22283881  0.02163174  0.73983205
   0.48246686  0.98896925  0.50683181
   0.72780469  0.99279838  0.78881648
   0.00532360  0.76995286  0.25428985
   0.73262397  0.50903849  0.25956987
   0.01796634  0.00262291  0.50559303
   0.50341350  0.51542659  0.48775709
   0.75599659  0.52455937  0.76653583
   0.74942169  0.73794265  0.49861667
HECN                                    
           1
     8.709371    0.005023    0.002495
     0.010872    8.751756    0.002286
     0.033758   -0.012913    8.731452
   Hf   W    Ti   N    C    Cr   Mo
   7   6   7  13  19   6   6
Direct configuration=     8
   0.00207274  0.99874344  0.99317857
   0.26572073  0.00123250  0.24815559
   0.23939940  0.49456654  0.24436859
   0.50322908  0.50165621  0.00035668
   0.51289160  0.24558592  0.74116348
   0.99698160  0.50137535  0.50070635
   0.49669199  0.76206371  0.74931451
   0.98944964  0.22898867  0.26046407
   0.76407088  0.74429107  0.00156939
   0.01553085  0.24287685  0.74106123
   0.75365636  0.25601179  0.48063830
   0.99780676  0.73527617  0.75647746
   0.25461420  0.49403510  0.74922613
   0.25241055  0.24632287  0.98666894
   0.50873472  0.25551626  0.24988626
   0.73391607  0.99005737  0.26196404
   0.74760257  0.24634875  0.00054989
   0.24652676  0.74837345  0.99857481
   0.25519177  0.24953289  0.50669557
   0.24928184  0.75226381  0.50113420
   0.24706079  0.24754105  0.24842129
   0.25598891  0.00229703  0.99425882
   0.00131208  0.24948881  0.00405193
   0.74624336  0.24071747  0.24199035
   0.74569790  0.99580329  0.00881103
   0.50706977  0.00692141  0.24724272
   0.99133926  0.48724988  0.24654657
   0.50174073  0.75979632  0.00356126
   0.99101078  0.99161586  0.74762526
   0.76129948  0.22931678  0.74723342
   0.74737581  0.01185807  0.49157039
   0.50294882  0.24854114  0.49062744
   0.50739713  0.00348783  0.74661151
   0.99585530  0.99922356  0.25380919
   0.50370088  0.24384535  0.00065773
   0.25677433  0.74924279  0.24973973
   0.24108595  0.50024775  0.99202970
   0.00564816  0.74329703  0.00530917
   0.74041312  0.74718996  0.24843676
   0.76300957  0.49545347  0.01129078
   0.49240305  0.49928549  0.24862660
   0.25834526  0.24904047  0.74635750
   0.26008780  0.00109181  0.51318366
   0.00151699  0.24812508  0.50209059
   0.24215659  0.75470621  0.75140131
   0.25253110  0.50120448  0.50154668
   0.00118443  0.75552875  0.50515587
   0.00107342  0.48747222  0.75761158
   0.75251967  0.77043845  0.74767753
   0.74564252  0.49485131  0.51362526
   0.49754707  0.76276415  0.48722661
   0.50009067  0.50407630  0.74457336
   0.51847282  0.01349281  0.97863017
   0.99030173  0.51959634  0.97955346
   0.48958464  0.72705479  0.26291632
   0.22281089  0.02166442  0.73977781
   0.48242205  0.98896010  0.50689373
   0.72780219  0.99276709  0.78882847
   0.00532024  0.76999578  0.25429504
   0.73261896  0.50906665  0.25956378
   0.01798082  0.00262147  0.50560193
   0.50342138  0.51543967  0.48776305
   0.75600861  0.52459945  0.76653094
   0.74940520  0.73790293  0.49858980
HECN                                    
           1
     8.708855    0.004913    0.002433
     0.010761    8.751351    0.002569
     0.033694   -0.012630    8.730496
   Hf   W    Ti   N    C    Cr   Mo
   7   6   7  13  19   6   6
Direct configuration=     9
   0.00205333  0.99873065  0.99319521
   0.26567177  0.00121822  0.24817767
   0.23942359  0.49458572  0.24435612
   0.50322591  0.50163721  0.00037179
   0.51288397  0.24555118  0.74118230
   0.99699574  0.50136306  0.50075475
   0.49673520  0.76212292  0.74930213
   0.98940549  0.22901224  0.26046270
   0.76406438  0.74428225  0.00152977
   0.01561470  0.24285491  0.74108343
   0.75368203  0.25600651  0.48061111
   0.99776284  0.73523342  0.75652129
   0.25461364  0.49404683  0.74922968
   0.25243532  0.24633496  0.98666733
   0.50871387  0.25551149  0.24985739
   0.73396254  0.99006468  0.26198951
   0.74759487  0.24633900  0.00055022
   0.24655176  0.74838839  0.99857369
   0.25518764  0.24949229  0.50672377
   0.24930342  0.75228139  0.50112022
   0.24707615  0.24753849  0.24841107
   0.25604194  0.00226813  0.99422888
   0.00131492  0.24959479  0.00406579
   0.74621990  0.24071096  0.24202666
   0.74568898  0.99583624  0.00879378
   0.50705479  0.00682476  0.24718934
   0.99132135  0.48728784  0.24648407
   0.50175542  0.75986758  0.00361361
   0.99097345  0.99159272  0.74764504
   0.76131911  0.22938915  0.74717769
   0.74736698  0.01180139  0.49169909
   0.50293260  0.24850824  0.49061276
   0.50730553  0.00350815  0.74659674
   0.99584639  0.99918920  0.25380539
   0.50368650  0.24384316  0.00067025
   0.25674336  0.74923080  0.24973244
   0.24109083  0.50023467  0.99201799
   0.00560261  0.74324582  0.00528668
   0.74039975  0.74718995  0.24846585
   0.76300662  0.49544991  0.01129194
   0.49244956  0.49933535  0.24864358
   0.25832043  0.24902357  0.74635225
   0.26012436  0.00109318  0.51320426
   0.00154003  0.24812128  0.50209680
   0.24216483  0.75476067  0.75139255
   0.25252547  0.50120161  0.50153452
   0.00121989  0.75549485  0.50517746
   0.00109811  0.48749175  0.75761328
   0.75252382  0.77045208  0.74767861
   0.74565240  0.49490803  0.51363265
   0.49756029  0.76274294  0.48717197
   0.50008668  0.50407260  0.74457259
   0.51844102  0.01346084  0.97865969
   0.99030089  0.51953464  0.97956611
   0.48949997  0.72710220  0.26277170
   0.22282634  0.02158296  0.73990516
   0.48250084  0.98896492  0.50670822
   0.72776290  0.99284457  0.78885281
   0.00534032  0.76996652  0.25426809
   0.73258209  0.50902834  0.25959787
   0.01797353  0.00265266  0.50558997
   0.50342103  0.51546761  0.48769279
   0.75600516  0.52457271  0.76657841
   0.74945126  0.73795456  0.49866362
HECN                                    
           1
     8.708725    0.004885    0.002417
     0.010733    8.751249    0.002640
     0.033678   -0.012559    8.730256
   Hf   W    Ti   N    C    Cr   Mo
   7   6   7  13  19   6   6
Direct configuration=    10
   0.00204847  0.99872745  0.99319938
   0.26565950  0.00121464  0.24818321
   0.23942965  0.49459053  0.24435299
   0.50322511  0.50163245  0.00037558
   0.51288206  0.24554248  0.74118702
   0.99699929  0.50135998  0.50076688
   0.49674602  0.76213776  0.74929903
   0.98939442  0.22901815  0.26046235
   0.76406275  0.74428004  0.00151984
   0.01563571  0.24284941  0.74108899
   0.75368846  0.25600519  0.48060430
   0.99775183  0.73522271  0.75653227
   0.25461350  0.49404976  0.74923057
   0.25244153  0.24633799  0.98666692
   0.50870864  0.25551030  0.24985015
   0.73397418  0.99006651  0.26199590
   0.74759293  0.24633656  0.00055031
   0.24655802  0.74839214  0.99857341
   0.25518661  0.24948212  0.50673084
   0.24930883  0.75228579  0.50111672
   0.24707999  0.24753785  0.24840851
   0.25605522  0.00226089  0.99422138
   0.00131563  0.24962134  0.00406926
   0.74621401  0.24070934  0.24203576
   0.74568674  0.99584450  0.00878946
   0.50705104  0.00680054  0.24717596
   0.99131686  0.48729735  0.24646841
   0.50175910  0.75988544  0.00362672
   0.99096409  0.99158693  0.74764999
   0.76132403  0.22940728  0.74716373
   0.74736477  0.01178719  0.49173135
   0.50292853  0.24850000  0.49060908
   0.50728258  0.00351324  0.74659304
   0.99584416  0.99918059  0.25380444
   0.50368289  0.24384261  0.00067339
   0.25673561  0.74922780  0.24973061
   0.24109205  0.50023139  0.99201506
   0.00559119  0.74323299  0.00528104
   0.74039640  0.74718994  0.24847314
   0.76300588  0.49544901  0.01129223
   0.49246121  0.49934785  0.24864784
   0.25831421  0.24901934  0.74635094
   0.26013351  0.00109352  0.51320943
   0.00154580  0.24812032  0.50209835
   0.24216689  0.75477431  0.75139036
   0.25252406  0.50120089  0.50153148
   0.00122877  0.75548636  0.50518287
   0.00110430  0.48749665  0.75761370
   0.75252486  0.77045550  0.74767888
   0.74565487  0.49492225  0.51363450
   0.49756360  0.76273763  0.48715828
   0.50008569  0.50407167  0.74457240
   0.51843305  0.01345283  0.97866709
   0.99030068  0.51951918  0.97956928
   0.48947875  0.72711407  0.26273546
   0.22283022  0.02156255  0.73993708
   0.48252058  0.98896613  0.50666173
   0.72775306  0.99286399  0.78885891
   0.00534535  0.76995919  0.25426134
   0.73257286  0.50901874  0.25960641
   0.01797170  0.00266047  0.50558697
   0.50342095  0.51547462  0.48767518
   0.75600430  0.52456601  0.76659031
   0.74946280  0.73796750  0.49868212
HECN                                    
           1
     8.708772    0.004895    0.002423
     0.010743    8.751286    0.002615
     0.033683   -0.012584    8.730342
   Hf   W    Ti   N    C    Cr   Mo
   7   6   7  13  19   6   6
Direct configuration=    11
   0.00205020  0.99872859  0.99319789
   0.26566387  0.00121591  0.24818123
   0.23942749  0.49458882  0.24435410
   0.50322539  0.50163415  0.00037423
   0.51288274  0.24554559  0.74118534
   0.99699802  0.50136108  0.50076256
   0.49674216  0.76213247  0.74930014
   0.98939837  0.22901604  0.26046247
   0.76406333  0.74428083  0.00152339
   0.01562822  0.24285137  0.74108701
   0.75368617  0.25600566  0.48060673
   0.99775576  0.73522653  0.75652836
   0.25461355  0.49404872  0.74923025
   0.25243932  0.24633691  0.98666707
   0.50871050  0.25551072  0.24985273
   0.73397003  0.99006586  0.26199362
   0.74759362  0.24633743  0.00055028
   0.24655579  0.74839080  0.99857351
   0.25518698  0.24948574  0.50672832
   0.24930690  0.75228422  0.50111797
   0.24707862  0.24753808  0.24840942
   0.25605048  0.00226347  0.99422405
   0.00131537  0.24961187  0.00406802
   0.74621611  0.24070992  0.24203251
   0.74568754  0.99584156  0.00879100
   0.50705238  0.00680917  0.24718073
   0.99131846  0.48729396  0.24647400
   0.50175779  0.75987907  0.00362205
   0.99096743  0.99158899  0.74764823
   0.76132227  0.22940081  0.74716871
   0.74736556  0.01179225  0.49171984
   0.50292998  0.24850294  0.49061039
   0.50729076  0.00351143  0.74659436
   0.99584496  0.99918366  0.25380478
   0.50368418  0.24384281  0.00067227
   0.25673837  0.74922887  0.24973126
   0.24109161  0.50023256  0.99201610
   0.00559526  0.74323757  0.00528305
   0.74039759  0.74718994  0.24847054
   0.76300615  0.49544933  0.01129213
   0.49245706  0.49934339  0.24864632
   0.25831643  0.24902085  0.74635141
   0.26013025  0.00109340  0.51320759
   0.00154375  0.24812066  0.50209780
   0.24216616  0.75476945  0.75139114
   0.25252456  0.50120115  0.50153256
   0.00122560  0.75548939  0.50518094
   0.00110209  0.48749490  0.75761355
   0.75252449  0.77045428  0.74767878
   0.74565399  0.49491718  0.51363384
   0.49756242  0.76273952  0.48716316
   0.50008604  0.50407200  0.74457247
   0.51843589  0.01345569  0.97866445
   0.99030075  0.51952469  0.97956815
   0.48948632  0.72710984  0.26274838
   0.22282884  0.02156983  0.73992569
   0.48251354  0.98896570  0.50667831
   0.72775657  0.99285706  0.78885674
   0.00534355  0.76996181  0.25426375
   0.73257615  0.50902216  0.25960336
   0.01797235  0.00265768  0.50558804
   0.50342098  0.51547212  0.48768146
   0.75600461  0.52456840  0.76658606
   0.74945868  0.73796289  0.49867552
HECN                                    
           1
     8.708740    0.004888    0.002419
     0.010736    8.751261    0.002632
     0.033680   -0.012567    8.730284
   Hf   W    Ti   N    C    Cr   Mo
   7   6   7  13  19   6   6
Direct configuration=    12
   0.00204903  0.99872782  0.99319890
   0.26566091  0.00121505  0.24818257
   0.23942895  0.49458998  0.24435335