   8   8   0   0
  0.5620763E+01  0.3556000E-09  0.3556000E-09  0.3556000E-09  0.5000000E-15
  1.000000000000000E-004
  CAR 
 C                                       
     28.67749466    -13.64096354  301      9.93394422      1.00000000
    -13.641  0.0000E+00  0.0000E+00
    -13.500  0.0000E+00  0.0000E+00
    -13.359  0.0000E+00  0.0000E+00
    -13.218  0.0000E+00  0.0000E+00
    -13.077  0.0000E+00  0.0000E+00
    -12.936  0.0000E+00  0.0000E+00
    -12.795  0.0000E+00  0.0000E+00
    -12.654  0.0000E+00  0.0000E+00
    -12.512  0.0000E+00  0.0000E+00
    -12.371  0.0000E+00  0.0000E+00
    -12.230  0.0000E+00  0.0000E+00
    -12.089  0.0000E+00  0.0000E+00
    -11.948  0.0000E+00  0.0000E+00
    -11.807  0.0000E+00  0.0000E+00
    -11.666  0.2476E-03  0.3784E-04
    -11.525  0.4961E-03  0.2362E-03
    -11.384  0.4298E-03  0.5592E-03
    -11.243  0.1736E-02  0.9943E-03
    -11.102  0.3268E-03  0.1390E-02
    -10.961  0.1490E-02  0.2015E-02
    -10.820  0.1817E-02  0.2586E-02
    -10.679  0.5193E-03  0.3050E-02
    -10.538  0.2439E-02  0.3951E-02
    -10.397  0.1040E-02  0.4529E-02
    -10.255  0.1982E-02  0.5362E-02
    -10.114  0.1984E-02  0.6132E-02
     -9.973  0.9946E-03  0.6920E-02
     -9.832  0.3259E-02  0.7904E-02
     -9.691  0.3867E-04  0.8593E-02
     -9.550  0.1982E-02  0.9584E-02
     -9.409  0.3035E-02  0.1085E-01
     -9.268  0.6434E-03  0.1142E-01
     -9.127  0.4439E-02  0.1278E-01
     -8.986  0.1835E-02  0.1374E-01
     -8.845  0.2844E-02  0.1482E-01
     -8.704  0.1488E-02  0.1589E-01
     -8.563  0.2541E-02  0.1710E-01
     -8.422  0.2327E-02  0.1837E-01
     -8.281  0.1446E-02  0.1950E-01
     -8.140  0.1984E-02  0.2077E-01
     -7.999  0.1825E-02  0.2198E-01
     -7.857  0.3733E-02  0.2358E-01
     -7.716  0.4736E-04  0.2446E-01
     -7.575  0.5201E-02  0.2634E-01
     -7.434  0.3992E-02  0.2751E-01
     -7.293  0.1512E-02  0.2877E-01
     -7.152  0.1977E-02  0.3045E-01
     -7.011  0.3306E-02  0.3218E-01
     -6.870  0.5595E-02  0.3371E-01
     -6.729  0.2471E-02  0.3493E-01
     -6.588  0.4648E-02  0.3692E-01
     -6.447  0.2597E-02  0.3845E-01
     -6.306  0.2149E-02  0.3993E-01
     -6.165  0.3456E-02  0.4193E-01
     -6.024  0.4339E-02  0.4385E-01
     -5.883  0.6093E-02  0.4619E-01
     -5.742  0.5872E-02  0.4809E-01
     -5.600  0.2471E-02  0.5027E-01
     -5.459  0.1988E-02  0.5223E-01
     -5.318  0.5249E-02  0.5410E-01
     -5.177  0.5593E-02  0.5646E-01
     -5.036  0.4483E-02  0.5798E-01
     -4.895  0.8669E-04  0.5953E-01
     -4.754  0.2586E-02  0.6174E-01
     -4.613  0.1776E-02  0.6310E-01
     -4.472  0.2500E-02  0.6448E-01
     -4.331  0.3482E-02  0.6678E-01
     -4.190  0.6993E-03  0.6786E-01
     -4.049  0.2479E-02  0.6951E-01
     -3.908  0.3480E-02  0.7081E-01
     -3.767  0.2468E-02  0.7208E-01
     -3.626  0.1457E-02  0.7334E-01
     -3.485  0.4323E-02  0.7472E-01
     -3.343  0.5694E-02  0.7655E-01
     -3.202  0.2733E-02  0.7806E-01
     -3.061  0.3333E-02  0.7933E-01
     -2.920  0.1377E-02  0.8054E-01
     -2.779  0.5806E-02  0.8309E-01
     -2.638  0.3969E-02  0.8413E-01
     -2.497  0.3278E-02  0.8574E-01
     -2.356  0.1678E-02  0.8706E-01
     -2.215  0.4752E-02  0.8854E-01
     -2.074  0.2715E-02  0.9050E-01
     -1.933  0.3119E-02  0.9279E-01
     -1.792  0.6459E-02  0.9652E-01
     -1.651  0.7417E-02  0.1005E+00
     -1.510  0.7365E-02  0.1034E+00
     -1.369  0.6522E-02  0.1056E+00
     -1.228  0.3791E-02  0.1079E+00
     -1.086  0.4320E-02  0.1115E+00
     -0.945  0.3143E-02  0.1137E+00
     -0.804  0.2112E-02  0.1151E+00
     -0.663  0.3108E-02  0.1168E+00
     -0.522  0.2251E-02  0.1189E+00
     -0.381  0.6889E-02  0.1208E+00
     -0.240  0.1476E-02  0.1230E+00
     -0.099  0.1147E-02  0.1240E+00
      0.042  0.2014E-02  0.1257E+00
      0.183  0.3372E-02  0.1270E+00
      0.324  0.6366E-02  0.1285E+00
      0.465  0.4091E-02  0.1304E+00
      0.606  0.6075E-02  0.1324E+00
      0.747  0.7305E-02  0.1349E+00
      0.888  0.2726E-02  0.1369E+00
      1.029  0.6103E-02  0.1393E+00
      1.170  0.6807E-02  0.1424E+00
      1.312  0.5189E-02  0.1459E+00
      1.453  0.3997E-02  0.1483E+00
      1.594  0.7942E-02  0.1512E+00
      1.735  0.7552E-02  0.1540E+00
      1.876  0.5928E-02  0.1567E+00
      2.017  0.7340E-02  0.1602E+00
      2.158  0.4522E-02  0.1626E+00
      2.299  0.7364E-02  0.1660E+00
      2.440  0.7158E-02  0.1688E+00
      2.581  0.8821E-02  0.1721E+00
      2.722  0.4647E-02  0.1752E+00
      2.863  0.5408E-02  0.1780E+00
      3.004  0.7345E-02  0.1814E+00
      3.145  0.7355E-02  0.1861E+00
      3.286  0.1088E-01  0.1893E+00
      3.427  0.9058E-02  0.1923E+00
      3.569  0.6819E-02  0.1969E+00
      3.710  0.3966E-02  0.2018E+00
      3.851  0.9297E-02  0.2059E+00
      3.992  0.7564E-02  0.2103E+00
      4.133  0.8979E-02  0.2153E+00
      4.274  0.9090E-02  0.2188E+00
      4.415  0.4916E-02  0.2232E+00
      4.556  0.6513E-02  0.2270E+00
      4.697  0.1049E-01  0.2321E+00
      4.838  0.8330E-02  0.2360E+00
      4.979  0.7725E-02  0.2398E+00
      5.120  0.6745E-02  0.2432E+00
      5.261  0.3909E-02  0.2478E+00
      5.402  0.4961E-02  0.2521E+00
      5.543  0.6948E-02  0.2554E+00
      5.684  0.1051E-01  0.2593E+00
      5.826  0.8153E-02  0.2639E+00
      5.967  0.9202E-02  0.2676E+00
      6.108  0.9732E-02  0.2706E+00
      6.249  0.9113E-02  0.2744E+00
      6.390  0.6246E-02  0.2786E+00
      6.531  0.8411E-02  0.2820E+00
      6.672  0.8570E-02  0.2852E+00
      6.813  0.1054E-01  0.2886E+00
      6.954  0.5255E-02  0.2931E+00
      7.095  0.8649E-02  0.2955E+00
      7.236  0.3485E-02  0.2980E+00
      7.377  0.5642E-02  0.3008E+00
      7.518  0.5008E-02  0.3035E+00
      7.659  0.2622E-02  0.3050E+00
      7.800  0.3637E-02  0.3064E+00
      7.941  0.2471E-02  0.3085E+00
      8.083  0.2533E-02  0.3100E+00
      8.224  0.2083E-02  0.3112E+00
      8.365  0.3511E-02  0.3128E+00
      8.506  0.2726E-02  0.3141E+00
      8.647  0.1980E-02  0.3150E+00
      8.788  0.7474E-03  0.3158E+00
      8.929  0.1014E-02  0.3169E+00
      9.070  0.2624E-02  0.3176E+00
      9.211  0.5269E-03  0.3181E+00
      9.352  0.1318E-02  0.3189E+00
      9.493  0.1295E-02  0.3194E+00
      9.634  0.7441E-03  0.3197E+00
      9.775  0.5750E-04  0.3199E+00
      9.916  0.0000E+00  0.3200E+00
     10.057  0.0000E+00  0.3200E+00
     10.198  0.0000E+00  0.3200E+00
     10.339  0.0000E+00  0.3200E+00
     10.481  0.0000E+00  0.3200E+00
     10.622  0.0000E+00  0.3200E+00
     10.763  0.0000E+00  0.3200E+00
     10.904  0.0000E+00  0.3200E+00
     11.045  0.0000E+00  0.3200E+00
     11.186  0.0000E+00  0.3200E+00
     11.327  0.0000E+00  0.3200E+00
     11.468  0.0000E+00  0.3200E+00
     11.609  0.0000E+00  0.3200E+00
     11.750  0.0000E+00  0.3200E+00
     11.891  0.0000E+00  0.3200E+00
     12.032  0.0000E+00  0.3200E+00
     12.173  0.0000E+00  0.3200E+00
     12.314  0.0000E+00  0.3200E+00
     12.455  0.0000E+00  0.3200E+00
     12.596  0.0000E+00  0.3200E+00
     12.738  0.0000E+00  0.3200E+00
     12.879  0.0000E+00  0.3200E+00
     13.020  0.0000E+00  0.3200E+00
     13.161  0.0000E+00  0.3200E+00
     13.302  0.0000E+00  0.3200E+00
     13.443  0.0000E+00  0.3200E+00
     13.584  0.0000E+00  0.3200E+00
     13.725  0.0000E+00  0.3200E+00
     13.866  0.0000E+00  0.3200E+00
     14.007  0.2481E-03  0.3201E+00
     14.148  0.4961E-03  0.3204E+00
     14.289  0.6368E-03  0.3209E+00
     14.430  0.1637E-02  0.3215E+00
     14.571  0.1965E-02  0.3227E+00
     14.712  0.1647E-02  0.3237E+00
     14.853  0.1267E-03  0.3245E+00
     14.995  0.5929E-02  0.3269E+00
     15.136  0.3032E-02  0.3286E+00
     15.277  0.3487E-02  0.3301E+00
     15.418  0.3137E-02  0.3322E+00
     15.559  0.7265E-02  0.3346E+00
     15.700  0.4712E-02  0.3378E+00
     15.841  0.3879E-02  0.3399E+00
     15.982  0.6767E-02  0.3427E+00
     16.123  0.6955E-02  0.3457E+00
     16.264  0.7688E-02  0.3481E+00
     16.405  0.8257E-02  0.3517E+00
     16.546  0.6114E-02  0.3545E+00
     16.687  0.8882E-02  0.3581E+00
     16.828  0.3532E-02  0.3610E+00
     16.969  0.3521E-02  0.3645E+00
     17.110  0.5617E-02  0.3682E+00
     17.252  0.6471E-02  0.3727E+00
     17.393  0.1095E-01  0.3768E+00
     17.534  0.6162E-02  0.3816E+00
     17.675  0.7497E-02  0.3855E+00
     17.816  0.1085E-01  0.3893E+00
     17.957  0.9172E-02  0.3956E+00
     18.098  0.1242E-01  0.4020E+00
     18.239  0.8632E-02  0.4076E+00
     18.380  0.1445E-01  0.4136E+00
     18.521  0.1514E-01  0.4188E+00
     18.662  0.8734E-02  0.4251E+00
     18.803  0.1218E-01  0.4304E+00
     18.944  0.8078E-02  0.4353E+00
     19.085  0.1078E-01  0.4395E+00
     19.226  0.8166E-02  0.4450E+00
     19.367  0.7417E-02  0.4496E+00
     19.508  0.6454E-02  0.4551E+00
     19.650  0.8747E-02  0.4596E+00
     19.791  0.7352E-02  0.4642E+00
     19.932  0.9536E-02  0.4676E+00
     20.073  0.6634E-02  0.4721E+00
     20.214  0.1076E-01  0.4782E+00
     20.355  0.8749E-02  0.4817E+00
     20.496  0.1896E-02  0.4850E+00
     20.637  0.8793E-02  0.4886E+00
     20.778  0.6757E-02  0.4922E+00
     20.919  0.5953E-02  0.4948E+00
     21.060  0.8986E-02  0.4986E+00
     21.201  0.6879E-02  0.5023E+00
     21.342  0.8172E-02  0.5053E+00
     21.483  0.8950E-02  0.5092E+00
     21.624  0.3821E-02  0.5121E+00
     21.765  0.9895E-02  0.5146E+00
     21.907  0.1113E-01  0.5193E+00
     22.048  0.7489E-02  0.5238E+00
     22.189  0.4107E-02  0.5271E+00
     22.330  0.5623E-02  0.5303E+00
     22.471  0.4725E-02  0.5326E+00
     22.612  0.5003E-02  0.5362E+00
     22.753  0.3550E-02  0.5401E+00
     22.894  0.6097E-02  0.5424E+00
     23.035  0.7385E-02  0.5447E+00
     23.176  0.8124E-02  0.5467E+00
     23.317  0.5517E-02  0.5486E+00
     23.458  0.2880E-02  0.5501E+00
     23.599  0.1499E-02  0.5519E+00
     23.740  0.2252E-02  0.5531E+00
     23.881  0.2132E-02  0.5541E+00
     24.022  0.1424E-07  0.5550E+00
     24.164  0.4961E-03  0.5554E+00
     24.305  0.7184E-03  0.5555E+00
     24.446  0.2447E-02  0.5561E+00
     24.587  0.2481E-02  0.5568E+00
     24.728  0.0000E+00  0.5568E+00
     24.869  0.3123E-08  0.5570E+00
     25.010  0.9524E-03  0.5573E+00
     25.151  0.1488E-02  0.5581E+00
     25.292  0.0000E+00  0.5581E+00
     25.433  0.0000E+00  0.5583E+00
     25.574  0.4961E-03  0.5585E+00
     25.715  0.0000E+00  0.5590E+00
     25.856  0.0000E+00  0.5590E+00
     25.997  0.1182E-05  0.5592E+00
     26.138  0.0000E+00  0.5595E+00
     26.279  0.2278E-06  0.5595E+00
     26.421  0.6518E-03  0.5598E+00
     26.562  0.3307E-03  0.5599E+00
     26.703  0.2480E-03  0.5600E+00
     26.844  0.0000E+00  0.5600E+00
     26.985  0.0000E+00  0.5600E+00
     27.126  0.0000E+00  0.5600E+00
     27.267  0.0000E+00  0.5600E+00
     27.408  0.0000E+00  0.5600E+00
     27.549  0.0000E+00  0.5600E+00
     27.690  0.0000E+00  0.5600E+00
     27.831  0.0000E+00  0.5600E+00
     27.972  0.0000E+00  0.5600E+00
     28.113  0.0000E+00  0.5600E+00
     28.254  0.0000E+00  0.5600E+00
     28.395  0.0000E+00  0.5600E+00
     28.536  0.0000E+00  0.5600E+00
     28.677  0.0000E+00  0.5600E+00
