    8    8  100    1
  0.5620763E+01  0.3556000E-09  0.3556000E-09  0.3556000E-09  0.5000000E-15
  1.000000000000000E-004
  CAR 
 C                                       
     32    220     28
 
  0.0000000E+00  0.0000000E+00  0.0000000E+00  0.1457938E-03
      1        -11.717397   1.000000
      2         -2.979019   1.000000
      3         -2.979019   1.000000
      4         -2.979019   1.000000
      5         -2.979012   1.000000
      6         -2.979012   1.000000
      7         -2.979012   1.000000
      8          3.494191   1.000000
      9          3.494191   1.000000
     10          3.494191   1.000000
     11          3.494191   1.000000
     12          3.494191   1.000000
     13          3.494191   1.000000
     14          9.839240   1.000000
     15          9.839240   1.000000
     16          9.839240   1.000000
     17         14.585888   0.000000
     18         14.585888   0.000000
     19         14.585888   0.000000
     20         14.585901   0.000000
     21         14.585901   0.000000
     22         14.585901   0.000000
     23         15.437917   0.000000
     24         15.437917   0.000000
     25         15.437917   0.000000
     26         23.235469   0.000000
     27         26.753928   0.000000
     28         26.753928   0.000000
 
  0.5263158E-01  0.0000000E+00  0.0000000E+00  0.8747631E-03
      1        -11.691741   1.000000
      2         -3.811471   1.000000
      3         -2.962523   1.000000
      4         -2.962523   1.000000
      5         -2.962516   1.000000
      6         -2.962516   1.000000
      7         -2.122557   1.000000
      8          3.436395   1.000000
      9          3.436395   1.000000
     10          3.436395   1.000000
     11          3.436395   1.000000
     12          3.517952   1.000000
     13          3.517952   1.000000
     14          9.729620   1.000000
     15          9.729620   1.000000
     16          9.775573   1.000000
     17         14.355180   0.000000
     18         14.692456   0.000000
     19         14.692456   0.000000
     20         14.692469   0.000000
     21         14.692469   0.000000
     22         14.875333   0.000000
     23         15.417116   0.000000
     24         15.570244   0.000000
     25         15.570244   0.000000
     26         23.257678   0.000000
     27         26.668677   0.000000
     28         26.691203   0.000000
 
  0.1052632E+00  0.0000000E+00  0.0000000E+00  0.8747631E-03
      1        -11.614783   1.000000
      2         -4.615146   1.000000
      3         -2.913860   1.000000
      4         -2.913860   1.000000
      5         -2.913853   1.000000
      6         -2.913853   1.000000
      7         -1.245733   1.000000
      8          3.271673   1.000000
      9          3.271673   1.000000
     10          3.271673   1.000000
     11          3.271673   1.000000
     12          3.593074   1.000000
     13          3.593074   1.000000
     14          9.429403   1.000000
     15          9.429403   1.000000
     16          9.587639   1.000000
     17         14.181132   0.000000
     18         15.003625   0.000000
     19         15.003625   0.000000
     20         15.003637   0.000000
     21         15.003637   0.000000
     22         15.232823   0.000000
     23         15.356247   0.000000
     24         15.938402   0.000000
     25         15.938402   0.000000
     26         23.312243   0.000000
     27         26.419355   0.000000
     28         26.419359   0.000000
 
  0.1578947E+00  0.0000000E+00  0.0000000E+00  0.8747631E-03
      1        -11.486636   1.000000
      2         -5.386409   1.000000
      3         -2.834650   1.000000
      4         -2.834650   1.000000
      5         -2.834644   1.000000
      6         -2.834644   1.000000
      7         -0.356207   1.000000
      8          3.022503   1.000000
      9          3.022503   1.000000
     10          3.022504   1.000000
     11          3.022504   1.000000
     12          3.717763   1.000000
     13          3.717763   1.000000
     14          8.998894   1.000000
     15          8.998894   1.000000
     16          9.276118   1.000000
     17         14.059374   0.000000
     18         15.250586   0.000000
     19         15.499178   0.000000
     20         15.499178   0.000000
     21         15.499182   0.000000
     22         15.499182   0.000000
     23         15.653370   0.000000
     24         16.477503   0.000000
     25         16.477503   0.000000
     26         23.355771   0.000000
     27         26.021287   0.000000
     28         26.021287   0.000000
 
  0.2105263E+00  0.0000000E+00  0.0000000E+00  0.8747631E-03
      1        -11.307478   1.000000
      2         -6.122023   1.000000
      3         -2.730180   1.000000
      4         -2.730180   1.000000
      5         -2.730174   1.000000
      6         -2.730174   1.000000
      7          0.540793   1.000000
      8          2.718557   1.000000
      9          2.718557   1.000000
     10          2.718559   1.000000
     11          2.718559   1.000000
     12          3.891684   1.000000
     13          3.891684   1.000000
     14          8.497141   1.000000
     15          8.497141   1.000000
     16          8.864746   1.000000
     17         13.986193   0.000000
     18         15.133618   0.000000
     19         16.144735   0.000000
     20         16.145311   0.000000
     21         16.145311   0.000000
     22         16.145313   0.000000
     23         16.145313   0.000000
     24         17.139549   0.000000
     25         17.139549   0.000000
     26         23.331608   0.000000
     27         25.502195   0.000000
     28         25.502195   0.000000
 
  0.2631579E+00  0.0000000E+00  0.0000000E+00  0.8747631E-03
      1        -11.077564   1.000000
      2         -6.819215   1.000000
      3         -2.606834   1.000000
      4         -2.606834   1.000000
      5         -2.606828   1.000000
      6         -2.606828   1.000000
      7          1.438578   1.000000
      8          2.392143   1.000000
      9          2.392143   1.000000
     10          2.392145   1.000000
     11          2.392145   1.000000
     12          4.114076   1.000000
     13          4.114076   1.000000
     14          7.960533   1.000000
     15          7.960533   1.000000
     16          8.364637   1.000000
     17         13.957872   0.000000
     18         14.982628   0.000000
     19         16.709332   0.000000
     20         16.912124   0.000000
     21         16.912124   0.000000
     22         16.912124   0.000000
     23         16.912124   0.000000
     24         17.861170   0.000000
     25         17.861170   0.000000
     26         23.155338   0.000000
     27         24.888030   0.000000
     28         24.888031   0.000000
 
  0.3157895E+00  0.0000000E+00  0.0000000E+00  0.8747631E-03
      1        -10.797253   1.000000
      2         -7.475627   1.000000
      3         -2.474888   1.000000
      4         -2.474888   1.000000
      5         -2.474882   1.000000
      6         -2.474882   1.000000
      7          2.074004   1.000000
      8          2.074004   1.000000
      9          2.074006   1.000000
     10          2.074006   1.000000
     11          2.330127   1.000000
     12          4.385948   1.000000
     13          4.385948   1.000000
     14          7.416708   1.000000
     15          7.416708   1.000000
     16          7.781732   1.000000
     17         13.971137   0.000000
     18         14.821574   0.000000
     19         17.348138   0.000000
     20         17.766776   0.000000
     21         17.766776   0.000000
     22         17.766779   0.000000
     23         17.766779   0.000000
     24         18.634465   0.000000
     25         18.634465   0.000000
     26         22.755445   0.000000
     27         24.209645   0.000000
     28         24.209645   0.000000
 
  0.3684211E+00  0.0000000E+00  0.0000000E+00  0.8747631E-03
      1        -10.466947   1.000000
      2         -8.089328   1.000000
      3         -2.348717   1.000000
      4         -2.348717   1.000000
      5         -2.348711   1.000000
      6         -2.348711   1.000000
      7          1.796357   1.000000
      8          1.796357   1.000000
      9          1.796362   1.000000
     10          1.796362   1.000000
     11          3.208183   1.000000
     12          4.701884   1.000000
     13          4.701884   1.000000
     14          6.888483   1.000000
     15          6.888483   1.000000
     16          7.137616   1.000000
     17         14.021048   0.000000
     18         14.656650   0.000000
     19         18.059261   0.000000
     20         18.678355   0.000000
     21         18.678355   0.000000
     22         18.678355   0.000000
     23         18.678355   0.000000
     24         19.437163   0.000000
     25         19.437163   0.000000
     26         22.143925   0.000000
     27         23.470146   0.000000
     28         23.470146   0.000000
 
  0.4210526E+00  0.0000000E+00  0.0000000E+00  0.8747631E-03
      1        -10.087190   1.000000
      2         -8.658696   1.000000
      3         -2.247080   1.000000
      4         -2.247080   1.000000
      5         -2.247074   1.000000
      6         -2.247074   1.000000
      7          1.587452   1.000000
      8          1.587452   1.000000
      9          1.587457   1.000000
     10          1.587457   1.000000
     11          4.062891   1.000000
     12          5.062138   1.000000
     13          5.062138   1.000000
     14          6.382376   1.000000
     15          6.382376   1.000000
     16          6.435851   1.000000
     17         14.098760   0.000000
     18         14.495431   0.000000
     19         18.836327   0.000000
     20         19.589464   0.000000
     21         19.589464   0.000000
     22         19.589470   0.000000
     23         19.589470   0.000000
     24         20.254277   0.000000
     25         20.254277   0.000000
     26         21.373862   0.000000
     27         22.691508   0.000000
     28         22.691508   0.000000
 
  0.4736842E+00  0.0000000E+00  0.0000000E+00  0.8747631E-03
      1         -9.658660   1.000000
      2         -9.182145   1.000000
      3         -2.189574   1.000000
      4         -2.189574   1.000000
      5         -2.189568   1.000000
      6         -2.189568   1.000000
      7          1.473228   1.000000
      8          1.473228   1.000000
      9          1.473231   1.000000
     10          1.473231   1.000000
     11          4.891297   1.000000
     12          5.464643   1.000000
     13          5.464643   1.000000
     14          5.684625   1.000000
     15          5.905964   1.000000
     16          5.905964   1.000000
     17         14.212032   0.000000
     18         14.345087   0.000000
     19         19.666975   0.000000
     20         20.337156   0.000000
     21         20.337156   0.000000
     22         20.337180   0.000000
     23         20.337180   0.000000
     24         20.526677   0.000000
     25         21.075381   0.000000
     26         21.075381   0.000000
     27         21.891284   0.000000
     28         21.891284   0.000000
 
  0.5263158E-01  0.5263158E-01  0.0000000E+00  0.1749526E-02
      1        -11.666085   1.000000
      2         -3.792751   1.000000
      3         -3.792751   1.000000
      4         -2.959540   1.000000
      5         -2.933207   1.000000
      6         -2.108498   1.000000
      7         -2.108498   1.000000
      8          3.228378   1.000000
      9          3.457463   1.000000
     10          3.457463   1.000000
     11          3.465116   1.000000
     12          3.465116   1.000000
     13          3.537036   1.000000
     14          9.534409   1.000000
     15          9.621864   1.000000
     16          9.807974   1.000000
     17         14.463608   0.000000
     18         14.463608   0.000000
     19         14.626914   0.000000
     20         14.963574   0.000000
     21         14.982114   0.000000
     22         14.982114   0.000000
     23         15.490357   0.000000
     24         15.607182   0.000000
     25         15.690768   0.000000
     26         23.280874   0.000000
     27         26.588948   0.000000
     28         26.589745   0.000000
 
  0.1052632E+00  0.5263158E-01  0.0000000E+00  0.3499052E-02
      1        -11.589144   1.000000
      2         -4.594858   1.000000
      3         -3.737227   1.000000
      4         -2.926095   1.000000
      5         -2.870572   1.000000
      6         -2.068980   1.000000
      7         -1.236378   1.000000
      8          2.934858   1.000000
      9          3.284051   1.000000
     10          3.314336   1.000000
     11          3.522393   1.000000
     12          3.529826   1.000000
     13          3.545935   1.000000
     14          9.180297   1.000000
     15          9.326067   1.000000
     16          9.698726   1.000000
     17         14.291242   0.000000
     18         14.775731   0.000000
     19         14.780109   0.000000
     20         15.288266   0.000000
     21         15.335022   0.000000
     22         15.419524   0.000000
     23         15.460358   0.000000
     24         15.941556   0.000000
     25         16.030256   0.000000
     26         23.338362   0.000000
     27         26.326901   0.000000
     28         26.388206   0.000000
 
  0.1578947E+00  0.5263158E-01  0.0000000E+00  0.3499052E-02
      1        -11.461035   1.000000
      2         -5.364916   1.000000
      3         -3.646507   1.000000
      4         -2.866806   1.000000
      5         -2.776120   1.000000
      6         -2.006892   1.000000
      7         -0.352784   1.000000
      8          2.585720   1.000000
      9          3.017731   1.000000
     10          3.085047   1.000000
     11          3.401353   1.000000
     12          3.652070   1.000000
     13          3.677868   1.000000
     14          8.721938   1.000000
     15          8.900348   1.000000
     16          9.443405   1.000000
     17         14.170704   0.000000
     18         15.126431   0.000000
     19         15.280760   0.000000
     20         15.362616   0.000000
     21         15.752898   0.000000
     22         15.772945   0.000000
     23         16.030494   0.000000
     24         16.474703   0.000000
     25         16.534620   0.000000
     26         23.386437   0.000000
     27         25.914863   0.000000
     28         26.007305   0.000000
 
  0.2105263E+00  0.5263158E-01  0.0000000E+00  0.3499052E-02
      1        -11.281932   1.000000
      2         -6.099610   1.000000
      3         -3.523504   1.000000
      4         -2.787645   1.000000
      5         -2.651979   1.000000
      6         -1.928213   1.000000
      7          0.535560   1.000000
      8          2.213757   1.000000
      9          2.691733   1.000000
     10          2.810238   1.000000
     11          3.196413   1.000000
     12          3.823836   1.000000
     13          3.861713   1.000000
     14          8.206642   1.000000
     15          8.403032   1.000000
     16          9.067096   1.000000
     17         14.098515   0.000000
     18         15.240146   0.000000
     19         15.656506   0.000000
     20         15.935203   0.000000
     21         16.241261   0.000000
     22         16.408862   0.000000
     23         16.768916   0.000000
     24         17.127483   0.000000
     25         17.164365   0.000000
     26         23.367298   0.000000
     27         25.386773   0.000000
     28         25.494737   0.000000
 
  0.2631579E+00  0.5263158E-01  0.0000000E+00  0.3499052E-02
      1        -11.052089   1.000000
      2         -6.796093   1.000000
      3         -3.373019   1.000000
      4         -2.699343   1.000000
      5         -2.503058   1.000000
      6         -1.842720   1.000000
      7          1.420363   1.000000
      8          1.850572   1.000000
      9          2.336344   1.000000
     10          2.523043   1.000000
     11          2.937262   1.000000
     12          4.044273   1.000000
     13          4.098243   1.000000
     14          7.656527   1.000000
     15          7.870312   1.000000
     16          8.598432   1.000000
     17         14.070970   0.000000
     18         15.094643   0.000000
     19         16.333316   0.000000
     20         16.711514   0.000000
     21         16.802524   0.000000
     22         17.163178   0.000000
     23         17.603014   0.000000
     24         17.855874   0.000000
     25         17.860415   0.000000
     26         23.196889   0.000000
     27         24.768719   0.000000
     28         24.884275   0.000000
 
  0.3157895E+00  0.5263158E-01  0.0000000E+00  0.3499052E-02
      1        -10.771858   1.000000
      2         -7.451975   1.000000
      3         -3.201952   1.000000
      4         -2.616446   1.000000
      5         -2.336102   1.000000
      6         -1.764339   1.000000
      7          1.527201   1.000000
      8          1.980594   1.000000
      9          2.256890   1.000000
     10          2.291773   1.000000
     11          2.655069   1.000000
     12          4.312279   1.000000
     13          4.389123   1.000000
     14          7.095108   1.000000
     15          7.332315   1.000000
     16          8.054649   1.000000
     17         14.084308   0.000000
     18         14.934773   0.000000
     19         17.122896   0.000000
     20         17.437583   0.000000
     21         17.579553   0.000000
     22         18.000468   0.000000
     23         18.503528   0.000000
     24         18.612753   0.000000
     25         18.631204   0.000000
     26         22.811595   0.000000
     27         24.083501   0.000000
     28         24.127068   0.000000
 
  0.3684211E+00  0.5263158E-01  0.0000000E+00  0.3499052E-02
      1        -10.441673   1.000000
      2         -8.065280   1.000000
      3         -3.021579   1.000000
      4         -2.558035   1.000000
      5         -2.161146   1.000000
      6         -1.710803   1.000000
      7          1.276451   1.000000
      8          1.651959   1.000000
      9          2.046505   1.000000
     10          2.382187   1.000000
     11          3.136621   1.000000
     12          4.626413   1.000000
     13          4.737840   1.000000
     14          6.528819   1.000000
     15          6.804484   1.000000
     16          7.451190   1.000000
     17         14.132516   0.000000
     18         14.769444   0.000000
     19         17.992754   0.000000
     20         18.144580   0.000000
     21         18.509833   0.000000
     22         18.879526   0.000000
     23         19.392237   0.000000
     24         19.430650   0.000000
     25         19.439554   0.000000
     26         22.204052   0.000000
     27         23.303559   0.000000
     28         23.348626   0.000000
 
  0.4210526E+00  0.5263158E-01  0.0000000E+00  0.3499052E-02
      1        -10.062057   1.000000
      2         -8.634248   1.000000
      3         -2.846544   1.000000
      4         -2.544770   1.000000
      5         -1.992541   1.000000
      6         -1.700658   1.000000
      7          1.125453   1.000000
      8          1.377116   1.000000
      9          1.919804   1.000000
     10          2.146190   1.000000
     11          3.938903   1.000000
     12          4.984925   1.000000
     13          5.151671   1.000000
     14          5.952994   1.000000
     15          6.300676   1.000000
     16          6.825185   1.000000
     17         14.212601   0.000000
     18         14.608798   0.000000
     19         18.894314   0.000000
     20         18.917665   0.000000
     21         19.463882   0.000000
     22         19.713912   0.000000
     23         20.191650   0.000000
     24         20.249503   0.000000
     25         20.334393   0.000000
     26         21.440723   0.000000
     27         22.497038   0.000000
     28         22.588210   0.000000
 
  0.4736842E+00  0.5263158E-01  0.0000000E+00  0.3499052E-02
      1         -9.633706   1.000000
      2         -9.157411   1.000000
      3         -2.696150   1.000000
      4         -2.590857   1.000000
      5         -1.848126   1.000000
      6         -1.746527   1.000000
      7          1.092393   1.000000
      8          1.182259   1.000000
      9          1.894502   1.000000
     10          1.975842   1.000000
     11          4.680376   1.000000
     12          5.346982   1.000000
     13          5.386895   1.000000
     14          5.641388   1.000000
     15          5.826321   1.000000
     16          6.207332   1.000000
     17         14.325995   0.000000
     18         14.458844   0.000000
     19         19.736203   0.000000
     20         19.743887   0.000000
     21         20.166250   0.000000
     22         20.363688   0.000000
     23         20.597762   0.000000
     24         20.855601   0.000000
     25         20.998963   0.000000
     26         21.072650   0.000000
     27         21.801102   0.000000
     28         21.890637   0.000000
 
  0.1052632E+00  0.1052632E+00  0.0000000E+00  0.1749526E-02
      1        -11.512268   1.000000
      2         -4.534341   1.000000
      3         -4.534341   1.000000
      4         -2.912183   1.000000
      5         -2.795090   1.000000
      6         -1.209702   1.000000
      7         -1.209702   1.000000
      8          2.541276   1.000000
      9          3.348118   1.000000
     10          3.348118   1.000000
     11          3.411212   1.000000
     12          3.411212   1.000000
     13          3.665358   1.000000
     14          8.761411   1.000000
     15          9.040521   1.000000
     16          9.711864   1.000000
     17         14.611508   0.000000
     18         14.611508   0.000000
     19         14.752529   0.000000
     20         15.635344   0.000000
     21         15.635344   0.000000
     22         15.646957   0.000000
     23         15.992713   0.000000
     24         16.050758   0.000000
     25         16.295370   0.000000
     26         23.401068   0.000000
     27         26.062898   0.000000
     28         26.062912   0.000000
 
  0.1578947E+00  0.1052632E+00  0.0000000E+00  0.3499052E-02
      1        -11.384273   1.000000
      2         -5.300726   1.000000
      3         -4.434802   1.000000
      4         -2.878150   1.000000
      5         -2.686915   1.000000
      6         -1.171310   1.000000
      7         -0.344719   1.000000
      8          2.123798   1.000000
      9          3.069643   1.000000
     10          3.209671   1.000000
     11          3.461953   1.000000
     12          3.563848   1.000000
     13          3.693089   1.000000
     14          8.270513   1.000000
     15          8.627969   1.000000
     16          9.568807   1.000000
     17         14.494038   0.000000
     18         14.940363   0.000000
     19         15.117590   0.000000
     20         15.642401   0.000000
     21         16.044611   0.000000
     22         16.108539   0.000000
     23         16.488950   0.000000
     24         16.696233   0.000000
     25         16.710004   0.000000
     26         23.466319   0.000000
     27         25.609435   0.000000
     28         25.638262   0.000000
 
  0.2105263E+00  0.1052632E+00  0.0000000E+00  0.3499052E-02
      1        -11.205331   1.000000
      2         -6.032595   1.000000
      3         -4.298334   1.000000
      4         -2.834298   1.000000
      5         -2.547197   1.000000
      6         -1.128784   1.000000
      7          0.516861   1.000000
      8          1.714454   1.000000
      9          2.726662   1.000000
     10          2.974041   1.000000
     11          3.614919   1.000000
     12          3.627667   1.000000
     13          3.777654   1.000000
     14          7.730511   1.000000
     15          8.139814   1.000000
     16          9.277416   1.000000
     17         14.424347   0.000000
     18         15.327928   0.000000
     19         15.539448   0.000000
     20         15.778024   0.000000
     21         16.524361   0.000000
     22         16.732191   0.000000
     23         17.112009   0.000000
     24         17.242195   0.000000
     25         17.501529   0.000000
     26         23.459088   0.000000
     27         25.058866   0.000000
     28         25.061150   0.000000
 
  0.2631579E+00  0.1052632E+00  0.0000000E+00  0.3499052E-02
      1        -10.975699   1.000000
      2         -6.726905   1.000000
      3         -4.128332   1.000000
      4         -2.795122   1.000000
      5         -2.378459   1.000000
      6         -1.095868   1.000000
      7          1.345738   1.000000
      8          1.362514   1.000000
      9          2.348820   1.000000
     10          2.739625   1.000000
     11          3.453397   1.000000
     12          3.842667   1.000000
     13          4.056147   1.000000
     14          7.171919   1.000000
     15          7.617549   1.000000
     16          8.873339   1.000000
     17         14.398628   0.000000
     18         15.403179   0.000000
     19         15.890068   0.000000
     20         16.560686   0.000000
     21         17.075975   0.000000
     22         17.469091   0.000000
     23         17.831581   0.000000
     24         17.863651   0.000000
     25         18.384967   0.000000
     26         23.313386   0.000000
     27         24.353513   0.000000
     28         24.432190   0.000000
 
  0.3157895E+00  0.1052632E+00  0.0000000E+00  0.3499052E-02
      1        -10.695744   1.000000
      2         -7.381092   1.000000
      3         -3.929802   1.000000
      4         -2.780551   1.000000
      5         -2.185842   1.000000
      6         -1.089012   1.000000
      7          1.049306   1.000000
      8          1.964966   1.000000
      9          2.176962   1.000000
     10          2.542473   1.000000
     11          3.237111   1.000000
     12          4.105639   1.000000
     13          4.406098   1.000000
     14          6.605289   1.000000
     15          7.088198   1.000000
     16          8.375944   1.000000
     17         14.413143   0.000000
     18         15.252523   0.000000
     19         16.591732   0.000000
     20         17.436525   0.000000
     21         17.700352   0.000000
     22         18.282315   0.000000
     23         18.543061   0.000000
     24         18.605946   0.000000
     25         19.315358   0.000000
     26         22.956221   0.000000
     27         23.552892   0.000000
     28         23.750798   0.000000
 
  0.3684211E+00  0.1052632E+00  0.0000000E+00  0.3499052E-02
      1        -10.365898   1.000000
      2         -7.993067   1.000000
      3         -3.710259   1.000000
      4         -2.811701   1.000000
      5         -1.975973   1.000000
      6         -1.125590   1.000000
      7          0.856462   1.000000
      8          1.599324   1.000000
      9          2.414458   1.000000
     10          2.942477   1.000000
     11          2.999137   1.000000
     12          4.414932   1.000000
     13          4.835015   1.000000
     14          6.037461   1.000000
     15          6.568164   1.000000
     16          7.806695   1.000000
     17         14.461788   0.000000
     18         15.092187   0.000000
     19         17.399335   0.000000
     20         18.376451   0.000000
     21         18.395656   0.000000
     22         19.112877   0.000000
     23         19.265928   0.000000
     24         19.411081   0.000000
     25         20.257334   0.000000
     26         22.375332   0.000000
     27         22.721759   0.000000
     28         23.030260   0.000000
 
  0.4210526E+00  0.1052632E+00  0.0000000E+00  0.3499052E-02
      1         -9.986717   1.000000
      2         -8.560974   1.000000
      3         -3.480268   1.000000
      4         -2.903723   1.000000
      5         -1.758929   1.000000
      6         -1.216760   1.000000
      7          0.786511   1.000000
      8          1.275235   1.000000
      9          2.375225   1.000000
     10          2.766984   1.000000
     11          3.646577   1.000000
     12          4.768706   1.000000
     13          5.345946   1.000000
     14          5.468574   1.000000
     15          6.070358   1.000000
     16          7.192862   1.000000
     17         14.542768   0.000000
     18         14.934611   0.000000
     19         18.268911   0.000000
     20         19.155747   0.000000
     21         19.351116   0.000000
     22         19.797455   0.000000
     23         20.014414   0.000000
     24         20.234612   0.000000
     25         21.091533   0.000000
     26         21.632655   0.000000
     27         22.031394   0.000000
     28         22.285407   0.000000
 
  0.4736842E+00  0.1052632E+00  0.0000000E+00  0.3499052E-02
      1         -9.558922   1.000000
      2         -9.083322   1.000000
      3         -3.255905   1.000000
      4         -3.056659   1.000000
      5         -1.548566   1.000000
      6         -1.361834   1.000000
      7          0.844234   1.000000
      8          1.015513   1.000000
      9          2.432228   1.000000
     10          2.569280   1.000000
     11          4.290880   1.000000
     12          4.890874   1.000000
     13          5.164379   1.000000
     14          5.599257   1.000000
     15          5.928106   1.000000
     16          6.553505   1.000000
     17         14.653677   0.000000
     18         14.785798   0.000000
     19         19.137144   0.000000
     20         19.822671   0.000000
     21         19.967788   0.000000
     22         20.320646   0.000000
     23         20.768425   0.000000
     24         20.808012   0.000000
     25         21.056491   0.000000
     26         21.144899   0.000000
     27         21.527918   0.000000
     28         21.871551   0.000000
 
  0.1578947E+00  0.1578947E+00  0.0000000E+00  0.1749526E-02
      1        -11.256464   1.000000