<?xml version="1.0" encoding="ISO-8859-1"?>
<modeling>
 <generator>
  <i name="program" type="string">vasp </i>
  <i name="version" type="string">6.4.3  </i>
  <i name="subversion" type="string">19Mar24 (build Sep 18 2024 11:30:23) complex                          parallel </i>
  <i name="platform" type="string">LinuxIFC </i>
  <i name="date" type="string">2026 07 07 </i>
  <i name="time" type="string">17:18:52 </i>
 </generator>
 <incar>
  <i type="string" name="SYSTEM">C</i>
  <i type="int" name="ISTART">     0</i>
  <i type="string" name="PREC">Normal</i>
  <i type="string" name="ALGO">Normal</i>
  <i type="int" name="ICHARG">     2</i>
  <i type="int" name="NELM">    60</i>
  <i type="int" name="IBRION">     2</i>
  <i name="EDIFF">      0.00000100</i>
  <i name="EDIFFG">     -0.01000000</i>
  <i type="int" name="NSW">   100</i>
  <i type="int" name="ISIF">     3</i>
  <i name="ENCUT">    400.00000000</i>
  <i name="POTIM">      0.50000000</i>
  <i type="logical" name="LREAL"> F  </i>
  <i type="int" name="ISMEAR">     0</i>
  <i name="SIGMA">      0.00500000</i>
  <i type="logical" name="LWAVE"> F  </i>
  <i type="logical" name="LCHARG"> F  </i>
 </incar>
 <primitive_cell>
  <structure name="primitive_cell" >
   <crystal>
    <varray name="basis" >
     <v>       1.77800000      -1.77800000       0.00000000 </v>
     <v>       1.77800000       0.00000000       1.77800000 </v>
     <v>       0.00000000      -1.77800000       1.77800000 </v>
    </varray>
    <i name="volume">     11.24152585 </i>
    <varray name="rec_basis" >
     <v>       0.28121485      -0.28121485      -0.28121485 </v>
     <v>       0.28121485       0.28121485       0.28121485 </v>
     <v>      -0.28121485      -0.28121485       0.28121485 </v>
    </varray>
   </crystal>
   <varray name="positions" >
    <v>       0.00000000       0.00000000       0.00000000 </v>
    <v>       0.75000000       0.75000000       0.75000000 </v>
   </varray>
  </structure>
  <varray name="primitive_index" >
   <v type="int" >        1 </v>
   <v type="int" >        5 </v>
  </varray>
 </primitive_cell>
 <kpoints>
  <generation param="Gamma">
   <v type="int" name="divisions">      19       19       19 </v>
   <v name="usershift">      0.00000000       0.00000000       0.00000000 </v>
   <v name="genvec1">      0.05263158       0.00000000       0.00000000 </v>
   <v name="genvec2">      0.00000000       0.05263158       0.00000000 </v>
   <v name="genvec3">      0.00000000       0.00000000       0.05263158 </v>
   <v name="shift">      0.00000000       0.00000000       0.00000000 </v>
  </generation>
  <varray name="kpointlist" >
   <v>       0.00000000       0.00000000       0.00000000 </v>
   <v>       0.05263158       0.00000000       0.00000000 </v>
   <v>       0.10526316       0.00000000       0.00000000 </v>
   <v>       0.15789474       0.00000000       0.00000000 </v>
   <v>       0.21052632       0.00000000       0.00000000 </v>
   <v>       0.26315789       0.00000000       0.00000000 </v>
   <v>       0.31578947       0.00000000       0.00000000 </v>
   <v>       0.36842105       0.00000000       0.00000000 </v>
   <v>       0.42105263       0.00000000       0.00000000 </v>
   <v>       0.47368421       0.00000000       0.00000000 </v>
   <v>       0.05263158       0.05263158       0.00000000 </v>
   <v>       0.10526316       0.05263158       0.00000000 </v>
   <v>       0.15789474       0.05263158       0.00000000 </v>
   <v>       0.21052632       0.05263158       0.00000000 </v>
   <v>       0.26315789       0.05263158       0.00000000 </v>
   <v>       0.31578947       0.05263158       0.00000000 </v>
   <v>       0.36842105       0.05263158       0.00000000 </v>
   <v>       0.42105263       0.05263158       0.00000000 </v>
   <v>       0.47368421       0.05263158       0.00000000 </v>
   <v>       0.10526316       0.10526316       0.00000000 </v>
   <v>       0.15789474       0.10526316       0.00000000 </v>
   <v>       0.21052632       0.10526316       0.00000000 </v>
   <v>       0.26315789       0.10526316       0.00000000 </v>
   <v>       0.31578947       0.10526316       0.00000000 </v>
   <v>       0.36842105       0.10526316       0.00000000 </v>
   <v>       0.42105263       0.10526316       0.00000000 </v>
   <v>       0.47368421       0.10526316       0.00000000 </v>
   <v>       0.15789474       0.15789474       0.00000000 </v>
   <v>       0.21052632       0.15789474       0.00000000 </v>
   <v>       0.26315789       0.15789474       0.00000000 </v>
   <v>       0.31578947       0.15789474       0.00000000 </v>
   <v>       0.36842105       0.15789474       0.00000000 </v>
   <v>       0.42105263       0.15789474       0.00000000 </v>
   <v>       0.47368421       0.15789474       0.00000000 </v>
   <v>       0.21052632       0.21052632       0.00000000 </v>
   <v>       0.26315789       0.21052632       0.00000000 </v>
   <v>       0.31578947       0.21052632       0.00000000 </v>
   <v>       0.36842105       0.21052632       0.00000000 </v>
   <v>       0.42105263       0.21052632       0.00000000 </v>
   <v>       0.47368421       0.21052632       0.00000000 </v>
   <v>       0.26315789       0.26315789       0.00000000 </v>
   <v>       0.31578947       0.26315789       0.00000000 </v>
   <v>       0.36842105       0.26315789       0.00000000 </v>
   <v>       0.42105263       0.26315789       0.00000000 </v>
   <v>       0.47368421       0.26315789       0.00000000 </v>
   <v>       0.31578947       0.31578947       0.00000000 </v>
   <v>       0.36842105       0.31578947       0.00000000 </v>
   <v>       0.42105263       0.31578947       0.00000000 </v>
   <v>       0.47368421       0.31578947       0.00000000 </v>
   <v>       0.36842105       0.36842105       0.00000000 </v>
   <v>       0.42105263       0.36842105       0.00000000 </v>
   <v>       0.47368421       0.36842105       0.00000000 </v>
   <v>       0.42105263       0.42105263       0.00000000 </v>
   <v>       0.47368421       0.42105263       0.00000000 </v>
   <v>       0.47368421       0.47368421       0.00000000 </v>
   <v>       0.05263158       0.05263158       0.05263158 </v>
   <v>       0.10526316       0.05263158       0.05263158 </v>
   <v>       0.15789474       0.05263158       0.05263158 </v>
   <v>       0.21052632       0.05263158       0.05263158 </v>
   <v>       0.26315789       0.05263158       0.05263158 </v>
   <v>       0.31578947       0.05263158       0.05263158 </v>
   <v>       0.36842105       0.05263158       0.05263158 </v>
   <v>       0.42105263       0.05263158       0.05263158 </v>
   <v>       0.47368421       0.05263158       0.05263158 </v>
   <v>       0.10526316       0.10526316       0.05263158 </v>
   <v>       0.15789474       0.10526316       0.05263158 </v>
   <v>       0.21052632       0.10526316       0.05263158 </v>
   <v>       0.26315789       0.10526316       0.05263158 </v>
   <v>       0.31578947       0.10526316       0.05263158 </v>
   <v>       0.36842105       0.10526316       0.05263158 </v>
   <v>       0.42105263       0.10526316       0.05263158 </v>
   <v>       0.47368421       0.10526316       0.05263158 </v>
   <v>       0.15789474       0.15789474       0.05263158 </v>
   <v>       0.21052632       0.15789474       0.05263158 </v>
   <v>       0.26315789       0.15789474       0.05263158 </v>
   <v>       0.31578947       0.15789474       0.05263158 </v>
   <v>       0.36842105       0.15789474       0.05263158 </v>
   <v>       0.42105263       0.15789474       0.05263158 </v>
   <v>       0.47368421       0.15789474       0.05263158 </v>
   <v>       0.21052632       0.21052632       0.05263158 </v>
   <v>       0.26315789       0.21052632       0.05263158 </v>
   <v>       0.31578947       0.21052632       0.05263158 </v>
   <v>       0.36842105       0.21052632       0.05263158 </v>
   <v>       0.42105263       0.21052632       0.05263158 </v>
   <v>       0.47368421       0.21052632       0.05263158 </v>
   <v>       0.26315789       0.26315789       0.05263158 </v>
   <v>       0.31578947       0.26315789       0.05263158 </v>
   <v>       0.36842105       0.26315789       0.05263158 </v>
   <v>       0.42105263       0.26315789       0.05263158 </v>
   <v>       0.47368421       0.26315789       0.05263158 </v>
   <v>       0.31578947       0.31578947       0.05263158 </v>
   <v>       0.36842105       0.31578947       0.05263158 </v>
   <v>       0.42105263       0.31578947       0.05263158 </v>
   <v>       0.47368421       0.31578947       0.05263158 </v>
   <v>       0.36842105       0.36842105       0.05263158 </v>
   <v>       0.42105263       0.36842105       0.05263158 </v>
   <v>       0.47368421       0.36842105       0.05263158 </v>
   <v>       0.42105263       0.42105263       0.05263158 </v>
   <v>       0.47368421       0.42105263       0.05263158 </v>
   <v>       0.47368421       0.47368421       0.05263158 </v>
   <v>       0.10526316       0.10526316       0.10526316 </v>
   <v>       0.15789474       0.10526316       0.10526316 </v>
   <v>       0.21052632       0.10526316       0.10526316 </v>
   <v>       0.26315789       0.10526316       0.10526316 </v>
   <v>       0.31578947       0.10526316       0.10526316 </v>
   <v>       0.36842105       0.10526316       0.10526316 </v>
   <v>       0.42105263       0.10526316       0.10526316 </v>
   <v>       0.47368421       0.10526316       0.10526316 </v>
   <v>       0.15789474       0.15789474       0.10526316 </v>
   <v>       0.21052632       0.15789474       0.10526316 </v>
   <v>       0.26315789       0.15789474       0.10526316 </v>
   <v>       0.31578947       0.15789474       0.10526316 </v>
   <v>       0.36842105       0.15789474       0.10526316 </v>
   <v>       0.42105263       0.15789474       0.10526316 </v>
   <v>       0.47368421       0.15789474       0.10526316 </v>
   <v>       0.21052632       0.21052632       0.10526316 </v>
   <v>       0.26315789       0.21052632       0.10526316 </v>
   <v>       0.31578947       0.21052632       0.10526316 </v>
   <v>       0.36842105       0.21052632       0.10526316 </v>
   <v>       0.42105263       0.21052632       0.10526316 </v>
   <v>       0.47368421       0.21052632       0.10526316 </v>
   <v>       0.26315789       0.26315789       0.10526316 </v>
   <v>       0.31578947       0.26315789       0.10526316 </v>
   <v>       0.36842105       0.26315789       0.10526316 </v>
   <v>       0.42105263       0.26315789       0.10526316 </v>
   <v>       0.47368421       0.26315789       0.10526316 </v>
   <v>       0.31578947       0.31578947       0.10526316 </v>
   <v>       0.36842105       0.31578947       0.10526316 </v>
   <v>       0.42105263       0.31578947       0.10526316 </v>
   <v>       0.47368421       0.31578947       0.10526316 </v>
   <v>       0.36842105       0.36842105       0.10526316 </v>
   <v>       0.42105263       0.36842105       0.10526316 </v>
   <v>       0.47368421       0.36842105       0.10526316 </v>
   <v>       0.42105263       0.42105263       0.10526316 </v>
   <v>       0.47368421       0.42105263       0.10526316 </v>
   <v>       0.47368421       0.47368421       0.10526316 </v>
   <v>       0.15789474       0.15789474       0.15789474 </v>
   <v>       0.21052632       0.15789474       0.15789474 </v>
   <v>       0.26315789       0.15789474       0.15789474 </v>
   <v>       0.31578947       0.15789474       0.15789474 </v>
   <v>       0.36842105       0.15789474       0.15789474 </v>
   <v>       0.42105263       0.15789474       0.15789474 </v>
   <v>       0.47368421       0.15789474       0.15789474 </v>
   <v>       0.21052632       0.21052632       0.15789474 </v>
   <v>       0.26315789       0.21052632       0.15789474 </v>
   <v>       0.31578947       0.21052632       0.15789474 </v>
   <v>       0.36842105       0.21052632       0.15789474 </v>
   <v>       0.42105263       0.21052632       0.15789474 </v>
   <v>       0.47368421       0.21052632       0.15789474 </v>
   <v>       0.26315789       0.26315789       0.15789474 </v>
   <v>       0.31578947       0.26315789       0.15789474 </v>
   <v>       0.36842105       0.26315789       0.15789474 </v>
   <v>       0.42105263       0.26315789       0.15789474 </v>
   <v>       0.47368421       0.26315789       0.15789474 </v>
   <v>       0.31578947       0.31578947       0.15789474 </v>
   <v>       0.36842105       0.31578947       0.15789474 </v>
   <v>       0.42105263       0.31578947       0.15789474 </v>
   <v>       0.47368421       0.31578947       0.15789474 </v>
   <v>       0.36842105       0.36842105       0.15789474 </v>
   <v>       0.42105263       0.36842105       0.15789474 </v>
   <v>       0.47368421       0.36842105       0.15789474 </v>
   <v>       0.42105263       0.42105263       0.15789474 </v>
   <v>       0.47368421       0.42105263       0.15789474 </v>
   <v>       0.47368421       0.47368421       0.15789474 </v>
   <v>       0.21052632       0.21052632       0.21052632 </v>
   <v>       0.26315789       0.21052632       0.21052632 </v>
   <v>       0.31578947       0.21052632       0.21052632 </v>
   <v>       0.36842105       0.21052632       0.21052632 </v>
   <v>       0.42105263       0.21052632       0.21052632 </v>
   <v>       0.47368421       0.21052632       0.21052632 </v>
   <v>       0.26315789       0.26315789       0.21052632 </v>
   <v>       0.31578947       0.26315789       0.21052632 </v>
   <v>       0.36842105       0.26315789       0.21052632 </v>
   <v>       0.42105263       0.26315789       0.21052632 </v>
   <v>       0.47368421       0.26315789       0.21052632 </v>
   <v>       0.31578947       0.31578947       0.21052632 </v>
   <v>       0.36842105       0.31578947       0.21052632 </v>
   <v>       0.42105263       0.31578947       0.21052632 </v>
   <v>       0.47368421       0.31578947       0.21052632 </v>
   <v>       0.36842105       0.36842105       0.21052632 </v>
   <v>       0.42105263       0.36842105       0.21052632 </v>
   <v>       0.47368421       0.36842105       0.21052632 </v>
   <v>       0.42105263       0.42105263       0.21052632 </v>
   <v>       0.47368421       0.42105263       0.21052632 </v>
   <v>       0.47368421       0.47368421       0.21052632 </v>
   <v>       0.26315789       0.26315789       0.26315789 </v>
   <v>       0.31578947       0.26315789       0.26315789 </v>
   <v>       0.36842105       0.26315789       0.26315789 </v>
   <v>       0.42105263       0.26315789       0.26315789 </v>
   <v>       0.47368421       0.26315789       0.26315789 </v>
   <v>       0.31578947       0.31578947       0.26315789 </v>
   <v>       0.36842105       0.31578947       0.26315789 </v>
   <v>       0.42105263       0.31578947       0.26315789 </v>
   <v>       0.47368421       0.31578947       0.26315789 </v>
   <v>       0.36842105       0.36842105       0.26315789 </v>
   <v>       0.42105263       0.36842105       0.26315789 </v>
   <v>       0.47368421       0.36842105       0.26315789 </v>
   <v>       0.42105263       0.42105263       0.26315789 </v>
   <v>       0.47368421       0.42105263       0.26315789 </v>
   <v>       0.47368421       0.47368421       0.26315789 </v>
   <v>       0.31578947       0.31578947       0.31578947 </v>
   <v>       0.36842105       0.31578947       0.31578947 </v>
   <v>       0.42105263       0.31578947       0.31578947 </v>
   <v>       0.47368421       0.31578947       0.31578947 </v>
   <v>       0.36842105       0.36842105       0.31578947 </v>
   <v>       0.42105263       0.36842105       0.31578947 </v>
   <v>       0.47368421       0.36842105       0.31578947 </v>
   <v>       0.42105263       0.42105263       0.31578947 </v>
   <v>       0.47368421       0.42105263       0.31578947 </v>
   <v>       0.47368421       0.47368421       0.31578947 </v>
   <v>       0.36842105       0.36842105       0.36842105 </v>
   <v>       0.42105263       0.36842105       0.36842105 </v>
   <v>       0.47368421       0.36842105       0.36842105 </v>
   <v>       0.42105263       0.42105263       0.36842105 </v>
   <v>       0.47368421       0.42105263       0.36842105 </v>
   <v>       0.47368421       0.47368421       0.36842105 </v>
   <v>       0.42105263       0.42105263       0.42105263 </v>
   <v>       0.47368421       0.42105263       0.42105263 </v>
   <v>       0.47368421       0.47368421       0.42105263 </v>
   <v>       0.47368421       0.47368421       0.47368421 </v>
  </varray>
  <varray name="weights" >
   <v>       0.00014579 </v>
   <v>       0.00087476 </v>
   <v>       0.00087476 </v>
   <v>       0.00087476 </v>
   <v>       0.00087476 </v>
   <v>       0.00087476 </v>
   <v>       0.00087476 </v>
   <v>       0.00087476 </v>
   <v>       0.00087476 </v>
   <v>       0.00087476 </v>
   <v>       0.00174953 </v>
   <v>       0.00349905 </v>
   <v>       0.00349905 </v>
   <v>       0.00349905 </v>
   <v>       0.00349905 </v>
   <v>       0.00349905 </v>
   <v>       0.00349905 </v>
   <v>       0.00349905 </v>
   <v>       0.00349905 </v>
   <v>       0.00174953 </v>
   <v>       0.00349905 </v>
   <v>       0.00349905 </v>
   <v>       0.00349905 </v>
   <v>       0.00349905 </v>
   <v>       0.00349905 </v>
   <v>       0.00349905 </v>
   <v>       0.00349905 </v>
   <v>       0.00174953 </v>
   <v>       0.00349905 </v>
   <v>       0.00349905 </v>
   <v>       0.00349905 </v>
   <v>       0.00349905 </v>
   <v>       0.00349905 </v>
   <v>       0.00349905 </v>
   <v>       0.00174953 </v>
   <v>       0.00349905 </v>
   <v>       0.00349905 </v>
   <v>       0.00349905 </v>
   <v>       0.00349905 </v>
   <v>       0.00349905 </v>
   <v>       0.00174953 </v>
   <v>       0.00349905 </v>
   <v>       0.00349905 </v>
   <v>       0.00349905 </v>
   <v>       0.00349905 </v>
   <v>       0.00174953 </v>
   <v>       0.00349905 </v>
   <v>       0.00349905 </v>
   <v>       0.00349905 </v>
   <v>       0.00174953 </v>
   <v>       0.00349905 </v>
   <v>       0.00349905 </v>
   <v>       0.00174953 </v>
   <v>       0.00349905 </v>
   <v>       0.00174953 </v>
   <v>       0.00116635 </v>
   <v>       0.00349905 </v>
   <v>       0.00349905 </v>
   <v>       0.00349905 </v>
   <v>       0.00349905 </v>
   <v>       0.00349905 </v>
   <v>       0.00349905 </v>
   <v>       0.00349905 </v>
   <v>       0.00349905 </v>
   <v>       0.00349905 </v>
   <v>       0.00699810 </v>
   <v>       0.00699810 </v>
   <v>       0.00699810 </v>
   <v>       0.00699810 </v>
   <v>       0.00699810 </v>
   <v>       0.00699810 </v>
   <v>       0.00699810 </v>
   <v>       0.00349905 </v>
   <v>       0.00699810 </v>
   <v>       0.00699810 </v>
   <v>       0.00699810 </v>
   <v>       0.00699810 </v>
   <v>       0.00699810 </v>
   <v>       0.00699810 </v>
   <v>       0.00349905 </v>
   <v>       0.00699810 </v>
   <v>       0.00699810 </v>
   <v>       0.00699810 </v>
   <v>       0.00699810 </v>
   <v>       0.00699810 </v>
   <v>       0.00349905 </v>
   <v>       0.00699810 </v>
   <v>       0.00699810 </v>
   <v>       0.00699810 </v>
   <v>       0.00699810 </v>
   <v>       0.00349905 </v>
   <v>       0.00699810 </v>
   <v>       0.00699810 </v>
   <v>       0.00699810 </v>
   <v>       0.00349905 </v>
   <v>       0.00699810 </v>
   <v>       0.00699810 </v>
   <v>       0.00349905 </v>
   <v>       0.00699810 </v>
   <v>       0.00349905 </v>
   <v>       0.00116635 </v>
   <v>       0.00349905 </v>
   <v>       0.00349905 </v>
   <v>       0.00349905 </v>
   <v>       0.00349905 </v>
   <v>       0.00349905 </v>
   <v>       0.00349905 </v>
   <v>       0.00349905 </v>
   <v>       0.00349905 </v>
   <v>       0.00699810 </v>
   <v>       0.00699810 </v>
   <v>       0.00699810 </v>
   <v>       0.00699810 </v>
   <v>       0.00699810 </v>
   <v>       0.00699810 </v>
   <v>       0.00349905 </v>
   <v>       0.00699810 </v>
   <v>       0.00699810 </v>
   <v>       0.00699810 </v>
   <v>       0.00699810 </v>
   <v>       0.00699810 </v>
   <v>       0.00349905 </v>
   <v>       0.00699810 </v>
   <v>       0.00699810 </v>
   <v>       0.00699810 </v>
   <v>       0.00699810 </v>
   <v>       0.00349905 </v>
   <v>       0.00699810 </v>
   <v>       0.00699810 </v>
   <v>       0.00699810 </v>
   <v>       0.00349905 </v>
   <v>       0.00699810 </v>
   <v>       0.00699810 </v>
   <v>       0.00349905 </v>
   <v>       0.00699810 </v>
   <v>       0.00349905 </v>
   <v>       0.00116635 </v>
   <v>       0.00349905 </v>
   <v>       0.00349905 </v>
   <v>       0.00349905 </v>
   <v>       0.00349905 </v>
   <v>       0.00349905 </v>
   <v>       0.00349905 </v>
   <v>       0.00349905 </v>
   <v>       0.00699810 </v>
   <v>       0.00699810 </v>
   <v>       0.00699810 </v>
   <v>       0.00699810 </v>
   <v>       0.00699810 </v>
   <v>       0.00349905 </v>
   <v>       0.00699810 </v>
   <v>       0.00699810 </v>
   <v>       0.00699810 </v>
   <v>       0.00699810 </v>
   <v>       0.00349905 </v>
   <v>       0.00699810 </v>
   <v>       0.00699810 </v>
   <v>       0.00699810 </v>
   <v>       0.00349905 </v>
   <v>       0.00699810 </v>
   <v>       0.00699810 </v>
   <v>       0.00349905 </v>
   <v>       0.00699810 </v>
   <v>       0.00349905 </v>
   <v>       0.00116635 </v>
   <v>       0.00349905 </v>
   <v>       0.00349905 </v>
   <v>       0.00349905 </v>
   <v>       0.00349905 </v>
   <v>       0.00349905 </v>
   <v>       0.00349905 </v>
   <v>       0.00699810 </v>
   <v>       0.00699810 </v>
   <v>       0.00699810 </v>
   <v>       0.00699810 </v>
   <v>       0.00349905 </v>
   <v>       0.00699810 </v>
   <v>       0.00699810 </v>
   <v>       0.00699810 </v>
   <v>       0.00349905 </v>
   <v>       0.00699810 </v>
   <v>       0.00699810 </v>
   <v>       0.00349905 </v>
   <v>       0.00699810 </v>
   <v>       0.00349905 </v>
   <v>       0.00116635 </v>
   <v>       0.00349905 </v>
   <v>       0.00349905 </v>
   <v>       0.00349905 </v>
   <v>       0.00349905 </v>
   <v>       0.00349905 </v>
   <v>       0.00699810 </v>
   <v>       0.00699810 </v>
   <v>       0.00699810 </v>
   <v>       0.00349905 </v>
   <v>       0.00699810 </v>
   <v>       0.00699810 </v>
   <v>       0.00349905 </v>
   <v>       0.00699810 </v>
   <v>       0.00349905 </v>
   <v>       0.00116635 </v>
   <v>       0.00349905 </v>
   <v>       0.00349905 </v>
   <v>       0.00349905 </v>
   <v>       0.00349905 </v>
   <v>       0.00699810 </v>
   <v>       0.00699810 </v>
   <v>       0.00349905 </v>
   <v>       0.00699810 </v>
   <v>       0.00349905 </v>
   <v>       0.00116635 </v>
   <v>       0.00349905 </v>
   <v>       0.00349905 </v>
   <v>       0.00349905 </v>
   <v>       0.00699810 </v>
   <v>       0.00349905 </v>
   <v>       0.00116635 </v>
   <v>       0.00349905 </v>
   <v>       0.00349905 </v>
   <v>       0.00116635 </v>
  </varray>
 </kpoints>
 <parameters>
  <separator name="general" >
   <i type="string" name="SYSTEM">C</i>
   <i type="logical" name="LCOMPAT"> F  </i>
  </separator>
  <separator name="electronic" >
   <i type="string" name="PREC">normal</i>
   <i name="ENMAX">    400.00000000</i>
   <i name="ENAUG">    644.87300000</i>
   <i name="EDIFF">      0.00000100</i>
   <i type="int" name="IALGO">    38</i>
   <i type="int" name="IWAVPR">    11</i>
   <i type="int" name="NBANDS">    28</i>
   <i type="int" name="NBANDSLOW">    -1</i>
   <i type="int" name="NBANDSHIGH">    -1</i>
   <i name="NELECT">     32.00000000</i>
   <i type="int" name="TURBO">     0</i>
   <i type="int" name="IRESTART">     0</i>
   <i type="int" name="NREBOOT">     0</i>
   <i type="int" name="NMIN">     0</i>
   <i name="EREF">      0.00000000</i>
   <separator name="electronic smearing" >
    <i type="int" name="ISMEAR">     0</i>
    <i name="SIGMA">      0.00500000</i>
    <i name="KSPACING">      0.50000000</i>
    <i type="logical" name="KGAMMA"> T  </i>
    <i type="logical" name="KBLOWUP"> T  </i>
   </separator>
   <separator name="electronic projectors" >
    <i type="logical" name="LREAL"> F  </i>
    <v name="ROPT">      0.00000000</v>
    <i type="int" name="LMAXPAW">  -100</i>
    <i type="int" name="LMAXMIX">     2</i>
    <i type="logical" name="NLSPLINE"> F  </i>
   </separator>
   <separator name="electronic startup" >
    <i type="int" name="ISTART">     0</i>
    <i type="int" name="ICHARG">     2</i>
    <i type="int" name="INIWAV">     1</i>
   </separator>
   <separator name="electronic spin" >
    <i type="int" name="ISPIN">     1</i>
    <i type="logical" name="LNONCOLLINEAR"> F  </i>
    <v name="MAGMOM">      1.00000000      1.00000000      1.00000000      1.00000000      1.00000000      1.00000000      1.00000000      1.00000000</v>
    <i name="NUPDOWN">     -1.00000000</i>
    <i type="logical" name="LSORBIT"> F  </i>
    <v name="SAXIS">      0.00000000      0.00000000      1.00000000</v>
    <i type="logical" name="LSPIRAL"> F  </i>
    <v name="QSPIRAL">      0.00000000      0.00000000      0.00000000</v>
    <i type="logical" name="LZEROZ"> F  </i>
   </separator>
   <separator name="electronic exchange-correlation" >
    <i type="logical" name="LASPH"> F  </i>
   </separator>
   <separator name="electronic convergence" >
    <i type="int" name="NELM">    60</i>
    <i type="int" name="NELMDL">    -5</i>
    <i type="int" name="NELMIN">     2</i>
    <i name="ENINI">    400.00000000</i>
    <separator name="electronic convergence detail" >
     <i type="logical" name="LDIAG"> T  </i>
     <i type="logical" name="LSUBROT"> F  </i>
     <i name="WEIMIN">      0.00100000</i>
     <i name="EBREAK">      0.00000001</i>
     <i name="DEPER">      0.30000000</i>
     <i type="int" name="NRMM">     4</i>
     <i name="TIME">      0.40000000</i>
    </separator>
   </separator>
   <separator name="electronic mixer" >
    <i name="AMIX">      0.40000000</i>
    <i name="BMIX">      1.00000000</i>
    <i name="AMIN">      0.10000000</i>
    <i name="AMIX_MAG">      1.60000000</i>
    <i name="BMIX_MAG">      1.00000000</i>
    <separator name="electronic mixer details" >
     <i type="int" name="IMIX">     4</i>
     <i type="logical" name="MIXFIRST"> F  </i>
     <i type="int" name="MAXMIX">   -45</i>
     <i name="WC">    100.00000000</i>
     <i type="int" name="INIMIX">     1</i>
     <i type="int" name="MIXPRE">     1</i>
     <i type="int" name="MREMOVE">     5</i>
    </separator>
   </separator>
   <separator name="electronic dipolcorrection" >
    <i type="logical" name="LDIPOL"> F  </i>
    <i type="logical" name="LMONO"> F  </i>
    <i type="int" name="IDIPOL">     0</i>
    <i name="EPSILON">      1.00000000</i>
    <v name="DIPOL">   -100.00000000   -100.00000000   -100.00000000</v>
    <i name="EFIELD">      0.00000000</i>
    <i type="logical" name="LVACPOTAV"> F  </i>
   </separator>
  </separator>
  <separator name="grids" >
   <i type="int" name="NGX">    18</i>
   <i type="int" name="NGY">    18</i>
   <i type="int" name="NGZ">    18</i>
   <i type="int" name="NGXF">    36</i>
   <i type="int" name="NGYF">    36</i>
   <i type="int" name="NGZF">    36</i>
   <i type="logical" name="ADDGRID"> F  </i>
  </separator>
  <separator name="ionic" >
   <i type="int" name="NSW">   100</i>
   <i type="int" name="IBRION">     2</i>
   <i type="int" name="MDALGO">     0</i>
   <i type="int" name="ISIF">     3</i>
   <i name="PSTRESS">      0.00000000</i>
   <i name="EDIFFG">     -0.01000000</i>
   <i type="int" name="NFREE">     1</i>
   <i name="POTIM">      0.50000000</i>
   <i name="SMASS">     -3.00000000</i>
   <i name="SCALEE">      1.00000000</i>
  </separator>
  <separator name="ionic md" >
   <i name="TEBEG">      0.00010000</i>
   <i name="TEEND">      0.00010000</i>
   <i type="int" name="NBLOCK">     1</i>
   <i type="int" name="KBLOCK">   100</i>
   <i type="int" name="NPACO">   256</i>
   <i name="APACO">     10.00000000</i>
  </separator>
  <separator name="symmetry" >
   <i type="int" name="ISYM">     2</i>
   <i name="SYMPREC">      0.00001000</i>
  </separator>
  <separator name="dos" >
   <i type="int" name="LORBIT">     0</i>
   <v name="RWIGS">     -1.00000000</v>
   <i type="int" name="NEDOS">   301</i>
   <i name="EMIN">     10.00000000</i>
   <i name="EMAX">    -10.00000000</i>
   <i name="EFERMI">      0.00000000</i>
  </separator>
  <separator name="writing" >
   <i type="int" name="NWRITE">     2</i>
   <i type="logical" name="LWAVE"> F  </i>
   <i type="logical" name="LDOWNSAMPLE"> F  </i>
   <i type="logical" name="LCHARG"> F  </i>
   <i type="logical" name="LPARD"> F  </i>
   <i type="logical" name="LVTOT"> F  </i>
   <i type="logical" name="LVHAR"> F  </i>
   <i type="logical" name="LELF"> F  </i>
   <i type="logical" name="LOPTICS"> F  </i>
   <v name="STM">      0.00000000      0.00000000      0.00000000      0.00000000      0.00000000      0.00000000      0.00000000</v>
  </separator>
  <separator name="performance" >
   <i type="int" name="NPAR">    28</i>
   <i type="int" name="NSIM">     4</i>
   <i type="int" name="NBLK">    -1</i>
   <i type="logical" name="LPLANE"> T  </i>
   <i type="logical" name="LSCALAPACK"> T  </i>
   <i type="logical" name="LSCAAWARE"> F  </i>
   <i type="logical" name="LSCALU"> F  </i>
   <i type="logical" name="LASYNC"> F  </i>
   <i type="logical" name="LORBITALREAL"> F  </i>
  </separator>
  <separator name="miscellaneous" >
   <i type="int" name="IDIOT">     3</i>
   <i type="int" name="PHON_NSTRUCT">    -1</i>
   <i type="logical" name="LMUSIC"> F  </i>
   <v name="POMASS">     12.01100000</v>
   <v name="DARWINR">      0.00000000</v>
   <v name="DARWINV">      1.00000000</v>
   <i type="logical" name="LCORR"> T  </i>
  </separator>
  <i type="logical" name="GGA_COMPAT"> T  </i>
  <i type="logical" name="LBERRY"> F  </i>
  <i type="int" name="ICORELEVEL">     0</i>
  <i type="logical" name="LDAU"> F  </i>
  <i type="int" name="I_CONSTRAINED_M">     0</i>
  <separator name="electronic exchange-correlation" >
   <i type="string" name="GGA    ">PE</i>
   <i type="string" name="XC_C">1</i>
   <i type="int" name="VOSKOWN">     0</i>
   <i type="logical" name="LHFCALC"> F  </i>
   <i type="string" name="PRECFOCK"></i>
   <i type="logical" name="LSYMGRAD"> F  </i>
   <i type="logical" name="LHFONE"> F  </i>
   <i type="logical" name="LRHFCALC"> F  </i>
   <i type="logical" name="LTHOMAS"> F  </i>
   <i type="logical" name="LMODELHF"> F  </i>
   <i type="logical" name="LFOCKACE"> F  </i>
   <i name="ENCUT4O">     -1.00000000</i>
   <i type="int" name="EXXOEP">     0</i>
   <i type="int" name="FOURORBIT">     0</i>
   <i name="AEXX">      0.00000000</i>
   <i name="HFALPHA">      0.00000000</i>
   <i name="MCALPHA">      0.00000000</i>
   <i name="ALDAX">      1.00000000</i>
   <i name="AGGAX">      1.00000000</i>
   <i name="AMGGAX">      1.00000000</i>
   <i name="ALDAC">      1.00000000</i>
   <i name="AGGAC">      1.00000000</i>
   <i name="AMGGAC">      1.00000000</i>
   <i type="int" name="NKREDX">     1</i>
   <i type="int" name="NKREDY">     1</i>
   <i type="int" name="NKREDZ">     1</i>
   <i type="logical" name="SHIFTRED"> F  </i>
   <i type="logical" name="ODDONLY"> F  </i>
   <i type="logical" name="EVENONLY"> F  </i>
   <i type="int" name="LMAXFOCK">     0</i>
   <i type="int" name="NMAXFOCKAE">     0</i>
   <i type="logical" name="LFOCKAEDFT"> F  </i>
   <i name="HFSCREEN">      0.00000000</i>
   <i name="HFSCREENC">      0.00000000</i>
   <i type="int" name="NBANDSGWLOW">     0</i>
  </separator>
  <separator name="vdW DFT" >
   <i type="logical" name="LUSE_VDW"> F  </i>
   <i type="int" name="IVDW_NL">    -1</i>
   <i type="logical" name="LSPIN_VDW"> F  </i>
   <i name="ZAB_VDW">     -0.84910000</i>
   <i name="GAMMA_VDW">      1.39626340</i>
   <i name="ALPHA_VDW">      0.00000000</i>
   <i name="PARAM1">      0.12340000</i>
   <i name="PARAM2">      1.00000000</i>
   <i name="BPARAM">      6.30000000</i>
   <i name="CPARAM">      0.00930000</i>
  </separator>
  <separator name="model GW" >
   <i type="int" name="MODEL_GW">     0</i>
   <i name="MODEL_EPS0">      3.37245775</i>
   <i name="MODEL_ALPHA">      1.00000000</i>
  </separator>
  <separator name="linear response parameters" >
   <i type="logical" name="LEPSILON"> F  </i>
   <i type="logical" name="LRPA"> F  </i>
   <i type="logical" name="LNABLA"> F  </i>
   <i type="logical" name="LVEL"> F  </i>
   <i name="CSHIFT">      0.10000000</i>
   <i name="OMEGAMAX">     -1.00000000</i>
   <i name="DEG_THRESHOLD">      0.00200000</i>
   <i name="RTIME">     -0.10000000</i>
   <i name="WPLASMAI">      0.00000000</i>
   <v name="DFIELD">      0.00000000      0.00000000      0.00000000</v>
   <v name="WPLASMA">      0.00000000      0.00000000      0.00000000      0.00000000      0.00000000      0.00000000      0.00000000      0.00000000      0.00000000</v>
  </separator>
  <separator name="orbital magnetization" >
   <i type="logical" name="NUCIND"> F  </i>
   <v name="MAGPOS">      0.00000000      0.00000000      0.00000000</v>
   <i type="logical" name="LNICSALL"> T  </i>
   <i type="logical" name="ORBITALMAG"> F  </i>
   <i type="logical" name="LMAGBLOCH"> F  </i>
   <i type="logical" name="LCHIMAG"> F  </i>
   <i type="logical" name="LGAUGE"> T  </i>
   <i type="int" name="MAGATOM">     0</i>
   <v name="MAGDIPOL">      0.00000000      0.00000000      0.00000000</v>
   <v name="AVECCONST">      0.00000000      0.00000000      0.00000000</v>
  </separator>
  <separator name="response functions" >
   <i type="logical" name="LALL_IN_ONE"> F  </i>
   <i type="int" name="IALL_IN_ONE">    -1</i>
   <i type="int" name="NBANDS_WAVE">    -1</i>
   <i type="logical" name="LFINITE_TEMPERATURE"> F  </i>
   <i type="logical" name="LADDER"> F  </i>
   <i type="logical" name="LRPAFORCE"> F  </i>
   <i type="logical" name="LFXC"> F  </i>
   <i type="logical" name="LHARTREE"> T  </i>
   <i type="int" name="IBSE">     0</i>
   <v type="int" name="KPOINT">    -1     0     0     0</v>
   <i type="logical" name="LTCTC"> F  </i>
   <i type="logical" name="LTCTE"> F  </i>
   <i type="logical" name="LTETE"> F  </i>
   <i type="logical" name="LTRIPLET"> F  </i>
   <i type="logical" name="LFXCEPS"> F  </i>
   <i type="logical" name="LFXHEG"> F  </i>
   <i type="int" name="NATURALO">     2</i>
   <i type="logical" name="LHOLEGF"> F  </i>
   <i type="logical" name="L2ORDER"> F  </i>
   <i type="logical" name="LDMP1"> F  </i>
   <i type="logical" name="LMP2LT"> F  </i>
   <i type="logical" name="LSMP2LT"> F  </i>
   <i type="logical" name="LGWLF"> F  </i>
   <i name="ENCUTGW">     -1.60000002</i>
   <i name="ENCUTGWSOFT">     -1.60000002</i>
   <i name="ENCUTLF">     -1.00000000</i>
   <i type="logical" name="ESF_SPLINES"> F  </i>
   <i name="ESF_CONV">      0.01000000</i>
   <i type="int" name="ESF_NINTER">    15</i>
   <i type="int" name="LMAXMP2">    -1</i>
   <i name="SCISSOR">      0.00000000</i>
   <i type="int" name="NOMEGA">     0</i>
   <i type="int" name="NOMEGAR">     0</i>
   <i type="int" name="NBANDSGW">    -1</i>
   <i type="int" name="NBANDSO">    -1</i>
   <i type="int" name="NBANDSV">    -1</i>
   <i type="int" name="NELMGW">     1</i>
   <i type="int" name="NELMHF">     1</i>
   <i type="int" name="DIM">     3</i>
   <i type="int" name="IESPILON">     4</i>
   <i type="int" name="ANTIRES">     0</i>
   <i name="OMEGAMAX">    -30.00000000</i>
   <i name="OMEGAMIN">    -30.00000000</i>
   <i name="OMEGATL">   -200.00000000</i>
   <i type="int" name="OMEGAGRID">     0</i>
   <i name="CSHIFT">     -0.10000000</i>
   <i type="logical" name="LSELFENERGY"> F  </i>
   <i type="logical" name="LSPECTRAL"> F  </i>
   <i type="logical" name="LSPECTRALGW"> F  </i>
   <i type="logical" name="LSINGLES"> F  </i>
   <i type="logical" name="LFERMIGW"> F  </i>
   <i type="logical" name="ODDONLYGW"> F  </i>
   <i type="logical" name="EVENONLYGW"> F  </i>
   <i type="int" name="NKREDLFX">     1</i>
   <i type="int" name="NKREDLFY">     1</i>
   <i type="int" name="NKREDLFZ">     1</i>
   <i type="int" name="MAXMEM">  2800</i>
   <i type="int" name="TELESCOPE">     0</i>
   <i type="int" name="NTAUPAR">    -1</i>
   <i type="int" name="NOMEGAPAR">    -1</i>
   <i name="DAMP_NEWTON">      0.80000001</i>
   <i name="LAMBDA">      1.00000000</i>
  </separator>
  <separator name="External order field" >
   <i name="OFIELD_KAPPA">      0.00000000</i>
   <v name="OFIELD_K">      0.00000000      0.00000000      0.00000000</v>
   <i name="OFIELD_Q6_NEAR">      0.00000000</i>
   <i name="OFIELD_Q6_FAR">      0.00000000</i>
   <i name="OFIELD_A">      0.00000000</i>
  </separator>
  <separator name="optional k-points parameters" >
   <i type="int" name="KPOINTS_OPT_MODE">     1</i>
   <i type="logical" name="LKPOINTS_OPT"> F  </i>
  </separator>
  <separator name="solvation model" >
   <i type="logical" name="LSOL"> F  </i>
  </separator>
 </parameters>
 <atominfo>
  <atoms>       8 </atoms>
  <types>       1 </types>
  <array name="atoms" >
   <dimension dim="1">ion</dimension>
   <field type="string">element</field>
   <field type="int">atomtype</field>
   <set>
    <rc><c>C </c><c>   1</c></rc>
    <rc><c>C </c><c>   1</c></rc>
    <rc><c>C </c><c>   1</c></rc>
    <rc><c>C </c><c>   1</c></rc>
    <rc><c>C </c><c>   1</c></rc>
    <rc><c>C </c><c>   1</c></rc>
    <rc><c>C </c><c>   1</c></rc>
    <rc><c>C </c><c>   1</c></rc>
   </set>
  </array>
  <array name="atomtypes" >
   <dimension dim="1">type</dimension>
   <field type="int">atomspertype</field>
   <field type="string">element</field>
   <field>mass</field>
   <field>valence</field>
   <field type="string">pseudopotential</field>
   <set>
    <rc><c>   8</c><c>C </c><c>     12.01100000</c><c>      4.00000000</c><c> PAW_PBE C 08Apr2002                    </c></rc>
   </set>
  </array>
 </atominfo>
 <structure name="initialpos" >
  <crystal>
   <varray name="basis" >
    <v>       3.55599999       0.00000000       0.00000000 </v>
    <v>       0.00000000       3.55599999       0.00000000 </v>
    <v>       0.00000000       0.00000000       3.55599999 </v>
   </varray>
   <i name="volume">     44.96610340 </i>
   <varray name="rec_basis" >
    <v>       0.28121485       0.00000000       0.00000000 </v>
    <v>       0.00000000       0.28121485       0.00000000 </v>
    <v>       0.00000000       0.00000000       0.28121485 </v>
   </varray>
  </crystal>
  <varray name="positions" >
   <v>       0.00000000       0.00000000       0.00000000 </v>
   <v>       0.00000000       0.50000000       0.50000000 </v>
   <v>       0.50000000       0.50000000       0.00000000 </v>
   <v>       0.50000000       0.00000000       0.50000000 </v>
   <v>       0.75000000       0.25000000       0.75000000 </v>
   <v>       0.25000000       0.25000000       0.25000000 </v>
   <v>       0.25000000       0.75000000       0.75000000 </v>
   <v>       0.75000000       0.75000000       0.25000000 </v>
  </varray>
 </structure>
 <calculation>
  <scstep>
   <time name="dav">    1.32    1.34</time>
   <time name="total">    1.33    1.39</time>
   <energy>
    <i name="alphaZ">    115.97025541 </i>
    <i name="ewald">  -1396.06297741 </i>
    <i name="hartreedc">    -69.66204992 </i>
    <i name="XCdc">    114.61599261 </i>
    <i name="pawpsdc">    302.65154477 </i>
    <i name="pawaedc">   -311.85538214 </i>
    <i name="eentropy">     -0.00001403 </i>
    <i name="bandstr">     61.71122132 </i>
    <i name="atom">   1177.01779097 </i>
    <i name="e_fr_energy">     -5.61361841 </i>
    <i name="e_wo_entrp">     -5.61360439 </i>
    <i name="e_0_energy">     -5.61361140 </i>
   </energy>
  </scstep>
  <scstep>
   <time name="dav">    2.67    3.01</time>
   <time name="total">    2.67    3.01</time>
   <energy>
    <i name="e_fr_energy">    -74.96462734 </i>
    <i name="e_wo_entrp">    -74.96462734 </i>
    <i name="e_0_energy">    -74.96462734 </i>
   </energy>
  </scstep>
  <scstep>
   <time name="dav">    1.28    1.29</time>
   <time name="total">    1.29    1.30</time>
   <energy>
    <i name="e_fr_energy">    -75.34533188 </i>
    <i name="e_wo_entrp">    -75.34533188 </i>
    <i name="e_0_energy">    -75.34533188 </i>
   </energy>
  </scstep>
  <scstep>
   <time name="dav">    3.93    3.98</time>
   <time name="total">    3.93    3.98</time>
   <energy>
    <i name="e_fr_energy">    -75.34604569 </i>
    <i name="e_wo_entrp">    -75.34604569 </i>
    <i name="e_0_energy">    -75.34604569 </i>
   </energy>
  </scstep>
  <scstep>
   <time name="dav">    1.28    1.29</time>
   <time name="total">    1.30    1.32</time>
   <energy>
    <i name="e_fr_energy">    -75.34604570 </i>
    <i name="e_wo_entrp">    -75.34604570 </i>
    <i name="e_0_energy">    -75.34604570 </i>
   </energy>
  </scstep>
  <scstep>
   <time name="dav">    1.48    1.49</time>
   <time name="total">    1.50    1.51</time>
   <energy>
    <i name="e_fr_energy">    -73.39394748 </i>
    <i name="e_wo_entrp">    -73.39394748 </i>
    <i name="e_0_energy">    -73.39394748 </i>
   </energy>
  </scstep>
  <scstep>
   <time name="dav">    2.01    2.03</time>
   <time name="total">    2.03    2.05</time>
   <energy>
    <i name="e_fr_energy">    -72.73516965 </i>
    <i name="e_wo_entrp">    -72.73516965 </i>
    <i name="e_0_energy">    -72.73516965 </i>
   </energy>
  </scstep>
  <scstep>
   <time name="dav">    2.92    2.94</time>
   <time name="total">    2.94    2.96</time>
   <energy>
    <i name="e_fr_energy">    -72.74087702 </i>
    <i name="e_wo_entrp">    -72.74087702 </i>
    <i name="e_0_energy">    -72.74087702 </i>
   </energy>
  </scstep>
  <scstep>
   <time name="dav">    2.02    2.04</time>
   <time name="total">    2.04    2.06</time>
   <energy>
    <i name="e_fr_energy">    -72.74098659 </i>
    <i name="e_wo_entrp">    -72.74098659 </i>
    <i name="e_0_energy">    -72.74098659 </i>
   </energy>
  </scstep>
  <scstep>
   <time name="dav">    2.82    2.84</time>
   <time name="total">    2.83    2.86</time>
   <energy>
    <i name="e_fr_energy">    -72.74102821 </i>
    <i name="e_wo_entrp">    -72.74102821 </i>
    <i name="e_0_energy">    -72.74102821 </i>
   </energy>
  </scstep>
  <scstep>
   <time name="dav">    2.28    2.30</time>
   <time name="total">    2.29    2.30</time>
   <energy>
    <i name="alphaZ">    115.97025541 </i>
    <i name="ewald">  -1396.06297741 </i>
    <i name="hartreedc">   -104.97245381 </i>
    <i name="XCdc">    117.95064616 </i>
    <i name="pawpsdc">    531.71493696 </i>
    <i name="pawaedc">   -541.86005849 </i>
    <i name="eentropy">      0.00000000 </i>
    <i name="bandstr">     27.50083206 </i>
    <i name="atom">   1177.01779097 </i>
    <i name="e_fr_energy">    -72.74102816 </i>
    <i name="e_wo_entrp">    -72.74102816 </i>
    <i name="e_0_energy">    -72.74102816 </i>
   </energy>
  </scstep>
  <structure>
   <crystal>
    <varray name="basis" >
     <v>       3.55599999       0.00000000       0.00000000 </v>
     <v>       0.00000000       3.55599999       0.00000000 </v>
     <v>       0.00000000       0.00000000       3.55599999 </v>
    </varray>
    <i name="volume">     44.96610340 </i>
    <varray name="rec_basis" >
     <v>       0.28121485       0.00000000       0.00000000 </v>
     <v>       0.00000000       0.28121485       0.00000000 </v>
     <v>       0.00000000       0.00000000       0.28121485 </v>
    </varray>
   </crystal>
   <varray name="positions" >
    <v>       0.00000000       0.00000000       0.00000000 </v>
    <v>       0.00000000       0.50000000       0.50000000 </v>
    <v>       0.50000000       0.50000000       0.00000000 </v>
    <v>       0.50000000       0.00000000       0.50000000 </v>
    <v>       0.75000000       0.25000000       0.75000000 </v>
    <v>       0.25000000       0.25000000       0.25000000 </v>
    <v>       0.25000000       0.75000000       0.75000000 </v>
    <v>       0.75000000       0.75000000       0.25000000 </v>
   </varray>
  </structure>
  <varray name="forces" >
   <v>       0.00000000      -0.00000000       0.00000000 </v>
   <v>       0.00000000       0.00000000       0.00000000 </v>
   <v>       0.00000000      -0.00000000       0.00000000 </v>
   <v>      -0.00000000      -0.00000000       0.00000000 </v>
   <v>      -0.00000000       0.00000000      -0.00000000 </v>
   <v>       0.00000000       0.00000000      -0.00000000 </v>
   <v>      -0.00000000       0.00000000      -0.00000000 </v>
   <v>      -0.00000000      -0.00000000      -0.00000000 </v>
  </varray>
  <varray name="stress" >
   <v>      23.75826798      -0.00000000       0.00000000 </v>
   <v>      -0.00000000      23.75826798       0.00000000 </v>
   <v>       0.00000000       0.00000000      23.75826798 </v>
  </varray>
  <energy>
   <i name="e_fr_energy">    -72.74102816 </i>
   <i name="e_wo_entrp">    -72.74102816 </i>
   <i name="e_0_energy">    -72.74102816 </i>
  </energy>
  <time name="totalsc">   24.78   25.47</time>
 </calculation>
 <calculation>
  <scstep>
   <time name="dav">    1.81    1.83</time>
   <time name="total">    1.82    1.85</time>
   <energy>
    <i name="alphaZ">    114.58249246 </i>
    <i name="ewald">  -1390.47193377 </i>
    <i name="hartreedc">   -104.55186620 </i>
    <i name="XCdc">    117.50270080 </i>
    <i name="pawpsdc">    531.73348210 </i>
    <i name="pawaedc">   -541.87852190 </i>
    <i name="eentropy">     -0.00000000 </i>
    <i name="bandstr">     23.32409175 </i>
    <i name="atom">   1177.01779097 </i>
    <i name="e_fr_energy">    -72.74176379 </i>
    <i name="e_wo_entrp">    -72.74176379 </i>
    <i name="e_0_energy">    -72.74176379 </i>
   </energy>
  </scstep>
  <scstep>
   <time name="dav">    2.84    2.91</time>
   <time name="total">    2.86    3.24</time>
   <energy>
    <i name="e_fr_energy">    -72.74001208 </i>
    <i name="e_wo_entrp">    -72.74001208 </i>
    <i name="e_0_energy">    -72.74001208 </i>
   </energy>
  </scstep>
  <scstep>
   <time name="dav">    1.79    1.81</time>
   <time name="total">    1.81    1.83</time>
   <energy>
    <i name="e_fr_energy">    -72.73928164 </i>
    <i name="e_wo_entrp">    -72.73928164 </i>
    <i name="e_0_energy">    -72.73928164 </i>
   </energy>
  </scstep>
  <scstep>
   <time name="dav">    3.01    3.05</time>
   <time name="total">    3.03    3.07</time>
   <energy>
    <i name="e_fr_energy">    -72.73927506 </i>
    <i name="e_wo_entrp">    -72.73927506 </i>
    <i name="e_0_energy">    -72.73927506 </i>
   </energy>
  </scstep>
  <scstep>
   <time name="dav">    1.78    1.80</time>
   <time name="total">    1.78    1.80</time>
   <energy>
    <i name="alphaZ">    114.58249246 </i>
    <i name="ewald">  -1390.47193377 </i>
    <i name="hartreedc">   -105.63662764 </i>
    <i name="XCdc">    117.60376791 </i>
    <i name="pawpsdc">    525.56323309 </i>
    <i name="pawaedc">   -535.66999391 </i>
    <i name="eentropy">     -0.00000000 </i>
    <i name="bandstr">     24.27199670 </i>
    <i name="atom">   1177.01779097 </i>
    <i name="e_fr_energy">    -72.73927418 </i>
    <i name="e_wo_entrp">    -72.73927418 </i>
    <i name="e_0_energy">    -72.73927418 </i>
   </energy>
  </scstep>
  <structure>
   <crystal>
    <varray name="basis" >
     <v>       3.57029856      -0.00000000       0.00000000 </v>
     <v>      -0.00000000       3.57029856       0.00000000 </v>
     <v>       0.00000000       0.00000000       3.57029856 </v>
    </varray>
    <i name="volume">     45.51070922 </i>
    <varray name="rec_basis" >
     <v>       0.28008862       0.00000000      -0.00000000 </v>
     <v>       0.00000000       0.28008862      -0.00000000 </v>
     <v>       0.00000000       0.00000000       0.28008862 </v>
    </varray>
   </crystal>
   <varray name="positions" >
    <v>       0.00000000       1.00000000       0.00000000 </v>
    <v>       0.00000000       0.50000000       0.50000000 </v>
    <v>       0.50000000       0.50000000       0.00000000 </v>
    <v>       0.50000000       1.00000000       0.50000000 </v>
    <v>       0.75000000       0.25000000       0.75000000 </v>
    <v>       0.25000000       0.25000000       0.25000000 </v>
    <v>       0.25000000       0.75000000       0.75000000 </v>
    <v>       0.75000000       0.75000000       0.25000000 </v>
   </varray>
  </structure>
  <varray name="forces" >
   <v>       0.00000000       0.00000000      -0.00000000 </v>
   <v>      -0.00000000       0.00000000       0.00000000 </v>
   <v>      -0.00000000       0.00000000      -0.00000000 </v>
   <v>      -0.00000000       0.00000000      -0.00000000 </v>
   <v>      -0.00000000      -0.00000000       0.00000000 </v>
   <v>       0.00000000      -0.00000000       0.00000000 </v>
   <v>       0.00000000      -0.00000000       0.00000000 </v>
   <v>       0.00000000      -0.00000000       0.00000000 </v>
  </varray>
  <varray name="stress" >
   <v>     -33.55234442       0.00000000      -0.00000000 </v>
   <v>       0.00000000     -33.55234442      -0.00000000 </v>
   <v>       0.00000000       0.00000000     -33.55234442 </v>
  </varray>
  <energy>
   <i name="e_fr_energy">    -72.73927418 </i>
   <i name="e_wo_entrp">    -72.73927418 </i>
   <i name="e_0_energy">    -72.73927418 </i>
  </energy>
  <time name="totalsc">   11.95   12.45</time>
 </calculation>
 <calculation>
  <scstep>
   <time name="dav">    1.90    1.92</time>
   <time name="total">    1.92    1.94</time>
   <energy>
    <i name="alphaZ">    115.39912090 </i>
    <i name="ewald">  -1393.76741103 </i>
    <i name="hartreedc">   -105.88699934 </i>
    <i name="XCdc">    117.86801239 </i>
    <i name="pawpsdc">    525.57878780 </i>
    <i name="pawaedc">   -535.68571084 </i>
    <i name="eentropy">     -0.00000000 </i>
    <i name="bandstr">     26.73288296 </i>
    <i name="atom">   1177.01779097 </i>
    <i name="e_fr_energy">    -72.74352619 </i>
    <i name="e_wo_entrp">    -72.74352619 </i>
    <i name="e_0_energy">    -72.74352619 </i>
   </energy>
  </scstep>
  <scstep>
   <time name="dav">    2.71    2.77</time>
   <time name="total">    2.73    2.79</time>
   <energy>
    <i name="e_fr_energy">    -72.74291776 </i>
    <i name="e_wo_entrp">    -72.74291776 </i>
    <i name="e_0_energy">    -72.74291776 </i>
   </energy>
  </scstep>
  <scstep>
   <time name="dav">    1.81    1.83</time>
   <time name="total">    1.83    1.85</time>
   <energy>
    <i name="e_fr_energy">    -72.74266915 </i>
    <i name="e_wo_entrp">    -72.74266915 </i>
    <i name="e_0_energy">    -72.74266915 </i>
   </energy>
  </scstep>
  <scstep>
   <time name="dav">    2.94    2.97</time>
   <time name="total">    2.95    2.97</time>
   <energy>
    <i name="alphaZ">    115.39912090 </i>
    <i name="ewald">  -1393.76741103 </i>
    <i name="hartreedc">   -105.24515050 </i>
    <i name="XCdc">    117.80820017 </i>
    <i name="pawpsdc">    529.10033845 </i>
    <i name="pawaedc">   -539.22873457 </i>
    <i name="eentropy">     -0.00000000 </i>
    <i name="bandstr">     26.17317674 </i>
    <i name="atom">   1177.01779097 </i>
    <i name="e_fr_energy">    -72.74266886 </i>
    <i name="e_wo_entrp">    -72.74266886 </i>
    <i name="e_0_energy">    -72.74266886 </i>
   </energy>
  </scstep>
  <structure>
   <crystal>
    <varray name="basis" >
     <v>       3.56185681      -0.00000000       0.00000000 </v>
     <v>      -0.00000000       3.56185681       0.00000000 </v>
     <v>       0.00000000       0.00000000       3.56185681 </v>
    </varray>
    <i name="volume">     45.18865010 </i>
    <varray name="rec_basis" >
     <v>       0.28075244       0.00000000      -0.00000000 </v>
     <v>       0.00000000       0.28075244      -0.00000000 </v>
     <v>       0.00000000       0.00000000       0.28075244 </v>
    </varray>
   </crystal>
   <varray name="positions" >
    <v>       0.00000000       0.00000000       0.00000000 </v>
    <v>       0.00000000       0.50000000       0.50000000 </v>
    <v>       0.50000000       0.50000000       0.00000000 </v>
    <v>       0.50000000       0.00000000       0.50000000 </v>
    <v>       0.75000000       0.25000000       0.75000000 </v>
    <v>       0.25000000       0.25000000       0.25000000 </v>
    <v>       0.25000000       0.75000000       0.75000000 </v>
    <v>       0.75000000       0.75000000       0.25000000 </v>
   </varray>
  </structure>
  <varray name="forces" >
   <v>       0.00000000      -0.00000000       0.00000000 </v>
   <v>       0.00000000      -0.00000000       0.00000000 </v>
   <v>       0.00000000      -0.00000000       0.00000000 </v>
   <v>       0.00000000      -0.00000000       0.00000000 </v>
   <v>      -0.00000000       0.00000000      -0.00000000 </v>
   <v>      -0.00000000       0.00000000      -0.00000000 </v>
   <v>      -0.00000000       0.00000000      -0.00000000 </v>
   <v>      -0.00000000      -0.00000000      -0.00000000 </v>
  </varray>
  <varray name="stress" >
   <v>      -0.00349752       0.00000000       0.00000000 </v>
   <v>       0.00000000      -0.00349752       0.00000000 </v>
   <v>      -0.00000000       0.00000000      -0.00349752 </v>
  </varray>
  <energy>
   <i name="e_fr_energy">    -72.74266886 </i>
   <i name="e_wo_entrp">    -72.74266886 </i>
   <i name="e_0_energy">    -72.74266886 </i>
  </energy>
  <time name="totalsc">    9.94   10.09</time>
  <eigenvalues>
   <array>
    <dimension dim="1">band</dimension>
    <dimension dim="2">kpoint</dimension>
    <dimension dim="3">spin</dimension>
    <field>eigene</field>
    <field>occ</field>
    <set>
     <set comment="spin 1">
      <set comment="kpoint 1">
       <r>  -11.7174    1.0000 </r>
       <r>   -2.9790    1.0000 </r>
       <r>   -2.9790    1.0000 </r>
       <r>   -2.9790    1.0000 </r>
       <r>   -2.9790    1.0000 </r>
       <r>   -2.9790    1.0000 </r>
       <r>   -2.9790    1.0000 </r>
       <r>    3.4942    1.0000 </r>
       <r>    3.4942    1.0000 </r>
       <r>    3.4942    1.0000 </r>
       <r>    3.4942    1.0000 </r>
       <r>    3.4942    1.0000 </r>
       <r>    3.4942    1.0000 </r>
       <r>    9.8392    1.0000 </r>
       <r>    9.8392    1.0000 </r>
       <r>    9.8392    1.0000 </r>
       <r>   14.5859    0.0000 </r>
       <r>   14.5859    0.0000 </r>
       <r>   14.5859    0.0000 </r>
       <r>   14.5859    0.0000 </r>
       <r>   14.5859    0.0000 </r>
       <r>   14.5859    0.0000 </r>
       <r>   15.4379    0.0000 </r>
       <r>   15.4379    0.0000 </r>
       <r>   15.4379    0.0000 </r>
       <r>   23.2355    0.0000 </r>
       <r>   26.7539    0.0000 </r>
       <r>   26.7539    0.0000 </r>
      </set>
      <set comment="kpoint 2">
       <r>  -11.6917    1.0000 </r>
       <r>   -3.8115    1.0000 </r>
       <r>   -2.9625    1.0000 </r>
       <r>   -2.9625    1.0000 </r>
       <r>   -2.9625    1.0000 </r>
       <r>   -2.9625    1.0000 </r>
       <r>   -2.1226    1.0000 </r>
       <r>    3.4364    1.0000 </r>
       <r>    3.4364    1.0000 </r>
       <r>    3.4364    1.0000 </r>
       <r>    3.4364    1.0000 </r>
       <r>    3.5180    1.0000 </r>
       <r>    3.5180    1.0000 </r>
       <r>    9.7296    1.0000 </r>
       <r>    9.7296    1.0000 </r>
       <r>    9.7756    1.0000 </r>
       <r>   14.3552    0.0000 </r>
       <r>   14.6925    0.0000 </r>
       <r>   14.6925    0.0000 </r>
       <r>   14.6925    0.0000 </r>
       <r>   14.6925    0.0000 </r>
       <r>   14.8753    0.0000 </r>
       <r>   15.4171    0.0000 </r>
       <r>   15.5702    0.0000 </r>
       <r>   15.5702    0.0000 </r>
       <r>   23.2577    0.0000 </r>
       <r>   26.6687    0.0000 </r>
       <r>   26.6912    0.0000 </r>
      </set>
      <set comment="kpoint 3">
       <r>  -11.6148    1.0000 </r>
       <r>   -4.6151    1.0000 </r>
       <r>   -2.9139    1.0000 </r>
       <r>   -2.9139    1.0000 </r>
       <r>   -2.9139    1.0000 </r>
       <r>   -2.9139    1.0000 </r>
       <r>   -1.2457    1.0000 </r>
       <r>    3.2717    1.0000 </r>
       <r>    3.2717    1.0000 </r>
       <r>    3.2717    1.0000 </r>
       <r>    3.2717    1.0000 </r>
       <r>    3.5931    1.0000 </r>
       <r>    3.5931    1.0000 </r>
       <r>    9.4294    1.0000 </r>
       <r>    9.4294    1.0000 </r>
       <r>    9.5876    1.0000 </r>
       <r>   14.1811    0.0000 </r>
       <r>   15.0036    0.0000 </r>
       <r>   15.0036    0.0000 </r>
       <r>   15.0036    0.0000 </r>
       <r>   15.0036    0.0000 </r>
       <r>   15.2328    0.0000 </r>
       <r>   15.3562    0.0000 </r>
       <r>   15.9384    0.0000 </r>
       <r>   15.9384    0.0000 </r>
       <r>   23.3122    0.0000 </r>
       <r>   26.4194    0.0000 </r>
       <r>   26.4194    0.0000 </r>
      </set>
      <set comment="kpoint 4">
       <r>  -11.4866    1.0000 </r>
       <r>   -5.3864    1.0000 </r>
       <r>   -2.8346    1.0000 </r>
       <r>   -2.8346    1.0000 </r>
       <r>   -2.8346    1.0000 </r>
       <r>   -2.8346    1.0000 </r>
       <r>   -0.3562    1.0000 </r>
       <r>    3.0225    1.0000 </r>
       <r>    3.0225    1.0000 </r>
       <r>    3.0225    1.0000 </r>
       <r>    3.0225    1.0000 </r>
       <r>    3.7178    1.0000 </r>
       <r>    3.7178    1.0000 </r>
       <r>    8.9989    1.0000 </r>
       <r>    8.9989    1.0000 </r>
       <r>    9.2761    1.0000 </r>
       <r>   14.0594    0.0000 </r>
       <r>   15.2506    0.0000 </r>
       <r>   15.4992    0.0000 </r>
       <r>   15.4992    0.0000 </r>
       <r>   15.4992    0.0000 </r>
       <r>   15.4992    0.0000 </r>
       <r>   15.6534    0.0000 </r>
       <r>   16.4775    0.0000 </r>
       <r>   16.4775    0.0000 </r>
       <r>   23.3558    0.0000 </r>
       <r>   26.0213    0.0000 </r>
       <r>   26.0213    0.0000 </r>
      </set>
      <set comment="kpoint 5">
       <r>  -11.3075    1.0000 </r>
       <r>   -6.1220    1.0000 </r>
       <r>   -2.7302    1.0000 </r>
       <r>   -2.7302    1.0000 </r>
       <r>   -2.7302    1.0000 </r>
       <r>   -2.7302    1.0000 </r>
       <r>    0.5408    1.0000 </r>
       <r>    2.7186    1.0000 </r>
       <r>    2.7186    1.0000 </r>
       <r>    2.7186    1.0000 </r>
       <r>    2.7186    1.0000 </r>
       <r>    3.8917    1.0000 </r>
       <r>    3.8917    1.0000 </r>
       <r>    8.4971    1.0000 </r>
       <r>    8.4971    1.0000 </r>
       <r>    8.8647    1.0000 </r>
       <r>   13.9862    0.0000 </r>
       <r>   15.1336    0.0000 </r>
       <r>   16.1447    0.0000 </r>
       <r>   16.1453    0.0000 </r>
       <r>   16.1453    0.0000 </r>
       <r>   16.1453    0.0000 </r>
       <r>   16.1453    0.0000 </r>
       <r>   17.1395    0.0000 </r>
       <r>   17.1395    0.0000 </r>
       <r>   23.3316    0.0000 </r>
       <r>   25.5022    0.0000 </r>
       <r>   25.5022    0.0000 </r>
      </set>
      <set comment="kpoint 6">
       <r>  -11.0776    1.0000 </r>
       <r>   -6.8192    1.0000 </r>
       <r>   -2.6068    1.0000 </r>
       <r>   -2.6068    1.0000 </r>
       <r>   -2.6068    1.0000 </r>
       <r>   -2.6068    1.0000 </r>
       <r>    1.4386    1.0000 </r>
       <r>    2.3921    1.0000 </r>
       <r>    2.3921    1.0000 </r>
       <r>    2.3921    1.0000 </r>
       <r>    2.3921    1.0000 </r>
       <r>    4.1141    1.0000 </r>
       <r>    4.1141    1.0000 </r>
       <r>    7.9605    1.0000 </r>
       <r>    7.9605    1.0000 </r>
       <r>    8.3646    1.0000 </r>
       <r>   13.9579    0.0000 </r>
       <r>   14.9826    0.0000 </r>
       <r>   16.7093    0.0000 </r>
       <r>   16.9121    0.0000 </r>
       <r>   16.9121    0.0000 </r>
       <r>   16.9121    0.0000 </r>
       <r>   16.9121    0.0000 </r>
       <r>   17.8612    0.0000 </r>
       <r>   17.8612    0.0000 </r>
       <r>   23.1553    0.0000 </r>
       <r>   24.8880    0.0000 </r>
       <r>   24.8880    0.0000 </r>
      </set>
      <set comment="kpoint 7">
       <r>  -10.7973    1.0000 </r>
       <r>   -7.4756    1.0000 </r>
       <r>   -2.4749    1.0000 </r>
       <r>   -2.4749    1.0000 </r>
       <r>   -2.4749    1.0000 </r>
       <r>   -2.4749    1.0000 </r>
       <r>    2.0740    1.0000 </r>
       <r>    2.0740    1.0000 </r>
       <r>    2.0740    1.0000 </r>
       <r>    2.0740    1.0000 </r>
       <r>    2.3301    1.0000 </r>
       <r>    4.3859    1.0000 </r>
       <r>    4.3859    1.0000 </r>
       <r>    7.4167    1.0000 </r>
       <r>    7.4167    1.0000 </r>
       <r>    7.7817    1.0000 </r>
       <r>   13.9711    0.0000 </r>
       <r>   14.8216    0.0000 </r>
       <r>   17.3481    0.0000 </r>
       <r>   17.7668    0.0000 </r>
       <r>   17.7668    0.0000 </r>
       <r>   17.7668    0.0000 </r>
       <r>   17.7668    0.0000 </r>
       <r>   18.6345    0.0000 </r>
       <r>   18.6345    0.0000 </r>
       <r>   22.7554    0.0000 </r>
       <r>   24.2096    0.0000 </r>
       <r>   24.2096    0.0000 </r>
      </set>
      <set comment="kpoint 8">
       <r>  -10.4669    1.0000 </r>
       <r>   -8.0893    1.0000 </r>
       <r>   -2.3487    1.0000 </r>
       <r>   -2.3487    1.0000 </r>
       <r>   -2.3487    1.0000 </r>
       <r>   -2.3487    1.0000 </r>
       <r>    1.7964    1.0000 </r>
       <r>    1.7964    1.0000 </r>
       <r>    1.7964    1.0000 </r>
       <r>    1.7964    1.0000 </r>
       <r>    3.2082    1.0000 </r>
       <r>    4.7019    1.0000 </r>
       <r>    4.7019    1.0000 </r>
       <r>    6.8885    1.0000 </r>
       <r>    6.8885    1.0000 </r>
       <r>    7.1376    1.0000 </r>
       <r>   14.0210    0.0000 </r>
       <r>   14.6566    0.0000 </r>
       <r>   18.0593    0.0000 </r>
       <r>   18.6784    0.0000 </r>
       <r>   18.6784    0.0000 </r>
       <r>   18.6784    0.0000 </r>
       <r>   18.6784    0.0000 </r>
       <r>   19.4372    0.0000 </r>
       <r>   19.4372    0.0000 </r>
       <r>   22.1439    0.0000 </r>
       <r>   23.4701    0.0000 </r>
       <r>   23.4701    0.0000 </r>
      </set>
      <set comment="kpoint 9">
       <r>  -10.0872    1.0000 </r>
       <r>   -8.6587    1.0000 </r>
       <r>   -2.2471    1.0000 </r>
       <r>   -2.2471    1.0000 </r>
       <r>   -2.2471    1.0000 </r>
       <r>   -2.2471    1.0000 </r>
       <r>    1.5875    1.0000 </r>
       <r>    1.5875    1.0000 </r>
       <r>    1.5875    1.0000 </r>
       <r>    1.5875    1.0000 </r>
       <r>    4.0629    1.0000 </r>
       <r>    5.0621    1.0000 </r>
       <r>    5.0621    1.0000 </r>
       <r>    6.3824    1.0000 </r>
       <r>    6.3824    1.0000 </r>
       <r>    6.4359    1.0000 </r>
       <r>   14.0988    0.0000 </r>
       <r>   14.4954    0.0000 </r>
       <r>   18.8363    0.0000 </r>
       <r>   19.5895    0.0000 </r>
       <r>   19.5895    0.0000 </r>
       <r>   19.5895    0.0000 </r>
       <r>   19.5895    0.0000 </r>
       <r>   20.2543    0.0000 </r>
       <r>   20.2543    0.0000 </r>
       <r>   21.3739    0.0000 </r>
       <r>   22.6915    0.0000 </r>
       <r>   22.6915    0.0000 </r>
      </set>
      <set comment="kpoint 10">
       <r>   -9.6587    1.0000 </r>
       <r>   -9.1821    1.0000 </r>
       <r>   -2.1896    1.0000 </r>
       <r>   -2.1896    1.0000 </r>
       <r>   -2.1896    1.0000 </r>
       <r>   -2.1896    1.0000 </r>
       <r>    1.4732    1.0000 </r>
       <r>    1.4732    1.0000 </r>
       <r>    1.4732    1.0000 </r>
       <r>    1.4732    1.0000 </r>
       <r>    4.8913    1.0000 </r>
       <r>    5.4646    1.0000 </r>
       <r>    5.4646    1.0000 </r>
       <r>    5.6846    1.0000 </r>
       <r>    5.9060    1.0000 </r>
       <r>    5.9060    1.0000 </r>
       <r>   14.2120    0.0000 </r>
       <r>   14.3451    0.0000 </r>
       <r>   19.6670    0.0000 </r>
       <r>   20.3372    0.0000 </r>
       <r>   20.3372    0.0000 </r>
       <r>   20.3372    0.0000 </r>
       <r>   20.3372    0.0000 </r>
       <r>   20.5267    0.0000 </r>
       <r>   21.0754    0.0000 </r>
       <r>   21.0754    0.0000 </r>
       <r>   21.8913    0.0000 </r>
       <r>   21.8913    0.0000 </r>
      </set>
      <set comment="kpoint 11">
       <r>  -11.6661    1.0000 </r>
       <r>   -3.7928    1.0000 </r>
       <r>   -3.7928    1.0000 </r>
       <r>   -2.9595    1.0000 </r>
       <r>   -2.9332    1.0000 </r>
       <r>   -2.1085    1.0000 </r>
       <r>   -2.1085    1.0000 </r>
       <r>    3.2284    1.0000 </r>
       <r>    3.4575    1.0000 </r>
       <r>    3.4575    1.0000 </r>
       <r>    3.4651    1.0000 </r>
       <r>    3.4651    1.0000 </r>
       <r>    3.5370    1.0000 </r>
       <r>    9.5344    1.0000 </r>
       <r>    9.6219    1.0000 </r>
       <r>    9.8080    1.0000 </r>
       <r>   14.4636    0.0000 </r>
       <r>   14.4636    0.0000 </r>
       <r>   14.6269    0.0000 </r>
       <r>   14.9636    0.0000 </r>
       <r>   14.9821    0.0000 </r>
       <r>   14.9821    0.0000 </r>
       <r>   15.4904    0.0000 </r>
       <r>   15.6072    0.0000 </r>
       <r>   15.6908    0.0000 </r>
       <r>   23.2809    0.0000 </r>
       <r>   26.5889    0.0000 </r>
       <r>   26.5897    0.0000 </r>
      </set>
      <set comment="kpoint 12">
       <r>  -11.5891    1.0000 </r>
       <r>   -4.5949    1.0000 </r>
       <r>   -3.7372    1.0000 </r>
       <r>   -2.9261    1.0000 </r>
       <r>   -2.8706    1.0000 </r>
       <r>   -2.0690    1.0000 </r>
       <r>   -1.2364    1.0000 </r>
       <r>    2.9349    1.0000 </r>
       <r>    3.2841    1.0000 </r>
       <r>    3.3143    1.0000 </r>
       <r>    3.5224    1.0000 </r>
       <r>    3.5298    1.0000 </r>
       <r>    3.5459    1.0000 </r>
       <r>    9.1803    1.0000 </r>
       <r>    9.3261    1.0000 </r>
       <r>    9.6987    1.0000 </r>
       <r>   14.2912    0.0000 </r>
       <r>   14.7757    0.0000 </r>
       <r>   14.7801    0.0000 </r>
       <r>   15.2883    0.0000 </r>
       <r>   15.3350    0.0000 </r>
       <r>   15.4195    0.0000 </r>
       <r>   15.4604    0.0000 </r>
       <r>   15.9416    0.0000 </r>
       <r>   16.0303    0.0000 </r>
       <r>   23.3384    0.0000 </r>
       <r>   26.3269    0.0000 </r>
       <r>   26.3882    0.0000 </r>
      </set>
      <set comment="kpoint 13">
       <r>  -11.4610    1.0000 </r>
       <r>   -5.3649    1.0000 </r>
       <r>   -3.6465    1.0000 </r>
       <r>   -2.8668    1.0000 </r>
       <r>   -2.7761    1.0000 </r>
       <r>   -2.0069    1.0000 </r>
       <r>   -0.3528    1.0000 </r>
       <r>    2.5857    1.0000 </r>
       <r>    3.0177    1.0000 </r>
       <r>    3.0850    1.0000 </r>
       <r>    3.4014    1.0000 </r>
       <r>    3.6521    1.0000 </r>
       <r>    3.6779    1.0000 </r>
       <r>    8.7219    1.0000 </r>
       <r>    8.9003    1.0000 </r>
       <r>    9.4434    1.0000 </r>
       <r>   14.1707    0.0000 </r>
       <r>   15.1264    0.0000 </r>
       <r>   15.2808    0.0000 </r>
       <r>   15.3626    0.0000 </r>
       <r>   15.7529    0.0000 </r>
       <r>   15.7729    0.0000 </r>
       <r>   16.0305    0.0000 </r>
       <r>   16.4747    0.0000 </r>
       <r>   16.5346    0.0000 </r>
       <r>   23.3864    0.0000 </r>
       <r>   25.9149    0.0000 </r>
       <r>   26.0073    0.0000 </r>
      </set>
      <set comment="kpoint 14">
       <r>  -11.2819    1.0000 </r>
       <r>   -6.0996    1.0000 </r>
       <r>   -3.5235    1.0000 </r>
       <r>   -2.7876    1.0000 </r>
       <r>   -2.6520    1.0000 </r>
       <r>   -1.9282    1.0000 </r>
       <r>    0.5356    1.0000 </r>
       <r>    2.2138    1.0000 </r>
       <r>    2.6917    1.0000 </r>
       <r>    2.8102    1.0000 </r>
       <r>    3.1964    1.0000 </r>
       <r>    3.8238    1.0000 </r>
       <r>    3.8617    1.0000 </r>
       <r>    8.2066    1.0000 </r>
       <r>    8.4030    1.0000 </r>
       <r>    9.0671    1.0000 </r>
       <r>   14.0985    0.0000 </r>
       <r>   15.2401    0.0000 </r>
       <r>   15.6565    0.0000 </r>
       <r>   15.9352    0.0000 </r>
       <r>   16.2413    0.0000 </r>
       <r>   16.4089    0.0000 </r>
       <r>   16.7689    0.0000 </r>
       <r>   17.1275    0.0000 </r>
       <r>   17.1644    0.0000 </r>
       <r>   23.3673    0.0000 </r>
       <r>   25.3868    0.0000 </r>
       <r>   25.4947    0.0000 </r>
      </set>
      <set comment="kpoint 15">
       <r>  -11.0521    1.0000 </r>
       <r>   -6.7961    1.0000 </r>
       <r>   -3.3730    1.0000 </r>
       <r>   -2.6993    1.0000 </r>
       <r>   -2.5031    1.0000 </r>
       <r>   -1.8427    1.0000 </r>
       <r>    1.4204    1.0000 </r>
       <r>    1.8506    1.0000 </r>
       <r>    2.3363    1.0000 </r>
       <r>    2.5230    1.0000 </r>
       <r>    2.9373    1.0000 </r>
       <r>    4.0443    1.0000 </r>
       <r>    4.0982    1.0000 </r>
       <r>    7.6565    1.0000 </r>
       <r>    7.8703    1.0000 </r>
       <r>    8.5984    1.0000 </r>
       <r>   14.0710    0.0000 </r>
       <r>   15.0946    0.0000 </r>
       <r>   16.3333    0.0000 </r>
       <r>   16.7115    0.0000 </r>
       <r>   16.8025    0.0000 </r>
       <r>   17.1632    0.0000 </r>
       <r>   17.6030    0.0000 </r>
       <r>   17.8559    0.0000 </r>
       <r>   17.8604    0.0000 </r>
       <r>   23.1969    0.0000 </r>
       <r>   24.7687    0.0000 </r>
       <r>   24.8843    0.0000 </r>
      </set>
      <set comment="kpoint 16">
       <r>  -10.7719    1.0000 </r>
       <r>   -7.4520    1.0000 </r>
       <r>   -3.2020    1.0000 </r>
       <r>   -2.6164    1.0000 </r>
       <r>   -2.3361    1.0000 </r>
       <r>   -1.7643    1.0000 </r>
       <r>    1.5272    1.0000 </r>
       <r>    1.9806    1.0000 </r>
       <r>    2.2569    1.0000 </r>
       <r>    2.2918    1.0000 </r>
       <r>    2.6551    1.0000 </r>
       <r>    4.3123    1.0000 </r>
       <r>    4.3891    1.0000 </r>
       <r>    7.0951    1.0000 </r>
       <r>    7.3323    1.0000 </r>
       <r>    8.0546    1.0000 </r>
       <r>   14.0843    0.0000 </r>
       <r>   14.9348    0.0000 </r>
       <r>   17.1229    0.0000 </r>
       <r>   17.4376    0.0000 </r>
       <r>   17.5796    0.0000 </r>
       <r>   18.0005    0.0000 </r>
       <r>   18.5035    0.0000 </r>
       <r>   18.6128    0.0000 </r>
       <r>   18.6312    0.0000 </r>
       <r>   22.8116    0.0000 </r>
       <r>   24.0835    0.0000 </r>
       <r>   24.1271    0.0000 </r>
      </set>
      <set comment="kpoint 17">
       <r>  -10.4417    1.0000 </r>
       <r>   -8.0653    1.0000 </r>
       <r>   -3.0216    1.0000 </r>
       <r>   -2.5580    1.0000 </r>
       <r>   -2.1611    1.0000 </r>
       <r>   -1.7108    1.0000 </r>
       <r>    1.2765    1.0000 </r>
       <r>    1.6520    1.0000 </r>
       <r>    2.0465    1.0000 </r>
       <r>    2.3822    1.0000 </r>
       <r>    3.1366    1.0000 </r>
       <r>    4.6264    1.0000 </r>
       <r>    4.7378    1.0000 </r>
       <r>    6.5288    1.0000 </r>
       <r>    6.8045    1.0000 </r>
       <r>    7.4512    1.0000 </r>
       <r>   14.1325    0.0000 </r>
       <r>   14.7694    0.0000 </r>
       <r>   17.9928    0.0000 </r>
       <r>   18.1446    0.0000 </r>
       <r>   18.5098    0.0000 </r>
       <r>   18.8795    0.0000 </r>
       <r>   19.3922    0.0000 </r>
       <r>   19.4306    0.0000 </r>
       <r>   19.4396    0.0000 </r>
       <r>   22.2041    0.0000 </r>
       <r>   23.3036    0.0000 </r>
       <r>   23.3486    0.0000 </r>
      </set>
      <set comment="kpoint 18">
       <r>  -10.0621    1.0000 </r>
       <r>   -8.6342    1.0000 </r>
       <r>   -2.8465    1.0000 </r>
       <r>   -2.5448    1.0000 </r>
       <r>   -1.9925    1.0000 </r>
       <r>   -1.7007    1.0000 </r>
       <r>    1.1255    1.0000 </r>
       <r>    1.3771    1.0000 </r>
       <r>    1.9198    1.0000 </r>
       <r>    2.1462    1.0000 </r>
       <r>    3.9389    1.0000 </r>
       <r>    4.9849    1.0000 </r>
       <r>    5.1517    1.0000 </r>
       <r>    5.9530    1.0000 </r>
       <r>    6.3007    1.0000 </r>
       <r>    6.8252    1.0000 </r>
       <r>   14.2126    0.0000 </r>
       <r>   14.6088    0.0000 </r>
       <r>   18.8943    0.0000 </r>
       <r>   18.9177    0.0000 </r>
       <r>   19.4639    0.0000 </r>
       <r>   19.7139    0.0000 </r>
       <r>   20.1917    0.0000 </r>
       <r>   20.2495    0.0000 </r>
       <r>   20.3344    0.0000 </r>
       <r>   21.4407    0.0000 </r>
       <r>   22.4970    0.0000 </r>
       <r>   22.5882    0.0000 </r>
      </set>
      <set comment="kpoint 19">
       <r>   -9.6337    1.0000 </r>
       <r>   -9.1574    1.0000 </r>
       <r>   -2.6962    1.0000 </r>
       <r>   -2.5909    1.0000 </r>
       <r>   -1.8481    1.0000 </r>
       <r>   -1.7465    1.0000 </r>
       <r>    1.0924    1.0000 </r>
       <r>    1.1823    1.0000 </r>
       <r>    1.8945    1.0000 </r>
       <r>    1.9758    1.0000 </r>
       <r>    4.6804    1.0000 </r>
       <r>    5.3470    1.0000 </r>
       <r>    5.3869    1.0000 </r>
       <r>    5.6414    1.0000 </r>
       <r>    5.8263    1.0000 </r>
       <r>    6.2073    1.0000 </r>
       <r>   14.3260    0.0000 </r>
       <r>   14.4588    0.0000 </r>
       <r>   19.7362    0.0000 </r>
       <r>   19.7439    0.0000 </r>
       <r>   20.1662    0.0000 </r>
       <r>   20.3637    0.0000 </r>
       <r>   20.5978    0.0000 </r>
       <r>   20.8556    0.0000 </r>
       <r>   20.9990    0.0000 </r>
       <r>   21.0727    0.0000 </r>
       <r>   21.8011    0.0000 </r>
       <r>   21.8906    0.0000 </r>
      </set>
      <set comment="kpoint 20">
       <r>  -11.5123    1.0000 </r>
       <r>   -4.5343    1.0000 </r>
       <r>   -4.5343    1.0000 </r>
       <r>   -2.9122    1.0000 </r>
       <r>   -2.7951    1.0000 </r>
       <r>   -1.2097    1.0000 </r>
       <r>   -1.2097    1.0000 </r>
       <r>    2.5413    1.0000 </r>
       <r>    3.3481    1.0000 </r>
       <r>    3.3481    1.0000 </r>
       <r>    3.4112    1.0000 </r>
       <r>    3.4112    1.0000 </r>
       <r>    3.6654    1.0000 </r>
       <r>    8.7614    1.0000 </r>
       <r>    9.0405    1.0000 </r>
       <r>    9.7119    1.0000 </r>
       <r>   14.6115    0.0000 </r>
       <r>   14.6115    0.0000 </r>
       <r>   14.7525    0.0000 </r>
       <r>   15.6353    0.0000 </r>
       <r>   15.6353    0.0000 </r>
       <r>   15.6470    0.0000 </r>
       <r>   15.9927    0.0000 </r>
       <r>   16.0508    0.0000 </r>
       <r>   16.2954    0.0000 </r>
       <r>   23.4011    0.0000 </r>
       <r>   26.0629    0.0000 </r>
       <r>   26.0629    0.0000 </r>
      </set>
      <set comment="kpoint 21">
       <r>  -11.3843    1.0000 </r>
       <r>   -5.3007    1.0000 </r>
       <r>   -4.4348    1.0000 </r>
       <r>   -2.8781    1.0000 </r>
       <r>   -2.6869    1.0000 </r>
       <r>   -1.1713    1.0000 </r>
       <r>   -0.3447    1.0000 </r>
       <r>    2.1238    1.0000 </r>
       <r>    3.0696    1.0000 </r>
       <r>    3.2097    1.0000 </r>
       <r>    3.4620    1.0000 </r>
       <r>    3.5638    1.0000 </r>
       <r>    3.6931    1.0000 </r>
       <r>    8.2705    1.0000 </r>
       <r>    8.6280    1.0000 </r>
       <r>    9.5688    1.0000 </r>
       <r>   14.4940    0.0000 </r>
       <r>   14.9404    0.0000 </r>
       <r>   15.1176    0.0000 </r>
       <r>   15.6424    0.0000 </r>
       <r>   16.0446    0.0000 </r>
       <r>   16.1085    0.0000 </r>
       <r>   16.4889    0.0000 </r>
       <r>   16.6962    0.0000 </r>
       <r>   16.7100    0.0000 </r>
       <r>   23.4663    0.0000 </r>
       <r>   25.6094    0.0000 </r>
       <r>   25.6383    0.0000 </r>
      </set>
      <set comment="kpoint 22">
       <r>  -11.2053    1.0000 </r>
       <r>   -6.0326    1.0000 </r>
       <r>   -4.2983    1.0000 </r>
       <r>   -2.8343    1.0000 </r>
       <r>   -2.5472    1.0000 </r>
       <r>   -1.1288    1.0000 </r>
       <r>    0.5169    1.0000 </r>
       <r>    1.7145    1.0000 </r>
       <r>    2.7267    1.0000 </r>
       <r>    2.9740    1.0000 </r>
       <r>    3.6149    1.0000 </r>
       <r>    3.6277    1.0000 </r>
       <r>    3.7777    1.0000 </r>
       <r>    7.7305    1.0000 </r>
       <r>    8.1398    1.0000 </r>
       <r>    9.2774    1.0000 </r>
       <r>   14.4243    0.0000 </r>
       <r>   15.3279    0.0000 </r>
       <r>   15.5394    0.0000 </r>
       <r>   15.7780    0.0000 </r>
       <r>   16.5244    0.0000 </r>
       <r>   16.7322    0.0000 </r>
       <r>   17.1120    0.0000 </r>
       <r>   17.2422    0.0000 </r>
       <r>   17.5015    0.0000 </r>
       <r>   23.4591    0.0000 </r>
       <r>   25.0589    0.0000 </r>
       <r>   25.0611    0.0000 </r>
      </set>
      <set comment="kpoint 23">
       <r>  -10.9757    1.0000 </r>
       <r>   -6.7269    1.0000 </r>
       <r>   -4.1283    1.0000 </r>
       <r>   -2.7951    1.0000 </r>
       <r>   -2.3785    1.0000 </r>
       <r>   -1.0959    1.0000 </r>
       <r>    1.3457    1.0000 </r>
       <r>    1.3625    1.0000 </r>
       <r>    2.3488    1.0000 </r>
       <r>    2.7396    1.0000 </r>
       <r>    3.4534    1.0000 </r>
       <r>    3.8427    1.0000 </r>
       <r>    4.0561    1.0000 </r>
       <r>    7.1719    1.0000 </r>
       <r>    7.6175    1.0000 </r>
       <r>    8.8733    1.0000 </r>
       <r>   14.3986    0.0000 </r>
       <r>   15.4032    0.0000 </r>
       <r>   15.8901    0.0000 </r>
       <r>   16.5607    0.0000 </r>
       <r>   17.0760    0.0000 </r>
       <r>   17.4691    0.0000 </r>
       <r>   17.8316    0.0000 </r>
       <r>   17.8637    0.0000 </r>
       <r>   18.3850    0.0000 </r>
       <r>   23.3134    0.0000 </r>
       <r>   24.3535    0.0000 </r>
       <r>   24.4322    0.0000 </r>
      </set>
      <set comment="kpoint 24">
       <r>  -10.6957    1.0000 </r>
       <r>   -7.3811    1.0000 </r>
       <r>   -3.9298    1.0000 </r>
       <r>   -2.7806    1.0000 </r>
       <r>   -2.1858    1.0000 </r>
       <r>   -1.0890    1.0000 </r>
       <r>    1.0493    1.0000 </r>
       <r>    1.9650    1.0000 </r>
       <r>    2.1770    1.0000 </r>
       <r>    2.5425    1.0000 </r>
       <r>    3.2371    1.0000 </r>
       <r>    4.1056    1.0000 </r>
       <r>    4.4061    1.0000 </r>
       <r>    6.6053    1.0000 </r>
       <r>    7.0882    1.0000 </r>
       <r>    8.3759    1.0000 </r>
       <r>   14.4131    0.0000 </r>
       <r>   15.2525    0.0000 </r>
       <r>   16.5917    0.0000 </r>
       <r>   17.4365    0.0000 </r>
       <r>   17.7004    0.0000 </r>
       <r>   18.2823    0.0000 </r>
       <r>   18.5431    0.0000 </r>
       <r>   18.6059    0.0000 </r>
       <r>   19.3154    0.0000 </r>
       <r>   22.9562    0.0000 </r>
       <r>   23.5529    0.0000 </r>
       <r>   23.7508    0.0000 </r>
      </set>
      <set comment="kpoint 25">
       <r>  -10.3659    1.0000 </r>
       <r>   -7.9931    1.0000 </r>
       <r>   -3.7103    1.0000 </r>
       <r>   -2.8117    1.0000 </r>
       <r>   -1.9760    1.0000 </r>
       <r>   -1.1256    1.0000 </r>
       <r>    0.8565    1.0000 </r>
       <r>    1.5993    1.0000 </r>
       <r>    2.4145    1.0000 </r>
       <r>    2.9425    1.0000 </r>
       <r>    2.9991    1.0000 </r>
       <r>    4.4149    1.0000 </r>
       <r>    4.8350    1.0000 </r>
       <r>    6.0375    1.0000 </r>
       <r>    6.5682    1.0000 </r>
       <r>    7.8067    1.0000 </r>
       <r>   14.4618    0.0000 </r>
       <r>   15.0922    0.0000 </r>
       <r>   17.3993    0.0000 </r>
       <r>   18.3765    0.0000 </r>
       <r>   18.3957    0.0000 </r>
       <r>   19.1129    0.0000 </r>
       <r>   19.2659    0.0000 </r>
       <r>   19.4111    0.0000 </r>
       <r>   20.2573    0.0000 </r>
       <r>   22.3753    0.0000 </r>
       <r>   22.7218    0.0000 </r>
       <r>   23.0303    0.0000 </r>
      </set>
      <set comment="kpoint 26">
       <r>   -9.9867    1.0000 </r>
       <r>   -8.5610    1.0000 </r>
[...]
       <r>   17.9607    0.0000 </r>
       <r>   18.2881    0.0000 </r>
       <r>   18.2881    0.0000 </r>
       <r>   18.6556    0.0000 </r>
       <r>   18.8836    0.0000 </r>
       <r>   18.8836    0.0000 </r>
       <r>   18.8836    0.0000 </r>
       <r>   19.3119    0.0000 </r>
       <r>   19.3119    0.0000 </r>
       <r>   19.3119    0.0000 </r>
      </set>
      <set comment="kpoint 218">
       <r>   -6.6670    1.0000 </r>
       <r>   -6.3031    1.0000 </r>
       <r>   -5.8357    1.0000 </r>
       <r>   -5.8357    1.0000 </r>
       <r>   -3.4673    1.0000 </r>
       <r>   -3.4673    1.0000 </r>
       <r>   -3.0080    1.0000 </r>
       <r>   -2.6517    1.0000 </r>
       <r>    6.4961    1.0000 </r>
       <r>    6.4961    1.0000 </r>
       <r>    6.7975    1.0000 </r>
       <r>    6.7975    1.0000 </r>
       <r>    6.8248    1.0000 </r>
       <r>    6.8439    1.0000 </r>
       <r>    6.9868    1.0000 </r>
       <r>    7.0625    1.0000 </r>
       <r>   18.0988    0.0000 </r>
       <r>   18.1513    0.0000 </r>
       <r>   18.1513    0.0000 </r>
       <r>   18.2038    0.0000 </r>
       <r>   18.4212    0.0000 </r>
       <r>   18.6019    0.0000 </r>
       <r>   18.6019    0.0000 </r>
       <r>   18.6210    0.0000 </r>
       <r>   18.7426    0.0000 </r>
       <r>   18.9645    0.0000 </r>
       <r>   19.2252    0.0000 </r>
       <r>   19.2252    0.0000 </r>
      </set>
      <set comment="kpoint 219">
       <r>   -6.3497    1.0000 </r>
       <r>   -6.0550    1.0000 </r>
       <r>   -6.0550    1.0000 </r>
       <r>   -5.8811    1.0000 </r>
       <r>   -3.5144    1.0000 </r>
       <r>   -3.3433    1.0000 </r>
       <r>   -3.3433    1.0000 </r>
       <r>   -3.0537    1.0000 </r>
       <r>    6.6856    1.0000 </r>
       <r>    6.7788    1.0000 </r>
       <r>    6.7788    1.0000 </r>
       <r>    6.9157    1.0000 </r>
       <r>    6.9227    1.0000 </r>
       <r>    6.9494    1.0000 </r>
       <r>    6.9494    1.0000 </r>
       <r>    7.0621    1.0000 </r>
       <r>   18.2134    0.0000 </r>
       <r>   18.2426    0.0000 </r>
       <r>   18.2426    0.0000 </r>
       <r>   18.3049    0.0000 </r>
       <r>   18.3308    0.0000 </r>
       <r>   18.4441    0.0000 </r>
       <r>   18.4441    0.0000 </r>
       <r>   18.5062    0.0000 </r>
       <r>   18.7559    0.0000 </r>
       <r>   18.9112    0.0000 </r>
       <r>   18.9112    0.0000 </r>
       <r>   18.9714    0.0000 </r>
      </set>
      <set comment="kpoint 220">
       <r>   -6.1009    1.0000 </r>
       <r>   -5.9265    1.0000 </r>
       <r>   -5.9265    1.0000 </r>
       <r>   -5.9265    1.0000 </r>
       <r>   -3.5617    1.0000 </r>
       <r>   -3.5617    1.0000 </r>
       <r>   -3.5617    1.0000 </r>
       <r>   -3.3900    1.0000 </r>
       <r>    6.9436    1.0000 </r>
       <r>    6.9436    1.0000 </r>
       <r>    6.9436    1.0000 </r>
       <r>    6.9754    1.0000 </r>
       <r>    6.9754    1.0000 </r>
       <r>    6.9754    1.0000 </r>
       <r>    7.0248    1.0000 </r>
       <r>    7.0248    1.0000 </r>
       <r>   18.2698    0.0000 </r>
       <r>   18.2698    0.0000 </r>
       <r>   18.2698    0.0000 </r>
       <r>   18.3002    0.0000 </r>
       <r>   18.3002    0.0000 </r>
       <r>   18.3681    0.0000 </r>
       <r>   18.3681    0.0000 </r>
       <r>   18.3681    0.0000 </r>
       <r>   18.7089    0.0000 </r>
       <r>   18.7745    0.0000 </r>
       <r>   18.7745    0.0000 </r>
       <r>   18.7745    0.0000 </r>
      </set>
     </set>
    </set>
   </array>
  </eigenvalues>
  <separator name="orbital magnetization" >
   <v name="MAGDIPOLOUT">      0.00000000      0.00000000      0.00000000</v>
  </separator>
  <dos>
   <i name="efermi">      9.93394422 </i>
   <total>
    <array>
     <dimension dim="1">gridpoints</dimension>
     <dimension dim="2">spin</dimension>
     <field>energy</field>
     <field>total</field>
     <field>integrated</field>
     <set>
      <set comment="spin 1">
       <r>   -13.6410     0.0000     0.0000 </r>
       <r>   -13.4999     0.0000     0.0000 </r>
       <r>   -13.3588     0.0000     0.0000 </r>
       <r>   -13.2178     0.0000     0.0000 </r>
       <r>   -13.0767     0.0000     0.0000 </r>
       <r>   -12.9357     0.0000     0.0000 </r>
       <r>   -12.7946     0.0000     0.0000 </r>
       <r>   -12.6535     0.0000     0.0000 </r>
       <r>   -12.5125     0.0000     0.0000 </r>
       <r>   -12.3714     0.0000     0.0000 </r>
       <r>   -12.2303     0.0000     0.0000 </r>
       <r>   -12.0893     0.0000     0.0000 </r>
       <r>   -11.9482     0.0000     0.0000 </r>
       <r>   -11.8072     0.0000     0.0000 </r>
       <r>   -11.6661     0.0248     0.0038 </r>
       <r>   -11.5250     0.0496     0.0236 </r>
       <r>   -11.3840     0.0430     0.0559 </r>
       <r>   -11.2429     0.1736     0.0994 </r>
       <r>   -11.1019     0.0327     0.1390 </r>
       <r>   -10.9608     0.1490     0.2015 </r>
       <r>   -10.8197     0.1817     0.2586 </r>
       <r>   -10.6787     0.0519     0.3050 </r>
       <r>   -10.5376     0.2439     0.3951 </r>
       <r>   -10.3965     0.1040     0.4529 </r>
       <r>   -10.2555     0.1982     0.5362 </r>
       <r>   -10.1144     0.1984     0.6132 </r>
       <r>    -9.9734     0.0995     0.6920 </r>
       <r>    -9.8323     0.3259     0.7904 </r>
       <r>    -9.6912     0.0039     0.8593 </r>
       <r>    -9.5502     0.1982     0.9584 </r>
       <r>    -9.4091     0.3035     1.0852 </r>
       <r>    -9.2681     0.0643     1.1425 </r>
       <r>    -9.1270     0.4439     1.2782 </r>
       <r>    -8.9859     0.1835     1.3745 </r>
       <r>    -8.8449     0.2844     1.4820 </r>
       <r>    -8.7038     0.1488     1.5889 </r>
       <r>    -8.5627     0.2541     1.7104 </r>
       <r>    -8.4217     0.2327     1.8369 </r>
       <r>    -8.2806     0.1446     1.9504 </r>
       <r>    -8.1396     0.1984     2.0770 </r>
       <r>    -7.9985     0.1825     2.1978 </r>
       <r>    -7.8574     0.3733     2.3577 </r>
       <r>    -7.7164     0.0047     2.4456 </r>
       <r>    -7.5753     0.5201     2.6338 </r>
       <r>    -7.4343     0.3992     2.7515 </r>
       <r>    -7.2932     0.1512     2.8774 </r>
       <r>    -7.1521     0.1977     3.0449 </r>
       <r>    -7.0111     0.3306     3.2176 </r>
       <r>    -6.8700     0.5595     3.3712 </r>
       <r>    -6.7289     0.2471     3.4934 </r>
       <r>    -6.5879     0.4648     3.6920 </r>
       <r>    -6.4468     0.2597     3.8451 </r>
       <r>    -6.3058     0.2149     3.9927 </r>
       <r>    -6.1647     0.3456     4.1931 </r>
       <r>    -6.0236     0.4339     4.3846 </r>
       <r>    -5.8826     0.6093     4.6193 </r>
       <r>    -5.7415     0.5872     4.8086 </r>
       <r>    -5.6005     0.2471     5.0265 </r>
       <r>    -5.4594     0.1988     5.2227 </r>
       <r>    -5.3183     0.5249     5.4104 </r>
       <r>    -5.1773     0.5593     5.6462 </r>
       <r>    -5.0362     0.4483     5.7985 </r>
       <r>    -4.8951     0.0087     5.9534 </r>
       <r>    -4.7541     0.2586     6.1741 </r>
       <r>    -4.6130     0.1776     6.3096 </r>
       <r>    -4.4720     0.2500     6.4476 </r>
       <r>    -4.3309     0.3482     6.6784 </r>
       <r>    -4.1898     0.0699     6.7861 </r>
       <r>    -4.0488     0.2479     6.9511 </r>
       <r>    -3.9077     0.3480     7.0807 </r>
       <r>    -3.7667     0.2468     7.2082 </r>
       <r>    -3.6256     0.1457     7.3339 </r>
       <r>    -3.4845     0.4323     7.4723 </r>
       <r>    -3.3435     0.5694     7.6549 </r>
       <r>    -3.2024     0.2733     7.8056 </r>
       <r>    -3.0613     0.3333     7.9330 </r>
       <r>    -2.9203     0.1377     8.0541 </r>
       <r>    -2.7792     0.5806     8.3090 </r>
       <r>    -2.6382     0.3969     8.4126 </r>
       <r>    -2.4971     0.3278     8.5743 </r>
       <r>    -2.3560     0.1678     8.7057 </r>
       <r>    -2.2150     0.4752     8.8540 </r>
       <r>    -2.0739     0.2715     9.0498 </r>
       <r>    -1.9329     0.3119     9.2795 </r>
       <r>    -1.7918     0.6459     9.6520 </r>
       <r>    -1.6507     0.7417    10.0504 </r>
       <r>    -1.5097     0.7365    10.3366 </r>
       <r>    -1.3686     0.6522    10.5556 </r>
       <r>    -1.2275     0.3791    10.7865 </r>
       <r>    -1.0865     0.4320    11.1526 </r>
       <r>    -0.9454     0.3143    11.3670 </r>
       <r>    -0.8044     0.2112    11.5134 </r>
       <r>    -0.6633     0.3108    11.6849 </r>
       <r>    -0.5222     0.2251    11.8851 </r>
       <r>    -0.3812     0.6889    12.0765 </r>
       <r>    -0.2401     0.1476    12.2958 </r>
       <r>    -0.0991     0.1147    12.3961 </r>
       <r>     0.0420     0.2014    12.5658 </r>
       <r>     0.1831     0.3372    12.6969 </r>
       <r>     0.3241     0.6366    12.8511 </r>
       <r>     0.4652     0.4091    13.0430 </r>
       <r>     0.6063     0.6075    13.2407 </r>
       <r>     0.7473     0.7305    13.4890 </r>
       <r>     0.8884     0.2726    13.6903 </r>
       <r>     1.0294     0.6103    13.9257 </r>
       <r>     1.1705     0.6807    14.2366 </r>
       <r>     1.3116     0.5189    14.5881 </r>
       <r>     1.4526     0.3997    14.8303 </r>
       <r>     1.5937     0.7942    15.1221 </r>
       <r>     1.7347     0.7552    15.4000 </r>
       <r>     1.8758     0.5928    15.6745 </r>
       <r>     2.0169     0.7340    16.0164 </r>
       <r>     2.1579     0.4522    16.2635 </r>
       <r>     2.2990     0.7364    16.5975 </r>
       <r>     2.4401     0.7158    16.8833 </r>
       <r>     2.5811     0.8821    17.2112 </r>
       <r>     2.7222     0.4647    17.5232 </r>
       <r>     2.8632     0.5408    17.8022 </r>
       <r>     3.0043     0.7345    18.1374 </r>
       <r>     3.1454     0.7355    18.6065 </r>
       <r>     3.2864     1.0881    18.9274 </r>
       <r>     3.4275     0.9058    19.2306 </r>
       <r>     3.5685     0.6819    19.6941 </r>
       <r>     3.7096     0.3966    20.1822 </r>
       <r>     3.8507     0.9297    20.5898 </r>
       <r>     3.9917     0.7564    21.0342 </r>
       <r>     4.1328     0.8979    21.5318 </r>
       <r>     4.2739     0.9090    21.8833 </r>
       <r>     4.4149     0.4916    22.3248 </r>
       <r>     4.5560     0.6513    22.6972 </r>
       <r>     4.6970     1.0489    23.2070 </r>
       <r>     4.8381     0.8330    23.5999 </r>
       <r>     4.9792     0.7725    23.9780 </r>
       <r>     5.1202     0.6745    24.3211 </r>
       <r>     5.2613     0.3909    24.7850 </r>
       <r>     5.4023     0.4961    25.2092 </r>
       <r>     5.5434     0.6948    25.5382 </r>
       <r>     5.6845     1.0513    25.9348 </r>
       <r>     5.8255     0.8153    26.3862 </r>
       <r>     5.9666     0.9202    26.7614 </r>
       <r>     6.1077     0.9732    27.0593 </r>
       <r>     6.2487     0.9113    27.4354 </r>
       <r>     6.3898     0.6246    27.8557 </r>
       <r>     6.5308     0.8411    28.1994 </r>
       <r>     6.6719     0.8570    28.5201 </r>
       <r>     6.8130     1.0542    28.8593 </r>
       <r>     6.9540     0.5255    29.3061 </r>
       <r>     7.0951     0.8649    29.5476 </r>
       <r>     7.2361     0.3485    29.7996 </r>
       <r>     7.3772     0.5642    30.0831 </r>
       <r>     7.5183     0.5008    30.3506 </r>
       <r>     7.6593     0.2622    30.5035 </r>
       <r>     7.8004     0.3637    30.6438 </r>
       <r>     7.9415     0.2471    30.8530 </r>
       <r>     8.0825     0.2533    31.0044 </r>
       <r>     8.2236     0.2083    31.1205 </r>
       <r>     8.3646     0.3511    31.2841 </r>
       <r>     8.5057     0.2726    31.4054 </r>
       <r>     8.6468     0.1980    31.4999 </r>
       <r>     8.7878     0.0747    31.5805 </r>
       <r>     8.9289     0.1014    31.6851 </r>
       <r>     9.0699     0.2624    31.7638 </r>
       <r>     9.2110     0.0527    31.8077 </r>
       <r>     9.3521     0.1318    31.8894 </r>
       <r>     9.4931     0.1295    31.9392 </r>
       <r>     9.6342     0.0744    31.9682 </r>
       <r>     9.7753     0.0058    31.9947 </r>
       <r>     9.9163     0.0000    32.0000 </r>
       <r>    10.0574     0.0000    32.0000 </r>
       <r>    10.1984     0.0000    32.0000 </r>
       <r>    10.3395     0.0000    32.0000 </r>
       <r>    10.4806     0.0000    32.0000 </r>
       <r>    10.6216     0.0000    32.0000 </r>
       <r>    10.7627     0.0000    32.0000 </r>
       <r>    10.9037     0.0000    32.0000 </r>
       <r>    11.0448     0.0000    32.0000 </r>
       <r>    11.1859     0.0000    32.0000 </r>
       <r>    11.3269     0.0000    32.0000 </r>
       <r>    11.4680     0.0000    32.0000 </r>
       <r>    11.6090     0.0000    32.0000 </r>
       <r>    11.7501     0.0000    32.0000 </r>
       <r>    11.8912     0.0000    32.0000 </r>
       <r>    12.0322     0.0000    32.0000 </r>
       <r>    12.1733     0.0000    32.0000 </r>
       <r>    12.3144     0.0000    32.0000 </r>
       <r>    12.4554     0.0000    32.0000 </r>
       <r>    12.5965     0.0000    32.0000 </r>
       <r>    12.7375     0.0000    32.0000 </r>
       <r>    12.8786     0.0000    32.0000 </r>
       <r>    13.0197     0.0000    32.0000 </r>
       <r>    13.1607     0.0000    32.0000 </r>
       <r>    13.3018     0.0000    32.0000 </r>
       <r>    13.4428     0.0000    32.0000 </r>
       <r>    13.5839     0.0000    32.0000 </r>
       <r>    13.7250     0.0000    32.0000 </r>
       <r>    13.8660     0.0000    32.0000 </r>
       <r>    14.0071     0.0248    32.0052 </r>
       <r>    14.1482     0.0496    32.0385 </r>
       <r>    14.2892     0.0637    32.0930 </r>
       <r>    14.4303     0.1637    32.1456 </r>
       <r>    14.5713     0.1965    32.2709 </r>
       <r>    14.7124     0.1647    32.3714 </r>
       <r>    14.8535     0.0127    32.4514 </r>
       <r>    14.9945     0.5929    32.6907 </r>
       <r>    15.1356     0.3032    32.8615 </r>
       <r>    15.2766     0.3487    33.0114 </r>
       <r>    15.4177     0.3137    33.2234 </r>
       <r>    15.5588     0.7265    33.4557 </r>
       <r>    15.6998     0.4712    33.7760 </r>
       <r>    15.8409     0.3879    33.9941 </r>
       <r>    15.9820     0.6767    34.2727 </r>
       <r>    16.1230     0.6955    34.5658 </r>
       <r>    16.2641     0.7688    34.8065 </r>
       <r>    16.4051     0.8257    35.1714 </r>
       <r>    16.5462     0.6114    35.4550 </r>
       <r>    16.6873     0.8882    35.8124 </r>
       <r>    16.8283     0.3532    36.1003 </r>
       <r>    16.9694     0.3521    36.4500 </r>
       <r>    17.1104     0.5617    36.8155 </r>
       <r>    17.2515     0.6471    37.2742 </r>
       <r>    17.3926     1.0950    37.6763 </r>
       <r>    17.5336     0.6162    38.1616 </r>
       <r>    17.6747     0.7497    38.5548 </r>
       <r>    17.8158     1.0854    38.9346 </r>
       <r>    17.9568     0.9172    39.5582 </r>
       <r>    18.0979     1.2419    40.1965 </r>
       <r>    18.2389     0.8632    40.7560 </r>
       <r>    18.3800     1.4450    41.3559 </r>
       <r>    18.5211     1.5141    41.8788 </r>
       <r>    18.6621     0.8734    42.5081 </r>
       <r>    18.8032     1.2184    43.0443 </r>
       <r>    18.9442     0.8078    43.5340 </r>
       <r>    19.0853     1.0780    43.9535 </r>
       <r>    19.2264     0.8166    44.5045 </r>
       <r>    19.3674     0.7417    44.9593 </r>
       <r>    19.5085     0.6454    45.5055 </r>
       <r>    19.6496     0.8747    45.9648 </r>
       <r>    19.7906     0.7352    46.4227 </r>
       <r>    19.9317     0.9536    46.7649 </r>
       <r>    20.0727     0.6634    47.2139 </r>
       <r>    20.2138     1.0758    47.8249 </r>
       <r>    20.3549     0.8749    48.1744 </r>
       <r>    20.4959     0.1896    48.4977 </r>
       <r>    20.6370     0.8793    48.8626 </r>
       <r>    20.7780     0.6757    49.2188 </r>
       <r>    20.9191     0.5953    49.4769 </r>
       <r>    21.0602     0.8986    49.8626 </r>
       <r>    21.2012     0.6879    50.2317 </r>
       <r>    21.3423     0.8172    50.5334 </r>
       <r>    21.4834     0.8950    50.9170 </r>
       <r>    21.6244     0.3821    51.2086 </r>
       <r>    21.7655     0.9895    51.4622 </r>
       <r>    21.9065     1.1131    51.9310 </r>
       <r>    22.0476     0.7489    52.3800 </r>
       <r>    22.1887     0.4107    52.7120 </r>
       <r>    22.3297     0.5623    53.0308 </r>
       <r>    22.4708     0.4725    53.2630 </r>
       <r>    22.6118     0.5003    53.6239 </r>
       <r>    22.7529     0.3550    54.0058 </r>
       <r>    22.8940     0.6097    54.2359 </r>
       <r>    23.0350     0.7385    54.4710 </r>
       <r>    23.1761     0.8124    54.6669 </r>
       <r>    23.3172     0.5517    54.8578 </r>
       <r>    23.4582     0.2880    55.0102 </r>
       <r>    23.5993     0.1499    55.1855 </r>
       <r>    23.7403     0.2252    55.3080 </r>
       <r>    23.8814     0.2132    55.4137 </r>
       <r>    24.0225     0.0000    55.5026 </r>
       <r>    24.1635     0.0496    55.5375 </r>
       <r>    24.3046     0.0718    55.5512 </r>
       <r>    24.4456     0.2447    55.6106 </r>
       <r>    24.5867     0.2481    55.6810 </r>
       <r>    24.7278     0.0000    55.6810 </r>
       <r>    24.8688     0.0000    55.7020 </r>
       <r>    25.0099     0.0952    55.7306 </r>
       <r>    25.1510     0.1488    55.8081 </r>
       <r>    25.2920     0.0000    55.8081 </r>
       <r>    25.4331     0.0000    55.8291 </r>
       <r>    25.5741     0.0496    55.8536 </r>
       <r>    25.7152     0.0000    55.8956 </r>
       <r>    25.8563     0.0000    55.8956 </r>
       <r>    25.9973     0.0001    55.9213 </r>
       <r>    26.1384     0.0000    55.9528 </r>
       <r>    26.2794     0.0000    55.9528 </r>
       <r>    26.4205     0.0652    55.9830 </r>
       <r>    26.5616     0.0331    55.9889 </r>
       <r>    26.7026     0.0248    55.9994 </r>
       <r>    26.8437     0.0000    56.0000 </r>
       <r>    26.9848     0.0000    56.0000 </r>
       <r>    27.1258     0.0000    56.0000 </r>
       <r>    27.2669     0.0000    56.0000 </r>
       <r>    27.4079     0.0000    56.0000 </r>
       <r>    27.5490     0.0000    56.0000 </r>
       <r>    27.6901     0.0000    56.0000 </r>
       <r>    27.8311     0.0000    56.0000 </r>
       <r>    27.9722     0.0000    56.0000 </r>
       <r>    28.1132     0.0000    56.0000 </r>
       <r>    28.2543     0.0000    56.0000 </r>
       <r>    28.3954     0.0000    56.0000 </r>
       <r>    28.5364     0.0000    56.0000 </r>
       <r>    28.6775     0.0000    56.0000 </r>
      </set>
     </set>
    </array>
   </total>
  </dos>
 </calculation>
 <structure name="finalpos" >
  <crystal>
   <varray name="basis" >
    <v>       3.56185681      -0.00000000       0.00000000 </v>
    <v>      -0.00000000       3.56185681       0.00000000 </v>
    <v>       0.00000000       0.00000000       3.56185681 </v>
   </varray>
   <i name="volume">     45.18865010 </i>
   <varray name="rec_basis" >
    <v>       0.28075244       0.00000000      -0.00000000 </v>
    <v>       0.00000000       0.28075244      -0.00000000 </v>
    <v>       0.00000000       0.00000000       0.28075244 </v>
   </varray>
  </crystal>
  <varray name="positions" >
   <v>       0.00000000       0.00000000       0.00000000 </v>
   <v>       0.00000000       0.50000000       0.50000000 </v>
   <v>       0.50000000       0.50000000       0.00000000 </v>
   <v>       0.50000000       0.00000000       0.50000000 </v>
   <v>       0.75000000       0.25000000       0.75000000 </v>
   <v>       0.25000000       0.25000000       0.25000000 </v>
   <v>       0.25000000       0.75000000       0.75000000 </v>
   <v>       0.75000000       0.75000000       0.25000000 </v>
  </varray>
 </structure>
</modeling>
