C                                       
           1
     3.556000    0.000000    0.000000
     0.000000    3.556000    0.000000
     0.000000    0.000000    3.556000
   C 
     8
Direct configuration=     1
   0.00000000  0.00000000  0.00000000
   0.00000000  0.50000000  0.50000000
   0.50000000  0.50000000  0.00000000
   0.50000000  0.00000000  0.50000000
   0.75000000  0.25000000  0.75000000
   0.25000000  0.25000000  0.25000000
   0.25000000  0.75000000  0.75000000
   0.75000000  0.75000000  0.25000000
C                                       
           1
     3.570299   -0.000000    0.000000
    -0.000000    3.570299    0.000000
     0.000000    0.000000    3.570299
   C 
     8
Direct configuration=     2
   0.00000000  1.00000000  0.00000000
   0.00000000  0.50000000  0.50000000
   0.50000000  0.50000000  0.00000000
   0.50000000  1.00000000  0.50000000
   0.75000000  0.25000000  0.75000000
   0.25000000  0.25000000  0.25000000
   0.25000000  0.75000000  0.75000000
   0.75000000  0.75000000  0.25000000
C                                       
           1
     3.561857   -0.000000    0.000000
    -0.000000    3.561857    0.000000
     0.000000    0.000000    3.561857
   C 
     8
Direct configuration=     3
   0.00000000  0.00000000  0.00000000
   0.00000000  0.50000000  0.50000000
   0.50000000  0.50000000  0.00000000
   0.50000000  0.00000000  0.50000000
   0.75000000  0.25000000  0.75000000
   0.25000000  0.25000000  0.25000000
   0.25000000  0.75000000  0.75000000
   0.75000000  0.75000000  0.25000000
