  64  64   0   0
  0.1129557E+02  0.8932500E-09  0.9055600E-09  0.8937200E-09  0.5000000E-15
  1.000000000000000E-004
  CAR 
 HECN                                    
     14.46896602    -52.33770023  301      8.44346976      1.00000000
    -52.338  0.0000E+00  0.0000E+00
    -52.115  0.0000E+00  0.0000E+00
    -51.892  0.0000E+00  0.0000E+00
    -51.670  0.0000E+00  0.0000E+00
    -51.447  0.0000E+00  0.0000E+00
    -51.224  0.0000E+00  0.0000E+00
    -51.002  0.0000E+00  0.0000E+00
    -50.779  0.0000E+00  0.0000E+00
    -50.556  0.0000E+00  0.0000E+00
    -50.334  0.0000E+00  0.0000E+00
    -50.111  0.0000E+00  0.0000E+00
    -49.888  0.4986E-17  0.1110E-17
    -49.665  0.1157E-07  0.2575E-08
    -49.443  0.2227E-02  0.4960E-03
    -49.220  0.1579E+00  0.3566E-01
    -48.997  0.3089E+00  0.1045E+00
    -48.775  0.8615E-01  0.1236E+00
    -48.552  0.7233E-01  0.1398E+00
    -48.329  0.1113E-02  0.1400E+00
    -48.107  0.3096E-08  0.1400E+00
    -47.884  0.0000E+00  0.1400E+00
    -47.661  0.0000E+00  0.1400E+00
    -47.439  0.0000E+00  0.1400E+00
    -47.216  0.0000E+00  0.1400E+00
    -46.993  0.0000E+00  0.1400E+00
    -46.770  0.0000E+00  0.1400E+00
    -46.548  0.0000E+00  0.1400E+00
    -46.325  0.0000E+00  0.1400E+00
    -46.102  0.0000E+00  0.1400E+00
    -45.880  0.0000E+00  0.1400E+00
    -45.657  0.0000E+00  0.1400E+00
    -45.434  0.0000E+00  0.1400E+00
    -45.212  0.0000E+00  0.1400E+00
    -44.989  0.0000E+00  0.1400E+00
    -44.766  0.0000E+00  0.1400E+00
    -44.544  0.0000E+00  0.1400E+00
    -44.321  0.0000E+00  0.1400E+00
    -44.098  0.0000E+00  0.1400E+00
    -43.876  0.0000E+00  0.1400E+00
    -43.653  0.0000E+00  0.1400E+00
    -43.430  0.0000E+00  0.1400E+00
    -43.207  0.0000E+00  0.1400E+00
    -42.985  0.0000E+00  0.1400E+00
    -42.762  0.0000E+00  0.1400E+00
    -42.539  0.0000E+00  0.1400E+00
    -42.317  0.0000E+00  0.1400E+00
    -42.094  0.0000E+00  0.1400E+00
    -41.871  0.0000E+00  0.1400E+00
    -41.649  0.0000E+00  0.1400E+00
    -41.426  0.0000E+00  0.1400E+00
    -41.203  0.0000E+00  0.1400E+00
    -40.981  0.0000E+00  0.1400E+00
    -40.758  0.0000E+00  0.1400E+00
    -40.535  0.0000E+00  0.1400E+00
    -40.313  0.0000E+00  0.1400E+00
    -40.090  0.0000E+00  0.1400E+00
    -39.867  0.0000E+00  0.1400E+00
    -39.644  0.0000E+00  0.1400E+00
    -39.422  0.0000E+00  0.1400E+00
    -39.199  0.0000E+00  0.1400E+00
    -38.976  0.0000E+00  0.1400E+00
    -38.754  0.0000E+00  0.1400E+00
    -38.531  0.0000E+00  0.1400E+00
    -38.308  0.0000E+00  0.1400E+00
    -38.086  0.0000E+00  0.1400E+00
    -37.863  0.0000E+00  0.1400E+00
    -37.640  0.0000E+00  0.1400E+00
    -37.418  0.0000E+00  0.1400E+00
    -37.195  0.0000E+00  0.1400E+00
    -36.972  0.0000E+00  0.1400E+00
    -36.749  0.0000E+00  0.1400E+00
    -36.527  0.0000E+00  0.1400E+00
    -36.304  0.0000E+00  0.1400E+00
    -36.081  0.0000E+00  0.1400E+00
    -35.859  0.1172E-09  0.1400E+00
    -35.636  0.2259E-03  0.1401E+00
    -35.413  0.6220E-01  0.1539E+00
    -35.191  0.5294E+00  0.2718E+00
    -34.968  0.9442E+00  0.4821E+00
    -34.745  0.8050E-01  0.5000E+00
    -34.523  0.6178E-04  0.5000E+00
    -34.300  0.8997E-11  0.5000E+00
    -34.077  0.0000E+00  0.5000E+00
    -33.855  0.0000E+00  0.5000E+00
    -33.632  0.0000E+00  0.5000E+00
    -33.409  0.0000E+00  0.5000E+00
    -33.186  0.0000E+00  0.5000E+00
    -32.964  0.0000E+00  0.5000E+00
    -32.741  0.0000E+00  0.5000E+00
    -32.518  0.0000E+00  0.5000E+00
    -32.296  0.0000E+00  0.5000E+00
    -32.073  0.0000E+00  0.5000E+00
    -31.850  0.3268E-11  0.5000E+00
    -31.628  0.3431E-04  0.5000E+00
    -31.405  0.3791E-01  0.5084E+00
    -31.182  0.1668E+00  0.5456E+00
    -30.960  0.4631E+00  0.6487E+00
    -30.737  0.8115E+00  0.8294E+00
    -30.514  0.1372E+00  0.8600E+00
    -30.292  0.1401E-03  0.8600E+00
    -30.069  0.3459E-10  0.8600E+00
    -29.846  0.0000E+00  0.8600E+00
    -29.623  0.0000E+00  0.8600E+00
    -29.401  0.0000E+00  0.8600E+00
    -29.178  0.0000E+00  0.8600E+00
    -28.955  0.0000E+00  0.8600E+00
    -28.733  0.0000E+00  0.8600E+00
    -28.510  0.0000E+00  0.8600E+00
    -28.287  0.0000E+00  0.8600E+00
    -28.065  0.0000E+00  0.8600E+00
    -27.842  0.1233E-11  0.8600E+00
    -27.619  0.2428E-04  0.8600E+00
    -27.397  0.5758E-01  0.8728E+00
    -27.174  0.2067E+00  0.9189E+00
    -26.951  0.2632E+00  0.9775E+00
    -26.728  0.9270E+00  0.1184E+01
    -26.506  0.4095E+00  0.1275E+01
    -26.283  0.2209E-01  0.1280E+01
    -26.060  0.1861E-04  0.1280E+01
    -25.838  0.3449E-01  0.1288E+01
    -25.615  0.3904E+00  0.1375E+01
    -25.392  0.8721E+00  0.1569E+01
    -25.170  0.3775E+00  0.1653E+01
    -24.947  0.2076E+00  0.1699E+01
    -24.724  0.3965E-02  0.1700E+01
    -24.502  0.2346E-07  0.1700E+01
    -24.279  0.0000E+00  0.1700E+01
    -24.056  0.0000E+00  0.1700E+01
    -23.834  0.0000E+00  0.1700E+01
    -23.611  0.0000E+00  0.1700E+01
    -23.388  0.0000E+00  0.1700E+01
    -23.165  0.0000E+00  0.1700E+01
    -22.943  0.0000E+00  0.1700E+01
    -22.720  0.0000E+00  0.1700E+01
    -22.497  0.0000E+00  0.1700E+01
    -22.275  0.0000E+00  0.1700E+01
    -22.052  0.0000E+00  0.1700E+01
    -21.829  0.0000E+00  0.1700E+01
    -21.607  0.0000E+00  0.1700E+01
    -21.384  0.0000E+00  0.1700E+01
    -21.161  0.0000E+00  0.1700E+01
    -20.939  0.0000E+00  0.1700E+01
    -20.716  0.0000E+00  0.1700E+01
    -20.493  0.0000E+00  0.1700E+01
    -20.271  0.0000E+00  0.1700E+01
    -20.048  0.0000E+00  0.1700E+01
    -19.825  0.0000E+00  0.1700E+01
    -19.602  0.0000E+00  0.1700E+01
    -19.380  0.0000E+00  0.1700E+01
    -19.157  0.0000E+00  0.1700E+01
    -18.934  0.0000E+00  0.1700E+01
    -18.712  0.0000E+00  0.1700E+01
    -18.489  0.0000E+00  0.1700E+01
    -18.266  0.0000E+00  0.1700E+01
    -18.044  0.0000E+00  0.1700E+01
    -17.821  0.0000E+00  0.1700E+01
    -17.598  0.0000E+00  0.1700E+01
    -17.376  0.0000E+00  0.1700E+01
    -17.153  0.0000E+00  0.1700E+01
    -16.930  0.0000E+00  0.1700E+01
    -16.707  0.0000E+00  0.1700E+01
    -16.485  0.0000E+00  0.1700E+01
    -16.262  0.0000E+00  0.1700E+01
    -16.039  0.0000E+00  0.1700E+01
    -15.817  0.0000E+00  0.1700E+01
    -15.594  0.0000E+00  0.1700E+01
    -15.371  0.0000E+00  0.1700E+01
    -15.149  0.0000E+00  0.1700E+01
    -14.926  0.0000E+00  0.1700E+01
    -14.703  0.0000E+00  0.1700E+01
    -14.481  0.0000E+00  0.1700E+01
    -14.258  0.0000E+00  0.1700E+01
    -14.035  0.0000E+00  0.1700E+01
    -13.813  0.0000E+00  0.1700E+01
    -13.590  0.0000E+00  0.1700E+01
    -13.367  0.0000E+00  0.1700E+01
    -13.144  0.0000E+00  0.1700E+01
    -12.922  0.0000E+00  0.1700E+01
    -12.699  0.0000E+00  0.1700E+01
    -12.476  0.0000E+00  0.1700E+01
    -12.254  0.0000E+00  0.1700E+01
    -12.031  0.0000E+00  0.1700E+01
    -11.808  0.0000E+00  0.1700E+01
    -11.586  0.0000E+00  0.1700E+01
    -11.363  0.0000E+00  0.1700E+01
    -11.140  0.0000E+00  0.1700E+01
    -10.918  0.0000E+00  0.1700E+01
    -10.695  0.0000E+00  0.1700E+01
    -10.472  0.0000E+00  0.1700E+01
    -10.250  0.0000E+00  0.1700E+01
    -10.027  0.0000E+00  0.1700E+01
     -9.804  0.0000E+00  0.1700E+01
     -9.581  0.0000E+00  0.1700E+01
     -9.359  0.0000E+00  0.1700E+01
     -9.136  0.0000E+00  0.1700E+01
     -8.913  0.3287E-16  0.1700E+01
     -8.691  0.1186E-07  0.1700E+01
     -8.468  0.4910E-03  0.1700E+01
     -8.245  0.3418E-01  0.1708E+01
     -8.023  0.6009E-01  0.1721E+01
     -7.800  0.7708E-01  0.1738E+01
     -7.577  0.8449E-01  0.1757E+01
     -7.355  0.1219E+00  0.1784E+01
     -7.132  0.1664E+00  0.1821E+01
     -6.909  0.1378E+00  0.1852E+01
     -6.686  0.1625E+00  0.1888E+01
     -6.464  0.2135E+00  0.1936E+01
     -6.241  0.1049E+00  0.1959E+01
     -6.018  0.4168E-02  0.1960E+01
     -5.796  0.6627E-07  0.1960E+01
     -5.573  0.4971E-15  0.1960E+01
     -5.350  0.7567E-07  0.1960E+01
     -5.128  0.1687E-02  0.1960E+01
     -4.905  0.5515E-01  0.1973E+01
     -4.682  0.3295E-01  0.1980E+01
     -4.460  0.3087E-01  0.1987E+01
     -4.237  0.1273E+00  0.2015E+01
     -4.014  0.1118E+00  0.2040E+01
     -3.792  0.1588E+00  0.2075E+01
     -3.569  0.2274E+00  0.2126E+01
     -3.346  0.1809E+00  0.2166E+01
     -3.123  0.2104E+00  0.2213E+01
     -2.901  0.2423E+00  0.2267E+01
     -2.678  0.1989E+00  0.2312E+01
     -2.455  0.1009E+00  0.2334E+01
     -2.233  0.2587E-01  0.2340E+01
     -2.010  0.1101E-02  0.2340E+01
     -1.787  0.2731E-06  0.2340E+01
     -1.565  0.7565E-14  0.2340E+01
     -1.342  0.0000E+00  0.2340E+01
     -1.119  0.0000E+00  0.2340E+01
     -0.897  0.0000E+00  0.2340E+01
     -0.674  0.2012E-10  0.2340E+01
     -0.451  0.1797E-04  0.2340E+01
     -0.229  0.2575E-02  0.2341E+01
     -0.006  0.1041E-01  0.2343E+01
      0.217  0.3668E-01  0.2351E+01
      0.440  0.1057E+00  0.2375E+01
      0.662  0.9440E-01  0.2396E+01
      0.885  0.1692E+00  0.2433E+01
      1.108  0.2068E+00  0.2479E+01
      1.330  0.2583E+00  0.2537E+01
      1.553  0.2572E+00  0.2594E+01
      1.776  0.2619E+00  0.2652E+01
      1.998  0.3222E+00  0.2724E+01
      2.221  0.3100E+00  0.2793E+01
      2.444  0.3429E+00  0.2870E+01
      2.666  0.4069E+00  0.2960E+01
      2.889  0.4986E+00  0.3071E+01
      3.112  0.5948E+00  0.3204E+01
      3.335  0.6212E+00  0.3342E+01
      3.557  0.6312E+00  0.3483E+01
      3.780  0.6184E+00  0.3620E+01
      4.003  0.5371E+00  0.3740E+01
      4.225  0.4646E+00  0.3843E+01
      4.448  0.3690E+00  0.3926E+01
      4.671  0.3369E+00  0.4001E+01
      4.893  0.2946E+00  0.4066E+01
      5.116  0.2885E+00  0.4130E+01
      5.339  0.2392E+00  0.4184E+01
      5.561  0.1597E+00  0.4219E+01
      5.784  0.1319E+00  0.4249E+01
      6.007  0.7428E-01  0.4265E+01
      6.229  0.1420E+00  0.4297E+01
      6.452  0.1809E+00  0.4337E+01
      6.675  0.1942E+00  0.4380E+01
      6.898  0.1994E+00  0.4425E+01
      7.120  0.1879E+00  0.4467E+01
      7.343  0.2169E+00  0.4515E+01
      7.566  0.2605E+00  0.4573E+01
      7.788  0.3040E+00  0.4641E+01
      8.011  0.2885E+00  0.4705E+01
      8.234  0.2638E+00  0.4764E+01
      8.456  0.2690E+00  0.4823E+01
      8.679  0.3081E+00  0.4892E+01
      8.902  0.3615E+00  0.4973E+01
      9.124  0.4345E+00  0.5069E+01
      9.347  0.4923E+00  0.5179E+01
      9.570  0.5388E+00  0.5299E+01
      9.792  0.5554E+00  0.5423E+01
     10.015  0.5347E+00  0.5542E+01
     10.238  0.5646E+00  0.5667E+01
     10.461  0.5520E+00  0.5790E+01
     10.683  0.5528E+00  0.5913E+01
     10.906  0.5076E+00  0.6027E+01
     11.129  0.4760E+00  0.6133E+01
     11.351  0.3983E+00  0.6221E+01
     11.574  0.8382E-01  0.6240E+01
     11.797  0.5445E-03  0.6240E+01
     12.019  0.2000E-08  0.6240E+01
     12.242  0.0000E+00  0.6240E+01
     12.465  0.0000E+00  0.6240E+01
     12.687  0.0000E+00  0.6240E+01
     12.910  0.0000E+00  0.6240E+01
     13.133  0.0000E+00  0.6240E+01
     13.356  0.0000E+00  0.6240E+01
     13.578  0.0000E+00  0.6240E+01
     13.801  0.0000E+00  0.6240E+01
     14.024  0.0000E+00  0.6240E+01
     14.246  0.0000E+00  0.6240E+01
     14.469  0.0000E+00  0.6240E+01
