   64   64  100    1
  0.1129557E+02  0.8932500E-09  0.9055600E-09  0.8937200E-09  0.5000000E-15
  1.000000000000000E-004
  CAR 
 HECN                                    
    482     14    312
 
  0.0000000E+00  0.0000000E+00  0.0000000E+00  0.3703704E-01
    1      -49.301034   1.000000
    2      -49.241440   1.000000
    3      -49.174216   1.000000
    4      -49.067567   1.000000
    5      -49.066933   1.000000
    6      -49.006713   1.000000
    7      -48.710716   1.000000
    8      -35.437701   1.000000
    9      -35.281369   1.000000
   10      -35.271887   1.000000
   11      -35.220423   1.000000
   12      -35.212394   1.000000
   13      -35.176843   1.000000
   14      -35.175682   1.000000
   15      -35.166270   1.000000
   16      -35.163772   1.000000
   17      -35.144756   1.000000
   18      -35.135140   1.000000
   19      -35.120958   1.000000
   20      -35.104948   1.000000
   21      -35.103008   1.000000
   22      -35.090502   1.000000
   23      -35.053817   1.000000
   24      -35.034326   1.000000
   25      -34.972422   1.000000
   26      -31.389701   1.000000
   27      -31.232458   1.000000
   28      -31.179224   1.000000
   29      -31.031889   1.000000
   30      -31.018410   1.000000
   31      -31.008486   1.000000
   32      -30.989224   1.000000
   33      -30.959103   1.000000
   34      -30.916213   1.000000
   35      -30.912994   1.000000
   36      -30.881382   1.000000
   37      -30.871977   1.000000
   38      -30.849158   1.000000
   39      -30.810319   1.000000
   40      -30.807842   1.000000
   41      -30.791163   1.000000
   42      -30.769094   1.000000
   43      -30.726656   1.000000
   44      -27.370080   1.000000
   45      -27.346348   1.000000
   46      -27.279339   1.000000
   47      -27.024745   1.000000
   48      -26.973748   1.000000
   49      -26.941422   1.000000
   50      -26.938172   1.000000
   51      -26.887023   1.000000
   52      -26.880011   1.000000
   53      -26.853659   1.000000
   54      -26.827149   1.000000
   55      -26.816185   1.000000
   56      -26.803556   1.000000
   57      -26.782224   1.000000
   58      -26.763789   1.000000
   59      -26.749761   1.000000
   60      -26.743203   1.000000
   61      -26.732242   1.000000
   62      -26.679635   1.000000
   63      -26.655056   1.000000
   64      -26.560668   1.000000
   65      -25.806083   1.000000
   66      -25.714838   1.000000
   67      -25.673105   1.000000
   68      -25.652027   1.000000
   69      -25.620908   1.000000
   70      -25.564594   1.000000
   71      -25.554988   1.000000
   72      -25.542868   1.000000
   73      -25.520934   1.000000
   74      -25.505286   1.000000
   75      -25.487948   1.000000
   76      -25.431548   1.000000
   77      -25.427091   1.000000
   78      -25.415802   1.000000
   79      -25.392729   1.000000
   80      -25.386770   1.000000
   81      -25.366768   1.000000
   82      -25.353747   1.000000
   83      -25.146270   1.000000
   84      -25.104313   1.000000
   85      -25.081282   1.000000
   86       -8.372159   1.000000
   87       -7.874092   1.000000
   88       -7.629968   1.000000
   89       -7.462381   1.000000
   90       -7.294334   1.000000
   91       -7.207560   1.000000
   92       -7.067437   1.000000
   93       -6.935416   1.000000
   94       -6.794393   1.000000
   95       -6.628202   1.000000
   96       -6.583324   1.000000
   97       -6.533058   1.000000
   98       -6.375900   1.000000
   99       -4.975447   1.000000
  100       -4.383018   1.000000
  101       -4.314614   1.000000
  102       -4.001538   1.000000
  103       -3.925673   1.000000
  104       -3.816515   1.000000
  105       -3.698436   1.000000
  106       -3.584594   1.000000
  107       -3.535056   1.000000
  108       -3.332652   1.000000
  109       -3.227257   1.000000
  110       -3.188607   1.000000
  111       -3.062700   1.000000
  112       -2.981540   1.000000
  113       -2.918883   1.000000
  114       -2.662201   1.000000
  115       -2.646137   1.000000
  116       -2.407517   1.000000
  117       -2.276569   1.000000
  118       -0.270944   1.000000
  119       -0.111746   1.000000
  120       -0.040953   1.000000
  121        0.044701   1.000000
  122        0.787225   1.000000
  123        0.906618   1.000000
  124        0.962449   1.000000
  125        1.036952   1.000000
  126        1.115947   1.000000
  127        1.140407   1.000000
  128        1.203412   1.000000
  129        1.271506   1.000000
  130        1.336510   1.000000
  131        1.378215   1.000000
  132        1.500319   1.000000
  133        1.560200   1.000000
  134        1.867564   1.000000
  135        1.943344   1.000000
  136        2.035346   1.000000
  137        2.075780   1.000000
  138        2.162852   1.000000
  139        2.252527   1.000000
  140        2.295778   1.000000
  141        2.367012   1.000000
  142        2.378579   1.000000
  143        2.418232   1.000000
  144        2.431763   1.000000
  145        2.512365   1.000000
  146        2.580403   1.000000
  147        2.607945   1.000000
  148        2.637166   1.000000
  149        2.679096   1.000000
  150        2.714129   1.000000
  151        2.743445   1.000000
  152        2.766578   1.000000
  153        2.778151   1.000000
  154        2.837653   1.000000
  155        2.888057   1.000000
  156        2.900984   1.000000
  157        2.921216   1.000000
  158        2.967176   1.000000
  159        2.995539   1.000000
  160        3.027679   1.000000
  161        3.101729   1.000000
  162        3.133386   1.000000
  163        3.163888   1.000000
  164        3.183515   1.000000
  165        3.206713   1.000000
  166        3.275489   1.000000
  167        3.282989   1.000000
  168        3.305246   1.000000
  169        3.321046   1.000000
  170        3.333168   1.000000
  171        3.418665   1.000000
  172        3.429959   1.000000
  173        3.454161   1.000000
  174        3.468409   1.000000
  175        3.499305   1.000000
  176        3.536896   1.000000
  177        3.553025   1.000000
  178        3.582589   1.000000
  179        3.603477   1.000000
  180        3.626499   1.000000
  181        3.681383   1.000000
  182        3.702351   1.000000
  183        3.711361   1.000000
  184        3.749738   1.000000
  185        3.755982   1.000000
  186        3.814753   1.000000
  187        3.826861   1.000000
  188        3.888334   1.000000
  189        3.923784   1.000000
  190        3.970511   1.000000
  191        4.075762   1.000000
  192        4.110767   1.000000
  193        4.221765   1.000000
  194        4.328809   1.000000
  195        4.358349   1.000000
  196        4.895012   1.000000
  197        4.949567   1.000000
  198        5.031095   1.000000
  199        5.103341   1.000000
  200        5.218439   1.000000
  201        5.272539   1.000000
  202        5.289713   1.000000
  203        5.340480   1.000000
  204        5.387037   1.000000
  205        5.446681   1.000000
  206        5.487322   1.000000
  207        5.554236   1.000000
  208        5.620311   1.000000
  209        5.662713   1.000000
  210        5.703722   1.000000
  211        5.731306   1.000000
  212        5.779590   1.000000
  213        5.873695   1.000000
  214        5.986475   1.000000
  215        6.051820   1.000000
  216        6.059163   1.000000
  217        6.099336   1.000000
  218        6.249267   1.000000
  219        6.337794   1.000000
  220        6.790365   1.000000
  221        6.851275   1.000000
  222        6.890654   1.000000
  223        7.007001   1.000000
  224        7.082378   1.000000
  225        7.144193   1.000000
  226        7.396955   1.000000
  227        7.622672   1.000000
  228        7.747274   1.000000
  229        7.862923   1.000000
  230        7.942786   1.000000
  231        7.971880   1.000000
  232        8.068645   1.000000
  233        8.115863   0.999998
  234        8.148579   0.999985
  235        8.189152   0.999839
  236        8.259001   0.995457
  237        8.305800   0.974230
  238        8.370182   0.850001
  239        8.462110   0.396037
  240        8.494093   0.237022
  241        8.550524   0.065016
  242        8.579217   0.027444
  243        8.683484   0.000344
  244        8.694279   0.000195
  245        8.719485   0.000047
  246        8.840167   0.000000
  247        8.866610   0.000000
  248        8.916325   0.000000
  249        8.948113   0.000000
  250        9.038871   0.000000
  251        9.112387   0.000000
  252        9.151125   0.000000
  253        9.184909   0.000000
  254        9.221719   0.000000
  255        9.242764   0.000000
  256        9.251474   0.000000
  257        9.319977   0.000000
  258        9.323192   0.000000
  259        9.384261   0.000000
  260        9.417629   0.000000
  261        9.476608   0.000000
  262        9.507808   0.000000
  263        9.535856   0.000000
  264        9.548840   0.000000
  265        9.591269   0.000000
  266        9.633873   0.000000
  267        9.653613   0.000000
  268        9.686758   0.000000
  269        9.724871   0.000000
  270        9.742814   0.000000
  271        9.771585   0.000000
  272        9.796264   0.000000
  273        9.847419   0.000000
  274        9.872380   0.000000
  275        9.932633   0.000000
  276        9.945456   0.000000
  277        9.978923   0.000000
  278        9.999962   0.000000
  279       10.031748   0.000000
  280       10.054747   0.000000
  281       10.123252   0.000000
  282       10.133720   0.000000
  283       10.185182   0.000000
  284       10.203199   0.000000
  285       10.218706   0.000000
  286       10.243739   0.000000
  287       10.284949   0.000000
  288       10.332369   0.000000
  289       10.376427   0.000000
  290       10.405513   0.000000
  291       10.426859   0.000000
  292       10.494765   0.000000
  293       10.533746   0.000000
  294       10.553736   0.000000
  295       10.572778   0.000000
  296       10.587176   0.000000
  297       10.631896   0.000000
  298       10.654172   0.000000
  299       10.709229   0.000000
  300       10.743224   0.000000
  301       10.765098   0.000000
  302       10.793716   0.000000
  303       10.845785   0.000000
  304       10.906227   0.000000
  305       10.913117   0.000000
  306       10.920989   0.000000
  307       10.975389   0.000000
  308       11.029574   0.000000
  309       11.038623   0.000000
  310       11.067883   0.000000
  311       11.116684   0.000000
  312       11.136315   0.000000
 
  0.3333333E+00  0.0000000E+00  0.2168404E-18  0.7407407E-01
    1      -49.301029   1.000000
    2      -49.241444   1.000000
    3      -49.174214   1.000000
    4      -49.067564   1.000000
    5      -49.066936   1.000000
    6      -49.006714   1.000000
    7      -48.710715   1.000000
    8      -35.437696   1.000000
    9      -35.281357   1.000000
   10      -35.271878   1.000000
   11      -35.220406   1.000000
   12      -35.212370   1.000000
   13      -35.176870   1.000000
   14      -35.175712   1.000000
   15      -35.166244   1.000000
   16      -35.163827   1.000000
   17      -35.144766   1.000000
   18      -35.135169   1.000000
   19      -35.121008   1.000000
   20      -35.104970   1.000000
   21      -35.103001   1.000000
   22      -35.090445   1.000000
   23      -35.053774   1.000000
   24      -35.034291   1.000000
   25      -34.972452   1.000000
   26      -31.389689   1.000000
   27      -31.232461   1.000000
   28      -31.179209   1.000000
   29      -31.031783   1.000000
   30      -31.018403   1.000000
   31      -31.008531   1.000000
   32      -30.989202   1.000000
   33      -30.959186   1.000000
   34      -30.916144   1.000000
   35      -30.913015   1.000000
   36      -30.881398   1.000000
   37      -30.871947   1.000000
   38      -30.849279   1.000000
   39      -30.810259   1.000000
   40      -30.807890   1.000000
   41      -30.791341   1.000000
   42      -30.769135   1.000000
   43      -30.726385   1.000000
   44      -27.370069   1.000000
   45      -27.346354   1.000000
   46      -27.279319   1.000000
   47      -27.025191   1.000000
   48      -26.973616   1.000000
   49      -26.941782   1.000000
   50      -26.938012   1.000000
   51      -26.887056   1.000000
   52      -26.879512   1.000000
   53      -26.853798   1.000000
   54      -26.827081   1.000000
   55      -26.815843   1.000000
   56      -26.803596   1.000000
   57      -26.782242   1.000000
   58      -26.763846   1.000000
   59      -26.749651   1.000000
   60      -26.743200   1.000000
   61      -26.732248   1.000000
   62      -26.679659   1.000000
   63      -26.655040   1.000000
   64      -26.560985   1.000000
   65      -25.806298   1.000000
   66      -25.714743   1.000000
   67      -25.672897   1.000000
   68      -25.651912   1.000000
   69      -25.620701   1.000000
   70      -25.564015   1.000000
   71      -25.554010   1.000000
   72      -25.542708   1.000000
   73      -25.522136   1.000000
   74      -25.505300   1.000000
   75      -25.488046   1.000000
   76      -25.431710   1.000000
   77      -25.427376   1.000000
   78      -25.415874   1.000000
   79      -25.392786   1.000000
   80      -25.386796   1.000000
   81      -25.366797   1.000000
   82      -25.353842   1.000000
   83      -25.146272   1.000000
   84      -25.104311   1.000000
   85      -25.081281   1.000000
   86       -8.280256   1.000000
   87       -7.856350   1.000000
   88       -7.673448   1.000000
   89       -7.515668   1.000000
   90       -7.273685   1.000000
   91       -7.197806   1.000000
   92       -7.097941   1.000000
   93       -6.917062   1.000000
   94       -6.767686   1.000000
   95       -6.653906   1.000000
   96       -6.611390   1.000000
   97       -6.507704   1.000000
   98       -6.371924   1.000000
   99       -4.877799   1.000000
  100       -4.457636   1.000000
  101       -4.302792   1.000000
  102       -4.117650   1.000000
  103       -3.893714   1.000000
  104       -3.763868   1.000000
  105       -3.703183   1.000000
  106       -3.590648   1.000000
  107       -3.545340   1.000000
  108       -3.369587   1.000000
  109       -3.288743   1.000000
  110       -3.151827   1.000000
  111       -3.099587   1.000000
  112       -3.047313   1.000000
  113       -2.925537   1.000000
  114       -2.833718   1.000000
  115       -2.758985   1.000000
  116       -2.570811   1.000000
  117       -2.469756   1.000000
  118        0.026420   1.000000
  119        0.205693   1.000000
  120        0.312078   1.000000
  121        0.326298   1.000000
  122        0.800744   1.000000
  123        0.891675   1.000000
  124        0.993837   1.000000
  125        1.049298   1.000000
  126        1.154606   1.000000
  127        1.206129   1.000000
  128        1.276328   1.000000
  129        1.352976   1.000000
  130        1.399395   1.000000
  131        1.551601   1.000000
  132        1.622016   1.000000
  133        1.719329   1.000000
  134        1.835861   1.000000
  135        1.921545   1.000000
  136        1.960262   1.000000
  137        2.036778   1.000000
  138        2.095856   1.000000
  139        2.189462   1.000000
  140        2.232504   1.000000
  141        2.283436   1.000000
  142        2.306706   1.000000
  143        2.383077   1.000000
  144        2.423262   1.000000
  145        2.468592   1.000000
  146        2.502315   1.000000
  147        2.597623   1.000000
  148        2.654403   1.000000
  149        2.672409   1.000000
  150        2.734600   1.000000
  151        2.765023   1.000000
  152        2.832166   1.000000
  153        2.855664   1.000000
  154        2.887673   1.000000
  155        2.907096   1.000000
  156        2.938798   1.000000
  157        2.971183   1.000000
  158        3.024431   1.000000
  159        3.050253   1.000000
  160        3.102238   1.000000
  161        3.130656   1.000000
  162        3.171222   1.000000
  163        3.198512   1.000000
  164        3.220359   1.000000
  165        3.248746   1.000000
  166        3.292921   1.000000
  167        3.321268   1.000000
  168        3.335624   1.000000
  169        3.387278   1.000000
  170        3.415169   1.000000
  171        3.427871   1.000000
  172        3.465150   1.000000
  173        3.493874   1.000000
  174        3.528090   1.000000
  175        3.549984   1.000000
  176        3.589385   1.000000
  177        3.615205   1.000000
  178        3.654873   1.000000
  179        3.682398   1.000000
  180        3.718830   1.000000
  181        3.769341   1.000000
  182        3.787819   1.000000
  183        3.807440   1.000000
  184        3.867131   1.000000
  185        3.897292   1.000000
  186        3.912951   1.000000
  187        3.985289   1.000000
  188        4.008954   1.000000
  189        4.052158   1.000000
  190        4.074205   1.000000
  191        4.127860   1.000000
  192        4.166162   1.000000
  193        4.226228   1.000000
  194        4.310989   1.000000
  195        4.372503   1.000000
  196        4.440070   1.000000
  197        4.492883   1.000000
  198        4.545728   1.000000
  199        4.630025   1.000000
  200        4.735564   1.000000
  201        4.818155   1.000000
  202        4.894965   1.000000
  203        4.930309   1.000000
  204        5.068825   1.000000
  205        5.166777   1.000000
  206        5.281612   1.000000
  207        5.379849   1.000000
  208        5.493522   1.000000
  209        5.578122   1.000000
  210        5.613099   1.000000
  211        5.643668   1.000000
  212        5.837884   1.000000
  213        5.858904   1.000000
  214        6.014578   1.000000
  215        6.136155   1.000000
  216        6.218086   1.000000
  217        6.296840   1.000000
  218        6.406519   1.000000
  219        6.565210   1.000000
  220        6.632002   1.000000
  221        6.736624   1.000000
  222        6.810687   1.000000
  223        6.886449   1.000000
  224        7.200309   1.000000
  225        7.390676   1.000000
  226        7.481932   1.000000
  227        7.561943   1.000000
  228        7.609335   1.000000
  229        7.756045   1.000000
  230        7.780201   1.000000
  231        7.827250   1.000000
  232        7.864770   1.000000
  233        7.934493   1.000000
  234        8.037738   1.000000
  235        8.168441   0.999950
  236        8.239284   0.998059
  237        8.291973   0.983923
  238        8.323446   0.955189
  239        8.449136   0.468067
  240        8.507568   0.182338
  241        8.556766   0.054550
  242        8.615856   0.007386
  243        8.654225   0.001439
  244        8.701107   0.000134
  245        8.744653   0.000010
  246        8.796528   0.000000
  247        8.895215   0.000000
  248        8.918460   0.000000
  249        8.976972   0.000000
  250        9.007271   0.000000
  251        9.046470   0.000000
  252        9.085869   0.000000
  253        9.116970   0.000000
  254        9.179949   0.000000
  255        9.207389   0.000000
  256        9.243450   0.000000
  257        9.281832   0.000000
  258        9.326746   0.000000
  259        9.356552   0.000000
  260        9.366005   0.000000
  261        9.401963   0.000000
  262        9.459796   0.000000
  263        9.491871   0.000000
  264        9.532653   0.000000
  265        9.571200   0.000000
  266        9.585600   0.000000
  267        9.628728   0.000000
  268        9.657347   0.000000
  269        9.666255   0.000000
  270        9.713561   0.000000
  271        9.747142   0.000000
  272        9.771578   0.000000
  273        9.802048   0.000000
  274        9.841546   0.000000
  275        9.896896   0.000000
  276        9.926047   0.000000
  277        9.965777   0.000000
  278       10.004050   0.000000
  279       10.015956   0.000000
  280       10.064088   0.000000
  281       10.095778   0.000000
  282       10.123212   0.000000
  283       10.136505   0.000000
  284       10.170871   0.000000
  285       10.230094   0.000000
  286       10.262768   0.000000
  287       10.291482   0.000000
  288       10.321564   0.000000
  289       10.355115   0.000000
  290       10.387981   0.000000
  291       10.440535   0.000000
  292       10.480858   0.000000
  293       10.513489   0.000000
  294       10.543104   0.000000
  295       10.587464   0.000000
  296       10.610318   0.000000
  297       10.626597   0.000000
  298       10.691735   0.000000
  299       10.715013   0.000000
  300       10.779077   0.000000
  301       10.792824   0.000000
  302       10.827352   0.000000
  303       10.878438   0.000000
  304       10.934345   0.000000
  305       10.959196   0.000000
  306       11.003180   0.000000
  307       11.060557   0.000000
  308       11.083604   0.000000
  309       11.115580   0.000000
  310       11.171427   0.000000
  311       11.197554   0.000000
  312       11.218063   0.000000
 
  0.0000000E+00  0.3333333E+00  0.0000000E+00  0.7407407E-01
    1      -49.301030   1.000000
    2      -49.241442   1.000000
    3      -49.174217   1.000000
    4      -49.067557   1.000000
    5      -49.066943   1.000000
    6      -49.006713   1.000000
    7      -48.710715   1.000000
    8      -35.437691   1.000000
    9      -35.281360   1.000000
   10      -35.271909   1.000000
   11      -35.220424   1.000000
   12      -35.212421   1.000000
   13      -35.176825   1.000000
   14      -35.175697   1.000000
   15      -35.166272   1.000000
   16      -35.163803   1.000000
   17      -35.144753   1.000000
   18      -35.135131   1.000000
   19      -35.120958   1.000000
   20      -35.104959   1.000000
   21      -35.102997   1.000000
   22      -35.090490   1.000000
   23      -35.053801   1.000000
   24      -35.034331   1.000000
   25      -34.972443   1.000000
   26      -31.389693   1.000000
   27      -31.232437   1.000000
   28      -31.179220   1.000000
   29      -31.030736   1.000000
   30      -31.018624   1.000000
   31      -31.008470   1.000000
   32      -30.989008   1.000000
   33      -30.960804   1.000000
   34      -30.915901   1.000000
   35      -30.913942   1.000000
   36      -30.881410   1.000000
   37      -30.871403   1.000000
   38      -30.849101   1.000000
   39      -30.809412   1.000000
   40      -30.807714   1.000000
   41      -30.791218   1.000000
   42      -30.769252   1.000000
   43      -30.726926   1.000000
   44      -27.370033   1.000000
   45      -27.346343   1.000000
   46      -27.279210   1.000000
   47      -27.024787   1.000000
   48      -26.973518   1.000000
   49      -26.941299   1.000000
   50      -26.937350   1.000000
   51      -26.887645   1.000000
   52      -26.879537   1.000000
   53      -26.855231   1.000000
   54      -26.828320   1.000000
   55      -26.815013   1.000000
   56      -26.802626   1.000000
   57      -26.780797   1.000000
   58      -26.763540   1.000000
   59      -26.750151   1.000000
   60      -26.744890   1.000000
   61      -26.732628   1.000000
   62      -26.679069   1.000000
   63      -26.655939   1.000000
   64      -26.560271   1.000000
   65      -25.805972   1.000000
   66      -25.714823   1.000000
   67      -25.673075   1.000000
   68      -25.651851   1.000000
   69      -25.620778   1.000000
   70      -25.564004   1.000000
   71      -25.554241   1.000000
   72      -25.542748   1.000000
   73      -25.522072   1.000000
   74      -25.505525   1.000000
   75      -25.487939   1.000000
   76      -25.430968   1.000000
   77      -25.427181   1.000000
   78      -25.415864   1.000000
   79      -25.393491   1.000000
   80      -25.386652   1.000000
   81      -25.366009   1.000000
   82      -25.354533   1.000000
   83      -25.146278   1.000000
   84      -25.104364   1.000000
   85      -25.081317   1.000000
   86       -8.324950   1.000000
   87       -7.880852   1.000000
   88       -7.626115   1.000000
   89       -7.438625   1.000000
   90       -7.282466   1.000000
   91       -7.216207   1.000000
   92       -7.060587   1.000000
   93       -6.931068   1.000000
   94       -6.792591   1.000000
   95       -6.628627   1.000000
   96       -6.580728   1.000000
   97       -6.532859   1.000000
   98       -6.365549   1.000000
   99       -5.048667   1.000000
  100       -4.353381   1.000000
  101       -4.247271   1.000000
  102       -4.098703   1.000000
  103       -3.988539   1.000000
  104       -3.860645   1.000000
  105       -3.705149   1.000000
  106       -3.657338   1.000000
  107       -3.610780   1.000000
  108       -3.349297   1.000000
  109       -3.316804   1.000000
  110       -3.219747   1.000000
  111       -3.053037   1.000000
  112       -2.970312   1.000000
  113       -2.868338   1.000000
  114       -2.798850   1.000000
  115       -2.720188   1.000000
  116       -2.550100   1.000000
  117       -2.368990   1.000000
  118        0.111199   1.000000
  119        0.247200   1.000000
  120        0.288237   1.000000
  121        0.380929   1.000000
  122        0.733798   1.000000
  123        0.851862   1.000000
  124        0.895336   1.000000
  125        0.958274   1.000000
  126        1.084141   1.000000
  127        1.216038   1.000000
  128        1.330518   1.000000
  129        1.382261   1.000000
  130        1.475727   1.000000
  131        1.559729   1.000000
  132        1.721987   1.000000
  133        1.837369   1.000000
  134        1.899835   1.000000
  135        1.942827   1.000000
  136        1.976814   1.000000
  137        2.023579   1.000000
  138        2.081283   1.000000
  139        2.135772   1.000000
  140        2.180669   1.000000
  141        2.298106   1.000000
  142        2.312681   1.000000
  143        2.407788   1.000000
  144        2.428428   1.000000
  145        2.484074   1.000000
  146        2.538545   1.000000
  147        2.582359   1.000000
  148        2.661580   1.000000
  149        2.699228   1.000000
  150        2.717284   1.000000
  151        2.738818   1.000000
  152        2.813561   1.000000
  153        2.832389   1.000000
  154        2.872604   1.000000
  155        2.901383   1.000000
  156        2.927725   1.000000
  157        2.964512   1.000000
  158        2.984672   1.000000
  159        3.040242   1.000000
  160        3.082067   1.000000
  161        3.094122   1.000000
  162        3.130338   1.000000
  163        3.147917   1.000000
  164        3.212963   1.000000
  165        3.224404   1.000000
  166        3.271211   1.000000
  167        3.292342   1.000000
  168        3.347967   1.000000
  169        3.377409   1.000000
  170        3.394870   1.000000
  171        3.423554   1.000000
  172        3.449439   1.000000
  173        3.475150   1.000000
  174        3.512113   1.000000
  175        3.533610   1.000000
  176        3.562354   1.000000
  177        3.592996   1.000000
  178        3.624104   1.000000
  179        3.677197   1.000000
  180        3.705271   1.000000
  181        3.761407   1.000000
  182        3.770832   1.000000
  183        3.808933   1.000000
  184        3.849918   1.000000
  185        3.878679   1.000000
  186        3.917852   1.000000
  187        3.958805   1.000000
  188        4.000288   1.000000
  189        4.046833   1.000000
  190        4.092163   1.000000
  191        4.125273   1.000000
  192        4.173091   1.000000
  193        4.286358   1.000000
  194        4.356777   1.000000
  195        4.417122   1.000000
  196        4.497072   1.000000
  197        4.540759   1.000000
  198        4.628963   1.000000
  199        4.689463   1.000000
  200        4.768551   1.000000
  201        4.848061   1.000000
  202        4.904060   1.000000
  203        4.946329   1.000000
  204        5.005935   1.000000
  205        5.147049   1.000000
  206        5.175454   1.000000
  207        5.250289   1.000000
  208        5.310577   1.000000
  209        5.627220   1.000000
  210        5.659838   1.000000
  211        5.721012   1.000000
  212        5.879423   1.000000
  213        6.041366   1.000000
  214        6.167397   1.000000
  215        6.234464   1.000000
  216        6.268056   1.000000
  217        6.293235   1.000000
  218        6.377477   1.000000
  219        6.497625   1.000000
  220        6.532200   1.000000
  221        6.615431   1.000000
  222        6.704914   1.000000
  223        6.864892   1.000000
  224        7.287525   1.000000
  225        7.343076   1.000000
  226        7.473864   1.000000
  227        7.583777   1.000000
  228        7.609927   1.000000
  229        7.651207   1.000000
  230        7.710115   1.000000
  231        7.825077   1.000000
  232        7.851043   1.000000
  233        7.935223   1.000000
  234        8.045757   1.000000
  235        8.121986   0.999997
  236        8.176262   0.999921
  237        8.256405   0.995921
  238        8.363985   0.869512
  239        8.409518   0.684442
  240        8.484123   0.282670
  241        8.534998   0.097763
  242        8.568545   0.038461
  243        8.642337   0.002459
  244        8.687664   0.000277
  245        8.770077   0.000002
  246        8.791860   0.000000
  247        8.919861   0.000000
  248        8.944159   0.000000
  249        8.988602   0.000000
  250        9.016737   0.000000
  251        9.099327   0.000000
  252        9.120873   0.000000
  253        9.146620   0.000000
  254        9.199159   0.000000
  255        9.223440   0.000000
  256        9.269659   0.000000
  257        9.317197   0.000000
  258        9.336373   0.000000
  259        9.379172   0.000000
  260        9.410109   0.000000
  261        9.430702   0.000000
  262        9.473058   0.000000
  263        9.499776   0.000000
  264        9.527204   0.000000
  265        9.579986   0.000000
  266        9.591954   0.000000
  267        9.627447   0.000000
  268        9.654823   0.000000
  269        9.679963   0.000000
  270        9.714828   0.000000
  271        9.765959   0.000000
  272        9.793930   0.000000
  273        9.821180   0.000000