  64  64   0   0
  0.2218804E+02  0.1124000E-08  0.1124000E-08  0.1124000E-08  0.5000000E-15
  1.000000000000000E-004
  CAR 
 HECN                                    
     12.93360403    -33.85629941  301      7.72450940      1.00000000
    -33.856  0.0000E+00  0.0000E+00
    -33.700  0.0000E+00  0.0000E+00
    -33.544  0.0000E+00  0.0000E+00
    -33.388  0.0000E+00  0.0000E+00
    -33.232  0.0000E+00  0.0000E+00
    -33.076  0.0000E+00  0.0000E+00
    -32.921  0.0000E+00  0.0000E+00
    -32.765  0.0000E+00  0.0000E+00
    -32.609  0.0000E+00  0.0000E+00
    -32.453  0.0000E+00  0.0000E+00
    -32.297  0.6407E-16  0.9992E-17
    -32.141  0.3834E-09  0.5981E-10
    -31.985  0.2114E-04  0.3296E-05
    -31.829  0.1471E-01  0.2297E-02
    -31.673  0.2978E+00  0.4874E-01
    -31.517  0.8975E+00  0.1887E+00
    -31.361  0.9710E+00  0.3402E+00
    -31.205  0.1266E+00  0.3599E+00
    -31.049  0.5905E-03  0.3600E+00
    -30.893  0.3978E-07  0.3600E+00
    -30.737  0.2722E-13  0.3600E+00
    -30.581  0.0000E+00  0.3600E+00
    -30.425  0.0000E+00  0.3600E+00
    -30.269  0.0000E+00  0.3600E+00
    -30.113  0.0000E+00  0.3600E+00
    -29.957  0.0000E+00  0.3600E+00
    -29.801  0.0000E+00  0.3600E+00
    -29.645  0.0000E+00  0.3600E+00
    -29.489  0.0000E+00  0.3600E+00
    -29.333  0.0000E+00  0.3600E+00
    -29.177  0.0000E+00  0.3600E+00
    -29.021  0.0000E+00  0.3600E+00
    -28.865  0.0000E+00  0.3600E+00
    -28.709  0.0000E+00  0.3600E+00
    -28.553  0.0000E+00  0.3600E+00
    -28.397  0.0000E+00  0.3600E+00
    -28.242  0.0000E+00  0.3600E+00
    -28.086  0.0000E+00  0.3600E+00
    -27.930  0.0000E+00  0.3600E+00
    -27.774  0.0000E+00  0.3600E+00
    -27.618  0.0000E+00  0.3600E+00
    -27.462  0.0000E+00  0.3600E+00
    -27.306  0.0000E+00  0.3600E+00
    -27.150  0.0000E+00  0.3600E+00
    -26.994  0.4556E-15  0.3600E+00
    -26.838  0.1574E-08  0.3600E+00
    -26.682  0.4816E-04  0.3600E+00
    -26.526  0.1632E-01  0.3626E+00
    -26.370  0.1939E+00  0.3928E+00
    -26.214  0.7493E+00  0.5097E+00
    -26.058  0.1122E+01  0.6847E+00
    -25.902  0.5598E+00  0.7720E+00
    -25.746  0.5095E-01  0.7799E+00
    -25.590  0.3243E-03  0.7800E+00
    -25.434  0.3274E-07  0.7800E+00
    -25.278  0.3124E-13  0.7800E+00
    -25.122  0.1422E-12  0.7800E+00
    -24.966  0.9511E-07  0.7800E+00
    -24.810  0.6076E-03  0.7801E+00
    -24.654  0.5964E-01  0.7894E+00
    -24.498  0.3574E+00  0.8451E+00
    -24.342  0.4803E+00  0.9200E+00
    -24.186  0.6609E+00  0.1023E+01
    -24.030  0.4221E+00  0.1089E+01
    -23.874  0.2707E+00  0.1131E+01
    -23.718  0.5896E-01  0.1140E+01
    -23.563  0.8907E-01  0.1154E+01
    -23.407  0.3590E+00  0.1210E+01
    -23.251  0.5107E+00  0.1290E+01
    -23.095  0.1902E+00  0.1320E+01
    -22.939  0.1854E+00  0.1348E+01
    -22.783  0.4793E+00  0.1423E+01
    -22.627  0.4046E+00  0.1486E+01
    -22.471  0.8690E-01  0.1500E+01
    -22.315  0.7488E-03  0.1500E+01
    -22.159  0.8558E-07  0.1500E+01
    -22.003  0.9244E-13  0.1500E+01
    -21.847  0.0000E+00  0.1500E+01
    -21.691  0.0000E+00  0.1500E+01
    -21.535  0.0000E+00  0.1500E+01
    -21.379  0.0000E+00  0.1500E+01
    -21.223  0.0000E+00  0.1500E+01
    -21.067  0.0000E+00  0.1500E+01
    -20.911  0.0000E+00  0.1500E+01
    -20.755  0.0000E+00  0.1500E+01
    -20.599  0.0000E+00  0.1500E+01
    -20.443  0.0000E+00  0.1500E+01
    -20.287  0.0000E+00  0.1500E+01
    -20.131  0.0000E+00  0.1500E+01
    -19.975  0.0000E+00  0.1500E+01
    -19.819  0.0000E+00  0.1500E+01
    -19.663  0.0000E+00  0.1500E+01
    -19.507  0.0000E+00  0.1500E+01
    -19.351  0.0000E+00  0.1500E+01
    -19.195  0.0000E+00  0.1500E+01
    -19.039  0.0000E+00  0.1500E+01
    -18.884  0.0000E+00  0.1500E+01
    -18.728  0.0000E+00  0.1500E+01
    -18.572  0.0000E+00  0.1500E+01
    -18.416  0.0000E+00  0.1500E+01
    -18.260  0.0000E+00  0.1500E+01
    -18.104  0.0000E+00  0.1500E+01
    -17.948  0.0000E+00  0.1500E+01
    -17.792  0.0000E+00  0.1500E+01
    -17.636  0.0000E+00  0.1500E+01
    -17.480  0.0000E+00  0.1500E+01
    -17.324  0.0000E+00  0.1500E+01
    -17.168  0.0000E+00  0.1500E+01
    -17.012  0.0000E+00  0.1500E+01
    -16.856  0.0000E+00  0.1500E+01
    -16.700  0.0000E+00  0.1500E+01
    -16.544  0.0000E+00  0.1500E+01
    -16.388  0.0000E+00  0.1500E+01
    -16.232  0.0000E+00  0.1500E+01
    -16.076  0.0000E+00  0.1500E+01
    -15.920  0.0000E+00  0.1500E+01
    -15.764  0.0000E+00  0.1500E+01
    -15.608  0.0000E+00  0.1500E+01
    -15.452  0.0000E+00  0.1500E+01
    -15.296  0.0000E+00  0.1500E+01
    -15.140  0.0000E+00  0.1500E+01
    -14.984  0.0000E+00  0.1500E+01
    -14.828  0.0000E+00  0.1500E+01
    -14.672  0.0000E+00  0.1500E+01
    -14.516  0.0000E+00  0.1500E+01
    -14.361  0.0000E+00  0.1500E+01
    -14.205  0.0000E+00  0.1500E+01
    -14.049  0.0000E+00  0.1500E+01
    -13.893  0.0000E+00  0.1500E+01
    -13.737  0.0000E+00  0.1500E+01
    -13.581  0.0000E+00  0.1500E+01
    -13.425  0.0000E+00  0.1500E+01
    -13.269  0.0000E+00  0.1500E+01
    -13.113  0.0000E+00  0.1500E+01
    -12.957  0.0000E+00  0.1500E+01
    -12.801  0.0000E+00  0.1500E+01
    -12.645  0.0000E+00  0.1500E+01
    -12.489  0.0000E+00  0.1500E+01
    -12.333  0.0000E+00  0.1500E+01
    -12.177  0.0000E+00  0.1500E+01
    -12.021  0.0000E+00  0.1500E+01
    -11.865  0.0000E+00  0.1500E+01
    -11.709  0.0000E+00  0.1500E+01
    -11.553  0.0000E+00  0.1500E+01
    -11.397  0.0000E+00  0.1500E+01
    -11.241  0.0000E+00  0.1500E+01
    -11.085  0.0000E+00  0.1500E+01
    -10.929  0.0000E+00  0.1500E+01
    -10.773  0.0000E+00  0.1500E+01
    -10.617  0.0000E+00  0.1500E+01
    -10.461  0.0000E+00  0.1500E+01
    -10.305  0.0000E+00  0.1500E+01
    -10.149  0.0000E+00  0.1500E+01
     -9.993  0.0000E+00  0.1500E+01
     -9.837  0.0000E+00  0.1500E+01
     -9.682  0.0000E+00  0.1500E+01
     -9.526  0.0000E+00  0.1500E+01
     -9.370  0.0000E+00  0.1500E+01
     -9.214  0.0000E+00  0.1500E+01
     -9.058  0.0000E+00  0.1500E+01
     -8.902  0.4904E-16  0.1500E+01
     -8.746  0.1348E-09  0.1500E+01
     -8.590  0.3671E-05  0.1500E+01
     -8.434  0.1477E-02  0.1500E+01
     -8.278  0.2566E-01  0.1504E+01
     -8.122  0.6728E-01  0.1515E+01
     -7.966  0.3384E-01  0.1520E+01
     -7.810  0.4348E-01  0.1527E+01
     -7.654  0.1532E+00  0.1551E+01
     -7.498  0.1870E+00  0.1580E+01
     -7.342  0.2356E+00  0.1617E+01
     -7.186  0.3047E+00  0.1664E+01
     -7.030  0.3638E+00  0.1721E+01
     -6.874  0.1595E+00  0.1746E+01
     -6.718  0.7121E-01  0.1757E+01
     -6.562  0.1990E-01  0.1760E+01
     -6.406  0.5021E-03  0.1760E+01
     -6.250  0.3340E-06  0.1760E+01
     -6.094  0.2429E-11  0.1760E+01
     -5.938  0.0000E+00  0.1760E+01
     -5.782  0.4392E-15  0.1760E+01
     -5.626  0.7492E-09  0.1760E+01
     -5.470  0.1229E-04  0.1760E+01
     -5.314  0.3115E-02  0.1760E+01
     -5.158  0.3819E-01  0.1766E+01
     -5.003  0.6804E-01  0.1777E+01
     -4.847  0.1906E-01  0.1780E+01
     -4.691  0.3868E-01  0.1786E+01
     -4.535  0.8329E-01  0.1799E+01
     -4.379  0.5083E-01  0.1807E+01
     -4.223  0.1211E+00  0.1826E+01
     -4.067  0.1581E+00  0.1851E+01
     -3.911  0.1693E+00  0.1877E+01
     -3.755  0.2226E+00  0.1912E+01
     -3.599  0.1984E+00  0.1943E+01
     -3.443  0.2041E+00  0.1974E+01
     -3.287  0.2177E+00  0.2008E+01
     -3.131  0.2021E+00  0.2040E+01
     -2.975  0.1971E+00  0.2071E+01
     -2.819  0.1585E+00  0.2095E+01
     -2.663  0.1168E+00  0.2114E+01
     -2.507  0.1120E+00  0.2131E+01
     -2.351  0.4767E-01  0.2138E+01
     -2.195  0.8889E-02  0.2140E+01
     -2.039  0.8417E-03  0.2140E+01
     -1.883  0.3651E-05  0.2140E+01
     -1.727  0.1832E-09  0.2140E+01
     -1.571  0.8226E-16  0.2140E+01
     -1.415  0.0000E+00  0.2140E+01
     -1.259  0.0000E+00  0.2140E+01
     -1.103  0.0000E+00  0.2140E+01
     -0.947  0.0000E+00  0.2140E+01
     -0.791  0.3427E-17  0.2140E+01
     -0.635  0.1815E-10  0.2140E+01
     -0.480  0.8465E-06  0.2140E+01
     -0.324  0.4144E-03  0.2140E+01
     -0.168  0.4809E-02  0.2141E+01
     -0.012  0.1553E-01  0.2143E+01
      0.144  0.3282E-01  0.2148E+01
      0.300  0.8820E-01  0.2162E+01
      0.456  0.9425E-01  0.2177E+01
      0.612  0.9966E-01  0.2192E+01
      0.768  0.1413E+00  0.2214E+01
      0.924  0.1518E+00  0.2238E+01
      1.080  0.2134E+00  0.2271E+01
      1.236  0.2475E+00  0.2310E+01
      1.392  0.3062E+00  0.2358E+01
      1.548  0.2746E+00  0.2401E+01
      1.704  0.2345E+00  0.2437E+01
      1.860  0.2679E+00  0.2479E+01
      2.016  0.3895E+00  0.2540E+01
      2.172  0.3531E+00  0.2595E+01
      2.328  0.3573E+00  0.2650E+01
      2.484  0.4196E+00  0.2716E+01
      2.640  0.5235E+00  0.2798E+01
      2.796  0.6359E+00  0.2897E+01
      2.952  0.6679E+00  0.3001E+01
      3.108  0.6642E+00  0.3104E+01
      3.264  0.6460E+00  0.3205E+01
      3.420  0.6154E+00  0.3301E+01
      3.576  0.5791E+00  0.3392E+01
      3.732  0.5965E+00  0.3485E+01
      3.888  0.5348E+00  0.3568E+01
      4.044  0.5234E+00  0.3650E+01
      4.199  0.4406E+00  0.3718E+01
      4.355  0.3764E+00  0.3777E+01
      4.511  0.3373E+00  0.3830E+01
      4.667  0.2584E+00  0.3870E+01
      4.823  0.2738E+00  0.3913E+01
      4.979  0.2819E+00  0.3957E+01
      5.135  0.2235E+00  0.3991E+01
      5.291  0.1541E+00  0.4016E+01
      5.447  0.1471E+00  0.4038E+01
      5.603  0.1125E+00  0.4056E+01
      5.759  0.5367E-01  0.4064E+01
      5.915  0.1125E+00  0.4082E+01
      6.071  0.1269E+00  0.4102E+01
      6.227  0.1456E+00  0.4124E+01
      6.383  0.2039E+00  0.4156E+01
      6.539  0.1609E+00  0.4181E+01
      6.695  0.1146E+00  0.4199E+01
      6.851  0.1210E+00  0.4218E+01
      7.007  0.1719E+00  0.4245E+01
      7.163  0.1498E+00  0.4268E+01
      7.319  0.1767E+00  0.4296E+01
      7.475  0.1837E+00  0.4324E+01
      7.631  0.1686E+00  0.4351E+01
      7.787  0.2188E+00  0.4385E+01
      7.943  0.2559E+00  0.4425E+01
      8.099  0.2623E+00  0.4466E+01
      8.255  0.2437E+00  0.4504E+01
      8.411  0.2698E+00  0.4546E+01
      8.567  0.3652E+00  0.4603E+01
      8.723  0.3997E+00  0.4665E+01
      8.878  0.4011E+00  0.4728E+01
      9.034  0.4394E+00  0.4796E+01
      9.190  0.4583E+00  0.4868E+01
      9.346  0.4739E+00  0.4942E+01
      9.502  0.5125E+00  0.5021E+01
      9.658  0.5087E+00  0.5101E+01
      9.814  0.5319E+00  0.5184E+01
      9.970  0.5335E+00  0.5267E+01
     10.126  0.4899E+00  0.5343E+01
     10.282  0.4690E+00  0.5417E+01
     10.438  0.4921E+00  0.5493E+01
     10.594  0.4085E+00  0.5557E+01
     10.750  0.2089E+00  0.5590E+01
     10.906  0.6366E-01  0.5600E+01
     11.062  0.3082E-02  0.5600E+01
     11.218  0.4229E-05  0.5600E+01
     11.374  0.7067E-10  0.5600E+01
     11.530  0.1055E-16  0.5600E+01
     11.686  0.0000E+00  0.5600E+01
     11.842  0.0000E+00  0.5600E+01
     11.998  0.0000E+00  0.5600E+01
     12.154  0.0000E+00  0.5600E+01
     12.310  0.0000E+00  0.5600E+01
     12.466  0.0000E+00  0.5600E+01
     12.622  0.0000E+00  0.5600E+01
     12.778  0.0000E+00  0.5600E+01
     12.934  0.0000E+00  0.5600E+01
