HECN                                    
           1
    11.240000    0.000000    0.000000
     0.000000   11.240000    0.000000
     0.000000    0.000000   11.240000
   Ti   Nb   Hf   N    C    Zr   W 
     7     6     6    13    19     7     6
Direct configuration=     1
   0.00000000  0.00000000  0.00000000
   0.25000000  0.00000000  0.25000000
   0.25000000  0.50000000  0.25000000
   0.50000000  0.50000000  0.00000000
   0.50000000  0.25000000  0.75000004
   0.00000000  0.50000000  0.50000000
   0.50000000  0.75000004  0.75000004
   0.00000000  0.25000000  0.25000000
   0.75000004  0.75000004  0.00000000
   0.00000000  0.25000000  0.75000004
   0.75000004  0.25000000  0.50000000
   0.00000000  0.75000004  0.75000004
   0.25000000  0.50000000  0.75000004
   0.25000000  0.25000000  0.00000000
   0.50000000  0.25000000  0.25000000
   0.75000004  0.00000000  0.25000000
   0.75000004  0.25000000  0.00000000
   0.25000000  0.75000004  0.00000000
   0.25000000  0.25000000  0.50000000
   0.25000000  0.25000000  0.25000000
   0.25000000  0.00000000  0.00000000
   0.00000000  0.25000000  0.00000000
   0.75000004  0.25000000  0.25000000
   0.75000004  0.00000000  0.00000000
   0.50000000  0.00000000  0.25000000
   0.00000000  0.50000000  0.25000000
   0.50000000  0.75000004  0.00000000
   0.00000000  0.00000000  0.75000004
   0.75000004  0.25000000  0.75000004
   0.75000004  0.00000000  0.50000000
   0.50000000  0.25000000  0.50000000
   0.50000000  0.00000000  0.75000004
   0.00000000  0.00000000  0.25000000
   0.50000000  0.25000000  0.00000000
   0.25000000  0.75000004  0.25000000
   0.25000000  0.50000000  0.00000000
   0.00000000  0.75000004  0.00000000
   0.75000004  0.75000004  0.25000000
   0.75000004  0.50000000  0.00000000
   0.50000000  0.50000000  0.25000000
   0.25000000  0.25000000  0.75000004
   0.25000000  0.00000000  0.50000000
   0.00000000  0.25000000  0.50000000
   0.25000000  0.75000004  0.75000004
   0.25000000  0.50000000  0.50000000
   0.00000000  0.75000004  0.50000000
   0.00000000  0.50000000  0.75000004
   0.75000004  0.75000004  0.75000004
   0.75000004  0.50000000  0.50000000
   0.50000000  0.75000004  0.50000000
   0.50000000  0.50000000  0.75000004
   0.50000000  0.00000000  0.00000000
   0.00000000  0.50000000  0.00000000
   0.50000000  0.75000004  0.25000000
   0.25000000  0.00000000  0.75000004
   0.50000000  0.00000000  0.50000000
   0.75000004  0.00000000  0.75000004
   0.25000000  0.75000004  0.50000000
   0.00000000  0.75000004  0.25000000
   0.75000004  0.50000000  0.25000000
   0.00000000  0.00000000  0.50000000
   0.50000000  0.50000000  0.50000000
   0.75000004  0.50000000  0.75000004
   0.75000004  0.75000004  0.50000000
HECN                                    
           1
     8.046851    0.006540    0.000163
     0.006540    8.070526    0.001250
     0.000163    0.001250    8.043482
   Ti   Nb   Hf   N    C    Zr   W 
     7     6     6    13    19     7     6
Direct configuration=     2
   0.99972032  0.99804966  0.00157990
   0.24710175  0.99824413  0.25185221
   0.25144312  0.50182118  0.25022440
   0.50060136  0.49908641  0.99972760
   0.49881023  0.25238246  0.75083034
   0.00013178  0.50007248  0.50110096
   0.50035186  0.74762205  0.74809114
   0.99907618  0.24776514  0.25320984
   0.75272756  0.74691752  0.99979813
   0.00155703  0.25230041  0.74676171
   0.75318050  0.25261797  0.50040482
   0.99955792  0.74763064  0.74969556
   0.25037637  0.50003219  0.74958815
   0.25083275  0.25171245  0.99848783
   0.50033757  0.25285918  0.24920369
   0.75296202  0.99790543  0.25123747
   0.74893844  0.25245061  0.99955446
   0.24837937  0.74836370  0.00018136
   0.24822005  0.25046796  0.50145991
   0.25170749  0.24965184  0.24985986
   0.25183576  0.00030637  0.99863847
   0.00006748  0.25134050  0.00016175
   0.74831610  0.24832189  0.24865771
   0.74830285  0.00192670  0.00064658
   0.50270360  0.00110314  0.24966924
   0.99866740  0.49996855  0.24868732
   0.49850204  0.75203541  0.00154085
   0.99928227  0.00014630  0.74930312
   0.75048056  0.24879747  0.75143004
   0.74926416  0.00024455  0.49929858
   0.49880629  0.24909443  0.49752971
   0.50081226  0.00011569  0.75031023
   0.99792970  0.99952283  0.25184028
   0.50024234  0.24803601  0.00223827
   0.24954320  0.75018976  0.24914077
   0.24857551  0.49962759  0.99909983
   0.00038691  0.74903605  0.00057408
   0.75059333  0.75000713  0.25065611
   0.75113261  0.49916942  0.00013102
   0.50218170  0.49897749  0.25196328
   0.24892502  0.24957876  0.75019330
   0.24976275  0.00094984  0.50096187
   0.00022536  0.24832048  0.49991649
   0.24914773  0.75039628  0.75083297
   0.25164011  0.49902096  0.50100549
   0.99894567  0.75162093  0.49933964
   0.99903065  0.49990798  0.75073875
   0.75073517  0.74950817  0.74935426
   0.74842339  0.50079594  0.49991866
   0.50100877  0.74945963  0.49909292
   0.50108848  0.49997540  0.74794745
   0.50010620  0.00102091  0.99942033
   0.99949578  0.50175119  0.99952216
   0.50013694  0.74717373  0.25157535
   0.24883987  0.99992456  0.74831389
   0.49831113  0.99807566  0.50059739
   0.75115747  0.99808814  0.74867295
   0.24955309  0.74957641  0.49985814
   0.99953044  0.75266165  0.25020328
   0.74768089  0.50307835  0.24961561
   0.00197880  0.00025174  0.49763163
   0.50029182  0.50280630  0.50032224
   0.74979093  0.50282504  0.75042801
   0.75055449  0.74731196  0.50017130
HECN                                    
           1
     9.106318    0.004370    0.000109
     0.004370    9.122137    0.000835
     0.000109    0.000835    9.104066
   Ti   Nb   Hf   N    C    Zr   W 
     7     6     6    13    19     7     6
Direct configuration=     3
   0.99984922  0.99895091  0.00084724
   0.24844432  0.99905456  0.25099328
   0.25077498  0.50098018  0.25012050
   0.50032231  0.49950878  0.99985384
   0.49936254  0.25128115  0.75044553
   0.00007074  0.50003911  0.50059051
   0.50018788  0.74872091  0.74897603
   0.99950352  0.24879774  0.25172143
   0.75146232  0.74834295  0.99989153
   0.00083625  0.25123775  0.74826334
   0.75170748  0.25140944  0.50021734
   0.99976191  0.74872535  0.74983656
   0.25020194  0.50001742  0.74977913
   0.25044743  0.25092134  0.99918908
   0.50018218  0.25153803  0.24957311
   0.75158850  0.99887452  0.25066360
   0.74943136  0.25131776  0.99976120
   0.24912985  0.74911925  0.00009714
   0.24904517  0.25025115  0.50078304
   0.25091601  0.24981335  0.24992483
   0.25098507  0.00016539  0.99926978
   0.00003671  0.25072109  0.00008685
   0.74909589  0.24909661  0.24927993
   0.74909015  0.00103579  0.00034692
   0.50145101  0.00059438  0.24982270
   0.99928498  0.49998249  0.24929593
   0.49919706  0.75109442  0.00082657
   0.99961496  0.00007837  0.74962625
   0.75025742  0.24935344  0.75076694
   0.74960530  0.00013122  0.49962381
   0.49935916  0.24951227  0.49867499
   0.50043586  0.00006256  0.75016643
   0.99888903  0.99974269  0.25098698
   0.50012931  0.24894382  0.00120036
   0.24975497  0.75010186  0.24953916
   0.24923555  0.49979908  0.99951715
   0.00020724  0.74948169  0.00030784
   0.75031837  0.75000413  0.25035191
   0.75060740  0.49955366  0.00007022
   0.50117021  0.49945095  0.25105295
   0.24942307  0.24977302  0.75010366
   0.24987307  0.00051090  0.50051596
   0.00012028  0.24909666  0.49995509
   0.24954288  0.75021292  0.75044681
   0.25087963  0.49947406  0.50053924
   0.99943491  0.75087148  0.49964592
   0.99947987  0.49995019  0.75039623
   0.75039428  0.74973569  0.74965365
   0.74915440  0.50042754  0.49995642
   0.50054104  0.74970967  0.49951346
   0.50058399  0.49998703  0.74889914
   0.50005736  0.00054915  0.99968917
   0.99973012  0.50094175  0.99974383
   0.50007243  0.74847992  0.25084474
   0.24937750  0.99995886  0.74909566
   0.49909313  0.99896430  0.50032025
   0.75062032  0.99897194  0.74928813
   0.24976005  0.74977199  0.49992388
   0.99974906  0.75143157  0.25010922
   0.74875687  0.50165495  0.24979403
   0.00106179  0.00013598  0.49872976
   0.50015763  0.50150965  0.50017304
   0.74988891  0.50151955  0.75022978
   0.75029652  0.74855433  0.50009169
HECN                                    
           1
     9.024244    0.004538    0.000113
     0.004538    9.040672    0.000867
     0.000113    0.000867    9.021906
   Ti   Nb   Hf   N    C    Zr   W 
     7     6     6    13    19     7     6
Direct configuration=     4
   0.99984038  0.99888914  0.00089738
   0.24835240  0.99899898  0.25105207
   0.25082074  0.50103783  0.25012762
   0.50034140  0.49947984  0.99984520
   0.49932475  0.25135662  0.75047187
   0.00007492  0.50004140  0.50062544
   0.50019908  0.74864560  0.74891546
   0.99947425  0.24872697  0.25182329
   0.75154889  0.74824529  0.99988513
   0.00088561  0.25131059  0.74816057
   0.75180835  0.25149230  0.50023018
   0.99974792  0.74865031  0.74982690
   0.25021388  0.50001844  0.74976606
   0.25047383  0.25097556  0.99914109
   0.50019285  0.25162858  0.24954783
   0.75168250  0.99880814  0.25070287
   0.74939765  0.25139539  0.99974705
   0.24907846  0.74906745  0.00010290
   0.24898869  0.25026600  0.50082936
   0.25097019  0.24980230  0.24992038
   0.25104330  0.00017507  0.99922658
   0.00003883  0.25076355  0.00009198
   0.74904249  0.24904349  0.24923734
   0.74903628  0.00109683  0.00036743
   0.50153677  0.00062927  0.24981220
   0.99924270  0.49998151  0.24925427
   0.49914950  0.75115890  0.00087546
   0.99959218  0.00008302  0.74960414
   0.75027268  0.24931534  0.75081232
   0.74958195  0.00013897  0.49960155
   0.49932131  0.24948361  0.49859660
   0.50046162  0.00006621  0.75017627
   0.99882335  0.99972760  0.25104538
   0.50013703  0.24888161  0.00127139
   0.24974048  0.75010788  0.24951189
   0.24919036  0.49978731  0.99948859
   0.00021953  0.74945116  0.00032606
   0.75033720  0.75000434  0.25037273
   0.75064334  0.49952734  0.00007438
   0.50123944  0.49941852  0.25111525
   0.24938897  0.24975970  0.75010979
   0.24986553  0.00054099  0.50054648
   0.00012746  0.24904346  0.49995245
   0.24951583  0.75022548  0.75047324
   0.25093168  0.49944303  0.50057115
   0.99940143  0.75092283  0.49962496
   0.99944912  0.49994729  0.75041967
   0.75041761  0.74972010  0.74963316
   0.74910437  0.50045277  0.49995383
   0.50057305  0.74969254  0.49948468
   0.50061852  0.49998624  0.74883401
   0.50006071  0.00058148  0.99967077
   0.99971410  0.50099722  0.99972866
   0.50007682  0.74839041  0.25089474
   0.24934069  0.99995650  0.74904215
   0.49903958  0.99890338  0.50033922
   0.75065707  0.99891138  0.74924602
   0.24974588  0.74975858  0.49991938
   0.99973413  0.75151587  0.25011566
   0.74868325  0.50175248  0.24978182
   0.00112456  0.00014393  0.49865460
   0.50016685  0.50159852  0.50018326
   0.74988223  0.50160902  0.75024336
   0.75031415  0.74846919  0.50009713
HECN                                    
           1
     8.978166    0.004632    0.000115
     0.004632    8.994936    0.000885
     0.000115    0.000885    8.975780
   Ti   Nb   Hf   N    C    Zr   W 
     7     6     6    13    19     7     6
Direct configuration=     5
   0.99983537  0.99885415  0.00092578
   0.24830032  0.99896751  0.25108537
   0.25084666  0.50107049  0.25013165
   0.50035222  0.49946344  0.99984030
   0.49930335  0.25139937  0.75048680
   0.00007729  0.50004270  0.50064524
   0.50020542  0.74860293  0.74888115
   0.99945766  0.24868688  0.25188100
   0.75159794  0.74818996  0.99988151
   0.00091357  0.25135185  0.74810235
   0.75186549  0.25153924  0.50023745
   0.99974000  0.74860781  0.74982143
   0.25022065  0.50001901  0.74975866
   0.25048878  0.25100628  0.99911390
   0.50019889  0.25167987  0.24953351
   0.75173576  0.99877053  0.25072512
   0.74937854  0.25143937  0.99973904
   0.24904935  0.74903811  0.00010616
   0.24895669  0.25027440  0.50085561
   0.25100088  0.24979604  0.24991786
   0.25107629  0.00018055  0.99920210
   0.00004003  0.25078760  0.00009489
   0.74901224  0.24901340  0.24921321
   0.74900576  0.00113141  0.00037905
   0.50158535  0.00064904  0.24980625
   0.99921875  0.49998096  0.24923068
   0.49912256  0.75119543  0.00090316
   0.99957928  0.00008565  0.74959161
   0.75028133  0.24929376  0.75083803
   0.74956872  0.00014337  0.49958894
   0.49929986  0.24946738  0.49855219
   0.50047622  0.00006828  0.75018185
   0.99878615  0.99971905  0.25107847
   0.50014140  0.24884637  0.00131163
   0.24973227  0.75011129  0.24949645
   0.24916476  0.49978064  0.99947241
   0.00022649  0.74943386  0.00033638
   0.75034786  0.75000446  0.25038453
   0.75066371  0.49951243  0.00007674
   0.50127866  0.49940016  0.25115055
   0.24936965  0.24975215  0.75011326
   0.24986126  0.00055803  0.50056377
   0.00013153  0.24901333  0.49995095
   0.24950051  0.75023260  0.75048821
   0.25096117  0.49942545  0.50058923
   0.99938247  0.75095192  0.49961309
   0.99943170  0.49994565  0.75043295
   0.75043082  0.74971127  0.74962155
   0.74907602  0.50046707  0.49995237
   0.50059119  0.74968283  0.49946837
   0.50063808  0.49998579  0.74879711
   0.50006261  0.00059980  0.99966035
   0.99970502  0.50102864  0.99972007
   0.50007930  0.74833970  0.25092306
   0.24931984  0.99995516  0.74901184
   0.49900924  0.99886887  0.50034996
   0.75067789  0.99887707  0.74922217
   0.24973785  0.74975099  0.49991683
   0.99972566  0.75156362  0.25011931
   0.74864154  0.50180773  0.24977491
   0.00116013  0.00014844  0.49861202
   0.50017207  0.50164886  0.50018904
   0.74987845  0.50165971  0.75025105
   0.75032414  0.74842096  0.50010022
HECN                                    
           1
     8.960721    0.004608    0.000499
     0.004603    8.987098    0.000140
     0.000499    0.000143    8.955189
   Ti   Nb   Hf   N    C    Zr   W 
     7     6     6    13    19     7     6
Direct configuration=     6
   0.99961613  0.99664570  0.00510689
   0.24254695  0.99722971  0.25253701
   0.25398307  0.50276890  0.25030314
   0.50173827  0.49925982  0.99923971
   0.49780693  0.25512183  0.75112714
   0.00086446  0.49875914  0.50155667
   0.50171942  0.74424663  0.74725743
   0.99848778  0.24341001  0.25773905
   0.75370063  0.74498246  0.99930761
   0.00275849  0.25512288  0.74267607
   0.75698349  0.25522596  0.50120697
   0.99811351  0.74468458  0.75007593
   0.25281041  0.49897491  0.74943749
   0.24958816  0.25049799  0.00053673
   0.49975956  0.25454110  0.24981463
   0.75571895  0.99719684  0.25224290
   0.74974764  0.25277501  0.99836441
   0.24933885  0.74971080  0.00118068
   0.24713458  0.25168732  0.49940281
   0.25138023  0.24953241  0.25010925
   0.24687375  0.00047328  0.00377077
   0.00053192  0.24703717  0.00055550
   0.74787462  0.24931387  0.24871692
   0.75350249  0.00248128  0.00215292
   0.50091906  0.00328119  0.24917333
   0.99991321  0.50137002  0.25431325
   0.49852747  0.74706532  0.99666012
   0.99845585  0.99986719  0.75101338
   0.74674132  0.25163740  0.75114689
   0.75216146  0.99891033  0.49751364
   0.49891608  0.25233721  0.50040937
   0.50210201  0.00007258  0.75048725
   0.00288810  0.99787612  0.25006470
   0.50049729  0.25357820  0.99852079
   0.24435704  0.75020415  0.24753074
   0.25367354  0.49950367  0.00234743
   0.99943428  0.75478737  0.00248120
   0.75459957  0.74684061  0.25254782
   0.74528370  0.50072623  0.00003423
   0.50120172  0.49733924  0.25118759
   0.25179686  0.25220737  0.74975002
   0.24520619  0.00281102  0.49429051
   0.99930794  0.25064669  0.49976085
   0.25221156  0.74770643  0.75222026
   0.25015112  0.49721201  0.49777278
   0.99443673  0.74967311  0.49741058
   0.99654828  0.50003916  0.74358390
   0.74655697  0.74439297  0.74716659
   0.75098091  0.50279905  0.50012620
   0.50572232  0.74438902  0.50608023
   0.50378605  0.50017637  0.74874100
   0.49937234  0.99999459  0.99782929
   0.99934768  0.50149342  0.00158584
   0.49986091  0.74524392  0.24997139
   0.24791861  0.00049755  0.75021211
   0.49717658  0.99803056  0.50223901
   0.75157120  0.99791238  0.74775682
   0.24837465  0.74792613  0.49901941
   0.99994697  0.75775414  0.24966039
   0.74398735  0.50512934  0.24822631
   0.00427355  0.00235316  0.49276421
   0.50096216  0.50525703  0.50080926
   0.74790846  0.50552674  0.75184728
   0.75034328  0.74375210  0.50132605
HECN                                    
           1
     8.953549    0.004598    0.000657
     0.004591    8.983875   -0.000166
     0.000657   -0.000162    8.946723
   Ti   Nb   Hf   N    C    Zr   W 
     7     6     6    13    19     7     6
Direct configuration=     7
   0.99952575  0.99573712  0.00682970
   0.24017702  0.99651470  0.25313522
   0.25527500  0.50346776  0.25037381
   0.50230922  0.49917601  0.99899220
   0.49719053  0.25665356  0.75139116
   0.00118869  0.49823102  0.50193217
   0.50234308  0.74245407  0.74658818
   0.99808816  0.24123891  0.26015276
   0.75456677  0.74366263  0.99907098
   0.00351855  0.25667438  0.74044020
   0.75909167  0.25674298  0.50160650
   0.99744352  0.74307028  0.75018069
   0.25387719  0.49854528  0.74930507
   0.24921716  0.25028888  0.00112303
   0.49957860  0.25571844  0.24993057
   0.75735967  0.99654936  0.25286820
   0.74989970  0.25332454  0.99779802
   0.24945809  0.74998763  0.00162346
   0.24638404  0.25226865  0.49880424
   0.25153649  0.24942394  0.25018810
   0.24514257  0.00059389  0.00565344
   0.00073452  0.24549398  0.00074516
   0.74740602  0.24943749  0.24851245
   0.75535473  0.00303678  0.00288382
   0.50064462  0.00436424  0.24891263
   0.00019918  0.50194175  0.25640762
   0.49828242  0.74536574  0.99491159
   0.99799307  0.99977734  0.75159925
   0.74528312  0.25260175  0.75127431
   0.75322949  0.99840289  0.49665840
   0.49875796  0.25351814  0.50117475
   0.50277169  0.00007437  0.75061307
   0.00457778  0.99711776  0.24964683
   0.50064394  0.25552513  0.99737094
   0.24214293  0.75024230  0.24672085
   0.25553073  0.49938981  0.00353203
   0.99910792  0.75699028  0.00336520
   0.75635088  0.74553884  0.25343905
   0.74306759  0.50122568  0.00001685
   0.50117003  0.49649122  0.25120279
   0.25279667  0.25321762  0.74960039
   0.24328880  0.00373785  0.49170570
   0.99896870  0.25131877  0.49968258
   0.25332826  0.74666704  0.75293384
   0.24981750  0.49630115  0.49661216
   0.99239954  0.74914684  0.49650306
   0.99536067  0.50007740  0.74076172
   0.74496130  0.74220453  0.74615489
   0.75176557  0.50375860  0.50019787
   0.50783579  0.74221097  0.50880446
   0.50508275  0.50025479  0.74871783
   0.49908803  0.99974550  0.99707477
   0.99920045  0.50168472  0.00235468
   0.49977096  0.74397005  0.24957914
   0.24734140  0.00072078  0.75070674
   0.49642164  0.99768568  0.50301741
   0.75193919  0.99751538  0.74715296
   0.24781314  0.74717521  0.49864958
   0.00003814  0.76030137  0.24947149
   0.74207024  0.50649605  0.24758838
   0.00555613  0.00326015  0.49035457
   0.50128761  0.50674172  0.50106494
   0.74709697  0.50711797  0.75250519
   0.75035114  0.74183101  0.50183100
HECN                                    
           1
     9.015714    0.000883    0.002726
     0.000854    9.063893   -0.003578
     0.002727   -0.003562    9.012542
   Ti   Nb   Hf   N    C    Zr   W 
     7     6     6    13    19     7     6
Direct configuration=     8
   0.99916710  0.99551963  0.01039200
   0.23870340  0.99563672  0.25287830
   0.25888808  0.50393313  0.25018299
   0.50210147  0.49984922  0.99871534
   0.49496548  0.25907641  0.75129738
   0.00290892  0.49731364  0.50053603
   0.50218619  0.73961831  0.74730019
   0.99698116  0.23798256  0.26106635
   0.75420992  0.74389295  0.99852094
   0.00440692  0.26033027  0.73868602
   0.75927000  0.26040822  0.50229135
   0.99674618  0.73965947  0.74990090
   0.25567614  0.49907445  0.74942150
   0.24731120  0.25147752  0.00202203
   0.50027997  0.25367442  0.25044505
   0.75657064  0.99515418  0.25332996
   0.75115771  0.25410811  0.99638204
   0.24881302  0.74885411  0.99985541
   0.24666419  0.25251280  0.49789658
   0.25093460  0.24958497  0.25026886
   0.24384415  0.00075001  0.00748913
   0.00065398  0.24385568  0.00111640
   0.74798591  0.24984106  0.24893829
   0.75699177  0.00357316  0.00300777
   0.50100966  0.00471015  0.24882689
   0.99958469  0.50193150  0.25818645
   0.49859207  0.74406141  0.99378933
   0.99724671  0.00006033  0.75162944
   0.74432628  0.25283309  0.75079060
   0.75409980  0.99825396  0.49640838
   0.49975521  0.25406829  0.50222899
   0.50304010  0.00041648  0.75035867
   0.00531117  0.99724728  0.24785741
   0.50073361  0.25563263  0.99632081
   0.24156201  0.74959786  0.24762294
   0.25582705  0.49923486  0.00522513
   0.99944444  0.75740774  0.00372371
   0.75615022  0.74409132  0.25322227
   0.74280606  0.50080524  0.00051018
   0.50020716  0.49780324  0.25080288
   0.25434665  0.25323166  0.74962248
   0.24243579  0.00275223  0.49116336
   0.00077103  0.25264302  0.50032809
   0.25408179  0.74617231  0.75246570
   0.24984188  0.49754790  0.49498861
   0.99196960  0.75006818  0.49604278
   0.99528701  0.49959386  0.74018220
   0.74396385  0.74242005  0.74686797
   0.75297139  0.50310334  0.49965887
   0.50624619  0.74263944  0.50857252
   0.50559564  0.49985655  0.74864901
   0.50032102  0.00032834  0.99773883
   0.99941586  0.50176025  0.00348999
   0.50069805  0.74564991  0.25071642
   0.24603845  0.00030016  0.74972736
   0.49500638  0.99658567  0.50229699
   0.75304999  0.99553076  0.74636121
   0.24726726  0.74669579  0.50038583
   0.00135191  0.76455697  0.24926321
   0.73761280  0.50772629  0.24528002
   0.00742864  0.00495499  0.48696675
   0.50192955  0.50751689  0.50189836
   0.74517615  0.50848053  0.75509849
   0.75007943  0.73604917  0.50279075
HECN                                    
           1
     8.999760    0.001836    0.002195
     0.001813    9.043358   -0.002703
     0.002195   -0.002690    8.995650
   Ti   Nb   Hf   N    C    Zr   W 
     7     6     6    13    19     7     6
Direct configuration=     9
   0.99925874  0.99557465  0.00948445
   0.23907906  0.99586023  0.25294375
   0.25796716  0.50381439  0.25023177
   0.50215433  0.49967802  0.99878579
   0.49553231  0.25846035  0.75132091
   0.00247050  0.49754695  0.50089191
   0.50222652  0.74033960  0.74711906
   0.99726370  0.23881091  0.26083385
   0.75430081  0.74383446  0.99866103
   0.00418001  0.25940039  0.73913262
   0.75922420  0.25947580  0.50211653
   0.99692426  0.74052718  0.74997247
   0.25521759  0.49893964  0.74939189
   0.24779689  0.25117528  0.00179277
   0.50010146  0.25419424  0.25031422
   0.75677192  0.99550911  0.25321240
   0.75083692  0.25390880  0.99674277
   0.24897745  0.74914268  0.00030591
   0.24659271  0.25245076  0.49812781
   0.25108799  0.24954406  0.25024823
   0.24417517  0.00071026  0.00702137
   0.00067471  0.24427239  0.00102197
   0.74783809  0.24973830  0.24882980
   0.75657449  0.00343653  0.00297623
   0.50091658  0.00462213  0.24884872
   0.99974141  0.50193401  0.25773323
   0.49851322  0.74439327  0.99407539
   0.99743690  0.99998842  0.75162168
   0.74457010  0.25277439  0.75091375
   0.75387799  0.99829178  0.49647214
   0.49950105  0.25392814  0.50196042
   0.50297164  0.00032945  0.75042347
   0.00512414  0.99721443  0.24831332
   0.50071068  0.25560537  0.99658834
   0.24171019  0.74976176  0.24739315
   0.25575164  0.49927408  0.00479382
   0.99935865  0.75730148  0.00363235
   0.75620150  0.74445957  0.25327763
   0.74287279  0.50091217  0.00038452
   0.50045240  0.49746964  0.25090458
   0.25395161  0.25322792  0.74961694
   0.24265327  0.00300308  0.49130157
   0.00031157  0.25230592  0.50016362
   0.25388977  0.74629812  0.75258506
   0.24983544  0.49723091  0.49540211
   0.99207905  0.74983391  0.49615993
   0.99530580  0.49971692  0.74032988
   0.74421809  0.74236527  0.74668622
   0.75266410  0.50326994  0.49979632
   0.50665127  0.74253064  0.50863147
   0.50546496  0.49995781  0.74866661
   0.50000675  0.00017989  0.99756966
   0.99936102  0.50174091  0.00320076
   0.50046165  0.74522240  0.25042658
   0.24637052  0.00040738  0.74997683
   0.49536716  0.99686570  0.50248055
   0.75276705  0.99603555  0.74656317
   0.24740654  0.74681764  0.49994352
   0.00101661  0.76347435  0.24931594
   0.73874859  0.50741404  0.24586773
   0.00695102  0.00452400  0.48782979
   0.50176591  0.50731956  0.50168600
   0.74566571  0.50813389  0.75443757
   0.75014936  0.73751984  0.50254679
HECN                                    
           1
     8.975622   -0.000241    0.002404
    -0.000277    9.034913   -0.005137
     0.002407   -0.005117    8.967175
   Ti   Nb   Hf   N    C    Zr   W 
     7     6     6    13    19     7     6
Direct configuration=    10
   0.99878628  0.99557395  0.01275655
   0.23887953  0.99478627  0.25224724
   0.26219441  0.50435033  0.25019975
   0.50175013  0.50036075  0.99858385
   0.49293545  0.26072812  0.75111735
   0.00498564  0.49685152  0.49824439
   0.50169226  0.73779519  0.74794272
   0.99619014  0.23652159  0.26089644
   0.75396693  0.74434619  0.99804717
   0.00518864  0.26363583  0.73848630
   0.75872481  0.26460961  0.50280252
   0.99619050  0.73658128  0.74914582
   0.25704281  0.49951402  0.74925245
   0.24607150  0.25234128  0.00248531
   0.50118294  0.25246904  0.25056237
   0.75541902  0.99400127  0.25375852
   0.75208865  0.25434861  0.99515886
   0.24843197  0.74790360  0.99879450
   0.24783657  0.25272298  0.49756692
   0.25045701  0.24963653  0.25029350
   0.24402473  0.00085203  0.00771917
   0.00042452  0.24337257  0.00147585
   0.74877398  0.24985601  0.24938384
   0.75727560  0.00398692  0.00257075
   0.50178995  0.00457771  0.24889307
   0.99834591  0.50140905  0.25844411
   0.49873380  0.74422728  0.99401196
   0.99676447  0.00049532  0.75089367
   0.74451212  0.25217479  0.75019144
   0.75433626  0.99856863  0.49680937
   0.50080309  0.25361397  0.50257051
   0.50300306  0.00083476  0.75024386
   0.00416235  0.99794724  0.24665997
   0.50063372  0.25441334  0.99633009
   0.24214028  0.74915991  0.24842549
   0.25489489  0.49920605  0.00601463
   0.99975673  0.75646166  0.00375541
   0.75560432  0.74330742  0.25266324
   0.74378972  0.50025514  0.00101478
   0.49949971  0.49882401  0.25060126
   0.25489699  0.25270430  0.74960653
   0.24271345  0.00170055  0.49212853
   0.00212484  0.25315317  0.50053048
   0.25396042  0.74636772  0.75193851
   0.25045256  0.49875216  0.49433713
   0.99216716  0.75178577  0.49591739
   0.99579682  0.49913502  0.74136883
   0.74407542  0.74360607  0.74801439
   0.75370162  0.50172003  0.49919466
   0.50400417  0.74393694  0.50709215
   0.50536932  0.49937634  0.74868498
   0.50117267  0.00097117  0.99774715
   0.99962532  0.50195957  0.00503575
   0.50082265  0.74730792  0.25156077
   0.24485078  0.99993251  0.74925093
   0.49408892  0.99581809  0.50208280
   0.75406696  0.99376627  0.74561181
   0.24663355  0.74651475  0.50162079
   0.00246762  0.76696428  0.24976926
   0.73368899  0.50858114  0.24282744
   0.00882839  0.00605091  0.48485102
   0.50199405  0.50790552  0.50238039
   0.74335416  0.50935140  0.75798749
   0.74985946  0.73001730  0.50344650
HECN                                    
           1
     8.974815   -0.000311    0.002411
    -0.000347    9.034631   -0.005218
     0.002414   -0.005199    8.966224
   Ti   Nb   Hf   N    C    Zr   W 
     7     6     6    13    19     7     6
Direct configuration=    11
   0.99877046  0.99557395  0.01286619
   0.23887284  0.99475035  0.25222389
   0.26233600  0.50436828  0.25019867
   0.50173660  0.50038357  0.99857709
   0.49284850  0.26080392  0.75111055
   0.00506987  0.49682826  0.49815566
   0.50167434  0.73771013  0.74797030
   0.99615416  0.23644504  0.26089852
   0.75395575  0.74436329  0.99802661
   0.00522246  0.26377744  0.73846468
   0.75870812  0.26478126  0.50282556
   0.99616589  0.73644934  0.74911808
   0.25710394  0.49953324  0.74924778
   0.24601372  0.25238026  0.00250853
   0.50121915  0.25241137  0.25057067
   0.75537370  0.99395085  0.25377681
   0.75213058  0.25436331  0.99510579
   0.24841369  0.74786216  0.99874384
   0.24787823  0.25273209  0.49754813
   0.25043588  0.24963962  0.25029502
   0.24401969  0.00085678  0.00774256
   0.00041613  0.24334248  0.00149105
   0.74880532  0.24985995  0.24940241
   0.75729909  0.00400532  0.00255717
   0.50181920  0.00457624  0.24889455
   0.99829916  0.50139150  0.25846793
   0.49874119  0.74422173  0.99400983
   0.99674195  0.00051226  0.75086928
   0.74451018  0.25215474  0.75016723
   0.75435161  0.99857789  0.49682067
   0.50084670  0.25360348  0.50259095
   0.50300411  0.00085165  0.75023784
   0.00413015  0.99797172  0.24660457
   0.50063113  0.25437348  0.99632142
   0.24215467  0.74913980  0.24846008
   0.25486619  0.49920378  0.00605554
   0.99977006  0.75643358  0.00375953
   0.75558431  0.74326889  0.25264264
   0.74382042  0.50023319  0.00103589
   0.49946781  0.49886928  0.25059111
   0.25492865  0.25268680  0.74960618
   0.24271546  0.00165700  0.49215623
   0.00218557  0.25318151  0.50054278
   0.25396279  0.74637004  0.75191684
   0.25047324  0.49880302  0.49430146
   0.99217013  0.75185103  0.49590928
   0.99581326  0.49911558  0.74140364
   0.74407065  0.74364757  0.74805891
   0.75373636  0.50166821  0.49917449
   0.50391552  0.74398392  0.50704058
   0.50536611  0.49935690  0.74868559
   0.50121172  0.00099764  0.99775310
   0.99963417  0.50196690  0.00509724
   0.50083475  0.74737767  0.25159880
   0.24479988  0.99991661  0.74922660
   0.49404610  0.99578305  0.50206947
   0.75411048  0.99369039  0.74557991
   0.24660766  0.74650464  0.50167699
   0.00251624  0.76708098  0.24978448
   0.73351954  0.50862010  0.24272558
   0.00889129  0.00610195  0.48475121
   0.50200169  0.50792511  0.50240366
   0.74327674  0.50939212  0.75810646
   0.74984969  0.72976646  0.50347658
HECN                                    
           1
     8.983984    0.003063   -0.000790
     0.003050    9.045887   -0.003833
    -0.000782   -0.003835    8.957382
   Ti   Nb   Hf   N    C    Zr   W 