<?xml version="1.0" encoding="ISO-8859-1"?>
<modeling>
 <generator>
  <i name="program" type="string">vasp </i>
  <i name="version" type="string">5.4.4.18Apr17-6-g9f103f2a35  </i>
  <i name="subversion" type="string">(build Oct 18 2021 20:38:43) complex            parallel </i>
  <i name="platform" type="string">LinuxIFC </i>
  <i name="date" type="string">2024 06 11 </i>
  <i name="time" type="string">17:06:47 </i>
 </generator>
 <incar>
  <i type="string" name="SYSTEM">HECN</i>
  <i type="int" name="ISTART">     0</i>
  <i type="string" name="PREC">normal</i>
  <i type="string" name="ALGO">Fast</i>
  <i type="int" name="ICHARG">     2</i>
  <i type="int" name="NELM">    60</i>
  <i type="int" name="IBRION">     2</i>
  <i name="EDIFF">      0.00001000</i>
  <i name="EDIFFG">     -0.01000000</i>
  <i type="int" name="NSW">   100</i>
  <i type="int" name="ISIF">     3</i>
  <i name="ENCUT">    400.00000000</i>
  <i name="POTIM">      0.50000000</i>
  <i type="logical" name="LREAL"> F  </i>
  <i type="int" name="ISMEAR">     0</i>
  <i name="SIGMA">      0.10000000</i>
  <i type="logical" name="LWAVE"> F  </i>
  <i type="logical" name="LCHARG"> F  </i>
  <v type="int" name="KPOINT_BSE">    -1     0     0     0</v>
  <i type="int" name="NELM">    60</i>
 </incar>
 <structure name="primitive_cell" >
  <crystal>
   <varray name="basis" >
    <v>       8.93249989       0.00000000       0.00000000 </v>
    <v>       0.00575300       9.05559834       0.00000000 </v>
    <v>       0.03210180      -0.01574346       8.93712807 </v>
   </varray>
   <i name="volume">    722.91652451 </i>
   <varray name="rec_basis" >
    <v>       0.11195074      -0.00007112      -0.00040225 </v>
    <v>       0.00000000       0.11042893       0.00019453 </v>
    <v>       0.00000000       0.00000000       0.11189277 </v>
   </varray>
  </crystal>
  <varray name="positions" >
   <v>      -0.00311999      -0.00795003      -0.00075998 </v>
   <v>      -0.25232999      -0.00252000       0.01202000 </v>
   <v>      -0.00162995      -0.25686004       0.00460000 </v>
   <v>      -0.00280000      -0.00228008       0.25899999 </v>
   <v>       0.00281000       0.25024000       0.00130000 </v>
   <v>      -0.01103011       0.00202000      -0.26291001 </v>
   <v>       0.26146999      -0.00015998      -0.00704004 </v>
   <v>      -0.00135002      -0.22426001       0.26102000 </v>
   <v>      -0.25720997      -0.02130006      -0.23549005 </v>
   <v>       0.23780002       0.01082000      -0.25392002 </v>
   <v>      -0.24282000      -0.25897003       0.01100000 </v>
   <v>       0.24762001      -0.25026001      -0.00025994 </v>
   <v>      -0.00485996      -0.25507996      -0.25488003 </v>
   <v>      -0.24281000       0.25603001      -0.00408003 </v>
   <v>       0.25398003      -0.00285005       0.24912000 </v>
   <v>       0.24788999       0.24839000      -0.00342003 </v>
   <v>      -0.00562996       0.23617001       0.26379999 </v>
   <v>      -0.25120996      -0.01212001       0.26967001 </v>
   <v>       0.00201000       0.25541000      -0.26105999 </v>
   <v>       0.24177002      -0.24659003      -0.24981998 </v>
   <v>      -0.24963995      -0.25112000      -0.25243996 </v>
   <v>      -0.24255004       0.24437997      -0.25103001 </v>
   <v>       0.25133999      -0.25041998       0.24910999 </v>
   <v>      -0.24367000      -0.26108997       0.25767000 </v>
   <v>      -0.24686002       0.24616999       0.25492002 </v>
   <v>       0.24982001       0.24942998       0.24825000 </v>
   <v>       0.24900999       0.25315000      -0.25146000 </v>
   <v>      -0.48411003       0.01358000      -0.01924992 </v>
   <v>      -0.00158006      -0.49023002      -0.01386996 </v>
   <v>       0.02362000      -0.00216999       0.49557002 </v>
   <v>      -0.49480995      -0.23869001       0.00855000 </v>
   <v>      -0.49285006      -0.00023001       0.24673000 </v>
   <v>      -0.24160996      -0.49684002       0.00288000 </v>
   <v>      -0.00999997      -0.23784997       0.49746000 </v>
   <v>      -0.00948001       0.48088003       0.24100999 </v>
   <v>       0.24446000      -0.00176004      -0.49712002 </v>
   <v>      -0.26367999       0.00417000      -0.48937000 </v>
   <v>       0.24328000      -0.49927003      -0.00489006 </v>
   <v>      -0.49572003       0.24673000       0.00262000 </v>
   <v>      -0.00796004      -0.49944001      -0.24861998 </v>
   <v>      -0.00195991       0.24229999      -0.49871997 </v>
   <v>      -0.49991002       0.00061000      -0.26528002 </v>
   <v>      -0.26123997      -0.47171998      -0.26185001 </v>
   <v>       0.49950005      -0.24518001      -0.25182996 </v>
   <v>       0.24457999      -0.24951001       0.49983999 </v>
   <v>      -0.24599997      -0.27062001       0.49116997 </v>
   <v>      -0.49520997       0.24631001      -0.25289998 </v>
   <v>       0.24803003      -0.49835000       0.24955001 </v>
   <v>      -0.26448999      -0.48531996       0.26666001 </v>
   <v>      -0.49167000       0.25676999       0.25376001 </v>
   <v>      -0.49620997      -0.26073003       0.25905001 </v>
   <v>      -0.24692999       0.26163001      -0.49466998 </v>
   <v>       0.25272001       0.24823001      -0.49984997 </v>
   <v>       0.25679999       0.49462002      -0.25454998 </v>
   <v>       0.47957999      -0.01691999       0.49717999 </v>
   <v>      -0.49498994       0.49745998      -0.00165997 </v>
   <v>      -0.00572008      -0.49550001       0.49779000 </v>
   <v>      -0.49436004       0.23264998       0.49544997 </v>
   <v>      -0.49424994      -0.25041998       0.49720000 </v>
   <v>      -0.49299998      -0.49666998       0.25878999 </v>
   <v>      -0.49498997      -0.49782002      -0.26087997 </v>
   <v>      -0.25963999      -0.49803000      -0.49932997 </v>
   <v>       0.25841001      -0.49937998      -0.49870999 </v>
   <v>      -0.49461000      -0.47166995       0.49917999 </v>
  </varray>
 </structure>
 <varray name="primitive_index" >
  <v type="int" >        1 </v>
  <v type="int" >       25 </v>
  <v type="int" >       38 </v>
  <v type="int" >       34 </v>
  <v type="int" >       23 </v>
  <v type="int" >       29 </v>
  <v type="int" >       22 </v>
  <v type="int" >       59 </v>
  <v type="int" >       58 </v>
  <v type="int" >       56 </v>
  <v type="int" >        9 </v>
  <v type="int" >       18 </v>
  <v type="int" >       12 </v>
  <v type="int" >       17 </v>
  <v type="int" >        2 </v>
  <v type="int" >       14 </v>
  <v type="int" >        8 </v>
  <v type="int" >       16 </v>
  <v type="int" >       10 </v>
  <v type="int" >       45 </v>
  <v type="int" >       49 </v>
  <v type="int" >       30 </v>
  <v type="int" >       36 </v>
  <v type="int" >       39 </v>
  <v type="int" >       24 </v>
  <v type="int" >       21 </v>
  <v type="int" >       42 </v>
  <v type="int" >       53 </v>
  <v type="int" >       54 </v>
  <v type="int" >       61 </v>
  <v type="int" >       28 </v>
  <v type="int" >       26 </v>
  <v type="int" >       40 </v>
  <v type="int" >       47 </v>
  <v type="int" >       27 </v>
  <v type="int" >       43 </v>
  <v type="int" >       31 </v>
  <v type="int" >       37 </v>
  <v type="int" >       35 </v>
  <v type="int" >       48 </v>
  <v type="int" >       44 </v>
  <v type="int" >       33 </v>
  <v type="int" >       63 </v>
  <v type="int" >        7 </v>
  <v type="int" >       20 </v>
  <v type="int" >       64 </v>
  <v type="int" >        5 </v>
  <v type="int" >        3 </v>
  <v type="int" >       60 </v>
  <v type="int" >       15 </v>
  <v type="int" >       55 </v>
  <v type="int" >       11 </v>
  <v type="int" >       19 </v>
  <v type="int" >       13 </v>
  <v type="int" >       57 </v>
  <v type="int" >        4 </v>
  <v type="int" >        6 </v>
  <v type="int" >       32 </v>
  <v type="int" >       51 </v>
  <v type="int" >       41 </v>
  <v type="int" >       52 </v>
  <v type="int" >       50 </v>
  <v type="int" >       46 </v>
  <v type="int" >       62 </v>
 </varray>
 <kpoints>
  <generation param="Gamma">
   <v type="int" name="divisions">       3        3        3 </v>
   <v name="usershift">      0.00000000       0.00000000       0.00000000 </v>
   <v name="genvec1">      0.33333333      -0.00000000      -0.00000000 </v>
   <v name="genvec2">      0.00000000       0.33333333       0.00000000 </v>
   <v name="genvec3">      0.00000000       0.00000000       0.33333333 </v>
   <v name="shift">      0.00000000       0.00000000       0.00000000 </v>
  </generation>
  <varray name="kpointlist" >
   <v>       0.00000000       0.00000000       0.00000000 </v>
   <v>       0.33333333       0.00000000       0.00000000 </v>
   <v>       0.00000000       0.33333333       0.00000000 </v>
   <v>       0.33333333       0.33333333       0.00000000 </v>
   <v>      -0.33333333       0.33333333       0.00000000 </v>
   <v>       0.00000000       0.00000000       0.33333333 </v>
   <v>       0.33333333       0.00000000       0.33333333 </v>
   <v>      -0.33333333       0.00000000       0.33333333 </v>
   <v>       0.00000000       0.33333333       0.33333333 </v>
   <v>       0.33333333       0.33333333       0.33333333 </v>
   <v>      -0.33333333       0.33333333       0.33333333 </v>
   <v>       0.00000000      -0.33333333       0.33333333 </v>
   <v>       0.33333333      -0.33333333       0.33333333 </v>
   <v>      -0.33333333      -0.33333333       0.33333333 </v>
  </varray>
  <varray name="weights" >
   <v>       0.03703704 </v>
   <v>       0.07407407 </v>
   <v>       0.07407407 </v>
   <v>       0.07407407 </v>
   <v>       0.07407407 </v>
   <v>       0.07407407 </v>
   <v>       0.07407407 </v>
   <v>       0.07407407 </v>
   <v>       0.07407407 </v>
   <v>       0.07407407 </v>
   <v>       0.07407407 </v>
   <v>       0.07407407 </v>
   <v>       0.07407407 </v>
   <v>       0.07407407 </v>
  </varray>
 </kpoints>
 <parameters>
  <separator name="general" >
   <i type="string" name="SYSTEM">HECN</i>
   <i type="logical" name="LCOMPAT"> F  </i>
  </separator>
  <separator name="electronic" >
   <i type="string" name="PREC">normal</i>
   <i name="ENMAX">    400.00000000</i>
   <i name="ENAUG">    644.87300000</i>
   <i name="EDIFF">      0.00001000</i>
   <i type="int" name="IALGO">    68</i>
   <i type="int" name="IWAVPR">    11</i>
   <i type="int" name="NBANDS">   336</i>
   <i name="NELECT">    537.00000000</i>
   <i type="int" name="TURBO">     0</i>
   <i type="int" name="IRESTART">     0</i>
   <i type="int" name="NREBOOT">     0</i>
   <i type="int" name="NMIN">     0</i>
   <i name="EREF">      0.00000000</i>
   <separator name="electronic smearing" >
    <i type="int" name="ISMEAR">     0</i>
    <i name="SIGMA">      0.10000000</i>
    <i name="KSPACING">      0.50000000</i>
    <i type="logical" name="KGAMMA"> T  </i>
   </separator>
   <separator name="electronic projectors" >
    <i type="logical" name="LREAL"> F  </i>
    <v name="ROPT">      0.00000000      0.00000000      0.00000000      0.00000000      0.00000000      0.00000000      0.00000000</v>
    <i type="int" name="LMAXPAW">  -100</i>
    <i type="int" name="LMAXMIX">     2</i>
    <i type="logical" name="NLSPLINE"> F  </i>
   </separator>
   <separator name="electronic startup" >
    <i type="int" name="ISTART">     0</i>
    <i type="int" name="ICHARG">     2</i>
    <i type="int" name="INIWAV">     1</i>
   </separator>
   <separator name="electronic spin" >
    <i type="int" name="ISPIN">     1</i>
    <i type="logical" name="LNONCOLLINEAR"> F  </i>
    <v name="MAGMOM">      1.00000000      1.00000000      1.00000000      1.00000000      1.00000000      1.00000000      1.00000000      1.00000000      1.00000000      1.00000000      1.00000000      1.00000000      1.00000000      1.00000000      1.00000000      1.00000000      1.00000000      1.00000000      1.00000000      1.00000000
      1.00000000      1.00000000      1.00000000      1.00000000      1.00000000      1.00000000      1.00000000      1.00000000      1.00000000      1.00000000      1.00000000      1.00000000      1.00000000      1.00000000      1.00000000      1.00000000      1.00000000      1.00000000      1.00000000      1.00000000
      1.00000000      1.00000000      1.00000000      1.00000000      1.00000000      1.00000000      1.00000000      1.00000000      1.00000000      1.00000000      1.00000000      1.00000000      1.00000000      1.00000000      1.00000000      1.00000000      1.00000000      1.00000000      1.00000000      1.00000000
      1.00000000      1.00000000      1.00000000      1.00000000</v>
    <i name="NUPDOWN">     -1.00000000</i>
    <i type="logical" name="LSORBIT"> F  </i>
    <v name="SAXIS">      0.00000000      0.00000000      1.00000000</v>
    <i type="logical" name="LSPIRAL"> F  </i>
    <v name="QSPIRAL">      0.00000000      0.00000000      0.00000000</v>
    <i type="logical" name="LZEROZ"> F  </i>
   </separator>
   <separator name="electronic exchange-correlation" >
    <i type="logical" name="LASPH"> F  </i>
    <i type="logical" name="LMETAGGA"> F  </i>
   </separator>
   <separator name="electronic convergence" >
    <i type="int" name="NELM">    60</i>
    <i type="int" name="NELMDL">    -5</i>
    <i type="int" name="NELMIN">     2</i>
    <i name="ENINI">    400.00000000</i>
    <separator name="electronic convergence detail" >
     <i type="logical" name="LDIAG"> T  </i>
     <i type="logical" name="LSUBROT"> F  </i>
     <i name="WEIMIN">      0.00100000</i>
     <i name="EBREAK">      0.00000001</i>
     <i name="DEPER">      0.30000000</i>
     <i type="int" name="NRMM">     4</i>
     <i name="TIME">      0.40000000</i>
    </separator>
   </separator>
   <separator name="electronic mixer" >
    <i name="AMIX">      0.40000000</i>
    <i name="BMIX">      1.00000000</i>
    <i name="AMIN">      0.10000000</i>
    <i name="AMIX_MAG">      1.60000000</i>
    <i name="BMIX_MAG">      1.00000000</i>
    <separator name="electronic mixer details" >
     <i type="int" name="IMIX">     4</i>
     <i type="logical" name="MIXFIRST"> F  </i>
     <i type="int" name="MAXMIX">   -45</i>
     <i name="WC">    100.00000000</i>
     <i type="int" name="INIMIX">     1</i>
     <i type="int" name="MIXPRE">     1</i>
     <i type="int" name="MREMOVE">     5</i>
    </separator>
   </separator>
   <separator name="electronic dipolcorrection" >
    <i type="logical" name="LDIPOL"> F  </i>
    <i type="logical" name="LMONO"> F  </i>
    <i type="int" name="IDIPOL">     0</i>
    <i name="EPSILON">      1.00000000</i>
    <v name="DIPOL">   -100.00000000   -100.00000000   -100.00000000</v>
    <i name="EFIELD">      0.00000000</i>
   </separator>
  </separator>
  <separator name="grids" >
   <i type="int" name="NGX">    48</i>
   <i type="int" name="NGY">    48</i>
   <i type="int" name="NGZ">    48</i>
   <i type="int" name="NGXF">    96</i>
   <i type="int" name="NGYF">    96</i>
   <i type="int" name="NGZF">    96</i>
   <i type="logical" name="ADDGRID"> F  </i>
  </separator>
  <separator name="ionic" >
   <i type="int" name="NSW">   100</i>
   <i type="int" name="IBRION">     2</i>
   <i type="int" name="MDALGO">     0</i>
   <i type="int" name="ISIF">     3</i>
   <i name="PSTRESS">      0.00000000</i>
   <i name="EDIFFG">     -0.01000000</i>
   <i type="int" name="NFREE">     1</i>
   <i name="POTIM">      0.50000000</i>
   <i name="SMASS">     -3.00000000</i>
   <i name="SCALEE">      1.00000000</i>
  </separator>
  <separator name="ionic md" >
   <i name="TEBEG">      0.00010000</i>
   <i name="TEEND">      0.00010000</i>
   <i type="int" name="NBLOCK">     1</i>
   <i type="int" name="KBLOCK">   100</i>
   <i type="int" name="NPACO">   256</i>
   <i name="APACO">     16.00000000</i>
  </separator>
  <separator name="symmetry" >
   <i type="int" name="ISYM">     2</i>
   <i name="SYMPREC">      0.00001000</i>
  </separator>
  <separator name="dos" >
   <i type="int" name="LORBIT">     0</i>
   <v name="RWIGS">     -1.00000000     -1.00000000     -1.00000000     -1.00000000     -1.00000000     -1.00000000     -1.00000000</v>
   <i type="int" name="NEDOS">   301</i>
   <i name="EMIN">     10.00000000</i>
   <i name="EMAX">    -10.00000000</i>
   <i name="EFERMI">      0.00000000</i>
  </separator>
  <separator name="writing" >
   <i type="int" name="NWRITE">     2</i>
   <i type="logical" name="LWAVE"> F  </i>
   <i type="logical" name="LDOWNSAMPLE"> F  </i>
   <i type="logical" name="LCHARG"> F  </i>
   <i type="logical" name="LPARD"> F  </i>
   <i type="logical" name="LVTOT"> F  </i>
   <i type="logical" name="LVHAR"> F  </i>
   <i type="logical" name="LELF"> F  </i>
   <i type="logical" name="LOPTICS"> F  </i>
   <v name="STM">      0.00000000      0.00000000      0.00000000      0.00000000      0.00000000      0.00000000      0.00000000</v>
  </separator>
  <separator name="performance" >
   <i type="int" name="NPAR">    24</i>
   <i type="int" name="NSIM">     4</i>
   <i type="int" name="NBLK">    -1</i>
   <i type="logical" name="LPLANE"> T  </i>
   <i type="logical" name="LSCALAPACK"> T  </i>
   <i type="logical" name="LSCAAWARE"> F  </i>
   <i type="logical" name="LSCALU"> F  </i>
   <i type="logical" name="LASYNC"> F  </i>
   <i type="logical" name="LORBITALREAL"> F  </i>
  </separator>
  <separator name="miscellaneous" >
   <i type="int" name="IDIOT">     3</i>
   <i type="int" name="ISPECIAL">     0</i>
   <i type="logical" name="LMUSIC"> F  </i>
   <v name="POMASS">     91.22400000     92.91000000     47.88000000     14.00100000     12.01100000     51.99600000     50.94100000</v>
   <v name="DARWINR">      0.00000000      0.00000000      0.00000000      0.00000000      0.00000000      0.00000000      0.00000000</v>
   <v name="DARWINV">      1.00000000      1.00000000      1.00000000      1.00000000      1.00000000      1.00000000      1.00000000</v>
   <i type="logical" name="LCORR"> T  </i>
  </separator>
  <i type="logical" name="GGA_COMPAT"> T  </i>
  <i type="logical" name="LBERRY"> F  </i>
  <i type="int" name="ICORELEVEL">     0</i>
  <i type="logical" name="LDAU"> F  </i>
  <i type="int" name="I_CONSTRAINED_M">     0</i>
  <separator name="electronic exchange-correlation" >
   <i type="string" name="GGA">--</i>
   <i type="int" name="VOSKOWN">     0</i>
   <i type="logical" name="LHFCALC"> F  </i>
   <i type="string" name="PRECFOCK"></i>
   <i type="logical" name="LSYMGRAD"> F  </i>
   <i type="logical" name="LHFONE"> F  </i>
   <i type="logical" name="LRHFCALC"> F  </i>
   <i type="logical" name="LTHOMAS"> F  </i>
   <i type="logical" name="LMODELHF"> F  </i>
   <i name="ENCUT4O">     -1.00000000</i>
   <i type="int" name="EXXOEP">     0</i>
   <i type="int" name="FOURORBIT">     0</i>
   <i name="AEXX">      0.00000000</i>
   <i name="HFALPHA">      0.00000000</i>
   <i name="MCALPHA">      0.00000000</i>
   <i name="ALDAX">      1.00000000</i>
   <i name="AGGAX">      1.00000000</i>
   <i name="ALDAC">      1.00000000</i>
   <i name="AGGAC">      1.00000000</i>
   <i type="int" name="NKREDX">     1</i>
   <i type="int" name="NKREDY">     1</i>
   <i type="int" name="NKREDZ">     1</i>
   <i type="logical" name="SHIFTRED"> F  </i>
   <i type="logical" name="ODDONLY"> F  </i>
   <i type="logical" name="EVENONLY"> F  </i>
   <i type="int" name="LMAXFOCK">     0</i>
   <i type="int" name="NMAXFOCKAE">     0</i>
   <i type="logical" name="LFOCKAEDFT"> F  </i>
   <i name="HFSCREEN">      0.00000000</i>
   <i name="HFSCREENC">      0.00000000</i>
   <i type="int" name="NBANDSGWLOW">     0</i>
  </separator>
  <separator name="vdW DFT" >
   <i type="logical" name="LUSE_VDW"> F  </i>
   <i name="Zab_VDW">     -0.84910000</i>
   <i name="PARAM1">      0.12340000</i>
   <i name="PARAM2">      1.00000000</i>
   <i name="PARAM3">      0.00000000</i>
  </separator>
  <separator name="model GW" >
   <i type="int" name="MODEL_GW">     0</i>
   <i name="MODEL_EPS0">      6.77734242</i>
   <i name="MODEL_ALPHA">      1.00000000</i>
  </separator>
  <separator name="linear response parameters" >
   <i type="logical" name="LEPSILON"> F  </i>
   <i type="logical" name="LRPA"> F  </i>
   <i type="logical" name="LNABLA"> F  </i>
   <i type="logical" name="LVEL"> F  </i>
   <i type="int" name="KINTER">     0</i>
   <i name="CSHIFT">      0.10000000</i>
   <i name="OMEGAMAX">     -1.00000000</i>
   <i name="DEG_THRESHOLD">      0.00200000</i>
   <i name="RTIME">     -0.10000000</i>
   <i name="WPLASMAI">      0.00000000</i>
   <v name="DFIELD">      0.00000000      0.00000000      0.00000000</v>
   <v name="WPLASMA">      0.00000000      0.00000000      0.00000000      0.00000000      0.00000000      0.00000000      0.00000000      0.00000000      0.00000000</v>
  </separator>
  <separator name="orbital magnetization" >
   <i type="logical" name="NUCIND"> F  </i>
   <v name="MAGPOS">      0.00000000      0.00000000      0.00000000</v>
   <i type="logical" name="LNICSALL"> T  </i>
   <i type="logical" name="ORBITALMAG"> F  </i>
   <i type="logical" name="LMAGBLOCH"> F  </i>
   <i type="logical" name="LCHIMAG"> F  </i>
   <i type="logical" name="LGAUGE"> T  </i>
   <i type="int" name="MAGATOM">     0</i>
   <v name="MAGDIPOL">      0.00000000      0.00000000      0.00000000</v>
   <v name="AVECCONST">      0.00000000      0.00000000      0.00000000</v>
  </separator>
  <separator name="response functions" >
   <i type="logical" name="LADDER"> F  </i>
   <i type="logical" name="LRPAFORCE"> F  </i>
   <i type="logical" name="LFXC"> F  </i>
   <i type="logical" name="LHARTREE"> T  </i>
   <i type="int" name="IBSE">     0</i>
   <v type="int" name="KPOINT">    -1     0     0     0</v>
   <i type="logical" name="LTCTE"> F  </i>
   <i type="logical" name="LTETE"> F  </i>
   <i type="logical" name="LTRIPLET"> F  </i>
   <i type="logical" name="LFXCEPS"> F  </i>
   <i type="logical" name="LFXHEG"> F  </i>
   <i type="int" name="NATURALO">     2</i>
   <i type="logical" name="L2ORDER"> F  </i>
   <i type="logical" name="LMP2LT"> F  </i>
   <i type="logical" name="LUSEW"> F  </i>
   <i name="ENCUTGW">     -2.00000000</i>
   <i name="ENCUTGWSOFT">     -2.00000000</i>
   <i name="ENCUTLF">     -1.00000000</i>
   <i type="int" name="LMAXMP2">    -1</i>
   <i name="SCISSOR">      0.00000000</i>
   <i type="int" name="NOMEGA">     0</i>
   <i type="int" name="NOMEGAR">     0</i>
   <i type="int" name="NBANDSGW">    -1</i>
   <i type="int" name="NBANDSO">    -1</i>
   <i type="int" name="NBANDSV">    -1</i>
   <i type="int" name="NELM">    60</i>
   <i type="int" name="NELMHF">     1</i>
   <i type="int" name="DIM">     3</i>
   <i type="int" name="ANTIRES">     0</i>
   <i name="OMEGAMAX">    -30.00000000</i>
   <i name="OMEGAMIN">    -30.00000000</i>
   <i name="OMEGATL">   -200.00000000</i>
   <i type="int" name="OMEGAGRID">   140</i>
   <i name="CSHIFT">     -0.10000000</i>
   <i type="logical" name="SELFENERGY"> F  </i>
   <i type="logical" name="LSPECTRAL"> F  </i>
   <i type="logical" name="LSPECTRALGW"> F  </i>
   <i type="logical" name="LSINGLES"> F  </i>
   <i type="logical" name="LFERMIGW"> F  </i>
   <i type="logical" name="ODDONLYGW"> F  </i>
   <i type="logical" name="EVENONLYGW"> F  </i>
   <i type="int" name="NKREDLFX">     1</i>
   <i type="int" name="NKREDLFY">     1</i>
   <i type="int" name="NKREDLFZ">     1</i>
   <i type="int" name="MAXMEM">  2800</i>
   <i type="int" name="TELESCOPE">     0</i>
   <i type="int" name="TAUPAR">     1</i>
   <i type="int" name="OMEGAPAR">    -1</i>
   <i name="LAMBDA">      1.00000000</i>
  </separator>
  <separator name="External order field" >
   <i name="OFIELD_KAPPA">      0.00000000</i>
   <v name="OFIELD_K">      0.00000000      0.00000000      0.00000000</v>
   <i name="OFIELD_Q6_NEAR">      0.00000000</i>
   <i name="OFIELD_Q6_FAR">      0.00000000</i>
   <i name="OFIELD_A">      0.00000000</i>
  </separator>
 </parameters>
 <atominfo>
  <atoms>      64 </atoms>
  <types>       7 </types>
  <array name="atoms" >
   <dimension dim="1">ion</dimension>
   <field type="string">element</field>
   <field type="int">atomtype</field>
   <set>
    <rc><c>Zr</c><c>   1</c></rc>
    <rc><c>Zr</c><c>   1</c></rc>
    <rc><c>Zr</c><c>   1</c></rc>
    <rc><c>Zr</c><c>   1</c></rc>
    <rc><c>Zr</c><c>   1</c></rc>
    <rc><c>Zr</c><c>   1</c></rc>
    <rc><c>Zr</c><c>   1</c></rc>
    <rc><c>Nb</c><c>   2</c></rc>
    <rc><c>Nb</c><c>   2</c></rc>
    <rc><c>Nb</c><c>   2</c></rc>
    <rc><c>Nb</c><c>   2</c></rc>
    <rc><c>Nb</c><c>   2</c></rc>
    <rc><c>Nb</c><c>   2</c></rc>
    <rc><c>Ti</c><c>   3</c></rc>
    <rc><c>Ti</c><c>   3</c></rc>
    <rc><c>Ti</c><c>   3</c></rc>
    <rc><c>Ti</c><c>   3</c></rc>
    <rc><c>Ti</c><c>   3</c></rc>
    <rc><c>Ti</c><c>   3</c></rc>
    <rc><c>Ti</c><c>   3</c></rc>
    <rc><c>N </c><c>   4</c></rc>
    <rc><c>N </c><c>   4</c></rc>
    <rc><c>N </c><c>   4</c></rc>
    <rc><c>N </c><c>   4</c></rc>
    <rc><c>N </c><c>   4</c></rc>
    <rc><c>N </c><c>   4</c></rc>
    <rc><c>N </c><c>   4</c></rc>
    <rc><c>N </c><c>   4</c></rc>
    <rc><c>N </c><c>   4</c></rc>
    <rc><c>N </c><c>   4</c></rc>
    <rc><c>N </c><c>   4</c></rc>
    <rc><c>N </c><c>   4</c></rc>
    <rc><c>N </c><c>   4</c></rc>
    <rc><c>C </c><c>   5</c></rc>
    <rc><c>C </c><c>   5</c></rc>
    <rc><c>C </c><c>   5</c></rc>
    <rc><c>C </c><c>   5</c></rc>
    <rc><c>C </c><c>   5</c></rc>
    <rc><c>C </c><c>   5</c></rc>
    <rc><c>C </c><c>   5</c></rc>
    <rc><c>C </c><c>   5</c></rc>
    <rc><c>C </c><c>   5</c></rc>
    <rc><c>C </c><c>   5</c></rc>
    <rc><c>C </c><c>   5</c></rc>
    <rc><c>C </c><c>   5</c></rc>
    <rc><c>C </c><c>   5</c></rc>
    <rc><c>C </c><c>   5</c></rc>
    <rc><c>C </c><c>   5</c></rc>
    <rc><c>C </c><c>   5</c></rc>
    <rc><c>C </c><c>   5</c></rc>
    <rc><c>C </c><c>   5</c></rc>
    <rc><c>C </c><c>   5</c></rc>
    <rc><c>Cr</c><c>   6</c></rc>
    <rc><c>Cr</c><c>   6</c></rc>
    <rc><c>Cr</c><c>   6</c></rc>
    <rc><c>Cr</c><c>   6</c></rc>
    <rc><c>Cr</c><c>   6</c></rc>
    <rc><c>Cr</c><c>   6</c></rc>
    <rc><c>V </c><c>   7</c></rc>
    <rc><c>V </c><c>   7</c></rc>
    <rc><c>V </c><c>   7</c></rc>
    <rc><c>V </c><c>   7</c></rc>
    <rc><c>V </c><c>   7</c></rc>
    <rc><c>V </c><c>   7</c></rc>
   </set>
  </array>
  <array name="atomtypes" >
   <dimension dim="1">type</dimension>
   <field type="int">atomspertype</field>
   <field type="string">element</field>
   <field>mass</field>
   <field>valence</field>
   <field type="string">pseudopotential</field>
   <set>
    <rc><c>   7</c><c>Zr</c><c>     91.22400000</c><c>     12.00000000</c><c> PAW_PBE Zr_sv 07Sep2000                </c></rc>
    <rc><c>   6</c><c>Nb</c><c>     92.91000000</c><c>     13.00000000</c><c> PAW_PBE Nb_sv 17Jan2003                </c></rc>
    <rc><c>   7</c><c>Ti</c><c>     47.88000000</c><c>     12.00000000</c><c> PAW_PBE Ti_sv 07Sep2000                </c></rc>
    <rc><c>  13</c><c>N </c><c>     14.00100000</c><c>      5.00000000</c><c> PAW_PBE N 08Apr2002                    </c></rc>
    <rc><c>  19</c><c>C </c><c>     12.01100000</c><c>      4.00000000</c><c> PAW_PBE C 08Apr2002                    </c></rc>
    <rc><c>   6</c><c>Cr</c><c>     51.99600000</c><c>     12.00000000</c><c> PAW_PBE Cr_pv 07Sep2000                </c></rc>
    <rc><c>   6</c><c>V </c><c>     50.94100000</c><c>     13.00000000</c><c> PAW_PBE V_sv 07Sep2000                 </c></rc>
   </set>
  </array>
 </atominfo>
 <structure name="initialpos" >
  <crystal>
   <varray name="basis" >
    <v>       8.93249989       0.00000000       0.00000000 </v>
    <v>       0.00575300       9.05559834       0.00000000 </v>
    <v>       0.03210180      -0.01574346       8.93712807 </v>
   </varray>
   <i name="volume">    722.91652451 </i>
   <varray name="rec_basis" >
    <v>       0.11195074      -0.00007112      -0.00040225 </v>
    <v>       0.00000000       0.11042893       0.00019453 </v>
    <v>       0.00000000       0.00000000       0.11189277 </v>
   </varray>
  </crystal>
  <varray name="positions" >
   <v>       0.99688001       0.99204997       0.99924002 </v>
   <v>       0.25398003       0.99714995       0.24912000 </v>
   <v>       0.24803003       0.50165000       0.24955001 </v>
   <v>       0.50501006       0.49745998       0.99834003 </v>
   <v>       0.50479003       0.24631001       0.74710002 </v>
   <v>       0.99427992       0.50449999       0.49779000 </v>
   <v>       0.49950005       0.75481999       0.74817004 </v>
   <v>       0.99437004       0.23617001       0.26379999 </v>
   <v>       0.75718000       0.74102998       0.01100000 </v>
   <v>       0.00201000       0.25541000       0.73894001 </v>
   <v>       0.75307001       0.26163001       0.50533002 </v>
   <v>       0.99514004       0.74492004       0.74511997 </v>
   <v>       0.25679999       0.49462002       0.74545002 </v>
   <v>       0.24788999       0.24839000       0.99657997 </v>
   <v>       0.50833000       0.25676999       0.25376001 </v>
   <v>       0.74879004       0.98787999       0.26967001 </v>
   <v>       0.75719000       0.25603001       0.99591997 </v>
   <v>       0.24762001       0.74973999       0.99974006 </v>
   <v>       0.25272001       0.24823001       0.50015003 </v>
   <v>       0.24457999       0.75048999       0.49983999 </v>
   <v>       0.24982001       0.24942998       0.24825000 </v>
   <v>       0.26146999       0.99984002       0.99295996 </v>
   <v>       0.00281000       0.25024000       0.00130000 </v>
   <v>       0.75313998       0.24617000       0.25492002 </v>
   <v>       0.74767001       0.99748000       0.01202000 </v>
   <v>       0.50714994       0.99977000       0.24673000 </v>
   <v>       0.99051999       0.48088002       0.24100998 </v>
   <v>       0.50519005       0.76130999       0.00855000 </v>
   <v>       0.98896989       0.00202000       0.73708999 </v>
   <v>       0.75744996       0.24437997       0.74896999 </v>
   <v>       0.73632001       0.00417000       0.51063000 </v>
   <v>       0.50563996       0.23264999       0.49544997 </v>
   <v>       0.50008998       0.00061000       0.73471998 </v>
   <v>       0.99720000       0.99771992       0.25899999 </v>
   <v>       0.50427997       0.24673000       0.00262000 </v>
   <v>       0.25133999       0.74958002       0.24910999 </v>
   <v>       0.24328000       0.50072997       0.99510994 </v>
   <v>       0.99837005       0.74313996       0.00460000 </v>
   <v>       0.75633000       0.73891003       0.25767000 </v>
   <v>       0.75839004       0.50315998       0.00288000 </v>
   <v>       0.50700002       0.50333002       0.25878999 </v>
   <v>       0.24900999       0.25315000       0.74854000 </v>
   <v>       0.24446000       0.99823996       0.50287998 </v>
   <v>       0.99804009       0.24229999       0.50128003 </v>
   <v>       0.24177002       0.75340997       0.75018002 </v>
   <v>       0.25841001       0.50062002       0.50129001 </v>
   <v>       0.99000004       0.76215003       0.49746000 </v>
   <v>       0.99203996       0.50055999       0.75138002 </v>
   <v>       0.75036005       0.74888000       0.74756004 </v>
   <v>       0.74036002       0.50197000       0.50067003 </v>
   <v>       0.50575006       0.74958002       0.49720000 </v>
   <v>       0.50501003       0.50217998       0.73912003 </v>
   <v>       0.51588997       0.01358000       0.98075008 </v>
   <v>       0.99841994       0.50976998       0.98613004 </v>
   <v>       0.50379003       0.73926997       0.25905001 </v>
   <v>       0.23780002       0.01082000       0.74607998 </v>
   <v>       0.47957999       0.98308000       0.49717999 </v>
   <v>       0.74279003       0.97869994       0.76450995 </v>
   <v>       0.99864998       0.77573999       0.26102000 </v>
   <v>       0.73551001       0.51468004       0.26666001 </v>
   <v>       0.02362000       0.99783001       0.49557002 </v>
   <v>       0.50539000       0.52833005       0.49917999 </v>
   <v>       0.73876003       0.52828003       0.73814999 </v>
   <v>       0.75400003       0.72937999       0.49116997 </v>
  </varray>
 </structure>
 <calculation>
  <scstep>
   <time name="dav">   23.94   24.03</time>
   <time name="total">   23.98   24.07</time>
   <energy>
    <i name="alphaZ">   4031.94149700 </i>
    <i name="ewald"> -46518.45018613 </i>
    <i name="hartreedc"> -11412.24084415 </i>
    <i name="XCdc">   2407.61459833 </i>
    <i name="pawpsdc">  37157.26319689 </i>
    <i name="pawaedc"> -37199.40268305 </i>
    <i name="eentropy">     -0.09765002 </i>
    <i name="bandstr">   1897.36162102 </i>
    <i name="atom">  57254.16407068 </i>
    <i name="e_fr_energy">   7618.15362058 </i>
    <i name="e_wo_entrp">   7618.25127060 </i>
    <i name="e_0_energy">   7618.20244559 </i>
   </energy>
  </scstep>
  <scstep>
   <time name="dav">   24.20   24.23</time>
   <time name="total">   24.20   24.24</time>
   <energy>
    <i name="e_fr_energy">    601.60845291 </i>
    <i name="e_wo_entrp">    601.74947720 </i>
    <i name="e_0_energy">    601.67896506 </i>
   </energy>
  </scstep>
  <scstep>
   <time name="dav">   36.09   36.20</time>
   <time name="total">   36.09   36.21</time>
   <energy>
    <i name="e_fr_energy">   -594.20969352 </i>
    <i name="e_wo_entrp">   -594.10850426 </i>
    <i name="e_0_energy">   -594.15909889 </i>
   </energy>
  </scstep>
  <scstep>
   <time name="dav">   39.01   39.04</time>
   <time name="total">   39.01   39.04</time>
   <energy>
    <i name="e_fr_energy">   -763.53932832 </i>
    <i name="e_wo_entrp">   -763.43770482 </i>
    <i name="e_0_energy">   -763.48851657 </i>
   </energy>
  </scstep>
  <scstep>
   <time name="dav">   43.41   43.45</time>
   <time name="total">   43.70   43.73</time>
   <energy>
    <i name="e_fr_energy">   -785.02370798 </i>
    <i name="e_wo_entrp">   -784.92083127 </i>
    <i name="e_0_energy">   -784.97226963 </i>
   </energy>
  </scstep>
  <scstep>
   <time name="diag">    2.04    2.04</time>
   <time name="diis">   21.77   21.82</time>
   <time name="orth">    0.51    0.51</time>
   <time name="total">   24.61   24.67</time>
   <energy>
    <i name="e_fr_energy">   -915.89895186 </i>
    <i name="e_wo_entrp">   -915.64559296 </i>
    <i name="e_0_energy">   -915.77227241 </i>
   </energy>
  </scstep>
  <scstep>
   <time name="diag">    2.03    2.03</time>
   <time name="diis">   24.66   24.74</time>
   <time name="orth">    0.51    0.51</time>
   <time name="total">   27.50   27.58</time>
   <energy>
    <i name="e_fr_energy">   -638.40334287 </i>
    <i name="e_wo_entrp">   -638.22141345 </i>
    <i name="e_0_energy">   -638.31237816 </i>
   </energy>
  </scstep>
  <scstep>
   <time name="diag">    2.03    2.03</time>
   <time name="diis">   24.33   24.35</time>
   <time name="orth">    0.50    0.51</time>
   <time name="total">   27.17   27.24</time>
   <energy>
    <i name="e_fr_energy">   -628.78278434 </i>
    <i name="e_wo_entrp">   -628.63496656 </i>
    <i name="e_0_energy">   -628.70887545 </i>
   </energy>
  </scstep>
  <scstep>
   <time name="diag">    2.10    2.13</time>
   <time name="diis">   25.23   25.24</time>
   <time name="orth">    0.50    0.50</time>
   <time name="total">   28.13   28.18</time>
   <energy>
    <i name="e_fr_energy">   -616.50394102 </i>
    <i name="e_wo_entrp">   -616.36593681 </i>
    <i name="e_0_energy">   -616.43493892 </i>
   </energy>
  </scstep>
  <scstep>
   <time name="diag">    2.06    2.06</time>
   <time name="diis">   25.61   25.66</time>
   <time name="orth">    0.50    0.50</time>
   <time name="total">   28.46   28.52</time>
   <energy>
    <i name="e_fr_energy">   -617.03846683 </i>
    <i name="e_wo_entrp">   -616.88764760 </i>
    <i name="e_0_energy">   -616.96305721 </i>
   </energy>
  </scstep>
  <scstep>
   <time name="diag">    2.03    2.03</time>
   <time name="diis">   24.87   25.02</time>
   <time name="orth">    0.50    0.50</time>
   <time name="total">   27.70   27.85</time>
   <energy>
    <i name="e_fr_energy">   -615.38279755 </i>
    <i name="e_wo_entrp">   -615.21746655 </i>
    <i name="e_0_energy">   -615.30013205 </i>
   </energy>
  </scstep>
  <scstep>
   <time name="diag">    2.04    2.05</time>
   <time name="diis">   25.14   25.18</time>
   <time name="orth">    0.50    0.50</time>
   <time name="total">   27.98   28.02</time>
   <energy>
    <i name="e_fr_energy">   -615.54250398 </i>
    <i name="e_wo_entrp">   -615.37148563 </i>
    <i name="e_0_energy">   -615.45699481 </i>
   </energy>
  </scstep>
  <scstep>
   <time name="diag">    2.03    2.03</time>
   <time name="diis">   24.67   24.74</time>
   <time name="orth">    0.50    0.50</time>
   <time name="total">   27.49   27.57</time>
   <energy>
    <i name="e_fr_energy">   -614.82971927 </i>
    <i name="e_wo_entrp">   -614.66240828 </i>
    <i name="e_0_energy">   -614.74606377 </i>
   </energy>
  </scstep>
  <scstep>
   <time name="diag">    2.02    2.03</time>
   <time name="diis">   24.79   24.90</time>
   <time name="orth">    0.50    0.50</time>
   <time name="total">   27.60   27.72</time>
   <energy>
    <i name="e_fr_energy">   -615.19658313 </i>
    <i name="e_wo_entrp">   -615.01703110 </i>
    <i name="e_0_energy">   -615.10680711 </i>
   </energy>
  </scstep>
  <scstep>
   <time name="diag">    2.03    2.03</time>
   <time name="diis">   23.92   23.98</time>
   <time name="orth">    0.50    0.50</time>
   <time name="total">   26.77   26.83</time>
   <energy>
    <i name="e_fr_energy">   -614.53398372 </i>
    <i name="e_wo_entrp">   -614.36350251 </i>
    <i name="e_0_energy">   -614.44874311 </i>
   </energy>
  </scstep>
  <scstep>
   <time name="diag">    2.05    2.06</time>
   <time name="diis">   24.51   24.53</time>
   <time name="orth">    0.50    0.50</time>
   <time name="total">   27.36   27.39</time>
   <energy>
    <i name="e_fr_energy">   -614.59127037 </i>
    <i name="e_wo_entrp">   -614.40812703 </i>
    <i name="e_0_energy">   -614.49969870 </i>
   </energy>
  </scstep>
  <scstep>
   <time name="diag">    2.03    2.03</time>
   <time name="diis">   23.53   23.56</time>
   <time name="orth">    0.50    0.50</time>
   <time name="total">   26.36   26.39</time>
   <energy>
    <i name="e_fr_energy">   -614.83327678 </i>
    <i name="e_wo_entrp">   -614.65913643 </i>
    <i name="e_0_energy">   -614.74620661 </i>
   </energy>
  </scstep>
  <scstep>
   <time name="diag">    2.04    2.04</time>
   <time name="diis">   24.28   24.30</time>
   <time name="orth">    0.50    0.50</time>
   <time name="total">   27.12   27.14</time>
   <energy>
    <i name="e_fr_energy">   -614.49061322 </i>
    <i name="e_wo_entrp">   -614.31774760 </i>
    <i name="e_0_energy">   -614.40418041 </i>
   </energy>
  </scstep>
  <scstep>
   <time name="diag">    2.03    2.03</time>
   <time name="diis">   25.11   25.17</time>
   <time name="orth">    0.49    0.49</time>
   <time name="total">   27.93   27.99</time>
   <energy>
    <i name="e_fr_energy">   -614.42480752 </i>
    <i name="e_wo_entrp">   -614.24717603 </i>
    <i name="e_0_energy">   -614.33599178 </i>
   </energy>
  </scstep>
  <scstep>
   <time name="diag">    2.11    2.12</time>
   <time name="diis">   25.40   25.43</time>
   <time name="orth">    0.50    0.50</time>
   <time name="total">   28.31   28.36</time>
   <energy>
    <i name="e_fr_energy">   -614.43863439 </i>
    <i name="e_wo_entrp">   -614.26257879 </i>
    <i name="e_0_energy">   -614.35060659 </i>
   </energy>
  </scstep>
  <scstep>
   <time name="diag">    2.03    2.03</time>
   <time name="diis">   23.89   23.91</time>
   <time name="orth">    0.49    0.49</time>
   <time name="total">   26.72   26.74</time>
   <energy>
    <i name="e_fr_energy">   -614.41841309 </i>
    <i name="e_wo_entrp">   -614.24208450 </i>
    <i name="e_0_energy">   -614.33024879 </i>
   </energy>
  </scstep>
  <scstep>
   <time name="diag">    2.04    2.04</time>
   <time name="diis">   25.45   25.47</time>
   <time name="orth">    0.50    0.50</time>
   <time name="total">   28.29   28.32</time>
   <energy>
    <i name="e_fr_energy">   -614.42223344 </i>
    <i name="e_wo_entrp">   -614.24681630 </i>
    <i name="e_0_energy">   -614.33452487 </i>
   </energy>
  </scstep>
  <scstep>
   <time name="diag">    2.03    2.03</time>
   <time name="diis">   24.35   24.38</time>
   <time name="orth">    0.50    0.50</time>
   <time name="total">   27.18   27.21</time>
   <energy>
    <i name="e_fr_energy">   -614.41334698 </i>
    <i name="e_wo_entrp">   -614.23669878 </i>
    <i name="e_0_energy">   -614.32502288 </i>
   </energy>
  </scstep>
  <scstep>
   <time name="diag">    2.04    2.04</time>
   <time name="diis">   23.97   24.08</time>
   <time name="orth">    0.50    0.50</time>
   <time name="total">   26.82   26.93</time>
   <energy>
    <i name="e_fr_energy">   -614.41302802 </i>
    <i name="e_wo_entrp">   -614.23558190 </i>
    <i name="e_0_energy">   -614.32430496 </i>
   </energy>
  </scstep>
  <scstep>
   <time name="diag">    2.04    2.04</time>
   <time name="diis">   23.66   23.76</time>
   <time name="orth">    0.52    0.53</time>
   <time name="total">   26.53   26.63</time>
   <energy>
    <i name="e_fr_energy">   -614.41491679 </i>
    <i name="e_wo_entrp">   -614.23750298 </i>
    <i name="e_0_energy">   -614.32620989 </i>
   </energy>
  </scstep>
  <scstep>
   <time name="diag">    2.04    2.04</time>
   <time name="diis">   23.48   23.56</time>
   <time name="orth">    0.50    0.50</time>
   <time name="total">   26.32   26.40</time>
   <energy>
    <i name="e_fr_energy">   -614.41584268 </i>
    <i name="e_wo_entrp">   -614.23858745 </i>
    <i name="e_0_energy">   -614.32721506 </i>
   </energy>
  </scstep>
  <scstep>
   <time name="diag">    2.07    2.08</time>
   <time name="diis">   23.63   23.64</time>
   <time name="orth">    0.50    0.50</time>
   <time name="total">   26.49   26.52</time>
   <energy>
    <i name="e_fr_energy">   -614.41651977 </i>
    <i name="e_wo_entrp">   -614.23946468 </i>
    <i name="e_0_energy">   -614.32799222 </i>
   </energy>
  </scstep>
  <scstep>
   <time name="diag">    2.04    2.04</time>
   <time name="diis">   22.39   22.41</time>
   <time name="orth">    0.50    0.50</time>
   <time name="total">   25.23   25.25</time>
   <energy>
    <i name="e_fr_energy">   -614.41701535 </i>
    <i name="e_wo_entrp">   -614.23987685 </i>
    <i name="e_0_energy">   -614.32844610 </i>
   </energy>
  </scstep>
  <scstep>
   <time name="diag">    2.03    2.03</time>
   <time name="diis">   22.03   22.16</time>
   <time name="orth">    0.50    0.50</time>
   <time name="total">   24.86   24.99</time>
   <energy>
    <i name="e_fr_energy">   -614.41736211 </i>
    <i name="e_wo_entrp">   -614.24018727 </i>
    <i name="e_0_energy">   -614.32877469 </i>
   </energy>
  </scstep>
  <scstep>
   <time name="diag">    2.04    2.04</time>
   <time name="diis">   21.16   21.20</time>
   <time name="orth">    0.50    0.50</time>
   <time name="total">   23.99   24.04</time>
   <energy>
    <i name="e_fr_energy">   -614.41757449 </i>
    <i name="e_wo_entrp">   -614.24050502 </i>
    <i name="e_0_energy">   -614.32903975 </i>
   </energy>
  </scstep>
  <scstep>
   <time name="diag">    2.03    2.03</time>
   <time name="diis">   20.04   20.13</time>
   <time name="orth">    0.50    0.50</time>
   <time name="total">   22.85   22.95</time>
   <energy>
    <i name="e_fr_energy">   -614.41774335 </i>
    <i name="e_wo_entrp">   -614.24065514 </i>
    <i name="e_0_energy">   -614.32919925 </i>
   </energy>
  </scstep>
  <scstep>
   <time name="diag">    2.04    2.04</time>
   <time name="diis">   19.80   19.85</time>
   <time name="orth">    0.50    0.50</time>
   <time name="total">   22.63   22.69</time>
   <energy>
    <i name="e_fr_energy">   -614.41786583 </i>
    <i name="e_wo_entrp">   -614.24072946 </i>
    <i name="e_0_energy">   -614.32929764 </i>
   </energy>
  </scstep>
  <scstep>
   <time name="diag">    2.04    2.05</time>
   <time name="diis">   19.63   19.77</time>
   <time name="orth">    0.51    0.51</time>
   <time name="total">   22.49   22.65</time>
   <energy>
    <i name="e_fr_energy">   -614.41794755 </i>
    <i name="e_wo_entrp">   -614.24082479 </i>
    <i name="e_0_energy">   -614.32938617 </i>
   </energy>
  </scstep>
  <scstep>
   <time name="diag">    2.07    2.10</time>
   <time name="diis">   19.06   19.09</time>
   <time name="orth">    0.50    0.50</time>
   <time name="total">   21.93   21.99</time>
   <energy>
    <i name="e_fr_energy">   -614.41800267 </i>
    <i name="e_wo_entrp">   -614.24088989 </i>
    <i name="e_0_energy">   -614.32944628 </i>
   </energy>
  </scstep>
  <scstep>
   <time name="diag">    2.04    2.04</time>
   <time name="diis">   18.90   18.94</time>
   <time name="orth">    0.50    0.50</time>
   <time name="total">   21.74   21.79</time>
   <energy>
    <i name="e_fr_energy">   -614.41804472 </i>
    <i name="e_wo_entrp">   -614.24093284 </i>
    <i name="e_0_energy">   -614.32948878 </i>
   </energy>
  </scstep>
  <scstep>
   <time name="diag">    2.06    2.06</time>
   <time name="diis">   18.52   18.53</time>
   <time name="orth">    0.50    0.50</time>
   <time name="total">   21.38   21.39</time>
   <energy>
    <i name="e_fr_energy">   -614.41807349 </i>
    <i name="e_wo_entrp">   -614.24096478 </i>
    <i name="e_0_energy">   -614.32951914 </i>
   </energy>
  </scstep>
  <scstep>
   <time name="diag">    2.03    2.03</time>
   <time name="diis">   18.39   18.41</time>
   <time name="orth">    0.49    0.49</time>
   <time name="total">   21.22   21.24</time>
   <energy>
    <i name="e_fr_energy">   -614.41809415 </i>
    <i name="e_wo_entrp">   -614.24098492 </i>
    <i name="e_0_energy">   -614.32953954 </i>
   </energy>
  </scstep>
  <scstep>
   <time name="diag">    2.04    2.04</time>
   <time name="diis">   17.68   17.70</time>
   <time name="orth">    0.50    0.50</time>
   <time name="total">   20.53   20.55</time>
   <energy>
    <i name="e_fr_energy">   -614.41810892 </i>
    <i name="e_wo_entrp">   -614.24099686 </i>
    <i name="e_0_energy">   -614.32955289 </i>
   </energy>
  </scstep>
  <scstep>
   <time name="diag">    2.04    2.04</time>
   <time name="diis">   17.25   17.27</time>
   <time name="orth">    0.50    0.50</time>
   <time name="total">   20.10   20.15</time>
   <energy>
    <i name="e_fr_energy">   -614.41811873 </i>
    <i name="e_wo_entrp">   -614.24100387 </i>
    <i name="e_0_energy">   -614.32956130 </i>
   </energy>
  </scstep>
  <scstep>
   <time name="diag">    2.07    2.10</time>
   <time name="diis">   16.65   16.72</time>
   <time name="orth">    0.51    0.52</time>
   <time name="total">   19.26   19.38</time>
   <energy>
    <i name="alphaZ">   4031.94149700 </i>
    <i name="ewald"> -46518.45018613 </i>
    <i name="hartreedc"> -10622.06036720 </i>
    <i name="XCdc">   2383.13042415 </i>
    <i name="pawpsdc">  37514.80188170 </i>
    <i name="pawaedc"> -37574.93788983 </i>
    <i name="eentropy">     -0.17711407 </i>
    <i name="bandstr">  -7082.83044143 </i>
    <i name="atom">  57254.16407068 </i>
    <i name="e_fr_energy">   -614.41812512 </i>
    <i name="e_wo_entrp">   -614.24101105 </i>
    <i name="e_0_energy">   -614.32956809 </i>
   </energy>
  </scstep>
  <structure>
   <crystal>
    <varray name="basis" >
     <v>       8.93249989       0.00000000       0.00000000 </v>
     <v>       0.00575300       9.05559834       0.00000000 </v>
     <v>       0.03210180      -0.01574346       8.93712807 </v>
    </varray>
    <i name="volume">    722.91652451 </i>
    <varray name="rec_basis" >
     <v>       0.11195074      -0.00007112      -0.00040225 </v>
     <v>       0.00000000       0.11042893       0.00019453 </v>
     <v>       0.00000000       0.00000000       0.11189277 </v>
    </varray>
   </crystal>
   <varray name="positions" >
    <v>       0.99688001       0.99204997       0.99924002 </v>
    <v>       0.25398003       0.99714995       0.24912000 </v>
    <v>       0.24803003       0.50165000       0.24955001 </v>
    <v>       0.50501006       0.49745998       0.99834003 </v>
    <v>       0.50479003       0.24631001       0.74710002 </v>
    <v>       0.99427992       0.50449999       0.49779000 </v>
    <v>       0.49950005       0.75481999       0.74817004 </v>
    <v>       0.99437004       0.23617001       0.26379999 </v>
    <v>       0.75718000       0.74102998       0.01100000 </v>
    <v>       0.00201000       0.25541000       0.73894001 </v>
    <v>       0.75307001       0.26163001       0.50533002 </v>
    <v>       0.99514004       0.74492004       0.74511997 </v>
    <v>       0.25679999       0.49462002       0.74545002 </v>
    <v>       0.24788999       0.24839000       0.99657997 </v>
    <v>       0.50833000       0.25676999       0.25376001 </v>
    <v>       0.74879004       0.98787999       0.26967001 </v>
    <v>       0.75719000       0.25603001       0.99591997 </v>
    <v>       0.24762001       0.74973999       0.99974006 </v>
    <v>       0.25272001       0.24823001       0.50015003 </v>
    <v>       0.24457999       0.75048999       0.49983999 </v>
    <v>       0.24982001       0.24942998       0.24825000 </v>
    <v>       0.26146999       0.99984002       0.99295996 </v>
    <v>       0.00281000       0.25024000       0.00130000 </v>
    <v>       0.75313998       0.24617000       0.25492002 </v>
    <v>       0.74767001       0.99748000       0.01202000 </v>
    <v>       0.50714994       0.99977000       0.24673000 </v>
    <v>       0.99051999       0.48088002       0.24100998 </v>
    <v>       0.50519005       0.76130999       0.00855000 </v>
    <v>       0.98896989       0.00202000       0.73708999 </v>
    <v>       0.75744996       0.24437997       0.74896999 </v>
    <v>       0.73632001       0.00417000       0.51063000 </v>
    <v>       0.50563996       0.23264999       0.49544997 </v>
    <v>       0.50008998       0.00061000       0.73471998 </v>
    <v>       0.99720000       0.99771992       0.25899999 </v>
    <v>       0.50427997       0.24673000       0.00262000 </v>
    <v>       0.25133999       0.74958002       0.24910999 </v>
    <v>       0.24328000       0.50072997       0.99510994 </v>
    <v>       0.99837005       0.74313996       0.00460000 </v>
    <v>       0.75633000       0.73891003       0.25767000 </v>
    <v>       0.75839004       0.50315998       0.00288000 </v>
    <v>       0.50700002       0.50333002       0.25878999 </v>
    <v>       0.24900999       0.25315000       0.74854000 </v>
    <v>       0.24446000       0.99823996       0.50287998 </v>
    <v>       0.99804009       0.24229999       0.50128003 </v>
    <v>       0.24177002       0.75340997       0.75018002 </v>
    <v>       0.25841001       0.50062002       0.50129001 </v>
    <v>       0.99000004       0.76215003       0.49746000 </v>
    <v>       0.99203996       0.50055999       0.75138002 </v>
    <v>       0.75036005       0.74888000       0.74756004 </v>
    <v>       0.74036002       0.50197000       0.50067003 </v>
    <v>       0.50575006       0.74958002       0.49720000 </v>
    <v>       0.50501003       0.50217998       0.73912003 </v>
    <v>       0.51588997       0.01358000       0.98075008 </v>
    <v>       0.99841994       0.50976998       0.98613004 </v>
    <v>       0.50379003       0.73926997       0.25905001 </v>
    <v>       0.23780002       0.01082000       0.74607998 </v>
    <v>       0.47957999       0.98308000       0.49717999 </v>
    <v>       0.74279003       0.97869994       0.76450995 </v>
    <v>       0.99864998       0.77573999       0.26102000 </v>
    <v>       0.73551001       0.51468004       0.26666001 </v>
    <v>       0.02362000       0.99783001       0.49557002 </v>
    <v>       0.50539000       0.52833005       0.49917999 </v>
    <v>       0.73876003       0.52828003       0.73814999 </v>
    <v>       0.75400003       0.72937999       0.49116997 </v>
   </varray>
  </structure>
  <varray name="forces" >
   <v>      -0.12441694       0.67134100      -0.66856627 </v>
   <v>       1.66782493       0.22474753      -0.42499234 </v>
   <v>      -0.31702663      -0.20204881      -0.27923346 </v>
   <v>      -0.15320053       0.28161730       0.52444473 </v>
   <v>       0.13944782      -1.13529696      -0.41810238 </v>
   <v>       0.35880519      -0.06682404      -0.33375816 </v>
   <v>      -0.42925242       1.44957183       0.40689029 </v>
   <v>      -0.27607825       0.20241169      -0.50010479 </v>
   <v>      -0.37616013       0.21714672       0.26338231 </v>
   <v>       0.02455419      -0.58700878       0.65145050 </v>
   <v>      -0.76868023      -0.92373534      -0.31996490 </v>
   <v>       0.39665621       0.49258931       0.22577503 </v>
   <v>      -0.48305236       0.27360834       0.20669369 </v>
   <v>       0.03047856       0.02753576      -0.41256714 </v>
   <v>       0.42926772      -0.45442065       0.09403466 </v>
   <v>      -1.07775842       0.09894066       0.49919490 </v>
   <v>      -0.19239987       0.00573889      -0.04170120 </v>
   <v>      -0.20572626      -0.18257800      -0.00577990 </v>
   <v>       0.16771187      -0.29302078       0.29978503 </v>
   <v>       0.30556326       0.31112582      -0.05177342 </v>
   <v>       0.27539066      -0.05771606       0.05703260 </v>
   <v>      -0.26703405       0.09330721      -0.27301278 </v>
   <v>      -0.06453781      -0.03562348      -0.16029235 </v>
   <v>      -0.58756329      -0.08034131      -0.24972776 </v>
   <v>      -0.70141152       0.32624534      -0.78148943 </v>
   <v>       0.58463553      -0.04671386       0.56145382 </v>
   <v>       0.03228218       0.34130085       0.19078980 </v>
   <v>      -0.31127942      -0.12451155      -0.15881668 </v>
   <v>       0.24361967      -0.00502234       0.16815871 </v>
   <v>      -0.18211498       0.10958232       0.57390302 </v>
   <v>       0.08221953      -0.22276906      -0.96832191 </v>
   <v>      -0.53193070       0.18091123      -0.60024163 </v>
   <v>       0.45789727      -0.08248641       0.59367295 </v>
   <v>      -0.52591681      -0.38852742       0.07540281 </v>
   <v>       0.19559438      -0.75864148       0.41115274 </v>
   <v>      -0.14408398      -0.04062971       0.02755506 </v>
   <v>      -0.31573305       0.13050880      -0.04168030 </v>
   <v>       0.70964149      -0.60930461       0.03697587 </v>
   <v>      -0.28592011       0.45880071       0.24649132 </v>
   <v>       0.61791296      -0.54698052      -0.08977054 </v>
   <v>       0.30518003      -0.03553162       0.18771819 </v>
   <v>      -0.17043258      -0.67351733      -0.02215809 </v>
   <v>       0.75162327      -0.08405549       0.76394437 </v>
   <v>       0.74251436       0.02019530      -0.00735395 </v>
   <v>      -0.04357111       0.09859318      -0.01644881 </v>
   <v>       0.12941594       0.15619607      -0.02039962 </v>
   <v>       0.61124891      -0.02700980      -0.23487327 </v>
   <v>      -0.00328770       0.10670569       0.75735716 </v>
   <v>       0.01180537       0.52032385       0.01207819 </v>
   <v>      -0.09089027       0.42583286      -0.01301283 </v>
   <v>      -0.46969323       0.49873610      -1.08125208 </v>
   <v>       0.05698308       0.14321247       0.02769602 </v>
   <v>       0.64471297       0.39547364       0.06762655 </v>
   <v>       0.02751481       0.19487297      -0.52094988 </v>
   <v>       0.04255915      -0.01605423       0.17627415 </v>
   <v>       0.05208095       0.37104630      -0.21016569 </v>
   <v>      -0.29182161      -0.19892669       0.22178706 </v>
   <v>      -0.37312820      -0.66271204       0.18031961 </v>
   <v>       0.14055235      -0.21363409       0.02768328 </v>
   <v>       0.06759421      -0.21129599      -0.18643384 </v>
   <v>      -0.36835627       0.08474704       0.83781954 </v>
   <v>      -0.21517721      -0.21633884      -0.24070075 </v>
   <v>       0.44423742      -0.54621594       0.01904290 </v>
   <v>      -0.39989032       0.81652643      -0.05994074 </v>
  </varray>
  <varray name="stress" >
   <v>    -187.44459797       4.04994283      -3.48039075 </v>
   <v>       4.04994313    -184.67817600       1.12679742 </v>
   <v>      -3.48039207       1.12679735    -190.27380412 </v>
  </varray>
  <energy>
   <i name="e_fr_energy">   -614.41812512 </i>
   <i name="e_wo_entrp">   -614.32956809 </i>
   <i name="e_0_energy">     -0.17711407 </i>
  </energy>
  <time name="totalsc"> 1102.29 1104.94</time>
 </calculation>
 <calculation>
  <scstep>
   <time name="dav">   30.47   30.53</time>
   <time name="total">   30.77   30.84</time>
   <energy>
    <i name="alphaZ">   4913.09531023 </i>
    <i name="ewald"> -49685.51864088 </i>
    <i name="hartreedc"> -11342.69834494 </i>
    <i name="XCdc">   2540.62125121 </i>
    <i name="pawpsdc">  37514.84439128 </i>
    <i name="pawaedc"> -37574.94787340 </i>
    <i name="eentropy">     -0.08399128 </i>
    <i name="bandstr">  -4399.24921492 </i>
    <i name="atom">  57254.16407068 </i>
    <i name="e_fr_energy">   -779.77304201 </i>
    <i name="e_wo_entrp">   -779.68905073 </i>
    <i name="e_0_energy">   -779.73104637 </i>
   </energy>
  </scstep>
  <scstep>
   <time name="diag">    2.02    2.02</time>
   <time name="diis">   18.25   18.28</time>
   <time name="orth">    0.50    0.50</time>
   <time name="total">   21.07   21.11</time>
   <energy>
    <i name="e_fr_energy">   -806.83223636 </i>
    <i name="e_wo_entrp">   -806.65775987 </i>
    <i name="e_0_energy">   -806.74499811 </i>
   </energy>
  </scstep>
  <scstep>
   <time name="diag">    2.02    2.02</time>
   <time name="diis">   23.47   23.53</time>
   <time name="orth">    0.49    0.49</time>
   <time name="total">   26.29   26.35</time>
   <energy>
    <i name="e_fr_energy">   -662.98536203 </i>
    <i name="e_wo_entrp">   -662.86242104 </i>
    <i name="e_0_energy">   -662.92389154 </i>
   </energy>
  </scstep>
  <scstep>
   <time name="diag">    2.01    2.01</time>
   <time name="diis">   22.57   22.63</time>
   <time name="orth">    0.52    0.52</time>
   <time name="total">   25.41   25.47</time>
   <energy>
    <i name="e_fr_energy">   -631.47647468 </i>
    <i name="e_wo_entrp">   -631.32908585 </i>
    <i name="e_0_energy">   -631.40278026 </i>
   </energy>
  </scstep>
  <scstep>
   <time name="diag">    2.03    2.03</time>
   <time name="diis">   20.76   20.81</time>
   <time name="orth">    0.49    0.49</time>
   <time name="total">   23.57   23.63</time>
   <energy>
    <i name="e_fr_energy">   -611.60984961 </i>
    <i name="e_wo_entrp">   -611.50692020 </i>
    <i name="e_0_energy">   -611.55838491 </i>
   </energy>
  </scstep>
  <scstep>
   <time name="diag">    2.02    2.03</time>
   <time name="diis">   21.32   21.37</time>
   <time name="orth">    0.50    0.50</time>
   <time name="total">   24.13   24.19</time>
   <energy>
    <i name="e_fr_energy">   -615.48803260 </i>
    <i name="e_wo_entrp">   -615.37709966 </i>
    <i name="e_0_energy">   -615.43256613 </i>
   </energy>
  </scstep>
  <scstep>
   <time name="diag">    2.03    2.03</time>
   <time name="diis">   23.32   23.37</time>
   <time name="orth">    0.50    0.50</time>
   <time name="total">   26.15   26.21</time>
   <energy>
    <i name="e_fr_energy">   -610.04083730 </i>
    <i name="e_wo_entrp">   -609.91435897 </i>
    <i name="e_0_energy">   -609.97759813 </i>
   </energy>
  </scstep>
  <scstep>
   <time name="diag">    2.03    2.03</time>
   <time name="diis">   24.39   24.40</time>
   <time name="orth">    0.50    0.50</time>
   <time name="total">   27.22   27.24</time>
   <energy>
    <i name="e_fr_energy">   -610.09206834 </i>
    <i name="e_wo_entrp">   -609.94803264 </i>
    <i name="e_0_energy">   -610.02005049 </i>
   </energy>
  </scstep>
  <scstep>
   <time name="diag">    2.07    2.07</time>
   <time name="diis">   23.04   23.08</time>
   <time name="orth">    0.51    0.51</time>
   <time name="total">   25.92   25.95</time>
   <energy>
    <i name="e_fr_energy">   -609.64422792 </i>
    <i name="e_wo_entrp">   -609.50870369 </i>
    <i name="e_0_energy">   -609.57646580 </i>
   </energy>
  </scstep>
  <scstep>
   <time name="diag">    2.03    2.03</time>
   <time name="diis">   24.97   25.00</time>
   <time name="orth">    0.50    0.50</time>
   <time name="total">   27.80   27.83</time>
   <energy>
    <i name="e_fr_energy">   -609.65187431 </i>
    <i name="e_wo_entrp">   -609.51523249 </i>
    <i name="e_0_energy">   -609.58355340 </i>
   </energy>
  </scstep>
  <scstep>
   <time name="diag">    2.03    2.03</time>
   <time name="diis">   25.72   25.76</time>
   <time name="orth">    0.50    0.50</time>
   <time name="total">   28.55   28.59</time>
   <energy>
    <i name="e_fr_energy">   -609.72819014 </i>
    <i name="e_wo_entrp">   -609.59201349 </i>
    <i name="e_0_energy">   -609.66010182 </i>
   </energy>
  </scstep>
  <scstep>
   <time name="diag">    2.03    2.03</time>
   <time name="diis">   26.05   26.15</time>
   <time name="orth">    0.50    0.50</time>
   <time name="total">   28.87   28.99</time>
   <energy>
    <i name="e_fr_energy">   -609.82379774 </i>
    <i name="e_wo_entrp">   -609.68659073 </i>
    <i name="e_0_energy">   -609.75519424 </i>
   </energy>
  </scstep>
  <scstep>
   <time name="diag">    2.04    2.04</time>
   <time name="diis">   25.20   25.21</time>
   <time name="orth">    0.49    0.49</time>
   <time name="total">   28.03   28.05</time>
   <energy>
    <i name="e_fr_energy">   -609.93942580 </i>
    <i name="e_wo_entrp">   -609.80377546 </i>
    <i name="e_0_energy">   -609.87160063 </i>
   </energy>
  </scstep>
  <scstep>
   <time name="diag">    2.04    2.04</time>
   <time name="diis">   25.03   25.09</time>
   <time name="orth">    0.50    0.50</time>
   <time name="total">   27.86   27.92</time>
   <energy>
    <i name="e_fr_energy">   -609.92571842 </i>
    <i name="e_wo_entrp">   -609.78872630 </i>
    <i name="e_0_energy">   -609.85722236 </i>
   </energy>
  </scstep>
  <scstep>
   <time name="diag">    2.03    2.04</time>
   <time name="diis">   26.54   26.60</time>
   <time name="orth">    0.53    0.54</time>
   <time name="total">   29.42   29.50</time>
   <energy>
    <i name="e_fr_energy">   -609.95334905 </i>
    <i name="e_wo_entrp">   -609.81769791 </i>
    <i name="e_0_energy">   -609.88552348 </i>
   </energy>
  </scstep>
  <scstep>
   <time name="diag">    2.06    2.07</time>
   <time name="diis">   25.66   25.70</time>
   <time name="orth">    0.50    0.50</time>
   <time name="total">   28.52   28.58</time>
   <energy>
    <i name="e_fr_energy">   -609.97153978 </i>
    <i name="e_wo_entrp">   -609.83249749 </i>
    <i name="e_0_energy">   -609.90201864 </i>
   </energy>
  </scstep>
  <scstep>
   <time name="diag">    2.06    2.07</time>
   <time name="diis">   26.23   26.29</time>
   <time name="orth">    0.50    0.50</time>
   <time name="total">   29.10   29.16</time>
   <energy>
    <i name="e_fr_energy">   -609.97237964 </i>
    <i name="e_wo_entrp">   -609.83655059 </i>
    <i name="e_0_energy">   -609.90446511 </i>
   </energy>
  </scstep>
  <scstep>
   <time name="diag">    2.06    2.09</time>
   <time name="diis">   25.60   25.66</time>
   <time name="orth">    0.50    0.50</time>
   <time name="total">   28.46   28.55</time>
   <energy>
    <i name="e_fr_energy">   -609.97981707 </i>
    <i name="e_wo_entrp">   -609.84311402 </i>
    <i name="e_0_energy">   -609.91146555 </i>
   </energy>
  </scstep>
  <scstep>
   <time name="diag">    2.04    2.04</time>
   <time name="diis">   25.79   25.83</time>
   <time name="orth">    0.50    0.50</time>
   <time name="total">   28.63   28.67</time>
   <energy>
    <i name="e_fr_energy">   -609.98312701 </i>
    <i name="e_wo_entrp">   -609.84647560 </i>
    <i name="e_0_energy">   -609.91480131 </i>
   </energy>
  </scstep>
  <scstep>
   <time name="diag">    2.04    2.04</time>
   <time name="diis">   25.26   25.30</time>
   <time name="orth">    0.50    0.50</time>
   <time name="total">   28.10   28.15</time>
   <energy>
    <i name="e_fr_energy">   -609.98451183 </i>
    <i name="e_wo_entrp">   -609.84774477 </i>
    <i name="e_0_energy">   -609.91612830 </i>
   </energy>
  </scstep>
  <scstep>
   <time name="diag">    2.04    2.04</time>
   <time name="diis">   25.35   25.36</time>
   <time name="orth">    0.50    0.50</time>
   <time name="total">   28.20   28.21</time>
   <energy>
    <i name="e_fr_energy">   -609.98564655 </i>
    <i name="e_wo_entrp">   -609.84891946 </i>
    <i name="e_0_energy">   -609.91728301 </i>
   </energy>
  </scstep>
  <scstep>
   <time name="diag">    2.05    2.05</time>
   <time name="diis">   24.54   24.58</time>
   <time name="orth">    0.50    0.50</time>
   <time name="total">   27.39   27.43</time>
   <energy>
    <i name="e_fr_energy">   -609.98653365 </i>
    <i name="e_wo_entrp">   -609.84974997 </i>
    <i name="e_0_energy">   -609.91814181 </i>
   </energy>
  </scstep>
  <scstep>
   <time name="diag">    2.04    2.04</time>
   <time name="diis">   23.60   23.65</time>
   <time name="orth">    0.51    0.54</time>
   <time name="total">   26.45   26.53</time>
   <energy>
    <i name="e_fr_energy">   -609.98700683 </i>
    <i name="e_wo_entrp">   -609.85024437 </i>
    <i name="e_0_energy">   -609.91862560 </i>
   </energy>
  </scstep>
  <scstep>
   <time name="diag">    2.05    2.05</time>
   <time name="diis">   23.20   23.30</time>
   <time name="orth">    0.50    0.50</time>
   <time name="total">   26.05   26.15</time>
   <energy>
    <i name="e_fr_energy">   -609.98733654 </i>
    <i name="e_wo_entrp">   -609.85052727 </i>
    <i name="e_0_energy">   -609.91893191 </i>
   </energy>
  </scstep>
  <scstep>
   <time name="diag">    2.04    2.04</time>
   <time name="diis">   21.31   21.34</time>
   <time name="orth">    0.50    0.50</time>
   <time name="total">   24.14   24.17</time>
   <energy>
    <i name="e_fr_energy">   -609.98752717 </i>
    <i name="e_wo_entrp">   -609.85072914 </i>
    <i name="e_0_energy">   -609.91912815 </i>
   </energy>
  </scstep>
  <scstep>
   <time name="diag">    2.04    2.04</time>
   <time name="diis">   20.85   20.87</time>
   <time name="orth">    0.52    0.52</time>
   <time name="total">   23.71   23.75</time>
   <energy>
    <i name="e_fr_energy">   -609.98764915 </i>
    <i name="e_wo_entrp">   -609.85085603 </i>
    <i name="e_0_energy">   -609.91925259 </i>
   </energy>
  </scstep>
  <scstep>
   <time name="diag">    2.12    2.12</time>
   <time name="diis">   20.23   20.26</time>
   <time name="orth">    0.50    0.50</time>
   <time name="total">   23.15   23.18</time>
   <energy>
    <i name="e_fr_energy">   -609.98772662 </i>
    <i name="e_wo_entrp">   -609.85094076 </i>
    <i name="e_0_energy">   -609.91933369 </i>
   </energy>
  </scstep>
  <scstep>
   <time name="diag">    2.05    2.05</time>
   <time name="diis">   19.52   19.57</time>
   <time name="orth">    0.52    0.52</time>
   <time name="total">   22.39   22.45</time>
   <energy>
    <i name="e_fr_energy">   -609.98778264 </i>
    <i name="e_wo_entrp">   -609.85099190 </i>
    <i name="e_0_energy">   -609.91938727 </i>
   </energy>
  </scstep>
  <scstep>
   <time name="diag">    2.05    2.05</time>
   <time name="diis">   19.51   19.59</time>
   <time name="orth">    0.50    0.50</time>
   <time name="total">   22.35   22.44</time>
   <energy>
    <i name="e_fr_energy">   -609.98781735 </i>
    <i name="e_wo_entrp">   -609.85102845 </i>
    <i name="e_0_energy">   -609.91942290 </i>
   </energy>
  </scstep>
  <scstep>
   <time name="diag">    2.05    2.05</time>
   <time name="diis">   19.20   19.24</time>
   <time name="orth">    0.50    0.50</time>
   <time name="total">   22.05   22.09</time>
   <energy>
    <i name="e_fr_energy">   -609.98784130 </i>
    <i name="e_wo_entrp">   -609.85105160 </i>
    <i name="e_0_energy">   -609.91944645 </i>
   </energy>
  </scstep>
  <scstep>
   <time name="diag">    2.06    2.08</time>
   <time name="diis">   19.02   19.04</time>
   <time name="orth">    0.50    0.50</time>
   <time name="total">   21.89   21.92</time>
   <energy>
    <i name="e_fr_energy">   -609.98785661 </i>
    <i name="e_wo_entrp">   -609.85106730 </i>
    <i name="e_0_energy">   -609.91946196 </i>
   </energy>
  </scstep>
  <scstep>
   <time name="diag">    2.04    2.04</time>
   <time name="diis">   18.20   18.23</time>
   <time name="orth">    0.50    0.50</time>
   <time name="total">   21.04   21.07</time>
   <energy>
    <i name="e_fr_energy">   -609.98786722 </i>
    <i name="e_wo_entrp">   -609.85107795 </i>
    <i name="e_0_energy">   -609.91947259 </i>
   </energy>
  </scstep>
  <scstep>
   <time name="diag">    2.06    2.06</time>
   <time name="diis">   16.94   17.02</time>
   <time name="orth">    0.50    0.50</time>
   <time name="total">   19.54   19.61</time>
   <energy>
    <i name="alphaZ">   4913.09531023 </i>
    <i name="ewald"> -49685.51864088 </i>
    <i name="hartreedc">  -9489.18423902 </i>
    <i name="XCdc">   2437.67152986 </i>
    <i name="pawpsdc">  39871.54531739 </i>
    <i name="pawaedc"> -39893.71711770 </i>
    <i name="eentropy">     -0.13678876 </i>
    <i name="bandstr">  -6017.90731570 </i>
    <i name="atom">  57254.16407068 </i>
    <i name="e_fr_energy">   -609.98787389 </i>
    <i name="e_wo_entrp">   -609.85108513 </i>
    <i name="e_0_energy">   -609.91947951 </i>
   </energy>
  </scstep>
  <structure>
   <crystal>
    <varray name="basis" >
     <v>       8.36302479       0.01230412      -0.01057377 </v>
     <v>       0.01785991       8.48680374       0.00346369 </v>
     <v>       0.01945427      -0.01128527       8.35871402 </v>
    </varray>
    <i name="volume">    593.26289233 </i>
    <varray name="rec_basis" >
     <v>       0.11957398      -0.00025152      -0.00027864 </v>
     <v>      -0.00017316       0.11783029       0.00015949 </v>
     <v>       0.00015133      -0.00004914       0.11963521 </v>
    </varray>
   </crystal>
   <varray name="positions" >
    <v>       0.99621873       0.99562018       0.99563109 </v>
    <v>       0.26299510       0.99834328       0.24682588 </v>
    <v>       0.24632394       0.50057099       0.24804270 </v>
    <v>       0.50417152       0.49896518       0.00117098 </v>
    <v>       0.50555517       0.24025792       0.74484310 </v>
    <v>       0.99622446       0.50414086       0.49598837 </v>
    <v>       0.49716888       0.76254624       0.75036644 </v>
    <v>       0.99288800       0.23724364       0.26110042 </v>
    <v>       0.75514257       0.74218927       0.01242174 </v>
    <v>       0.00213198       0.25228889       0.74245654 </v>
    <v>       0.74892790       0.25670591       0.50360285 </v>
    <v>       0.99727623       0.74754637       0.74633871 </v>
    <v>       0.25418617       0.49607958       0.74656576 </v>
    <v>       0.24806251       0.24853282       0.99435293 </v>
    <v>       0.51064813       0.25435000       0.25426761 </v>
    <v>       0.74295925       0.98841177       0.27236467 </v>
    <v>       0.75615167       0.25606019       0.99569487 </v>
    <v>       0.24650966       0.74876728       0.99970886 </v>
    <v>       0.25362097       0.24667179       0.50176827 </v>
    <v>       0.24623021       0.75214699       0.49956052 </v>
    <v>       0.25130644       0.24912304       0.24855786 </v>
    <v>       0.26003277       0.00033454       0.99148624 </v>
    <v>       0.00246468       0.25004872       0.00043474 </v>
    <v>       0.74997179       0.24573964       0.25357199 </v>
    <v>       0.74389587       0.99921070       0.00780152 </v>
    <v>       0.51029670       0.99952640       0.24976073 </v>
    <v>       0.99068947       0.48270006       0.24203987 </v>
    <v>       0.50351240       0.76064518       0.00769271 </v>
    <v>       0.99028238       0.00199482       0.73799771 </v>
    <v>       0.75645488       0.24496915       0.75206792 </v>
    <v>       0.73678362       0.00297414       0.50540300 </v>
    <v>       0.50277813       0.23360814       0.49220986 </v>
    <v>       0.50255175       0.00017613       0.73792463 </v>
    <v>       0.99435950       0.99565079       0.25940702 </v>
    <v>       0.50533096       0.24269228       0.00483940 </v>
    <v>       0.25056142       0.74936382       0.24925873 </v>
    <v>       0.24157515       0.50142485       0.99488495 </v>
    <v>       0.00220405       0.73989431       0.00479960 </v>
    <v>       0.75477944       0.74135655       0.25900056 </v>
    <v>       0.76173088       0.50024516       0.00239542 </v>
    <v>       0.50864471       0.50314249       0.25980329 </v>
    <v>       0.24809226       0.24956171       0.74842039 </v>
    <v>       0.24850483       0.99779933       0.50700375 </v>
    <v>       0.00205033       0.24240751       0.50124033 </v>
    <v>       0.24153468       0.75393506       0.75009123 </v>
    <v>       0.25910882       0.50145194       0.50117989 </v>
    <v>       0.99330592       0.76200393       0.49619215 </v>
    <v>       0.99200714       0.50113556       0.75546823 </v>
    <v>       0.75042179       0.75165208       0.74762524 </v>
    <v>       0.73986793       0.50423846       0.50059978 </v>
    <v>       0.50323261       0.75222683       0.49136340 </v>
    <v>       0.50531676       0.50294319       0.73926953 </v>
    <v>       0.51936927       0.01568747       0.98111512 </v>
    <v>       0.99857798       0.51080326       0.98331795 </v>
    <v>       0.50401652       0.73918609       0.26000154 </v>
    <v>       0.23808410       0.01279473       0.74494551 </v>
    <v>       0.47800030       0.98202233       0.49837720 </v>
    <v>       0.74077361       0.97517111       0.76548332 </v>
    <v>       0.99940927       0.77460214       0.26116943 </v>
    <v>       0.73587941       0.51355263       0.26565364 </v>
    <v>       0.02161403       0.99828935       0.50009257 </v>
    <v>       0.50423328       0.52717527       0.49788069 </v>
    <v>       0.74116078       0.52537030       0.73825278 </v>
    <v>       0.75183867       0.73372938       0.49084641 </v>
   </varray>
  </structure>
  <varray name="forces" >
   <v>       0.24673228       0.03551971       0.04576622 </v>
   <v>      -0.02979318       0.32685838      -0.33257651 </v>
   <v>      -0.05455448      -0.44850151      -0.03588966 </v>
   <v>      -0.10782087       0.03227051      -0.12669036 </v>
   <v>      -0.22248643       0.77422553       0.23887582 </v>
   <v>       0.21311733      -0.14729291       0.28874327 </v>
   <v>      -0.43343489      -0.90062245       0.20947937 </v>
   <v>       0.44623495      -0.08732611      -1.26528758 </v>
   <v>      -0.33588848       0.77631531      -0.33659433 </v>
   <v>      -0.26641853      -0.59330286       1.06988757 </v>
   <v>      -0.03001098      -0.53407104      -0.09336723 </v>
   <v>      -0.00116336       0.93469616       0.25189837 </v>
   <v>      -0.27193306       0.24226061       0.19449468 </v>
   <v>       0.43825337      -0.19713106       0.20243176 </v>
   <v>      -0.43302565      -0.21123996      -0.29576441 </v>
   <v>      -0.16498926       0.18693023      -0.53430145 </v>
   <v>      -0.37448481      -0.38393014       0.38778304 </v>
   <v>       0.32227126       0.14954089       0.11464115 </v>
   <v>       0.38324316      -0.10428166      -0.31637539 </v>
   <v>       0.33753105       0.05408951      -0.17519389 </v>
   <v>       0.44070886      -0.03679065      -0.10582398 </v>
   <v>       0.56144845       0.02894930      -0.81364817 </v>
   <v>       0.08180612       0.96254336       0.10234847 </v>
   <v>      -0.82697096       0.11603419      -1.06553843 </v>
   <v>      -0.57778310       0.65914984      -0.30777834 </v>
   <v>       0.82625541      -0.21748673      -0.04934697 </v>
   <v>      -0.78498660       1.34882274      -1.01519766 </v>
   <v>      -0.84655545       0.68340835       0.65810183 </v>
   <v>      -0.15948708      -0.03777539      -0.45105972 </v>
   <v>      -0.08526123       0.12986114       0.75284361 </v>
   <v>       0.44366056      -0.81479453       0.36362359 </v>
   <v>      -1.02481251       0.30471709      -0.59811822 </v>
   <v>       0.09052625       0.35588438       0.36813003 </v>
   <v>      -0.17922561      -0.13495721       0.07143106 </v>
   <v>      -0.19066847      -0.35937726       0.47321961 </v>
   <v>      -0.06107919       0.03531809      -0.02121112 </v>
   <v>      -0.50678719      -0.03763574       0.03047721 </v>
   <v>       0.61446809      -0.32793564       0.69139963 </v>
   <v>      -0.26553679       0.70621013       0.19950444 </v>
   <v>       0.47951551      -0.84105486       0.10307380 </v>
   <v>      -0.41794588      -0.38823605       0.26189442 </v>
   <v>       0.40609199      -0.60871270      -0.00592408 </v>
   <v>       0.62255777       0.05171662       0.50849255 </v>
   <v>       0.66145069      -0.25913351       0.00871816 </v>
   <v>       0.24362803       0.60555551       0.06447701 </v>
   <v>       0.49203293       0.04817441      -0.28391238 </v>
   <v>       0.39798531       0.25683503      -0.23701210 </v>
   <v>      -0.37303936      -0.10892103       0.19761676 </v>
   <v>      -0.18509122       0.18308502      -0.36783638 </v>
   <v>      -0.15948555       0.11840499       0.16192050 </v>
   <v>      -0.33781945       0.80972151      -0.13482310 </v>
   <v>       0.27141235      -0.02045620      -0.14778469 </v>
   <v>      -0.35260714      -0.58220087       0.37137632 </v>
   <v>       0.41292750      -0.71418369       0.55172035 </v>
   <v>      -0.13774697       0.59128555      -0.92716821 </v>
   <v>       0.04212055      -0.24572829       0.41005405 </v>
   <v>       0.62281849       0.52558887      -0.15834181 </v>
   <v>       0.07330139       0.89338886       0.10040608 </v>
   <v>       0.45023067      -1.56429510      -0.75646079 </v>
   <v>       1.22699260      -1.33780774      -0.85924938 </v>
   <v>      -1.17689138       0.46930812       0.55589697 </v>
   <v>      -0.60957629      -1.51099345       0.12945554 </v>
   <v>       0.60104020      -1.45837946       0.84173438 </v>
   <v>      -0.46500169       1.81788585       0.83635874 </v>
  </varray>
  <varray name="stress" >
   <v>     437.91802220       5.78033637       3.19452374 </v>
   <v>       5.78033544     404.45068011      -2.04375214 </v>
   <v>       3.19452311      -2.04375208     440.75308982 </v>
  </varray>
  <energy>
   <i name="e_fr_energy">   -609.98787389 </i>
   <i name="e_wo_entrp">   -609.91947951 </i>
   <i name="e_0_energy">     -0.13678876 </i>
  </energy>
  <time name="totalsc">  900.23  902.22</time>
 </calculation>
 <calculation>
  <scstep>
   <time name="dav">   29.10   29.18</time>
   <time name="total">   29.41   29.49</time>
   <energy>
    <i name="alphaZ">   4375.05767536 </i>
    <i name="ewald"> -47808.75196369 </i>
    <i name="hartreedc">  -9122.94334842 </i>
    <i name="XCdc">   2347.87927148 </i>
    <i name="pawpsdc">  39871.64002745 </i>
    <i name="pawaedc"> -39893.74205230 </i>
    <i name="eentropy">     -0.21237300 </i>
    <i name="bandstr">  -7715.02105877 </i>
    <i name="atom">  57254.16407068 </i>
    <i name="e_fr_energy">   -691.92975122 </i>
    <i name="e_wo_entrp">   -691.71737822 </i>
    <i name="e_0_energy">   -691.82356472 </i>
   </energy>
  </scstep>
  <scstep>
   <time name="diag">    2.03    2.03</time>
   <time name="diis">   23.03   23.06</time>
   <time name="orth">    0.50    0.50</time>
   <time name="total">   25.86   25.90</time>
   <energy>
    <i name="e_fr_energy">   -930.22956103 </i>
    <i name="e_wo_entrp">   -930.09433057 </i>
    <i name="e_0_energy">   -930.16194580 </i>
   </energy>
  </scstep>
  <scstep>
   <time name="diag">    2.04    2.04</time>
   <time name="diis">   22.44   22.46</time>
   <time name="orth">    0.50    0.50</time>
[...]
      </set>
     </set>
    </set>
   </array>
  </eigenvalues>
  <separator name="orbital magnetization" >
   <v name="MAGDIPOLOUT">      0.00000000      0.00000000      0.00000000</v>
  </separator>
  <dos>
   <i name="efermi">      8.55568962 </i>
   <total>
    <array>
     <dimension dim="1">gridpoints</dimension>
     <dimension dim="2">spin</dimension>
     <field>energy</field>
     <field>total</field>
     <field>integrated</field>
     <set>
      <set comment="spin 1">
       <r>   -59.7208     0.0000     0.0000 </r>
       <r>   -59.4723     0.0000     0.0000 </r>
       <r>   -59.2239     0.0000     0.0000 </r>
       <r>   -58.9755     0.0000     0.0000 </r>
       <r>   -58.7271     0.0000     0.0000 </r>
       <r>   -58.4786     0.0000     0.0000 </r>
       <r>   -58.2302     0.0000     0.0000 </r>
       <r>   -57.9818     0.0000     0.0000 </r>
       <r>   -57.7334     0.0000     0.0000 </r>
       <r>   -57.4849     0.0000     0.0000 </r>
       <r>   -57.2365     0.0000     0.0000 </r>
       <r>   -56.9881     0.0000     0.0000 </r>
       <r>   -56.7397     0.0000     0.0000 </r>
       <r>   -56.4913     0.1489     0.0370 </r>
       <r>   -56.2428    28.1290     7.0249 </r>
       <r>   -55.9944    19.9635    11.9844 </r>
       <r>   -55.7460     0.0630    12.0000 </r>
       <r>   -55.4976     0.0000    12.0000 </r>
       <r>   -55.2491     0.0000    12.0000 </r>
       <r>   -55.0007     0.0000    12.0000 </r>
       <r>   -54.7523     0.0000    12.0000 </r>
       <r>   -54.5039     0.0000    12.0000 </r>
       <r>   -54.2554     0.0000    12.0000 </r>
       <r>   -54.0070     0.0000    12.0000 </r>
       <r>   -53.7586     0.0000    12.0000 </r>
       <r>   -53.5102     0.0000    12.0000 </r>
       <r>   -53.2617     0.0000    12.0000 </r>
       <r>   -53.0133     0.0000    12.0000 </r>
       <r>   -52.7649     0.0000    12.0000 </r>
       <r>   -52.5165     0.0000    12.0000 </r>
       <r>   -52.2680     0.0000    12.0000 </r>
       <r>   -52.0196     0.0000    12.0000 </r>
       <r>   -51.7712     0.0000    12.0000 </r>
       <r>   -51.5228     0.0000    12.0000 </r>
       <r>   -51.2743     0.0000    12.0000 </r>
       <r>   -51.0259     0.0000    12.0000 </r>
       <r>   -50.7775     0.0000    12.0000 </r>
       <r>   -50.5291     0.0000    12.0000 </r>
       <r>   -50.2806     0.0000    12.0000 </r>
       <r>   -50.0322     0.0000    12.0000 </r>
       <r>   -49.7838     0.0000    12.0000 </r>
       <r>   -49.5354     0.0000    12.0000 </r>
       <r>   -49.2869     0.0004    12.0001 </r>
       <r>   -49.0385     6.2996    13.5651 </r>
       <r>   -48.7901    28.7148    20.6986 </r>
       <r>   -48.5417    14.3689    24.2681 </r>
       <r>   -48.2932     6.9179    25.9867 </r>
       <r>   -48.0448     0.0534    26.0000 </r>
       <r>   -47.7964     0.0001    26.0000 </r>
       <r>   -47.5480     1.6171    26.4017 </r>
       <r>   -47.2995     9.6216    28.7920 </r>
       <r>   -47.0511    15.9856    32.7632 </r>
       <r>   -46.8027    16.1861    36.7842 </r>
       <r>   -46.5543     4.8914    37.9993 </r>
       <r>   -46.3058     0.0026    38.0000 </r>
       <r>   -46.0574     0.0000    38.0000 </r>
       <r>   -45.8090     0.0000    38.0000 </r>
       <r>   -45.5606     0.0000    38.0000 </r>
       <r>   -45.3121     0.0000    38.0000 </r>
       <r>   -45.0637     0.0000    38.0000 </r>
       <r>   -44.8153     0.0000    38.0000 </r>
       <r>   -44.5669     0.0000    38.0000 </r>
       <r>   -44.3184     0.0000    38.0000 </r>
       <r>   -44.0700     0.0000    38.0000 </r>
       <r>   -43.8216     0.0000    38.0000 </r>
       <r>   -43.5732     0.0000    38.0000 </r>
       <r>   -43.3247     0.0000    38.0000 </r>
       <r>   -43.0763     0.0000    38.0000 </r>
       <r>   -42.8279     0.0000    38.0000 </r>
       <r>   -42.5795     0.0000    38.0000 </r>
       <r>   -42.3310     0.0000    38.0000 </r>
       <r>   -42.0826     0.0000    38.0000 </r>
       <r>   -41.8342     0.0000    38.0000 </r>
       <r>   -41.5858     0.0000    38.0000 </r>
       <r>   -41.3373     0.0000    38.0000 </r>
       <r>   -41.0889     0.0000    38.0000 </r>
       <r>   -40.8405     0.0000    38.0000 </r>
       <r>   -40.5921     0.4603    38.1143 </r>
       <r>   -40.3437     7.3775    39.9471 </r>
       <r>   -40.0952     4.6611    41.1050 </r>
       <r>   -39.8468    28.2627    48.1262 </r>
       <r>   -39.5984    15.5474    51.9885 </r>
       <r>   -39.3500     0.0461    52.0000 </r>
       <r>   -39.1015     0.0000    52.0000 </r>
       <r>   -38.8531     0.0000    52.0000 </r>
       <r>   -38.6047     0.0000    52.0000 </r>
       <r>   -38.3563     0.0000    52.0000 </r>
       <r>   -38.1078     0.0000    52.0000 </r>
       <r>   -37.8594     0.0000    52.0000 </r>
       <r>   -37.6110     0.0000    52.0000 </r>
       <r>   -37.3626     0.0000    52.0000 </r>
       <r>   -37.1141     0.0000    52.0000 </r>
       <r>   -36.8657     0.0000    52.0000 </r>
       <r>   -36.6173     0.0000    52.0000 </r>
       <r>   -36.3689     0.0000    52.0000 </r>
       <r>   -36.1204     0.0000    52.0000 </r>
       <r>   -35.8720     0.0000    52.0000 </r>
       <r>   -35.6236     0.0001    52.0000 </r>
       <r>   -35.3752     2.1720    52.5396 </r>
       <r>   -35.1267    21.2557    57.8201 </r>
       <r>   -34.8783   103.1382    83.4421 </r>
       <r>   -34.6299    18.3184    87.9929 </r>
       <r>   -34.3815     0.0287    88.0000 </r>
       <r>   -34.1330     0.0000    88.0000 </r>
       <r>   -33.8846     0.0000    88.0000 </r>
       <r>   -33.6362     0.0000    88.0000 </r>
       <r>   -33.3878     0.0000    88.0000 </r>
       <r>   -33.1393     0.0000    88.0000 </r>
       <r>   -32.8909     0.0000    88.0000 </r>
       <r>   -32.6425     0.0000    88.0000 </r>
       <r>   -32.3941     0.0000    88.0000 </r>
       <r>   -32.1456     0.0000    88.0000 </r>
       <r>   -31.8972     0.0000    88.0000 </r>
       <r>   -31.6488     0.0000    88.0000 </r>
       <r>   -31.4004     0.0000    88.0000 </r>
       <r>   -31.1519     0.0000    88.0000 </r>
       <r>   -30.9035     0.0000    88.0000 </r>
       <r>   -30.6551     0.0002    88.0001 </r>
       <r>   -30.4067     5.0693    89.2594 </r>
       <r>   -30.1582    94.3924   112.7088 </r>
       <r>   -29.9098    45.1584   123.9272 </r>
       <r>   -29.6614     0.2929   124.0000 </r>
       <r>   -29.4130     0.0000   124.0000 </r>
       <r>   -29.1645     0.0000   124.0000 </r>
       <r>   -28.9161     0.0000   124.0000 </r>
       <r>   -28.6677     0.0000   124.0000 </r>
       <r>   -28.4193     0.0000   124.0000 </r>
       <r>   -28.1708     0.0000   124.0000 </r>
       <r>   -27.9224     0.0000   124.0000 </r>
       <r>   -27.6740     0.0000   124.0000 </r>
       <r>   -27.4256     0.0000   124.0000 </r>
       <r>   -27.1771     0.0000   124.0000 </r>
       <r>   -26.9287     0.0000   124.0000 </r>
       <r>   -26.6803     0.0000   124.0000 </r>
       <r>   -26.4319     0.0000   124.0000 </r>
       <r>   -26.1834     0.0000   124.0000 </r>
       <r>   -25.9350     0.0000   124.0000 </r>
       <r>   -25.6866     0.0375   124.0093 </r>
       <r>   -25.4382    18.4677   128.5971 </r>
       <r>   -25.1897    80.0204   148.4762 </r>
       <r>   -24.9413    47.8245   160.3570 </r>
       <r>   -24.6929    22.3812   165.9170 </r>
       <r>   -24.4445     0.3341   166.0000 </r>
       <r>   -24.1961     0.0000   166.0000 </r>
       <r>   -23.9476     0.0330   166.0082 </r>
       <r>   -23.6992    12.8156   169.1919 </r>
       <r>   -23.4508    19.3750   174.0051 </r>
       <r>   -23.2024    57.8519   188.3770 </r>
       <r>   -22.9539    38.1858   197.8633 </r>
       <r>   -22.7055    16.6151   201.9909 </r>
       <r>   -22.4571     0.0368   202.0000 </r>
       <r>   -22.2087     0.0000   202.0000 </r>
       <r>   -21.9602     0.0000   202.0000 </r>
       <r>   -21.7118     0.0000   202.0000 </r>
       <r>   -21.4634     0.0000   202.0000 </r>
       <r>   -21.2150     0.0000   202.0000 </r>
       <r>   -20.9665     0.0000   202.0000 </r>
       <r>   -20.7181     0.0000   202.0000 </r>
       <r>   -20.4697     0.0000   202.0000 </r>
       <r>   -20.2213     0.0000   202.0000 </r>
       <r>   -19.9728     0.0000   202.0000 </r>
       <r>   -19.7244     0.0000   202.0000 </r>
       <r>   -19.4760     0.0000   202.0000 </r>
       <r>   -19.2276     0.0000   202.0000 </r>
       <r>   -18.9791     0.9238   202.2295 </r>
       <r>   -18.7307    20.2096   207.2501 </r>
       <r>   -18.4823    21.1484   212.5038 </r>
       <r>   -18.2339    72.0308   230.3981 </r>
       <r>   -17.9854    44.7632   241.5184 </r>
       <r>   -17.7370     9.8001   243.9529 </r>
       <r>   -17.4886     0.1895   244.0000 </r>
       <r>   -17.2402     0.0000   244.0000 </r>
       <r>   -16.9917     0.0000   244.0000 </r>
       <r>   -16.7433     0.0000   244.0000 </r>
       <r>   -16.4949     0.0000   244.0000 </r>
       <r>   -16.2465     0.0000   244.0000 </r>
       <r>   -15.9980     0.0000   244.0000 </r>
       <r>   -15.7496     0.0000   244.0000 </r>
       <r>   -15.5012     0.0000   244.0000 </r>
       <r>   -15.2528     0.0000   244.0000 </r>
       <r>   -15.0043     0.0000   244.0000 </r>
       <r>   -14.7559     0.0000   244.0000 </r>
       <r>   -14.5075     0.0000   244.0000 </r>
       <r>   -14.2591     0.0000   244.0000 </r>
       <r>   -14.0106     0.0000   244.0000 </r>
       <r>   -13.7622     0.0000   244.0000 </r>
       <r>   -13.5138     0.0000   244.0000 </r>
       <r>   -13.2654     0.0000   244.0000 </r>
       <r>   -13.0169     0.0000   244.0000 </r>
       <r>   -12.7685     0.0000   244.0000 </r>
       <r>   -12.5201     0.0000   244.0000 </r>
       <r>   -12.2717     0.0000   244.0000 </r>
       <r>   -12.0232     0.0000   244.0000 </r>
       <r>   -11.7748     0.0000   244.0000 </r>
       <r>   -11.5264     0.0000   244.0000 </r>
       <r>   -11.2780     0.0000   244.0000 </r>
       <r>   -11.0295     0.0000   244.0000 </r>
       <r>   -10.7811     0.0000   244.0000 </r>
       <r>   -10.5327     0.0000   244.0000 </r>
       <r>   -10.2843     0.0000   244.0000 </r>
       <r>   -10.0358     0.0000   244.0000 </r>
       <r>    -9.7874     0.0000   244.0000 </r>
       <r>    -9.5390     0.0000   244.0000 </r>
       <r>    -9.2906     0.0000   244.0000 </r>
       <r>    -9.0421     0.0000   244.0000 </r>
       <r>    -8.7937     0.0000   244.0000 </r>
       <r>    -8.5453     0.0000   244.0000 </r>
       <r>    -8.2969     0.0000   244.0000 </r>
       <r>    -8.0485     0.0000   244.0000 </r>
       <r>    -7.8000     0.0000   244.0000 </r>
       <r>    -7.5516     0.0845   244.0210 </r>
       <r>    -7.3032     5.2436   245.3236 </r>
       <r>    -7.0548     4.5897   246.4638 </r>
       <r>    -6.8063    14.9187   250.1700 </r>
       <r>    -6.5579     9.3310   252.4880 </r>
       <r>    -6.3095    15.7997   256.4131 </r>
       <r>    -6.0611    26.5718   263.0142 </r>
       <r>    -5.8126    16.3800   267.0833 </r>
       <r>    -5.5642    11.6269   269.9717 </r>
       <r>    -5.3158     0.1137   270.0000 </r>
       <r>    -5.0674     0.0000   270.0000 </r>
       <r>    -4.8189     0.0000   270.0000 </r>
       <r>    -4.5705     0.0000   270.0000 </r>
       <r>    -4.3221     0.0000   270.0000 </r>
       <r>    -4.0737     0.0000   270.0000 </r>
       <r>    -3.8252     0.3048   270.0757 </r>
       <r>    -3.5768     5.0391   271.3276 </r>
       <r>    -3.3284     4.1675   272.3629 </r>
       <r>    -3.0800     9.4808   274.7182 </r>
       <r>    -2.8315    10.6775   277.3707 </r>
       <r>    -2.5831    17.8724   281.8107 </r>
       <r>    -2.3347    21.3434   287.1129 </r>
       <r>    -2.0863    29.9907   294.5633 </r>
       <r>    -1.8378    28.1183   301.5486 </r>
       <r>    -1.5894    17.9441   306.0063 </r>
       <r>    -1.3410     6.1357   307.5306 </r>
       <r>    -1.0926     1.8642   307.9937 </r>
       <r>    -0.8441     0.0252   308.0000 </r>
       <r>    -0.5957     0.0000   308.0000 </r>
       <r>    -0.3473     0.0000   308.0000 </r>
       <r>    -0.0989     0.0000   308.0000 </r>
       <r>     0.1496     0.0000   308.0000 </r>
       <r>     0.3980     0.0000   308.0000 </r>
       <r>     0.6464     0.0000   308.0000 </r>
       <r>     0.8948     0.0022   308.0005 </r>
       <r>     1.1433     0.4729   308.1180 </r>
       <r>     1.3917     3.5468   308.9991 </r>
       <r>     1.6401    10.8406   311.6922 </r>
       <r>     1.8885    10.7367   314.3595 </r>
       <r>     2.1370    16.9923   318.5808 </r>
       <r>     2.3854    26.4700   325.1566 </r>
       <r>     2.6338    32.5163   333.2344 </r>
       <r>     2.8822    27.5751   340.0847 </r>
       <r>     3.1307    37.2376   349.3355 </r>
       <r>     3.3791    37.7720   358.7190 </r>
       <r>     3.6275    40.8645   368.8707 </r>
       <r>     3.8759    47.3884   380.6432 </r>
       <r>     4.1244    51.4580   393.4266 </r>
       <r>     4.3728    58.7205   408.0142 </r>
       <r>     4.6212    63.4917   423.7871 </r>
       <r>     4.8696    62.5900   439.3360 </r>
       <r>     5.1181    59.2332   454.0510 </r>
       <r>     5.3665    47.3312   465.8092 </r>
       <r>     5.6149    37.8792   475.2193 </r>
       <r>     5.8633    31.0302   482.9280 </r>
       <r>     6.1118    29.0323   490.1403 </r>
       <r>     6.3602    17.0614   494.3788 </r>
       <r>     6.6086    16.1655   498.3947 </r>
       <r>     6.8570     6.4596   499.9994 </r>
       <r>     7.1055    10.6125   502.6358 </r>
       <r>     7.3539    18.4822   507.2273 </r>
       <r>     7.6023    20.6849   512.3659 </r>
       <r>     7.8507    24.3983   518.4271 </r>
       <r>     8.0991    21.7600   523.8328 </r>
       <r>     8.3476    26.2433   530.3522 </r>
       <r>     8.5960    31.5655   538.1939 </r>
       <r>     8.8444    32.7534   546.3306 </r>
       <r>     9.0928    40.1893   556.3146 </r>
       <r>     9.3413    49.5199   568.6166 </r>
       <r>     9.5897    53.9306   582.0143 </r>
       <r>     9.8381    55.5303   595.8094 </r>
       <r>    10.0865    58.8845   610.4378 </r>
       <r>    10.3350    55.4258   624.2069 </r>
       <r>    10.5834    50.9372   636.8609 </r>
       <r>    10.8318    53.7686   650.2184 </r>
       <r>    11.0802    49.1710   662.4337 </r>
       <r>    11.3287    33.0833   670.6524 </r>
       <r>    11.5771     5.4025   671.9945 </r>
       <r>    11.8255     0.0222   672.0000 </r>
       <r>    12.0739     0.0000   672.0000 </r>
       <r>    12.3224     0.0000   672.0000 </r>
       <r>    12.5708     0.0000   672.0000 </r>
       <r>    12.8192     0.0000   672.0000 </r>
       <r>    13.0676     0.0000   672.0000 </r>
       <r>    13.3161     0.0000   672.0000 </r>
       <r>    13.5645     0.0000   672.0000 </r>
       <r>    13.8129     0.0000   672.0000 </r>
       <r>    14.0613     0.0000   672.0000 </r>
       <r>    14.3098     0.0000   672.0000 </r>
       <r>    14.5582     0.0000   672.0000 </r>
       <r>    14.8066     0.0000   672.0000 </r>
      </set>
     </set>
    </array>
   </total>
  </dos>
 </calculation>
 <structure name="finalpos" >
  <crystal>
   <varray name="basis" >
    <v>       8.72073703       0.01680123      -0.00365814 </v>
    <v>       0.02283673       8.77086286      -0.00424812 </v>
    <v>       0.02766314      -0.01943521       8.71536823 </v>
   </varray>
   <i name="volume">    666.62129408 </i>
   <varray name="rec_basis" >
    <v>       0.11466963      -0.00029874      -0.00036463 </v>
    <v>      -0.00021955       0.11401456       0.00025495 </v>
    <v>       0.00004802       0.00005545       0.11473982 </v>
   </varray>
  </crystal>
  <varray name="positions" >
   <v>       0.00082221       0.99586862       0.99707785 </v>
   <v>       0.26882982       0.99995820       0.25001259 </v>
   <v>       0.24219266       0.49650924       0.24781034 </v>
   <v>       0.50315314       0.49973127       0.00213059 </v>
   <v>       0.50770758       0.24593368       0.74150745 </v>
   <v>       0.99369088       0.50411363       0.49954116 </v>
   <v>       0.49557383       0.75962632       0.75212722 </v>
   <v>       0.99118239       0.23505127       0.25585617 </v>
   <v>       0.75606682       0.74136859       0.01233289 </v>
   <v>      -0.00079779       0.24965859       0.74565185 </v>
   <v>       0.75238164       0.23216850       0.49748203 </v>
   <v>       0.99787523       0.75115591       0.74723037 </v>
   <v>       0.25091264       0.49613238       0.74781806 </v>
   <v>       0.25570775       0.24300195       0.99203933 </v>
   <v>       0.51056692       0.25828066       0.25547584 </v>
   <v>       0.73750666       0.98791845       0.25328174 </v>
   <v>       0.75142450       0.25623766       0.00020374 </v>
   <v>       0.24727476       0.74848646       0.00117651 </v>
   <v>       0.25388741       0.24610488       0.50295748 </v>
   <v>       0.25013599       0.75364979       0.50013521 </v>
   <v>       0.25233225       0.24743984       0.24712347 </v>
   <v>       0.26112552       0.00098507       0.99136534 </v>
   <v>       0.00296523       0.25363690       0.00105514 </v>
   <v>       0.74650080       0.24609610       0.24714390 </v>
   <v>       0.74353985       0.00127394       0.00398693 </v>
   <v>       0.51339353       0.00128495       0.25466048 </v>
   <v>       0.98525377       0.49531768       0.24287677 </v>
   <v>       0.49888981       0.76326222       0.01028119 </v>
   <v>       0.98528313       0.00212284       0.73717465 </v>
   <v>       0.75580188       0.25089313       0.75368600 </v>
   <v>       0.74785647      -0.00188881       0.49973542 </v>
   <v>       0.49869704       0.24127341       0.48967695 </v>
   <v>       0.52804603       0.00111811       0.74569371 </v>
   <v>       0.99713070       0.99385389       0.25769635 </v>
   <v>       0.50404838       0.23938232       0.00407119 </v>
   <v>       0.25068449       0.74933421       0.24993181 </v>
   <v>       0.23940609       0.49923957       0.99434180 </v>
   <v>       0.00374232       0.73827960       0.00744044 </v>
   <v>       0.74831940       0.74480488       0.25896597 </v>
   <v>       0.76270133       0.49741142       0.00355322 </v>
   <v>       0.50560348       0.50080140       0.26042405 </v>
   <v>       0.24853167       0.24417823       0.74815770 </v>
   <v>       0.25423967       0.99981015       0.51268416 </v>
   <v>       0.00421148       0.24267047       0.49991539 </v>
   <v>       0.24108564       0.75867513       0.75061882 </v>
   <v>       0.25775567       0.50189220       0.50092862 </v>
   <v>       0.99622345       0.76231463       0.49473432 </v>
   <v>       0.99055044       0.50148859       0.75690016 </v>
   <v>       0.75021018       0.75030250       0.74936574 </v>
   <v>       0.73762092       0.50572245       0.50065358 </v>
   <v>       0.49884744       0.75875783       0.48769279 </v>
   <v>       0.50489182       0.50401399       0.73914843 </v>
   <v>       0.51986212       0.01296081       0.97455229 </v>
   <v>      -0.00149042       0.50908916       0.98166919 </v>
   <v>       0.49429006       0.73114153       0.25409963 </v>
   <v>       0.22109400       0.01124129       0.73595151 </v>
   <v>       0.48624501       0.98719602       0.51685672 </v>
   <v>       0.74424297       0.96872183       0.78086584 </v>
   <v>       0.00760398       0.76908040       0.25846645 </v>
   <v>       0.73994992       0.51215004       0.26809495 </v>
   <v>       0.01655501       0.00039020       0.50097532 </v>
   <v>       0.50104119       0.52553104       0.49640103 </v>
   <v>       0.74284192       0.51998521       0.73846837 </v>
   <v>       0.74617970       0.75580733       0.49006592 </v>
  </varray>
 </structure>
</modeling>
