<?xml version="1.0" encoding="ISO-8859-1"?>
<modeling>
 <generator>
  <i name="program" type="string">vasp </i>
  <i name="version" type="string">5.4.4.18Apr17-6-g9f103f2a35  </i>
  <i name="subversion" type="string">(build Oct 18 2021 20:38:43) complex            parallel </i>
  <i name="platform" type="string">LinuxIFC </i>
  <i name="date" type="string">2024 06 08 </i>
  <i name="time" type="string">16:01:20 </i>
 </generator>
 <incar>
  <i type="string" name="SYSTEM">HECN</i>
  <i type="int" name="ISTART">     0</i>
  <i type="string" name="PREC">normal</i>
  <i type="string" name="ALGO">Fast</i>
  <i type="int" name="ICHARG">     2</i>
  <i type="int" name="NELM">    60</i>
  <i type="int" name="IBRION">     2</i>
  <i name="EDIFF">      0.00001000</i>
  <i name="EDIFFG">     -0.01000000</i>
  <i type="int" name="NSW">   100</i>
  <i type="int" name="ISIF">     3</i>
  <i name="ENCUT">    400.00000000</i>
  <i name="POTIM">      0.50000000</i>
  <i type="logical" name="LREAL"> F  </i>
  <i type="int" name="ISMEAR">     0</i>
  <i name="SIGMA">      0.10000000</i>
  <i type="logical" name="LWAVE"> F  </i>
  <i type="logical" name="LCHARG"> F  </i>
  <v type="int" name="KPOINT_BSE">    -1     0     0     0</v>
  <i type="int" name="NELM">    60</i>
 </incar>
 <structure name="primitive_cell" >
  <crystal>
   <varray name="basis" >
    <v>       8.93249989       0.00000000       0.00000000 </v>
    <v>       0.00575300       9.05559834       0.00000000 </v>
    <v>       0.03210180      -0.01574346       8.93712807 </v>
   </varray>
   <i name="volume">    722.91652451 </i>
   <varray name="rec_basis" >
    <v>       0.11195074      -0.00007112      -0.00040225 </v>
    <v>       0.00000000       0.11042893       0.00019453 </v>
    <v>       0.00000000       0.00000000       0.11189277 </v>
   </varray>
  </crystal>
  <varray name="positions" >
   <v>      -0.00311999      -0.00795003      -0.00075998 </v>
   <v>      -0.25232999      -0.00252000       0.01202000 </v>
   <v>      -0.00162995      -0.25686004       0.00460000 </v>
   <v>      -0.00280000      -0.00228008       0.25899999 </v>
   <v>       0.00281000       0.25024000       0.00130000 </v>
   <v>      -0.01103011       0.00202000      -0.26291001 </v>
   <v>       0.26146999      -0.00015998      -0.00704004 </v>
   <v>      -0.00135002      -0.22426001       0.26102000 </v>
   <v>      -0.25720997      -0.02130006      -0.23549005 </v>
   <v>       0.23780002       0.01082000      -0.25392002 </v>
   <v>      -0.24282000      -0.25897003       0.01100000 </v>
   <v>       0.24762001      -0.25026001      -0.00025994 </v>
   <v>      -0.00485996      -0.25507996      -0.25488003 </v>
   <v>      -0.24281000       0.25603001      -0.00408003 </v>
   <v>       0.25398003      -0.00285005       0.24912000 </v>
   <v>       0.24788999       0.24839000      -0.00342003 </v>
   <v>      -0.00562996       0.23617001       0.26379999 </v>
   <v>      -0.25120996      -0.01212001       0.26967001 </v>
   <v>       0.00201000       0.25541000      -0.26105999 </v>
   <v>       0.24177002      -0.24659003      -0.24981998 </v>
   <v>      -0.24963995      -0.25112000      -0.25243996 </v>
   <v>      -0.24255004       0.24437997      -0.25103001 </v>
   <v>       0.25133999      -0.25041998       0.24910999 </v>
   <v>      -0.24367000      -0.26108997       0.25767000 </v>
   <v>      -0.24686002       0.24616999       0.25492002 </v>
   <v>       0.24982001       0.24942998       0.24825000 </v>
   <v>       0.24900999       0.25315000      -0.25146000 </v>
   <v>      -0.48411003       0.01358000      -0.01924992 </v>
   <v>      -0.00158006      -0.49023002      -0.01386996 </v>
   <v>       0.02362000      -0.00216999       0.49557002 </v>
   <v>      -0.49480995      -0.23869001       0.00855000 </v>
   <v>      -0.49285006      -0.00023001       0.24673000 </v>
   <v>      -0.24160996      -0.49684002       0.00288000 </v>
   <v>      -0.00999997      -0.23784997       0.49746000 </v>
   <v>      -0.00948001       0.48088003       0.24100999 </v>
   <v>       0.24446000      -0.00176004      -0.49712002 </v>
   <v>      -0.26367999       0.00417000      -0.48937000 </v>
   <v>       0.24328000      -0.49927003      -0.00489006 </v>
   <v>      -0.49572003       0.24673000       0.00262000 </v>
   <v>      -0.00796004      -0.49944001      -0.24861998 </v>
   <v>      -0.00195991       0.24229999      -0.49871997 </v>
   <v>      -0.49991002       0.00061000      -0.26528002 </v>
   <v>      -0.26123997      -0.47171998      -0.26185001 </v>
   <v>       0.49950005      -0.24518001      -0.25182996 </v>
   <v>       0.24457999      -0.24951001       0.49983999 </v>
   <v>      -0.24599997      -0.27062001       0.49116997 </v>
   <v>      -0.49520997       0.24631001      -0.25289998 </v>
   <v>       0.24803003      -0.49835000       0.24955001 </v>
   <v>      -0.26448999      -0.48531996       0.26666001 </v>
   <v>      -0.49167000       0.25676999       0.25376001 </v>
   <v>      -0.49620997      -0.26073003       0.25905001 </v>
   <v>      -0.24692999       0.26163001      -0.49466998 </v>
   <v>       0.25272001       0.24823001      -0.49984997 </v>
   <v>       0.25679999       0.49462002      -0.25454998 </v>
   <v>       0.47957999      -0.01691999       0.49717999 </v>
   <v>      -0.49498994       0.49745998      -0.00165997 </v>
   <v>      -0.00572008      -0.49550001       0.49779000 </v>
   <v>      -0.49436004       0.23264998       0.49544997 </v>
   <v>      -0.49424994      -0.25041998       0.49720000 </v>
   <v>      -0.49299998      -0.49666998       0.25878999 </v>
   <v>      -0.49498997      -0.49782002      -0.26087997 </v>
   <v>      -0.25963999      -0.49803000      -0.49932997 </v>
   <v>       0.25841001      -0.49937998      -0.49870999 </v>
   <v>      -0.49461000      -0.47166995       0.49917999 </v>
  </varray>
 </structure>
 <varray name="primitive_index" >
  <v type="int" >        1 </v>
  <v type="int" >       25 </v>
  <v type="int" >       38 </v>
  <v type="int" >       34 </v>
  <v type="int" >       23 </v>
  <v type="int" >       29 </v>
  <v type="int" >       22 </v>
  <v type="int" >       59 </v>
  <v type="int" >       58 </v>
  <v type="int" >       56 </v>
  <v type="int" >        9 </v>
  <v type="int" >       18 </v>
  <v type="int" >       12 </v>
  <v type="int" >       17 </v>
  <v type="int" >        2 </v>
  <v type="int" >       14 </v>
  <v type="int" >        8 </v>
  <v type="int" >       16 </v>
  <v type="int" >       10 </v>
  <v type="int" >       45 </v>
  <v type="int" >       49 </v>
  <v type="int" >       30 </v>
  <v type="int" >       36 </v>
  <v type="int" >       39 </v>
  <v type="int" >       24 </v>
  <v type="int" >       21 </v>
  <v type="int" >       42 </v>
  <v type="int" >       53 </v>
  <v type="int" >       54 </v>
  <v type="int" >       61 </v>
  <v type="int" >       28 </v>
  <v type="int" >       26 </v>
  <v type="int" >       40 </v>
  <v type="int" >       47 </v>
  <v type="int" >       27 </v>
  <v type="int" >       43 </v>
  <v type="int" >       31 </v>
  <v type="int" >       37 </v>
  <v type="int" >       35 </v>
  <v type="int" >       48 </v>
  <v type="int" >       44 </v>
  <v type="int" >       33 </v>
  <v type="int" >       63 </v>
  <v type="int" >        7 </v>
  <v type="int" >       20 </v>
  <v type="int" >       64 </v>
  <v type="int" >        5 </v>
  <v type="int" >        3 </v>
  <v type="int" >       60 </v>
  <v type="int" >       15 </v>
  <v type="int" >       55 </v>
  <v type="int" >       11 </v>
  <v type="int" >       19 </v>
  <v type="int" >       13 </v>
  <v type="int" >       57 </v>
  <v type="int" >        4 </v>
  <v type="int" >        6 </v>
  <v type="int" >       32 </v>
  <v type="int" >       51 </v>
  <v type="int" >       41 </v>
  <v type="int" >       52 </v>
  <v type="int" >       50 </v>
  <v type="int" >       46 </v>
  <v type="int" >       62 </v>
 </varray>
 <kpoints>
  <generation param="Gamma">
   <v type="int" name="divisions">       3        3        3 </v>
   <v name="usershift">      0.00000000       0.00000000       0.00000000 </v>
   <v name="genvec1">      0.33333333      -0.00000000      -0.00000000 </v>
   <v name="genvec2">      0.00000000       0.33333333       0.00000000 </v>
   <v name="genvec3">      0.00000000       0.00000000       0.33333333 </v>
   <v name="shift">      0.00000000       0.00000000       0.00000000 </v>
  </generation>
  <varray name="kpointlist" >
   <v>       0.00000000       0.00000000       0.00000000 </v>
   <v>       0.33333333       0.00000000       0.00000000 </v>
   <v>       0.00000000       0.33333333       0.00000000 </v>
   <v>       0.33333333       0.33333333       0.00000000 </v>
   <v>      -0.33333333       0.33333333       0.00000000 </v>
   <v>       0.00000000       0.00000000       0.33333333 </v>
   <v>       0.33333333       0.00000000       0.33333333 </v>
   <v>      -0.33333333       0.00000000       0.33333333 </v>
   <v>       0.00000000       0.33333333       0.33333333 </v>
   <v>       0.33333333       0.33333333       0.33333333 </v>
   <v>      -0.33333333       0.33333333       0.33333333 </v>
   <v>       0.00000000      -0.33333333       0.33333333 </v>
   <v>       0.33333333      -0.33333333       0.33333333 </v>
   <v>      -0.33333333      -0.33333333       0.33333333 </v>
  </varray>
  <varray name="weights" >
   <v>       0.03703704 </v>
   <v>       0.07407407 </v>
   <v>       0.07407407 </v>
   <v>       0.07407407 </v>
   <v>       0.07407407 </v>
   <v>       0.07407407 </v>
   <v>       0.07407407 </v>
   <v>       0.07407407 </v>
   <v>       0.07407407 </v>
   <v>       0.07407407 </v>
   <v>       0.07407407 </v>
   <v>       0.07407407 </v>
   <v>       0.07407407 </v>
   <v>       0.07407407 </v>
  </varray>
 </kpoints>
 <parameters>
  <separator name="general" >
   <i type="string" name="SYSTEM">HECN</i>
   <i type="logical" name="LCOMPAT"> F  </i>
  </separator>
  <separator name="electronic" >
   <i type="string" name="PREC">normal</i>
   <i name="ENMAX">    400.00000000</i>
   <i name="ENAUG">    644.87300000</i>
   <i name="EDIFF">      0.00001000</i>
   <i type="int" name="IALGO">    68</i>
   <i type="int" name="IWAVPR">    11</i>
   <i type="int" name="NBANDS">   312</i>
   <i name="NELECT">    517.00000000</i>
   <i type="int" name="TURBO">     0</i>
   <i type="int" name="IRESTART">     0</i>
   <i type="int" name="NREBOOT">     0</i>
   <i type="int" name="NMIN">     0</i>
   <i name="EREF">      0.00000000</i>
   <separator name="electronic smearing" >
    <i type="int" name="ISMEAR">     0</i>
    <i name="SIGMA">      0.10000000</i>
    <i name="KSPACING">      0.50000000</i>
    <i type="logical" name="KGAMMA"> T  </i>
   </separator>
   <separator name="electronic projectors" >
    <i type="logical" name="LREAL"> F  </i>
    <v name="ROPT">      0.00000000      0.00000000      0.00000000      0.00000000      0.00000000      0.00000000      0.00000000</v>
    <i type="int" name="LMAXPAW">  -100</i>
    <i type="int" name="LMAXMIX">     2</i>
    <i type="logical" name="NLSPLINE"> F  </i>
   </separator>
   <separator name="electronic startup" >
    <i type="int" name="ISTART">     0</i>
    <i type="int" name="ICHARG">     2</i>
    <i type="int" name="INIWAV">     1</i>
   </separator>
   <separator name="electronic spin" >
    <i type="int" name="ISPIN">     1</i>
    <i type="logical" name="LNONCOLLINEAR"> F  </i>
    <v name="MAGMOM">      1.00000000      1.00000000      1.00000000      1.00000000      1.00000000      1.00000000      1.00000000      1.00000000      1.00000000      1.00000000      1.00000000      1.00000000      1.00000000      1.00000000      1.00000000      1.00000000      1.00000000      1.00000000      1.00000000      1.00000000
      1.00000000      1.00000000      1.00000000      1.00000000      1.00000000      1.00000000      1.00000000      1.00000000      1.00000000      1.00000000      1.00000000      1.00000000      1.00000000      1.00000000      1.00000000      1.00000000      1.00000000      1.00000000      1.00000000      1.00000000
      1.00000000      1.00000000      1.00000000      1.00000000      1.00000000      1.00000000      1.00000000      1.00000000      1.00000000      1.00000000      1.00000000      1.00000000      1.00000000      1.00000000      1.00000000      1.00000000      1.00000000      1.00000000      1.00000000      1.00000000
      1.00000000      1.00000000      1.00000000      1.00000000</v>
    <i name="NUPDOWN">     -1.00000000</i>
    <i type="logical" name="LSORBIT"> F  </i>
    <v name="SAXIS">      0.00000000      0.00000000      1.00000000</v>
    <i type="logical" name="LSPIRAL"> F  </i>
    <v name="QSPIRAL">      0.00000000      0.00000000      0.00000000</v>
    <i type="logical" name="LZEROZ"> F  </i>
   </separator>
   <separator name="electronic exchange-correlation" >
    <i type="logical" name="LASPH"> F  </i>
    <i type="logical" name="LMETAGGA"> F  </i>
   </separator>
   <separator name="electronic convergence" >
    <i type="int" name="NELM">    60</i>
    <i type="int" name="NELMDL">    -5</i>
    <i type="int" name="NELMIN">     2</i>
    <i name="ENINI">    400.00000000</i>
    <separator name="electronic convergence detail" >
     <i type="logical" name="LDIAG"> T  </i>
     <i type="logical" name="LSUBROT"> F  </i>
     <i name="WEIMIN">      0.00100000</i>
     <i name="EBREAK">      0.00000001</i>
     <i name="DEPER">      0.30000000</i>
     <i type="int" name="NRMM">     4</i>
     <i name="TIME">      0.40000000</i>
    </separator>
   </separator>
   <separator name="electronic mixer" >
    <i name="AMIX">      0.40000000</i>
    <i name="BMIX">      1.00000000</i>
    <i name="AMIN">      0.10000000</i>
    <i name="AMIX_MAG">      1.60000000</i>
    <i name="BMIX_MAG">      1.00000000</i>
    <separator name="electronic mixer details" >
     <i type="int" name="IMIX">     4</i>
     <i type="logical" name="MIXFIRST"> F  </i>
     <i type="int" name="MAXMIX">   -45</i>
     <i name="WC">    100.00000000</i>
     <i type="int" name="INIMIX">     1</i>
     <i type="int" name="MIXPRE">     1</i>
     <i type="int" name="MREMOVE">     5</i>
    </separator>
   </separator>
   <separator name="electronic dipolcorrection" >
    <i type="logical" name="LDIPOL"> F  </i>
    <i type="logical" name="LMONO"> F  </i>
    <i type="int" name="IDIPOL">     0</i>
    <i name="EPSILON">      1.00000000</i>
    <v name="DIPOL">   -100.00000000   -100.00000000   -100.00000000</v>
    <i name="EFIELD">      0.00000000</i>
   </separator>
  </separator>
  <separator name="grids" >
   <i type="int" name="NGX">    48</i>
   <i type="int" name="NGY">    48</i>
   <i type="int" name="NGZ">    48</i>
   <i type="int" name="NGXF">    96</i>
   <i type="int" name="NGYF">    96</i>
   <i type="int" name="NGZF">    96</i>
   <i type="logical" name="ADDGRID"> F  </i>
  </separator>
  <separator name="ionic" >
   <i type="int" name="NSW">   100</i>
   <i type="int" name="IBRION">     2</i>
   <i type="int" name="MDALGO">     0</i>
   <i type="int" name="ISIF">     3</i>
   <i name="PSTRESS">      0.00000000</i>
   <i name="EDIFFG">     -0.01000000</i>
   <i type="int" name="NFREE">     1</i>
   <i name="POTIM">      0.50000000</i>
   <i name="SMASS">     -3.00000000</i>
   <i name="SCALEE">      1.00000000</i>
  </separator>
  <separator name="ionic md" >
   <i name="TEBEG">      0.00010000</i>
   <i name="TEEND">      0.00010000</i>
   <i type="int" name="NBLOCK">     1</i>
   <i type="int" name="KBLOCK">   100</i>
   <i type="int" name="NPACO">   256</i>
   <i name="APACO">     16.00000000</i>
  </separator>
  <separator name="symmetry" >
   <i type="int" name="ISYM">     2</i>
   <i name="SYMPREC">      0.00001000</i>
  </separator>
  <separator name="dos" >
   <i type="int" name="LORBIT">     0</i>
   <v name="RWIGS">     -1.00000000     -1.00000000     -1.00000000     -1.00000000     -1.00000000     -1.00000000     -1.00000000</v>
   <i type="int" name="NEDOS">   301</i>
   <i name="EMIN">     10.00000000</i>
   <i name="EMAX">    -10.00000000</i>
   <i name="EFERMI">      0.00000000</i>
  </separator>
  <separator name="writing" >
   <i type="int" name="NWRITE">     2</i>
   <i type="logical" name="LWAVE"> F  </i>
   <i type="logical" name="LDOWNSAMPLE"> F  </i>
   <i type="logical" name="LCHARG"> F  </i>
   <i type="logical" name="LPARD"> F  </i>
   <i type="logical" name="LVTOT"> F  </i>
   <i type="logical" name="LVHAR"> F  </i>
   <i type="logical" name="LELF"> F  </i>
   <i type="logical" name="LOPTICS"> F  </i>
   <v name="STM">      0.00000000      0.00000000      0.00000000      0.00000000      0.00000000      0.00000000      0.00000000</v>
  </separator>
  <separator name="performance" >
   <i type="int" name="NPAR">    24</i>
   <i type="int" name="NSIM">     4</i>
   <i type="int" name="NBLK">    -1</i>
   <i type="logical" name="LPLANE"> T  </i>
   <i type="logical" name="LSCALAPACK"> T  </i>
   <i type="logical" name="LSCAAWARE"> F  </i>
   <i type="logical" name="LSCALU"> F  </i>
   <i type="logical" name="LASYNC"> F  </i>
   <i type="logical" name="LORBITALREAL"> F  </i>
  </separator>
  <separator name="miscellaneous" >
   <i type="int" name="IDIOT">     3</i>
   <i type="int" name="ISPECIAL">     0</i>
   <i type="logical" name="LMUSIC"> F  </i>
   <v name="POMASS">    178.49000000     92.91000000     91.22400000     14.00100000     12.01100000     51.99600000    183.85000000</v>
   <v name="DARWINR">      0.00000000      0.00000000      0.00000000      0.00000000      0.00000000      0.00000000      0.00000000</v>
   <v name="DARWINV">      1.00000000      1.00000000      1.00000000      1.00000000      1.00000000      1.00000000      1.00000000</v>
   <i type="logical" name="LCORR"> T  </i>
  </separator>
  <i type="logical" name="GGA_COMPAT"> T  </i>
  <i type="logical" name="LBERRY"> F  </i>
  <i type="int" name="ICORELEVEL">     0</i>
  <i type="logical" name="LDAU"> F  </i>
  <i type="int" name="I_CONSTRAINED_M">     0</i>
  <separator name="electronic exchange-correlation" >
   <i type="string" name="GGA">--</i>
   <i type="int" name="VOSKOWN">     0</i>
   <i type="logical" name="LHFCALC"> F  </i>
   <i type="string" name="PRECFOCK"></i>
   <i type="logical" name="LSYMGRAD"> F  </i>
   <i type="logical" name="LHFONE"> F  </i>
   <i type="logical" name="LRHFCALC"> F  </i>
   <i type="logical" name="LTHOMAS"> F  </i>
   <i type="logical" name="LMODELHF"> F  </i>
   <i name="ENCUT4O">     -1.00000000</i>
   <i type="int" name="EXXOEP">     0</i>
   <i type="int" name="FOURORBIT">     0</i>
   <i name="AEXX">      0.00000000</i>
   <i name="HFALPHA">      0.00000000</i>
   <i name="MCALPHA">      0.00000000</i>
   <i name="ALDAX">      1.00000000</i>
   <i name="AGGAX">      1.00000000</i>
   <i name="ALDAC">      1.00000000</i>
   <i name="AGGAC">      1.00000000</i>
   <i type="int" name="NKREDX">     1</i>
   <i type="int" name="NKREDY">     1</i>
   <i type="int" name="NKREDZ">     1</i>
   <i type="logical" name="SHIFTRED"> F  </i>
   <i type="logical" name="ODDONLY"> F  </i>
   <i type="logical" name="EVENONLY"> F  </i>
   <i type="int" name="LMAXFOCK">     0</i>
   <i type="int" name="NMAXFOCKAE">     0</i>
   <i type="logical" name="LFOCKAEDFT"> F  </i>
   <i name="HFSCREEN">      0.00000000</i>
   <i name="HFSCREENC">      0.00000000</i>
   <i type="int" name="NBANDSGWLOW">     0</i>
  </separator>
  <separator name="vdW DFT" >
   <i type="logical" name="LUSE_VDW"> F  </i>
   <i name="Zab_VDW">     -0.84910000</i>
   <i name="PARAM1">      0.12340000</i>
   <i name="PARAM2">      1.00000000</i>
   <i name="PARAM3">      0.00000000</i>
  </separator>
  <separator name="model GW" >
   <i type="int" name="MODEL_GW">     0</i>
   <i name="MODEL_EPS0">      6.77734242</i>
   <i name="MODEL_ALPHA">      1.00000000</i>
  </separator>
  <separator name="linear response parameters" >
   <i type="logical" name="LEPSILON"> F  </i>
   <i type="logical" name="LRPA"> F  </i>
   <i type="logical" name="LNABLA"> F  </i>
   <i type="logical" name="LVEL"> F  </i>
   <i type="int" name="KINTER">     0</i>
   <i name="CSHIFT">      0.10000000</i>
   <i name="OMEGAMAX">     -1.00000000</i>
   <i name="DEG_THRESHOLD">      0.00200000</i>
   <i name="RTIME">     -0.10000000</i>
   <i name="WPLASMAI">      0.00000000</i>
   <v name="DFIELD">      0.00000000      0.00000000      0.00000000</v>
   <v name="WPLASMA">      0.00000000      0.00000000      0.00000000      0.00000000      0.00000000      0.00000000      0.00000000      0.00000000      0.00000000</v>
  </separator>
  <separator name="orbital magnetization" >
   <i type="logical" name="NUCIND"> F  </i>
   <v name="MAGPOS">      0.00000000      0.00000000      0.00000000</v>
   <i type="logical" name="LNICSALL"> T  </i>
   <i type="logical" name="ORBITALMAG"> F  </i>
   <i type="logical" name="LMAGBLOCH"> F  </i>
   <i type="logical" name="LCHIMAG"> F  </i>
   <i type="logical" name="LGAUGE"> T  </i>
   <i type="int" name="MAGATOM">     0</i>
   <v name="MAGDIPOL">      0.00000000      0.00000000      0.00000000</v>
   <v name="AVECCONST">      0.00000000      0.00000000      0.00000000</v>
  </separator>
  <separator name="response functions" >
   <i type="logical" name="LADDER"> F  </i>
   <i type="logical" name="LRPAFORCE"> F  </i>
   <i type="logical" name="LFXC"> F  </i>
   <i type="logical" name="LHARTREE"> T  </i>
   <i type="int" name="IBSE">     0</i>
   <v type="int" name="KPOINT">    -1     0     0     0</v>
   <i type="logical" name="LTCTE"> F  </i>
   <i type="logical" name="LTETE"> F  </i>
   <i type="logical" name="LTRIPLET"> F  </i>
   <i type="logical" name="LFXCEPS"> F  </i>
   <i type="logical" name="LFXHEG"> F  </i>
   <i type="int" name="NATURALO">     2</i>
   <i type="logical" name="L2ORDER"> F  </i>
   <i type="logical" name="LMP2LT"> F  </i>
   <i type="logical" name="LUSEW"> F  </i>
   <i name="ENCUTGW">     -2.00000000</i>
   <i name="ENCUTGWSOFT">     -2.00000000</i>
   <i name="ENCUTLF">     -1.00000000</i>
   <i type="int" name="LMAXMP2">    -1</i>
   <i name="SCISSOR">      0.00000000</i>
   <i type="int" name="NOMEGA">     0</i>
   <i type="int" name="NOMEGAR">     0</i>
   <i type="int" name="NBANDSGW">    -1</i>
   <i type="int" name="NBANDSO">    -1</i>
   <i type="int" name="NBANDSV">    -1</i>
   <i type="int" name="NELM">    60</i>
   <i type="int" name="NELMHF">     1</i>
   <i type="int" name="DIM">     3</i>
   <i type="int" name="ANTIRES">     0</i>
   <i name="OMEGAMAX">    -30.00000000</i>
   <i name="OMEGAMIN">    -30.00000000</i>
   <i name="OMEGATL">   -200.00000000</i>
   <i type="int" name="OMEGAGRID">   140</i>
   <i name="CSHIFT">     -0.10000000</i>
   <i type="logical" name="SELFENERGY"> F  </i>
   <i type="logical" name="LSPECTRAL"> F  </i>
   <i type="logical" name="LSPECTRALGW"> F  </i>
   <i type="logical" name="LSINGLES"> F  </i>
   <i type="logical" name="LFERMIGW"> F  </i>
   <i type="logical" name="ODDONLYGW"> F  </i>
   <i type="logical" name="EVENONLYGW"> F  </i>
   <i type="int" name="NKREDLFX">     1</i>
   <i type="int" name="NKREDLFY">     1</i>
   <i type="int" name="NKREDLFZ">     1</i>
   <i type="int" name="MAXMEM">  2800</i>
   <i type="int" name="TELESCOPE">     0</i>
   <i type="int" name="TAUPAR">     1</i>
   <i type="int" name="OMEGAPAR">    -1</i>
   <i name="LAMBDA">      1.00000000</i>
  </separator>
  <separator name="External order field" >
   <i name="OFIELD_KAPPA">      0.00000000</i>
   <v name="OFIELD_K">      0.00000000      0.00000000      0.00000000</v>
   <i name="OFIELD_Q6_NEAR">      0.00000000</i>
   <i name="OFIELD_Q6_FAR">      0.00000000</i>
   <i name="OFIELD_A">      0.00000000</i>
  </separator>
 </parameters>
 <atominfo>
  <atoms>      64 </atoms>
  <types>       7 </types>
  <array name="atoms" >
   <dimension dim="1">ion</dimension>
   <field type="string">element</field>
   <field type="int">atomtype</field>
   <set>
    <rc><c>Hf</c><c>   1</c></rc>
    <rc><c>Hf</c><c>   1</c></rc>
    <rc><c>Hf</c><c>   1</c></rc>
    <rc><c>Hf</c><c>   1</c></rc>
    <rc><c>Hf</c><c>   1</c></rc>
    <rc><c>Hf</c><c>   1</c></rc>
    <rc><c>Hf</c><c>   1</c></rc>
    <rc><c>Nb</c><c>   2</c></rc>
    <rc><c>Nb</c><c>   2</c></rc>
    <rc><c>Nb</c><c>   2</c></rc>
    <rc><c>Nb</c><c>   2</c></rc>
    <rc><c>Nb</c><c>   2</c></rc>
    <rc><c>Nb</c><c>   2</c></rc>
    <rc><c>Zr</c><c>   3</c></rc>
    <rc><c>Zr</c><c>   3</c></rc>
    <rc><c>Zr</c><c>   3</c></rc>
    <rc><c>Zr</c><c>   3</c></rc>
    <rc><c>Zr</c><c>   3</c></rc>
    <rc><c>Zr</c><c>   3</c></rc>
    <rc><c>Zr</c><c>   3</c></rc>
    <rc><c>N </c><c>   4</c></rc>
    <rc><c>N </c><c>   4</c></rc>
    <rc><c>N </c><c>   4</c></rc>
    <rc><c>N </c><c>   4</c></rc>
    <rc><c>N </c><c>   4</c></rc>
    <rc><c>N </c><c>   4</c></rc>
    <rc><c>N </c><c>   4</c></rc>
    <rc><c>N </c><c>   4</c></rc>
    <rc><c>N </c><c>   4</c></rc>
    <rc><c>N </c><c>   4</c></rc>
    <rc><c>N </c><c>   4</c></rc>
    <rc><c>N </c><c>   4</c></rc>
    <rc><c>N </c><c>   4</c></rc>
    <rc><c>C </c><c>   5</c></rc>
    <rc><c>C </c><c>   5</c></rc>
    <rc><c>C </c><c>   5</c></rc>
    <rc><c>C </c><c>   5</c></rc>
    <rc><c>C </c><c>   5</c></rc>
    <rc><c>C </c><c>   5</c></rc>
    <rc><c>C </c><c>   5</c></rc>
    <rc><c>C </c><c>   5</c></rc>
    <rc><c>C </c><c>   5</c></rc>
    <rc><c>C </c><c>   5</c></rc>
    <rc><c>C </c><c>   5</c></rc>
    <rc><c>C </c><c>   5</c></rc>
    <rc><c>C </c><c>   5</c></rc>
    <rc><c>C </c><c>   5</c></rc>
    <rc><c>C </c><c>   5</c></rc>
    <rc><c>C </c><c>   5</c></rc>
    <rc><c>C </c><c>   5</c></rc>
    <rc><c>C </c><c>   5</c></rc>
    <rc><c>C </c><c>   5</c></rc>
    <rc><c>Cr</c><c>   6</c></rc>
    <rc><c>Cr</c><c>   6</c></rc>
    <rc><c>Cr</c><c>   6</c></rc>
    <rc><c>Cr</c><c>   6</c></rc>
    <rc><c>Cr</c><c>   6</c></rc>
    <rc><c>Cr</c><c>   6</c></rc>
    <rc><c>W </c><c>   7</c></rc>
    <rc><c>W </c><c>   7</c></rc>
    <rc><c>W </c><c>   7</c></rc>
    <rc><c>W </c><c>   7</c></rc>
    <rc><c>W </c><c>   7</c></rc>
    <rc><c>W </c><c>   7</c></rc>
   </set>
  </array>
  <array name="atomtypes" >
   <dimension dim="1">type</dimension>
   <field type="int">atomspertype</field>
   <field type="string">element</field>
   <field>mass</field>
   <field>valence</field>
   <field type="string">pseudopotential</field>
   <set>
    <rc><c>   7</c><c>Hf</c><c>    178.49000000</c><c>     10.00000000</c><c> PAW_PBE Hf_pv 06Sep2000                </c></rc>
    <rc><c>   6</c><c>Nb</c><c>     92.91000000</c><c>     13.00000000</c><c> PAW_PBE Nb_sv 17Jan2003                </c></rc>
    <rc><c>   7</c><c>Zr</c><c>     91.22400000</c><c>     12.00000000</c><c> PAW_PBE Zr_sv 07Sep2000                </c></rc>
    <rc><c>  13</c><c>N </c><c>     14.00100000</c><c>      5.00000000</c><c> PAW_PBE N 08Apr2002                    </c></rc>
    <rc><c>  19</c><c>C </c><c>     12.01100000</c><c>      4.00000000</c><c> PAW_PBE C 08Apr2002                    </c></rc>
    <rc><c>   6</c><c>Cr</c><c>     51.99600000</c><c>     12.00000000</c><c> PAW_PBE Cr_pv 07Sep2000                </c></rc>
    <rc><c>   6</c><c>W </c><c>    183.85000000</c><c>     12.00000000</c><c> PAW_PBE W_pv 06Sep2000                 </c></rc>
   </set>
  </array>
 </atominfo>
 <structure name="initialpos" >
  <crystal>
   <varray name="basis" >
    <v>       8.93249989       0.00000000       0.00000000 </v>
    <v>       0.00575300       9.05559834       0.00000000 </v>
    <v>       0.03210180      -0.01574346       8.93712807 </v>
   </varray>
   <i name="volume">    722.91652451 </i>
   <varray name="rec_basis" >
    <v>       0.11195074      -0.00007112      -0.00040225 </v>
    <v>       0.00000000       0.11042893       0.00019453 </v>
    <v>       0.00000000       0.00000000       0.11189277 </v>
   </varray>
  </crystal>
  <varray name="positions" >
   <v>       0.99688001       0.99204997       0.99924002 </v>
   <v>       0.25398003       0.99714995       0.24912000 </v>
   <v>       0.24803003       0.50165000       0.24955001 </v>
   <v>       0.50501006       0.49745998       0.99834003 </v>
   <v>       0.50479003       0.24631001       0.74710002 </v>
   <v>       0.99427992       0.50449999       0.49779000 </v>
   <v>       0.49950005       0.75481999       0.74817004 </v>
   <v>       0.99437004       0.23617001       0.26379999 </v>
   <v>       0.75718000       0.74102998       0.01100000 </v>
   <v>       0.00201000       0.25541000       0.73894001 </v>
   <v>       0.75307001       0.26163001       0.50533002 </v>
   <v>       0.99514004       0.74492004       0.74511997 </v>
   <v>       0.25679999       0.49462002       0.74545002 </v>
   <v>       0.24788999       0.24839000       0.99657997 </v>
   <v>       0.50833000       0.25676999       0.25376001 </v>
   <v>       0.74879004       0.98787999       0.26967001 </v>
   <v>       0.75719000       0.25603001       0.99591997 </v>
   <v>       0.24762001       0.74973999       0.99974006 </v>
   <v>       0.25272001       0.24823001       0.50015003 </v>
   <v>       0.24457999       0.75048999       0.49983999 </v>
   <v>       0.24982001       0.24942998       0.24825000 </v>
   <v>       0.26146999       0.99984002       0.99295996 </v>
   <v>       0.00281000       0.25024000       0.00130000 </v>
   <v>       0.75313998       0.24617000       0.25492002 </v>
   <v>       0.74767001       0.99748000       0.01202000 </v>
   <v>       0.50714994       0.99977000       0.24673000 </v>
   <v>       0.99051999       0.48088002       0.24100998 </v>
   <v>       0.50519005       0.76130999       0.00855000 </v>
   <v>       0.98896989       0.00202000       0.73708999 </v>
   <v>       0.75744996       0.24437997       0.74896999 </v>
   <v>       0.73632001       0.00417000       0.51063000 </v>
   <v>       0.50563996       0.23264999       0.49544997 </v>
   <v>       0.50008998       0.00061000       0.73471998 </v>
   <v>       0.99720000       0.99771992       0.25899999 </v>
   <v>       0.50427997       0.24673000       0.00262000 </v>
   <v>       0.25133999       0.74958002       0.24910999 </v>
   <v>       0.24328000       0.50072997       0.99510994 </v>
   <v>       0.99837005       0.74313996       0.00460000 </v>
   <v>       0.75633000       0.73891003       0.25767000 </v>
   <v>       0.75839004       0.50315998       0.00288000 </v>
   <v>       0.50700002       0.50333002       0.25878999 </v>
   <v>       0.24900999       0.25315000       0.74854000 </v>
   <v>       0.24446000       0.99823996       0.50287998 </v>
   <v>       0.99804009       0.24229999       0.50128003 </v>
   <v>       0.24177002       0.75340997       0.75018002 </v>
   <v>       0.25841001       0.50062002       0.50129001 </v>
   <v>       0.99000004       0.76215003       0.49746000 </v>
   <v>       0.99203996       0.50055999       0.75138002 </v>
   <v>       0.75036005       0.74888000       0.74756004 </v>
   <v>       0.74036002       0.50197000       0.50067003 </v>
   <v>       0.50575006       0.74958002       0.49720000 </v>
   <v>       0.50501003       0.50217998       0.73912003 </v>
   <v>       0.51588997       0.01358000       0.98075008 </v>
   <v>       0.99841994       0.50976998       0.98613004 </v>
   <v>       0.50379003       0.73926997       0.25905001 </v>
   <v>       0.23780002       0.01082000       0.74607998 </v>
   <v>       0.47957999       0.98308000       0.49717999 </v>
   <v>       0.74279003       0.97869994       0.76450995 </v>
   <v>       0.99864998       0.77573999       0.26102000 </v>
   <v>       0.73551001       0.51468004       0.26666001 </v>
   <v>       0.02362000       0.99783001       0.49557002 </v>
   <v>       0.50539000       0.52833005       0.49917999 </v>
   <v>       0.73876003       0.52828003       0.73814999 </v>
   <v>       0.75400003       0.72937999       0.49116997 </v>
  </varray>
 </structure>
 <calculation>
  <scstep>
   <time name="dav">   20.26   20.81</time>
   <time name="total">   20.30   20.85</time>
   <energy>
    <i name="alphaZ">   4477.15351439 </i>
    <i name="ewald"> -42740.18742903 </i>
    <i name="hartreedc">  -7466.84138636 </i>
    <i name="XCdc">   1916.33705319 </i>
    <i name="pawpsdc">  29534.19237591 </i>
    <i name="pawaedc"> -29458.12275768 </i>
    <i name="eentropy">     -0.08091753 </i>
    <i name="bandstr">   1993.35868754 </i>
    <i name="atom">  48011.07039720 </i>
    <i name="e_fr_energy">   6266.87953762 </i>
    <i name="e_wo_entrp">   6266.96045515 </i>
    <i name="e_0_energy">   6266.91999638 </i>
   </energy>
  </scstep>
  <scstep>
   <time name="dav">   21.90   22.48</time>
   <time name="total">   21.91   22.48</time>
   <energy>
    <i name="e_fr_energy">    326.55292377 </i>
    <i name="e_wo_entrp">    326.65533469 </i>
    <i name="e_0_energy">    326.60412923 </i>
   </energy>
  </scstep>
  <scstep>
   <time name="dav">   31.73   31.77</time>
   <time name="total">   31.73   31.77</time>
   <energy>
    <i name="e_fr_energy">   -667.01456015 </i>
    <i name="e_wo_entrp">   -666.93013138 </i>
    <i name="e_0_energy">   -666.97234577 </i>
   </energy>
  </scstep>
  <scstep>
   <time name="dav">   34.45   35.33</time>
   <time name="total">   34.45   35.34</time>
   <energy>
    <i name="e_fr_energy">   -773.86508278 </i>
    <i name="e_wo_entrp">   -773.78785891 </i>
    <i name="e_0_energy">   -773.82647085 </i>
   </energy>
  </scstep>
  <scstep>
   <time name="dav">   38.23   38.28</time>
   <time name="total">   38.50   38.54</time>
   <energy>
    <i name="e_fr_energy">   -787.74635158 </i>
    <i name="e_wo_entrp">   -787.66045622 </i>
    <i name="e_0_energy">   -787.70340390 </i>
   </energy>
  </scstep>
  <scstep>
   <time name="diag">    1.74    1.77</time>
   <time name="diis">   18.76   19.35</time>
   <time name="orth">    0.44    0.46</time>
   <time name="total">   21.24   21.89</time>
   <energy>
    <i name="e_fr_energy">   -982.00871359 </i>
    <i name="e_wo_entrp">   -981.76815684 </i>
    <i name="e_0_energy">   -981.88843521 </i>
   </energy>
  </scstep>
  <scstep>
   <time name="diag">    1.76    1.79</time>
   <time name="diis">   21.23   21.85</time>
   <time name="orth">    0.43    0.43</time>
   <time name="total">   23.70   24.36</time>
   <energy>
    <i name="e_fr_energy">   -647.98815009 </i>
    <i name="e_wo_entrp">   -647.87046295 </i>
    <i name="e_0_energy">   -647.92930652 </i>
   </energy>
  </scstep>
  <scstep>
   <time name="diag">    1.75    1.78</time>
   <time name="diis">   22.83   23.50</time>
   <time name="orth">    0.43    0.43</time>
   <time name="total">   25.29   26.01</time>
   <energy>
    <i name="e_fr_energy">   -657.62424934 </i>
    <i name="e_wo_entrp">   -657.50709739 </i>
    <i name="e_0_energy">   -657.56567336 </i>
   </energy>
  </scstep>
  <scstep>
   <time name="diag">    1.79    1.79</time>
   <time name="diis">   22.43   22.44</time>
   <time name="orth">    0.44    0.45</time>
   <time name="total">   24.95   24.97</time>
   <energy>
    <i name="e_fr_energy">   -653.46792693 </i>
    <i name="e_wo_entrp">   -653.33055857 </i>
    <i name="e_0_energy">   -653.39924275 </i>
   </energy>
  </scstep>
  <scstep>
   <time name="diag">    1.78    1.78</time>
   <time name="diis">   21.91   21.94</time>
   <time name="orth">    0.44    0.44</time>
   <time name="total">   24.41   24.44</time>
   <energy>
    <i name="e_fr_energy">   -649.13157566 </i>
    <i name="e_wo_entrp">   -648.97342794 </i>
    <i name="e_0_energy">   -649.05250180 </i>
   </energy>
  </scstep>
  <scstep>
   <time name="diag">    1.75    1.78</time>
   <time name="diis">   19.81   20.41</time>
   <time name="orth">    0.43    0.43</time>
   <time name="total">   22.27   22.93</time>
   <energy>
    <i name="e_fr_energy">   -651.44536253 </i>
    <i name="e_wo_entrp">   -651.29913468 </i>
    <i name="e_0_energy">   -651.37224861 </i>
   </energy>
  </scstep>
  <scstep>
   <time name="diag">    1.78    1.78</time>
   <time name="diis">   21.96   21.99</time>
   <time name="orth">    0.43    0.43</time>
   <time name="total">   24.46   24.49</time>
   <energy>
    <i name="e_fr_energy">   -648.26277855 </i>
    <i name="e_wo_entrp">   -648.11136316 </i>
    <i name="e_0_energy">   -648.18707085 </i>
   </energy>
  </scstep>
  <scstep>
   <time name="diag">    1.77    1.77</time>
   <time name="diis">   21.57   21.62</time>
   <time name="orth">    0.43    0.43</time>
   <time name="total">   24.06   24.12</time>
   <energy>
    <i name="e_fr_energy">   -648.99210056 </i>
    <i name="e_wo_entrp">   -648.83677871 </i>
    <i name="e_0_energy">   -648.91443963 </i>
   </energy>
  </scstep>
  <scstep>
   <time name="diag">    1.75    1.79</time>
   <time name="diis">   21.50   22.16</time>
   <time name="orth">    0.43    0.43</time>
   <time name="total">   23.97   24.68</time>
   <energy>
    <i name="e_fr_energy">   -648.38603460 </i>
    <i name="e_wo_entrp">   -648.22634181 </i>
    <i name="e_0_energy">   -648.30618820 </i>
   </energy>
  </scstep>
  <scstep>
   <time name="diag">    1.74    1.77</time>
   <time name="diis">   21.36   21.96</time>
   <time name="orth">    0.43    0.43</time>
   <time name="total">   23.82   24.47</time>
   <energy>
    <i name="e_fr_energy">   -648.55989979 </i>
    <i name="e_wo_entrp">   -648.41004936 </i>
    <i name="e_0_energy">   -648.48497458 </i>
   </energy>
  </scstep>
  <scstep>
   <time name="diag">    1.76    1.79</time>
   <time name="diis">   21.62   22.27</time>
   <time name="orth">    0.43    0.43</time>
   <time name="total">   24.09   24.80</time>
   <energy>
    <i name="e_fr_energy">   -648.05481024 </i>
    <i name="e_wo_entrp">   -647.88801839 </i>
    <i name="e_0_energy">   -647.97141431 </i>
   </energy>
  </scstep>
  <scstep>
   <time name="diag">    1.77    1.78</time>
   <time name="diis">   20.35   20.38</time>
   <time name="orth">    0.43    0.43</time>
   <time name="total">   22.85   22.88</time>
   <energy>
    <i name="e_fr_energy">   -648.02767696 </i>
    <i name="e_wo_entrp">   -647.87105451 </i>
    <i name="e_0_energy">   -647.94936574 </i>
   </energy>
  </scstep>
  <scstep>
   <time name="diag">    1.80    1.80</time>
   <time name="diis">   23.05   23.11</time>
   <time name="orth">    0.43    0.43</time>
   <time name="total">   25.58   25.65</time>
   <energy>
    <i name="e_fr_energy">   -648.08245832 </i>
    <i name="e_wo_entrp">   -647.92210216 </i>
    <i name="e_0_energy">   -648.00228024 </i>
   </energy>
  </scstep>
  <scstep>
   <time name="diag">    1.75    1.78</time>
   <time name="diis">   18.90   19.44</time>
   <time name="orth">    0.42    0.43</time>
   <time name="total">   21.36   21.95</time>
   <energy>
    <i name="e_fr_energy">   -648.05503918 </i>
    <i name="e_wo_entrp">   -647.89506748 </i>
    <i name="e_0_energy">   -647.97505333 </i>
   </energy>
  </scstep>
  <scstep>
   <time name="diag">    1.75    1.78</time>
   <time name="diis">   22.29   22.93</time>
   <time name="orth">    0.43    0.43</time>
   <time name="total">   24.76   25.44</time>
   <energy>
    <i name="e_fr_energy">   -648.03000312 </i>
    <i name="e_wo_entrp">   -647.87047841 </i>
    <i name="e_0_energy">   -647.95024076 </i>
   </energy>
  </scstep>
  <scstep>
   <time name="diag">    1.79    1.79</time>
   <time name="diis">   19.18   19.26</time>
   <time name="orth">    0.43    0.43</time>
   <time name="total">   21.69   21.77</time>
   <energy>
    <i name="e_fr_energy">   -648.03457972 </i>
    <i name="e_wo_entrp">   -647.87471283 </i>
    <i name="e_0_energy">   -647.95464627 </i>
   </energy>
  </scstep>
  <scstep>
   <time name="diag">    1.80    1.81</time>
   <time name="diis">   22.31   22.38</time>
   <time name="orth">    0.43    0.43</time>
   <time name="total">   24.83   24.92</time>
   <energy>
    <i name="e_fr_energy">   -648.03620646 </i>
    <i name="e_wo_entrp">   -647.87620102 </i>
    <i name="e_0_energy">   -647.95620374 </i>
   </energy>
  </scstep>
  <scstep>
   <time name="diag">    1.78    1.81</time>
   <time name="diis">   21.44   21.54</time>
   <time name="orth">    0.44    0.44</time>
   <time name="total">   23.96   24.09</time>
   <energy>
    <i name="e_fr_energy">   -648.03792535 </i>
    <i name="e_wo_entrp">   -647.87795391 </i>
    <i name="e_0_energy">   -647.95793963 </i>
   </energy>
  </scstep>
  <scstep>
   <time name="diag">    1.77    1.78</time>
   <time name="diis">   21.26   21.30</time>
   <time name="orth">    0.43    0.43</time>
   <time name="total">   23.76   23.81</time>
   <energy>
    <i name="e_fr_energy">   -648.03884814 </i>
    <i name="e_wo_entrp">   -647.87884050 </i>
    <i name="e_0_energy">   -647.95884432 </i>
   </energy>
  </scstep>
  <scstep>
   <time name="diag">    1.77    1.77</time>
   <time name="diis">   20.29   20.32</time>
   <time name="orth">    0.45    0.45</time>
   <time name="total">   22.81   22.84</time>
   <energy>
    <i name="e_fr_energy">   -648.03917743 </i>
    <i name="e_wo_entrp">   -647.87916277 </i>
    <i name="e_0_energy">   -647.95917010 </i>
   </energy>
  </scstep>
  <scstep>
   <time name="diag">    1.74    1.77</time>
   <time name="diis">   18.87   18.94</time>
   <time name="orth">    0.44    0.45</time>
   <time name="total">   21.35   21.46</time>
   <energy>
    <i name="e_fr_energy">   -648.03947502 </i>
    <i name="e_wo_entrp">   -647.87944410 </i>
    <i name="e_0_energy">   -647.95945956 </i>
   </energy>
  </scstep>
  <scstep>
   <time name="diag">    1.79    1.80</time>
   <time name="diis">   18.27   18.31</time>
   <time name="orth">    0.43    0.43</time>
   <time name="total">   20.79   20.84</time>
   <energy>
    <i name="e_fr_energy">   -648.03966326 </i>
    <i name="e_wo_entrp">   -647.87963527 </i>
    <i name="e_0_energy">   -647.95964927 </i>
   </energy>
  </scstep>
  <scstep>
   <time name="diag">    1.78    1.78</time>
   <time name="diis">   17.88   17.94</time>
   <time name="orth">    0.43    0.43</time>
   <time name="total">   20.38   20.45</time>
   <energy>
    <i name="e_fr_energy">   -648.03977941 </i>
    <i name="e_wo_entrp">   -647.87975057 </i>
    <i name="e_0_energy">   -647.95976499 </i>
   </energy>
  </scstep>
  <scstep>
   <time name="diag">    1.80    1.80</time>
   <time name="diis">   17.63   17.78</time>
   <time name="orth">    0.44    0.44</time>
   <time name="total">   20.16   20.31</time>
   <energy>
    <i name="e_fr_energy">   -648.03984021 </i>
    <i name="e_wo_entrp">   -647.87981918 </i>
    <i name="e_0_energy">   -647.95982969 </i>
   </energy>
  </scstep>
  <scstep>
   <time name="diag">    1.77    1.77</time>
   <time name="diis">   17.24   17.30</time>
   <time name="orth">    0.43    0.43</time>
   <time name="total">   19.74   19.79</time>
   <energy>
    <i name="e_fr_energy">   -648.03988861 </i>
    <i name="e_wo_entrp">   -647.87986147 </i>
    <i name="e_0_energy">   -647.95987504 </i>
   </energy>
  </scstep>
  <scstep>
   <time name="diag">    1.74    1.77</time>
   <time name="diis">   16.49   16.96</time>
   <time name="orth">    0.42    0.43</time>
   <time name="total">   18.94   19.46</time>
   <energy>
    <i name="e_fr_energy">   -648.03991353 </i>
    <i name="e_wo_entrp">   -647.87989072 </i>
    <i name="e_0_energy">   -647.95990212 </i>
   </energy>
  </scstep>
  <scstep>
   <time name="diag">    1.75    1.79</time>
   <time name="diis">   15.73   16.02</time>
   <time name="orth">    0.43    0.43</time>
   <time name="total">   18.20   18.53</time>
   <energy>
    <i name="e_fr_energy">   -648.03993176 </i>
    <i name="e_wo_entrp">   -647.87990822 </i>
    <i name="e_0_energy">   -647.95991999 </i>
   </energy>
  </scstep>
  <scstep>
   <time name="diag">    1.80    1.80</time>
   <time name="diis">   15.48   15.49</time>
   <time name="orth">    0.43    0.43</time>
   <time name="total">   18.00   18.02</time>
   <energy>
    <i name="e_fr_energy">   -648.03994350 </i>
    <i name="e_wo_entrp">   -647.87992095 </i>
    <i name="e_0_energy">   -647.95993223 </i>
   </energy>
  </scstep>
  <scstep>
   <time name="diag">    1.74    1.77</time>
   <time name="diis">   13.83   14.21</time>
   <time name="orth">    0.43    0.43</time>
   <time name="total">   16.02   16.44</time>
   <energy>
    <i name="alphaZ">   4477.15351439 </i>
    <i name="ewald"> -42740.18742903 </i>
    <i name="hartreedc">  -7017.02536198 </i>
    <i name="XCdc">   1906.76974925 </i>
    <i name="pawpsdc">  31116.30444165 </i>
    <i name="pawaedc"> -31073.54133892 </i>
    <i name="eentropy">     -0.16002281 </i>
    <i name="bandstr">  -5328.42389938 </i>
    <i name="atom">  48011.07039720 </i>
    <i name="e_fr_energy">   -648.03994963 </i>
    <i name="e_wo_entrp">   -647.87992682 </i>
    <i name="e_0_energy">   -647.95993823 </i>
   </energy>
  </scstep>
  <structure>
   <crystal>
    <varray name="basis" >
     <v>       8.93249989       0.00000000       0.00000000 </v>
     <v>       0.00575300       9.05559834       0.00000000 </v>
     <v>       0.03210180      -0.01574346       8.93712807 </v>
    </varray>
    <i name="volume">    722.91652451 </i>
    <varray name="rec_basis" >
     <v>       0.11195074      -0.00007112      -0.00040225 </v>
     <v>       0.00000000       0.11042893       0.00019453 </v>
     <v>       0.00000000       0.00000000       0.11189277 </v>
    </varray>
   </crystal>
   <varray name="positions" >
    <v>       0.99688001       0.99204997       0.99924002 </v>
    <v>       0.25398003       0.99714995       0.24912000 </v>
    <v>       0.24803003       0.50165000       0.24955001 </v>
    <v>       0.50501006       0.49745998       0.99834003 </v>
    <v>       0.50479003       0.24631001       0.74710002 </v>
    <v>       0.99427992       0.50449999       0.49779000 </v>
    <v>       0.49950005       0.75481999       0.74817004 </v>
    <v>       0.99437004       0.23617001       0.26379999 </v>
    <v>       0.75718000       0.74102998       0.01100000 </v>
    <v>       0.00201000       0.25541000       0.73894001 </v>
    <v>       0.75307001       0.26163001       0.50533002 </v>
    <v>       0.99514004       0.74492004       0.74511997 </v>
    <v>       0.25679999       0.49462002       0.74545002 </v>
    <v>       0.24788999       0.24839000       0.99657997 </v>
    <v>       0.50833000       0.25676999       0.25376001 </v>
    <v>       0.74879004       0.98787999       0.26967001 </v>
    <v>       0.75719000       0.25603001       0.99591997 </v>
    <v>       0.24762001       0.74973999       0.99974006 </v>
    <v>       0.25272001       0.24823001       0.50015003 </v>
    <v>       0.24457999       0.75048999       0.49983999 </v>
    <v>       0.24982001       0.24942998       0.24825000 </v>
    <v>       0.26146999       0.99984002       0.99295996 </v>
    <v>       0.00281000       0.25024000       0.00130000 </v>
    <v>       0.75313998       0.24617000       0.25492002 </v>
    <v>       0.74767001       0.99748000       0.01202000 </v>
    <v>       0.50714994       0.99977000       0.24673000 </v>
    <v>       0.99051999       0.48088002       0.24100998 </v>
    <v>       0.50519005       0.76130999       0.00855000 </v>
    <v>       0.98896989       0.00202000       0.73708999 </v>
    <v>       0.75744996       0.24437997       0.74896999 </v>
    <v>       0.73632001       0.00417000       0.51063000 </v>
    <v>       0.50563996       0.23264999       0.49544997 </v>
    <v>       0.50008998       0.00061000       0.73471998 </v>
    <v>       0.99720000       0.99771992       0.25899999 </v>
    <v>       0.50427997       0.24673000       0.00262000 </v>
    <v>       0.25133999       0.74958002       0.24910999 </v>
    <v>       0.24328000       0.50072997       0.99510994 </v>
    <v>       0.99837005       0.74313996       0.00460000 </v>
    <v>       0.75633000       0.73891003       0.25767000 </v>
    <v>       0.75839004       0.50315998       0.00288000 </v>
    <v>       0.50700002       0.50333002       0.25878999 </v>
    <v>       0.24900999       0.25315000       0.74854000 </v>
    <v>       0.24446000       0.99823996       0.50287998 </v>
    <v>       0.99804009       0.24229999       0.50128003 </v>
    <v>       0.24177002       0.75340997       0.75018002 </v>
    <v>       0.25841001       0.50062002       0.50129001 </v>
    <v>       0.99000004       0.76215003       0.49746000 </v>
    <v>       0.99203996       0.50055999       0.75138002 </v>
    <v>       0.75036005       0.74888000       0.74756004 </v>
    <v>       0.74036002       0.50197000       0.50067003 </v>
    <v>       0.50575006       0.74958002       0.49720000 </v>
    <v>       0.50501003       0.50217998       0.73912003 </v>
    <v>       0.51588997       0.01358000       0.98075008 </v>
    <v>       0.99841994       0.50976998       0.98613004 </v>
    <v>       0.50379003       0.73926997       0.25905001 </v>
    <v>       0.23780002       0.01082000       0.74607998 </v>
    <v>       0.47957999       0.98308000       0.49717999 </v>
    <v>       0.74279003       0.97869994       0.76450995 </v>
    <v>       0.99864998       0.77573999       0.26102000 </v>
    <v>       0.73551001       0.51468004       0.26666001 </v>
    <v>       0.02362000       0.99783001       0.49557002 </v>
    <v>       0.50539000       0.52833005       0.49917999 </v>
    <v>       0.73876003       0.52828003       0.73814999 </v>
    <v>       0.75400003       0.72937999       0.49116997 </v>
   </varray>
  </structure>
  <varray name="forces" >
   <v>      -0.21948331       0.52266570      -0.98971015 </v>
   <v>       1.44555566       0.05539045      -0.70167078 </v>
   <v>      -0.20331401      -0.04126644      -0.68722251 </v>
   <v>      -0.59953665       0.51080146       0.15896061 </v>
   <v>       0.12259349      -1.58488245      -0.28955984 </v>
   <v>       0.36528240      -0.59857742       0.25567996 </v>
   <v>      -0.37175151       2.11006554       0.85789624 </v>
   <v>       0.01500236      -0.47552204      -0.46872773 </v>
   <v>      -0.41503498       0.43191686      -0.19255811 </v>
   <v>       0.23263291      -0.22021220       0.42528959 </v>
   <v>      -0.18897259      -0.69842203       0.11726476 </v>
   <v>       0.41250658       0.14213889       0.88405940 </v>
   <v>      -0.71894399       0.21371297       0.88378809 </v>
   <v>       0.01536471      -0.26782409      -0.22847935 </v>
   <v>      -0.25751354      -1.39893232      -0.18394743 </v>
   <v>      -1.71499600       0.79566848      -0.38619661 </v>
   <v>      -0.00572794      -0.57621251      -0.17173042 </v>
   <v>       0.62758247       0.23878281      -0.20811266 </v>
   <v>       0.49475261      -0.21425111       0.23642990 </v>
   <v>       0.77384802       0.24113696       0.23703418 </v>
   <v>      -0.00052355       0.07986161       0.10941956 </v>
   <v>      -0.61711328       0.07529375       0.36763647 </v>
   <v>      -0.09980649      -0.45451208      -0.10439875 </v>
   <v>       0.25196499       0.39377184       0.11395660 </v>
   <v>      -0.03609143      -0.22241857      -1.27135781 </v>
   <v>      -1.12748429      -0.42431483       0.26792316 </v>
   <v>       0.22927434       0.59965952       0.58695035 </v>
   <v>       0.31495060      -0.37764003      -0.67084072 </v>
   <v>      -0.00998148       0.04141653       0.68462962 </v>
   <v>      -0.79920065       0.02836354      -0.26934076 </v>
   <v>       0.39033429      -0.30643841       0.36519618 </v>
   <v>       0.13376776       0.08613638       1.15052089 </v>
   <v>       0.51603518      -0.07812632       0.64253643 </v>
   <v>       0.82447019       0.74471744      -1.10033048 </v>
   <v>       0.09885790      -0.03232047      -0.95274093 </v>
   <v>       0.03616409      -0.17710068       0.08361406 </v>
   <v>       0.19901287       0.00042002       0.43027197 </v>
   <v>      -0.33215532      -0.12461807       0.01035354 </v>
   <v>      -0.72566513       0.24684348      -0.85489680 </v>
   <v>       0.21065326       0.34713202      -0.06420238 </v>
   <v>      -1.23960982       0.83183187      -0.87431885 </v>
   <v>       0.30216398      -0.56359880      -0.06561501 </v>
   <v>       1.69843039      -0.04319318       0.50386069 </v>
   <v>      -0.07204909       0.61836438       0.19215844 </v>
   <v>       0.41434465       0.05456518      -0.02754044 </v>
   <v>      -0.54904627       0.04924604      -0.57647106 </v>
   <v>       0.26892861      -0.71505150       0.62714256 </v>
   <v>       0.04050395       0.01196820       0.24758667 </v>
   <v>      -0.51016119       1.59129948       0.22208756 </v>
   <v>       1.18291250      -1.00464310       0.44310808 </v>
   <v>      -0.13571071       1.46031186      -0.51548130 </v>
   <v>      -0.53617280      -0.20894534       0.95762311 </v>
   <v>       0.41110378       0.15677043      -0.17452294 </v>
   <v>       0.15873628       0.46639235      -0.72168256 </v>
   <v>       0.11219168      -0.27082523      -0.16008316 </v>
   <v>      -0.15704083       0.35184973       0.13526837 </v>
   <v>      -0.67331067       0.05567787       0.29345999 </v>
   <v>      -0.57695153      -0.86628367       0.49133683 </v>
   <v>       0.80640439      -0.69417543      -1.06631808 </v>
   <v>       0.52548976      -0.74453875      -1.42550616 </v>
   <v>      -0.99827471       0.69737894       1.09319792 </v>
   <v>      -0.52763980      -0.96210635      -0.36900195 </v>
   <v>       0.93523720      -1.50745049       0.99611323 </v>
   <v>      -0.14779029       1.60285135       0.70021068 </v>
  </varray>
  <varray name="stress" >
   <v>     -15.30662070       3.47331875      -3.01852548 </v>
   <v>       3.47331817     -25.83249028      -1.24082752 </v>
   <v>      -3.01852545      -1.24082822     -13.67291616 </v>
  </varray>
  <energy>
   <i name="e_fr_energy">   -648.03994963 </i>
   <i name="e_wo_entrp">   -647.95993823 </i>
   <i name="e_0_energy">     -0.16002281 </i>
  </energy>
  <time name="totalsc">  838.87  849.40</time>
 </calculation>
 <calculation>
  <scstep>
   <time name="dav">   23.37   23.42</time>
   <time name="total">   23.67   23.72</time>
   <energy>
    <i name="alphaZ">   4561.70254774 </i>
    <i name="ewald"> -43044.11705910 </i>
    <i name="hartreedc">  -7033.37040965 </i>
    <i name="XCdc">   1918.37560114 </i>
    <i name="pawpsdc">  31116.37031469 </i>
    <i name="pawaedc"> -31073.56810559 </i>
    <i name="eentropy">     -0.13881814 </i>
    <i name="bandstr">  -5099.13095987 </i>
    <i name="atom">  48011.07039720 </i>
    <i name="e_fr_energy">   -642.80649159 </i>
    <i name="e_wo_entrp">   -642.66767345 </i>
    <i name="e_0_energy">   -642.73708252 </i>
   </energy>
  </scstep>
  <scstep>
   <time name="diag">    1.80    1.85</time>
   <time name="diis">   21.44   22.08</time>
   <time name="orth">    0.42    0.43</time>
   <time name="total">   23.96   24.66</time>
   <energy>
    <i name="e_fr_energy">   -657.13032941 </i>
    <i name="e_wo_entrp">   -656.97054135 </i>
    <i name="e_0_energy">   -657.05043538 </i>
   </energy>
  </scstep>
  <scstep>
   <time name="diag">    1.74    1.78</time>
   <time name="diis">   16.77   17.13</time>
   <time name="orth">    0.43    0.43</time>
   <time name="total">   19.23   19.63</time>
   <energy>
    <i name="e_fr_energy">   -650.94911406 </i>
    <i name="e_wo_entrp">   -650.81832574 </i>
    <i name="e_0_energy">   -650.88371990 </i>
   </energy>
  </scstep>
  <scstep>
   <time name="diag">    1.78    1.78</time>
   <time name="diis">   21.77   21.83</time>
   <time name="orth">    0.44    0.44</time>
   <time name="total">   24.30   24.36</time>
   <energy>
    <i name="e_fr_energy">   -651.32498125 </i>
    <i name="e_wo_entrp">   -651.17887345 </i>
    <i name="e_0_energy">   -651.25192735 </i>
   </energy>
  </scstep>
  <scstep>
   <time name="diag">    1.76    1.79</time>
   <time name="diis">   19.49   20.04</time>
   <time name="orth">    0.42    0.43</time>
   <time name="total">   21.97   22.57</time>
   <energy>
    <i name="e_fr_energy">   -650.39918967 </i>
    <i name="e_wo_entrp">   -650.25642125 </i>
    <i name="e_0_energy">   -650.32780546 </i>
   </energy>
  </scstep>
  <scstep>
   <time name="diag">    1.80    1.81</time>
   <time name="diis">   22.55   22.57</time>
   <time name="orth">    0.43    0.43</time>
   <time name="total">   25.09   25.13</time>
   <energy>
    <i name="e_fr_energy">   -650.17600532 </i>
    <i name="e_wo_entrp">   -650.03018349 </i>
    <i name="e_0_energy">   -650.10309441 </i>
   </energy>
  </scstep>
  <scstep>
   <time name="diag">    1.75    1.78</time>
   <time name="diis">   21.84   22.53</time>
   <time name="orth">    0.45    0.45</time>
   <time name="total">   24.34   25.08</time>
   <energy>
    <i name="e_fr_energy">   -650.15909755 </i>
    <i name="e_wo_entrp">   -650.01372706 </i>
    <i name="e_0_energy">   -650.08641230 </i>
   </energy>
  </scstep>
  <scstep>
   <time name="diag">    1.77    1.77</time>
   <time name="diis">   20.96   21.02</time>
   <time name="orth">    0.43    0.43</time>
   <time name="total">   23.45   23.51</time>
   <energy>
    <i name="e_fr_energy">   -650.09378226 </i>
    <i name="e_wo_entrp">   -649.94577492 </i>
    <i name="e_0_energy">   -650.01977859 </i>
   </energy>
  </scstep>
  <scstep>
   <time name="diag">    1.75    1.79</time>
   <time name="diis">   22.56   22.63</time>
   <time name="orth">    0.44    0.44</time>
   <time name="total">   25.05   25.16</time>
   <energy>
    <i name="e_fr_energy">   -650.06121092 </i>
    <i name="e_wo_entrp">   -649.91723232 </i>
    <i name="e_0_energy">   -649.98922162 </i>
   </energy>
  </scstep>
  <scstep>
   <time name="diag">    1.77    1.78</time>
   <time name="diis">   22.11   22.16</time>
   <time name="orth">    0.43    0.43</time>
   <time name="total">   24.60   24.65</time>
   <energy>
    <i name="e_fr_energy">   -650.03028587 </i>
    <i name="e_wo_entrp">   -649.88328312 </i>
    <i name="e_0_energy">   -649.95678450 </i>
   </energy>
  </scstep>
  <scstep>
   <time name="diag">    1.78    1.78</time>
   <time name="diis">   23.12   23.16</time>
   <time name="orth">    0.43    0.43</time>
   <time name="total">   25.62   25.66</time>
   <energy>
    <i name="e_fr_energy">   -650.03745303 </i>
    <i name="e_wo_entrp">   -649.88998069 </i>
    <i name="e_0_energy">   -649.96371686 </i>
   </energy>
  </scstep>
  <scstep>
   <time name="diag">    1.75    1.79</time>
   <time name="diis">   22.54   23.26</time>
   <time name="orth">    0.42    0.43</time>
   <time name="total">   25.00   25.77</time>
   <energy>
    <i name="e_fr_energy">   -650.03173509 </i>
    <i name="e_wo_entrp">   -649.88578711 </i>
    <i name="e_0_energy">   -649.95876110 </i>
   </energy>
  </scstep>
  <scstep>
   <time name="diag">    1.75    1.79</time>
   <time name="diis">   22.65   23.30</time>
   <time name="orth">    0.42    0.43</time>
   <time name="total">   25.12   25.82</time>
   <energy>
    <i name="e_fr_energy">   -650.03343754 </i>
    <i name="e_wo_entrp">   -649.88696587 </i>
    <i name="e_0_energy">   -649.96020171 </i>
   </energy>
  </scstep>
  <scstep>
   <time name="diag">    1.77    1.79</time>
   <time name="diis">   22.82   22.89</time>
   <time name="orth">    0.43    0.43</time>
   <time name="total">   25.30   25.40</time>
   <energy>
    <i name="e_fr_energy">   -650.03417132 </i>
    <i name="e_wo_entrp">   -649.88782281 </i>
    <i name="e_0_energy">   -649.96099706 </i>
   </energy>
  </scstep>
  <scstep>
   <time name="diag">    1.77    1.80</time>
   <time name="diis">   22.51   22.96</time>
   <time name="orth">    0.43    0.43</time>
   <time name="total">   25.01   25.50</time>
   <energy>
    <i name="e_fr_energy">   -650.03500692 </i>
    <i name="e_wo_entrp">   -649.88859531 </i>
    <i name="e_0_energy">   -649.96180112 </i>
   </energy>
  </scstep>
  <scstep>
   <time name="diag">    1.77    1.77</time>
   <time name="diis">   21.40   21.41</time>
   <time name="orth">    0.43    0.43</time>
   <time name="total">   23.90   23.92</time>
   <energy>
    <i name="e_fr_energy">   -650.03512330 </i>
    <i name="e_wo_entrp">   -649.88874420 </i>
    <i name="e_0_energy">   -649.96193375 </i>
   </energy>
  </scstep>
  <scstep>
   <time name="diag">    1.86    1.87</time>
   <time name="diis">   20.14   20.20</time>
   <time name="orth">    0.43    0.43</time>
   <time name="total">   22.72   22.79</time>
   <energy>
    <i name="e_fr_energy">   -650.03536972 </i>
    <i name="e_wo_entrp">   -649.88900342 </i>
    <i name="e_0_energy">   -649.96218657 </i>
   </energy>
  </scstep>
  <scstep>
   <time name="diag">    1.78    1.78</time>
   <time name="diis">   20.70   20.71</time>
   <time name="orth">    0.43    0.43</time>
   <time name="total">   23.19   23.21</time>
   <energy>
    <i name="e_fr_energy">   -650.03541531 </i>
    <i name="e_wo_entrp">   -649.88904383 </i>
    <i name="e_0_energy">   -649.96222957 </i>
   </energy>
  </scstep>
  <scstep>
   <time name="diag">    1.78    1.78</time>
   <time name="diis">   18.87   18.92</time>
   <time name="orth">    0.43    0.43</time>
   <time name="total">   21.37   21.42</time>
   <energy>
    <i name="e_fr_energy">   -650.03549040 </i>
    <i name="e_wo_entrp">   -649.88911747 </i>
    <i name="e_0_energy">   -649.96230394 </i>
   </energy>
  </scstep>
  <scstep>
   <time name="diag">    1.75    1.78</time>
   <time name="diis">   19.59   20.14</time>
   <time name="orth">    0.42    0.43</time>
   <time name="total">   22.06   22.65</time>
   <energy>
    <i name="e_fr_energy">   -650.03551465 </i>
    <i name="e_wo_entrp">   -649.88913995 </i>
    <i name="e_0_energy">   -649.96232730 </i>
   </energy>
  </scstep>
  <scstep>
   <time name="diag">    1.78    1.78</time>
   <time name="diis">   17.64   17.68</time>
   <time name="orth">    0.45    0.46</time>
   <time name="total">   20.17   20.21</time>
   <energy>
    <i name="e_fr_energy">   -650.03553681 </i>
    <i name="e_wo_entrp">   -649.88916108 </i>
    <i name="e_0_energy">   -649.96234894 </i>
   </energy>
  </scstep>
  <scstep>
   <time name="diag">    1.78    1.78</time>
   <time name="diis">   17.78   17.84</time>
   <time name="orth">    0.43    0.43</time>
   <time name="total">   20.28   20.35</time>
   <energy>
    <i name="e_fr_energy">   -650.03554847 </i>
    <i name="e_wo_entrp">   -649.88917416 </i>
    <i name="e_0_energy">   -649.96236132 </i>
   </energy>
  </scstep>
  <scstep>
   <time name="diag">    1.79    1.80</time>
   <time name="diis">   15.77   15.95</time>
   <time name="orth">    0.43    0.43</time>
   <time name="total">   18.03   18.21</time>
   <energy>
    <i name="alphaZ">   4561.70254774 </i>
    <i name="ewald"> -43044.11705910 </i>
    <i name="hartreedc">  -6903.43627260 </i>
    <i name="XCdc">   1910.91831098 </i>
    <i name="pawpsdc">  31280.06697640 </i>
    <i name="pawaedc"> -31236.24200575 </i>
    <i name="eentropy">     -0.14637554 </i>
    <i name="bandstr">  -5229.85207539 </i>
    <i name="atom">  48011.07039720 </i>
    <i name="e_fr_energy">   -650.03555607 </i>
    <i name="e_wo_entrp">   -649.88918053 </i>
    <i name="e_0_energy">   -649.96236830 </i>
   </energy>
  </scstep>
  <structure>
   <crystal>
    <varray name="basis" >
     <v>       8.88599687       0.01055228      -0.00917058 </v>
     <v>       0.01642075       8.97604194      -0.00382761 </v>
     <v>       0.02274075      -0.01933893       8.89554057 </v>
    </varray>
    <i name="volume">    709.51760323 </i>
    <varray name="rec_basis" >
     <v>       0.11253656      -0.00020600      -0.00028814 </v>
     <v>      -0.00013205       0.11140802       0.00024254 </v>
     <v>       0.00011596       0.00004772       0.11241568 </v>
    </varray>
   </crystal>
   <varray name="positions" >
    <v>       0.99571204       0.99482512       0.99389756 </v>
    <v>       0.26180061       0.99743846       0.24533237 </v>
    <v>       0.24694544       0.50142371       0.24584038 </v>
    <v>       0.50176725       0.50018271       0.99919810 </v>
    <v>       0.50546319       0.23786402       0.74553697 </v>
    <v>       0.99624983       0.50131354       0.49917016 </v>
    <v>       0.49746841       0.76606917       0.75280097 </v>
    <v>       0.99446179       0.23363233       0.26126979 </v>
    <v>       0.75494073       0.74332916       0.00996057 </v>
    <v>       0.00325891       0.25424084       0.74123573 </v>
    <v>       0.75204953       0.25791035       0.50596302 </v>
    <v>       0.99735027       0.74568556       0.74989213 </v>
    <v>       0.25289924       0.49576685       0.75022071 </v>
    <v>       0.24797832       0.24696105       0.99534664 </v>
    <v>       0.50694759       0.24931562       0.25276706 </v>
    <v>       0.73953245       0.99211520       0.26758532 </v>
    <v>       0.75716437       0.25295869       0.99499297 </v>
    <v>       0.25101268       0.75101013       0.99861666 </v>
    <v>       0.25538821       0.24709083       0.50142628 </v>
    <v>       0.24875396       0.75177684       0.50111950 </v>
    <v>       0.24981479       0.24985646       0.24884064 </v>
    <v>       0.25812969       0.00024459       0.99494447 </v>
    <v>       0.00227455       0.24781766       0.00073646 </v>
    <v>       0.75449723       0.24826884       0.25553516 </v>
    <v>       0.74750052       0.99628316       0.00515721 </v>
    <v>       0.50105688       0.99751202       0.24817625 </v>
    <v>       0.99174481       0.48408015       0.24417835 </v>
    <v>       0.50690535       0.75929186       0.00492880 </v>
    <v>       0.98890255       0.00224707       0.74078563 </v>
    <v>       0.75313876       0.24452855       0.74751609 </v>
    <v>       0.73842209       0.00254091       0.51260133 </v>
    <v>       0.50633979       0.23311966       0.50166049 </v>
    <v>       0.50286478       0.00019982       0.73818840 </v>
    <v>       0.00167160       0.00167699       0.25306040 </v>
    <v>       0.50483248       0.24654887      -0.00252290 </v>
    <v>       0.25153429       0.74863732       0.24956134 </v>
    <v>       0.24434648       0.50073625       0.99743255 </v>
    <v>       0.99657637       0.74247617       0.00465589 </v>
    <v>       0.75242657       0.74021704       0.25305526 </v>
    <v>       0.75952779       0.50500868       0.00253344 </v>
    <v>       0.50031925       0.50775330       0.25407041 </v>
    <v>       0.25064512       0.25014688       0.74818581 </v>
    <v>       0.25362326       0.99801458       0.50559982 </v>
    <v>       0.99764511       0.24559606       0.50231730 </v>
    <v>       0.24400816       0.75370040       0.75003135 </v>
    <v>       0.25545573       0.50087696       0.49817821 </v>
    <v>       0.99144275       0.75834656       0.50084532 </v>
    <v>       0.99225387       0.50062608       0.75271649 </v>
    <v>       0.74759501       0.75735955       0.74875887 </v>
    <v>       0.74674354       0.49662204       0.50306193 </v>
    <v>       0.50502210       0.75735482       0.49441743 </v>
    <v>       0.50209640       0.50107584       0.74428928 </v>
    <v>       0.51811311       0.01441354       0.97980800 </v>
    <v>       0.99928965       0.51224786       0.98223439 </v>
    <v>       0.50439999       0.73782567       0.25818588 </v>
    <v>       0.23694804       0.01269571       0.74681016 </v>
    <v>       0.47593769       0.98337938       0.49876409 </v>
    <v>       0.73966747       0.97408952       0.76716219 </v>
    <v>       0.00302828       0.77203185       0.25526401 </v>
    <v>       0.73837829       0.51070022       0.25896512 </v>
    <v>       0.01820491       0.00155547       0.50147110 </v>
    <v>       0.50255078       0.52320108       0.49718812 </v>
    <v>       0.74379691       0.52025860       0.74352701 </v>
    <v>       0.75318276       0.73792556       0.49494971 </v>
   </varray>
  </structure>
  <varray name="forces" >
   <v>       0.06268172      -0.01054332      -0.43286541 </v>
   <v>      -0.15229141      -0.10136510       0.05436136 </v>
   <v>      -0.39327189      -0.17752569       0.08689882 </v>
   <v>       0.04052011      -0.14125175      -0.02737005 </v>
   <v>      -0.07546276      -0.18502127       0.23533469 </v>
   <v>       0.43798267      -0.06079431       0.10034027 </v>
   <v>       0.02913223      -0.29382518      -0.12199784 </v>
   <v>       0.09328826       0.11754839      -0.10818481 </v>
   <v>      -0.16973005       0.18553225      -0.25653441 </v>
   <v>       0.01990178      -0.27148098       0.25358242 </v>
   <v>       0.04089224      -0.52167315       0.04963190 </v>
   <v>      -0.13302576      -0.07515153       0.52416831 </v>
   <v>      -0.31273219      -0.04571714       0.09520586 </v>
   <v>       0.12439630      -0.16532561      -0.00464965 </v>
   <v>      -0.13923461       0.34152330      -0.24239022 </v>
   <v>       0.35255732      -0.14570516      -0.40923824 </v>
   <v>      -0.36847868       0.01364524      -0.01224966 </v>
   <v>      -0.07194817       0.31377016       0.07775343 </v>
   <v>      -0.12399318       0.02727440      -0.01527889 </v>
   <v>      -0.12350694       0.02771384       0.00157381 </v>
   <v>       0.03441584      -0.14837634      -0.04295781 </v>
   <v>      -0.33767141       0.02275547       0.17217424 </v>
   <v>       0.02127237      -0.16780726      -0.06777188 </v>
   <v>      -0.05824144       0.12972959      -0.09770114 </v>
   <v>      -0.13133599      -0.00810054      -0.76917811 </v>
   <v>      -0.27027914      -0.24377944      -0.01730082 </v>
   <v>       0.10193093       0.65537280       0.26170441 </v>
   <v>       0.03130959      -0.06355542      -0.37846383 </v>
   <v>       0.07526805       0.07814601       0.32479146 </v>
   <v>      -0.09827613       0.32588713      -0.16429260 </v>
   <v>       0.74741762      -0.35405655       0.11330777 </v>
   <v>       0.11168485       0.41518228       0.04542672 </v>
   <v>       0.42575551       0.12018513       0.65485087 </v>
   <v>      -0.03973340      -0.83162638      -0.08994367 </v>
   <v>      -0.06207632      -0.06686390      -0.08682958 </v>
   <v>       0.10180501       0.06402156      -0.10128640 </v>
   <v>      -0.06088372       0.03595799      -0.08424457 </v>
   <v>       0.22900999      -0.00807258       0.07112038 </v>
   <v>      -0.30784689       0.15002586       0.18246433 </v>
   <v>       0.08726528      -0.14399617       0.00733636 </v>
   <v>       0.01886104      -0.02502121      -0.22197153 </v>
   <v>       0.06241569      -0.26646151       0.01132775 </v>
   <v>      -0.08999560       0.16487481       0.34114715 </v>
   <v>       0.20136971       0.24091599      -0.03070848 </v>
   <v>       0.15508407       0.16843011       0.12811287 </v>
   <v>      -0.08608191      -0.00915998       0.00278935 </v>
   <v>       0.24507748      -0.15262863      -0.07212221 </v>
   <v>       0.29649796      -0.06383019       0.20917667 </v>
   <v>       0.06170614      -0.25446624      -0.08598951 </v>
   <v>      -0.13549299       0.49616143      -0.27737727 </v>
   <v>       0.16415477       0.17442375      -0.09423243 </v>
   <v>       0.05429009       0.15347879       0.01749373 </v>
   <v>       0.39957501      -0.17968934      -0.25154502 </v>
   <v>       0.02579568       0.39992651      -0.38047182 </v>
   <v>      -0.26573551      -0.40911234       0.11310723 </v>
   <v>      -0.61004980       0.02947846      -0.13867156 </v>
   <v>      -0.16116692       0.15820703       0.12728473 </v>
   <v>      -0.51107550      -0.10253461       0.53072664 </v>
   <v>       0.08612936       0.58694349      -0.44272733 </v>
   <v>      -0.29923078      -0.07145358      -0.30692285 </v>
   <v>       0.52099483       0.18877979       0.18806313 </v>
   <v>       0.52150078       0.10387211      -0.19911741 </v>
   <v>       0.14796884       0.38170655       0.84596157 </v>
   <v>      -0.54106003      -0.50549779       0.20536880 </v>
  </varray>
  <varray name="stress" >
   <v>      20.44802438       2.88857776       0.52822977 </v>
   <v>       2.88857860       9.53239231      -1.66207156 </v>
   <v>       0.52822994      -1.66207135      17.47997221 </v>
  </varray>
  <energy>
   <i name="e_fr_energy">   -650.03555607 </i>
   <i name="e_wo_entrp">   -649.96236830 </i>
   <i name="e_0_energy">     -0.14637554 </i>
  </energy>
  <time name="totalsc">  578.03  584.10</time>
 </calculation>
 <calculation>
  <scstep>
   <time name="dav">   24.40   24.99</time>
   <time name="total">   24.70   25.31</time>
   <energy>
    <i name="alphaZ">   4564.47711755 </i>
    <i name="ewald"> -43051.92088738 </i>
    <i name="hartreedc">  -6905.91279134 </i>
    <i name="XCdc">   1911.31685289 </i>
    <i name="pawpsdc">  31280.24871752 </i>
    <i name="pawaedc"> -31236.31149941 </i>
    <i name="eentropy">     -0.14566741 </i>
    <i name="bandstr">  -5222.85152369 </i>
    <i name="atom">  48011.07039720 </i>
    <i name="e_fr_energy">   -650.02928407 </i>
    <i name="e_wo_entrp">   -649.88361667 </i>
    <i name="e_0_energy">   -649.95645037 </i>
   </energy>
  </scstep>
  <scstep>
   <time name="diag">    1.78    1.81</time>
   <time name="diis">   22.31   22.38</time>
   <time name="orth">    0.43    0.43</time>
   <time name="total">   24.80   24.91</time>
   <energy>
    <i name="e_fr_energy">   -650.04794114 </i>
    <i name="e_wo_entrp">   -649.90246744 </i>
    <i name="e_0_energy">   -649.97520429 </i>
   </energy>
  </scstep>
  <scstep>
   <time name="diag">    1.75    1.79</time>
   <time name="diis">   16.47   16.72</time>
   <time name="orth">    0.43    0.43</time>
   <time name="total">   18.94   19.23</time>
   <energy>
    <i name="e_fr_energy">   -650.03814165 </i>
    <i name="e_wo_entrp">   -649.89202451 </i>
    <i name="e_0_energy">   -649.96508308 </i>
   </energy>
  </scstep>
  <scstep>
   <time name="diag">    1.78    1.78</time>
   <time name="diis">   20.88   20.88</time>
   <time name="orth">    0.43    0.43</time>
   <time name="total">   23.38   23.39</time>
   <energy>
    <i name="e_fr_energy">   -650.03876609 </i>
    <i name="e_wo_entrp">   -649.89306300 </i>
    <i name="e_0_energy">   -649.96591454 </i>
   </energy>
  </scstep>
  <scstep>
   <time name="diag">    1.78    1.78</time>
   <time name="diis">   19.17   19.20</time>
   <time name="orth">    0.43    0.43</time>
   <time name="total">   21.66   21.71</time>
   <energy>
    <i name="e_fr_energy">   -650.03785581 </i>
    <i name="e_wo_entrp">   -649.89205528 </i>
    <i name="e_0_energy">   -649.96495554 </i>
   </energy>
  </scstep>
  <scstep>
   <time name="diag">    1.78    1.78</time>
   <time name="diis">   18.29   18.33</time>
   <time name="orth">    0.43    0.43</time>
   <time name="total">   20.79   20.82</time>
   <energy>
    <i name="e_fr_energy">   -650.03755410 </i>
    <i name="e_wo_entrp">   -649.89166768 </i>
    <i name="e_0_energy">   -649.96461089 </i>
   </energy>
  </scstep>
  <scstep>
   <time name="diag">    1.75    1.79</time>
   <time name="diis">   20.67   21.25</time>
   <time name="orth">    0.42    0.43</time>
   <time name="total">   23.14   23.77</time>
   <energy>
    <i name="e_fr_energy">   -650.03761952 </i>
    <i name="e_wo_entrp">   -649.89196277 </i>
    <i name="e_0_energy">   -649.96479115 </i>
   </energy>
  </scstep>
  <scstep>
   <time name="diag">    1.79    1.79</time>
   <time name="diis">   16.61   16.68</time>
   <time name="orth">    0.43    0.43</time>
   <time name="total">   19.12   19.18</time>
   <energy>
    <i name="e_fr_energy">   -650.03745879 </i>
    <i name="e_wo_entrp">   -649.89147428 </i>
    <i name="e_0_energy">   -649.96446654 </i>
   </energy>
  </scstep>
  <scstep>
   <time name="diag">    1.80    1.80</time>
   <time name="diis">   17.28   17.34</time>
   <time name="orth">    0.43    0.43</time>
   <time name="total">   19.80   19.86</time>
   <energy>
    <i name="e_fr_energy">   -650.03747546 </i>
    <i name="e_wo_entrp">   -649.89157294 </i>
    <i name="e_0_energy">   -649.96452420 </i>
   </energy>
  </scstep>
  <scstep>
   <time name="diag">    1.78    1.78</time>
   <time name="diis">   12.58   12.62</time>
   <time name="orth">    0.43    0.43</time>
   <time name="total">   15.07   15.12</time>
   <energy>
    <i name="e_fr_energy">   -650.03741600 </i>
    <i name="e_wo_entrp">   -649.89154019 </i>
    <i name="e_0_energy">   -649.96447809 </i>
   </energy>
  </scstep>
  <scstep>
   <time name="diag">    1.77    1.77</time>
   <time name="diis">   10.96   10.98</time>
   <time name="orth">    0.43    0.43</time>
   <time name="total">   13.45   13.48</time>
   <energy>
    <i name="e_fr_energy">   -650.03743070 </i>
    <i name="e_wo_entrp">   -649.89162653 </i>
    <i name="e_0_energy">   -649.96452862 </i>
   </energy>
  </scstep>
  <scstep>
   <time name="diag">    1.74    1.78</time>
   <time name="diis">    9.47    9.74</time>
   <time name="orth">    0.44    0.44</time>
   <time name="total">   11.94   12.26</time>
   <energy>
    <i name="e_fr_energy">   -650.03742006 </i>
    <i name="e_wo_entrp">   -649.89153546 </i>
    <i name="e_0_energy">   -649.96447776 </i>
   </energy>
  </scstep>
  <scstep>
   <time name="diag">    1.75    1.79</time>
   <time name="diis">    9.72    9.99</time>
   <time name="orth">    0.42    0.43</time>
   <time name="total">   11.92   12.24</time>
   <energy>
    <i name="alphaZ">   4564.47711755 </i>
    <i name="ewald"> -43051.92088738 </i>
    <i name="hartreedc">  -6901.73602759 </i>
    <i name="XCdc">   1911.07754138 </i>
    <i name="pawpsdc">  31287.18945169 </i>
    <i name="pawaedc"> -31243.27313910 </i>
    <i name="eentropy">     -0.14586924 </i>
    <i name="bandstr">  -5226.77601017 </i>
    <i name="atom">  48011.07039720 </i>
    <i name="e_fr_energy">   -650.03742566 </i>
    <i name="e_wo_entrp">   -649.89155642 </i>
    <i name="e_0_energy">   -649.96449104 </i>
   </energy>
  </scstep>
  <structure>
   <crystal>
    <varray name="basis" >
     <v>       8.88449098       0.01089399      -0.00946754 </v>
     <v>       0.01676620       8.97346569      -0.00395156 </v>
     <v>       0.02243762      -0.01945536       8.89419386 </v>
    </varray>
    <i name="volume">    709.08631481 </i>
    <varray name="rec_basis" >
     <v>       0.11255564      -0.00021043      -0.00028441 </v>
     <v>      -0.00013639       0.11144003       0.00024411 </v>
     <v>       0.00011975       0.00004929       0.11243270 </v>
    </varray>
   </crystal>
   <varray name="positions" >
    <v>       0.99567373       0.99491576       0.99372374 </v>
    <v>       0.26205505       0.99744753       0.24520941 </v>
    <v>       0.24691002       0.50141631       0.24571965 </v>
    <v>       0.50166161       0.50027179       0.99922595 </v>
    <v>       0.50548539       0.23758804       0.74548602 </v>
    <v>       0.99631413       0.50120938       0.49921508 </v>
    <v>       0.49740199       0.76643682       0.75295172 </v>
    <v>       0.99446479       0.23354938       0.26118744 </v>
    <v>       0.75486771       0.74340434       0.00992671 </v>
    <v>       0.00329968       0.25420262       0.74131044 </v>
    <v>       0.75201648       0.25778888       0.50598352 </v>
    <v>       0.99742234       0.74571055       0.75004747 </v>
    <v>       0.25277237       0.49580453       0.75037581 </v>
    <v>       0.24798121       0.24691435       0.99530649 </v>
    <v>       0.50690285       0.24907212       0.25273460 </v>
    <v>       0.73923086       0.99225389       0.26751725 </v>
[...]
      </set>
     </set>
    </set>
   </array>
  </eigenvalues>
  <separator name="orbital magnetization" >
   <v name="MAGDIPOLOUT">      0.00000000      0.00000000      0.00000000</v>
  </separator>
  <dos>
   <i name="efermi">      8.46484602 </i>
   <total>
    <array>
     <dimension dim="1">gridpoints</dimension>
     <dimension dim="2">spin</dimension>
     <field>energy</field>
     <field>total</field>
     <field>integrated</field>
     <set>
      <set comment="spin 1">
       <r>   -50.6206     0.0000     0.0000 </r>
       <r>   -50.4042     0.0000     0.0000 </r>
       <r>   -50.1877     0.0000     0.0000 </r>
       <r>   -49.9713     0.0000     0.0000 </r>
       <r>   -49.7548     0.0000     0.0000 </r>
       <r>   -49.5383     0.0000     0.0000 </r>
       <r>   -49.3219     0.0000     0.0000 </r>
       <r>   -49.1054     0.0000     0.0000 </r>
       <r>   -48.8889     0.0000     0.0000 </r>
       <r>   -48.6725     0.0000     0.0000 </r>
       <r>   -48.4560     0.0000     0.0000 </r>
       <r>   -48.2396     0.0000     0.0000 </r>
       <r>   -48.0231     0.0000     0.0000 </r>
       <r>   -47.8066     0.2375     0.0514 </r>
       <r>   -47.5902     7.9148     1.7647 </r>
       <r>   -47.3737    17.8826     5.6356 </r>
       <r>   -47.1573    18.4230     9.6234 </r>
       <r>   -46.9408    10.9314    11.9897 </r>
       <r>   -46.7243     0.0478    12.0000 </r>
       <r>   -46.5079     0.0000    12.0000 </r>
       <r>   -46.2914     0.0000    12.0000 </r>
       <r>   -46.0750     0.0000    12.0000 </r>
       <r>   -45.8585     0.0000    12.0000 </r>
       <r>   -45.6420     0.0000    12.0000 </r>
       <r>   -45.4256     0.0000    12.0000 </r>
       <r>   -45.2091     0.0000    12.0000 </r>
       <r>   -44.9926     0.0000    12.0000 </r>
       <r>   -44.7762     0.0000    12.0000 </r>
       <r>   -44.5597     0.0000    12.0000 </r>
       <r>   -44.3433     0.0000    12.0000 </r>
       <r>   -44.1268     0.0000    12.0000 </r>
       <r>   -43.9103     0.0000    12.0000 </r>
       <r>   -43.6939     0.0000    12.0000 </r>
       <r>   -43.4774     0.0000    12.0000 </r>
       <r>   -43.2610     0.0000    12.0000 </r>
       <r>   -43.0445     0.0000    12.0000 </r>
       <r>   -42.8280     0.0000    12.0000 </r>
       <r>   -42.6116     0.0000    12.0000 </r>
       <r>   -42.3951     0.0000    12.0000 </r>
       <r>   -42.1787     0.0000    12.0000 </r>
       <r>   -41.9622     0.0000    12.0000 </r>
       <r>   -41.7457     0.0000    12.0000 </r>
       <r>   -41.5293     0.0000    12.0000 </r>
       <r>   -41.3128     0.0000    12.0000 </r>
       <r>   -41.0963     0.0000    12.0000 </r>
       <r>   -40.8799     0.0704    12.0152 </r>
       <r>   -40.6634    12.7636    14.7781 </r>
       <r>   -40.4470    14.7860    17.9787 </r>
       <r>   -40.2305     4.9612    19.0526 </r>
       <r>   -40.0140    21.7617    23.7631 </r>
       <r>   -39.7976     6.4937    25.1688 </r>
       <r>   -39.5811     3.8351    25.9989 </r>
       <r>   -39.3647     0.0049    26.0000 </r>
       <r>   -39.1482     0.0000    26.0000 </r>
       <r>   -38.9317     0.0000    26.0000 </r>
       <r>   -38.7153     0.0000    26.0000 </r>
       <r>   -38.4988     0.0000    26.0000 </r>
       <r>   -38.2823     0.0000    26.0000 </r>
       <r>   -38.0659     0.0000    26.0000 </r>
       <r>   -37.8494     0.0000    26.0000 </r>
       <r>   -37.6330     0.0000    26.0000 </r>
       <r>   -37.4165     0.0000    26.0000 </r>
       <r>   -37.2000     0.0000    26.0000 </r>
       <r>   -36.9836     0.0000    26.0000 </r>
       <r>   -36.7671     0.0000    26.0000 </r>
       <r>   -36.5507     0.0000    26.0000 </r>
       <r>   -36.3342     0.0000    26.0000 </r>
       <r>   -36.1177     0.0000    26.0000 </r>
       <r>   -35.9013     0.0000    26.0000 </r>
       <r>   -35.6848     0.0000    26.0000 </r>
       <r>   -35.4684     0.2293    26.0496 </r>
       <r>   -35.2519     9.8722    28.1866 </r>
       <r>   -35.0354    74.1845    44.2447 </r>
       <r>   -34.8190    75.7072    60.6323 </r>
       <r>   -34.6025     6.3071    61.9976 </r>
       <r>   -34.3860     0.0112    62.0000 </r>
       <r>   -34.1696     0.0000    62.0000 </r>
       <r>   -33.9531     0.0000    62.0000 </r>
       <r>   -33.7367     0.0000    62.0000 </r>
       <r>   -33.5202     0.0000    62.0000 </r>
       <r>   -33.3037     0.0000    62.0000 </r>
       <r>   -33.0873     0.0000    62.0000 </r>
       <r>   -32.8708     0.0000    62.0000 </r>
       <r>   -32.6544     0.0000    62.0000 </r>
       <r>   -32.4379     0.0000    62.0000 </r>
       <r>   -32.2214     0.0000    62.0000 </r>
       <r>   -32.0050     0.0000    62.0000 </r>
       <r>   -31.7885     0.0000    62.0000 </r>
       <r>   -31.5721     0.0000    62.0000 </r>
       <r>   -31.3556     0.0000    62.0000 </r>
       <r>   -31.1391     0.0085    62.0018 </r>
       <r>   -30.9227    10.8760    64.3561 </r>
       <r>   -30.7062    76.3574    80.8845 </r>
       <r>   -30.4897    68.0759    95.6203 </r>
       <r>   -30.2733    10.9814    97.9973 </r>
       <r>   -30.0568     0.0124    98.0000 </r>
       <r>   -29.8404     0.0000    98.0000 </r>
       <r>   -29.6239     0.0000    98.0000 </r>
       <r>   -29.4074     0.0000    98.0000 </r>
       <r>   -29.1910     0.0000    98.0000 </r>
       <r>   -28.9745     0.0000    98.0000 </r>
       <r>   -28.7581     0.0000    98.0000 </r>
       <r>   -28.5416     0.0000    98.0000 </r>
       <r>   -28.3251     0.0000    98.0000 </r>
       <r>   -28.1087     0.0000    98.0000 </r>
       <r>   -27.8922     0.0000    98.0000 </r>
       <r>   -27.6758     0.0000    98.0000 </r>
       <r>   -27.4593     0.0000    98.0000 </r>
       <r>   -27.2428     0.0000    98.0000 </r>
       <r>   -27.0264     0.0000    98.0000 </r>
       <r>   -26.8099     0.0000    98.0000 </r>
       <r>   -26.5934     0.0000    98.0000 </r>
       <r>   -26.3770     0.0000    98.0000 </r>
       <r>   -26.1605     0.0000    98.0000 </r>
       <r>   -25.9441     0.0000    98.0000 </r>
       <r>   -25.7276     0.0000    98.0000 </r>
       <r>   -25.5111     0.0000    98.0000 </r>
       <r>   -25.2947     0.0000    98.0000 </r>
       <r>   -25.0782     0.0000    98.0000 </r>
       <r>   -24.8618     0.0000    98.0000 </r>
       <r>   -24.6453     0.0000    98.0000 </r>
       <r>   -24.4288     0.0000    98.0000 </r>
       <r>   -24.2124     0.0001    98.0000 </r>
       <r>   -23.9959     1.5599    98.3377 </r>
       <r>   -23.7795    22.8047   103.2740 </r>
       <r>   -23.5630    43.8865   112.7737 </r>
       <r>   -23.3465    56.1517   124.9284 </r>
       <r>   -23.1301    38.0111   133.1563 </r>
       <r>   -22.9136     3.8986   134.0002 </r>
       <r>   -22.6971     4.7906   135.0372 </r>
       <r>   -22.4807    21.6375   139.7209 </r>
       <r>   -22.2642    38.2663   148.0040 </r>
       <r>   -22.0478    91.6719   167.8474 </r>
       <r>   -21.8313    35.2374   175.4750 </r>
       <r>   -21.6148     2.4247   175.9998 </r>
       <r>   -21.3984     0.0008   176.0000 </r>
       <r>   -21.1819     0.0000   176.0000 </r>
       <r>   -20.9655     0.0000   176.0000 </r>
       <r>   -20.7490     0.0000   176.0000 </r>
       <r>   -20.5325     0.0000   176.0000 </r>
       <r>   -20.3161     0.0000   176.0000 </r>
       <r>   -20.0996     0.0000   176.0000 </r>
       <r>   -19.8832     0.0000   176.0000 </r>
       <r>   -19.6667     0.0000   176.0000 </r>
       <r>   -19.4502     0.0285   176.0062 </r>
       <r>   -19.2338     6.0049   177.3060 </r>
       <r>   -19.0173    24.5293   182.6156 </r>
       <r>   -18.8008    41.7900   191.6616 </r>
       <r>   -18.5844    19.9132   195.9720 </r>
       <r>   -18.3679    66.9010   210.4535 </r>
       <r>   -18.1515    25.5158   215.9766 </r>
       <r>   -17.9350     9.3384   217.9980 </r>
       <r>   -17.7185     0.0090   218.0000 </r>
       <r>   -17.5021     0.0000   218.0000 </r>
       <r>   -17.2856     0.0000   218.0000 </r>
       <r>   -17.0692     0.0000   218.0000 </r>
       <r>   -16.8527     0.0000   218.0000 </r>
       <r>   -16.6362     0.0000   218.0000 </r>
       <r>   -16.4198     0.0000   218.0000 </r>
       <r>   -16.2033     0.0000   218.0000 </r>
       <r>   -15.9868     0.0000   218.0000 </r>
       <r>   -15.7704     0.0000   218.0000 </r>
       <r>   -15.5539     0.0000   218.0000 </r>
       <r>   -15.3375     0.0000   218.0000 </r>
       <r>   -15.1210     0.0000   218.0000 </r>
       <r>   -14.9045     0.0000   218.0000 </r>
       <r>   -14.6881     0.0000   218.0000 </r>
       <r>   -14.4716     0.0000   218.0000 </r>
       <r>   -14.2552     0.0000   218.0000 </r>
       <r>   -14.0387     0.0000   218.0000 </r>
       <r>   -13.8222     0.0000   218.0000 </r>
       <r>   -13.6058     0.0000   218.0000 </r>
       <r>   -13.3893     0.0000   218.0000 </r>
       <r>   -13.1729     0.0000   218.0000 </r>
       <r>   -12.9564     0.0000   218.0000 </r>
       <r>   -12.7399     0.0000   218.0000 </r>
       <r>   -12.5235     0.0000   218.0000 </r>
       <r>   -12.3070     0.0000   218.0000 </r>
       <r>   -12.0905     0.0000   218.0000 </r>
       <r>   -11.8741     0.0000   218.0000 </r>
       <r>   -11.6576     0.0000   218.0000 </r>
       <r>   -11.4412     0.0000   218.0000 </r>
       <r>   -11.2247     0.0000   218.0000 </r>
       <r>   -11.0082     0.0000   218.0000 </r>
       <r>   -10.7918     0.0000   218.0000 </r>
       <r>   -10.5753     0.0000   218.0000 </r>
       <r>   -10.3589     0.0000   218.0000 </r>
       <r>   -10.1424     0.0000   218.0000 </r>
       <r>    -9.9259     0.0000   218.0000 </r>
       <r>    -9.7095     0.0000   218.0000 </r>
       <r>    -9.4930     0.0000   218.0000 </r>
       <r>    -9.2766     0.0000   218.0000 </r>
       <r>    -9.0601     0.0000   218.0000 </r>
       <r>    -8.8436     0.0000   218.0000 </r>
       <r>    -8.6272     0.0000   218.0000 </r>
       <r>    -8.4107     0.0000   218.0000 </r>
       <r>    -8.1942     0.0000   218.0000 </r>
       <r>    -7.9778     0.0000   218.0000 </r>
       <r>    -7.7613     0.0066   218.0014 </r>
       <r>    -7.5449     1.8422   218.4002 </r>
       <r>    -7.3284     7.3615   219.9937 </r>
       <r>    -7.1119    10.7328   222.3169 </r>
       <r>    -6.8955    16.2168   225.8272 </r>
       <r>    -6.6790     7.3146   227.4105 </r>
       <r>    -6.4626    16.6142   231.0069 </r>
       <r>    -6.2461    17.7837   234.8564 </r>
       <r>    -6.0296    21.1777   239.4405 </r>
       <r>    -5.8132    14.9275   242.6717 </r>
       <r>    -5.5967     6.1033   243.9929 </r>
       <r>    -5.3803     0.0330   244.0000 </r>
       <r>    -5.1638     0.0000   244.0000 </r>
       <r>    -4.9473     0.0000   244.0000 </r>
       <r>    -4.7309     0.0038   244.0008 </r>
       <r>    -4.5144     1.5369   244.3335 </r>
       <r>    -4.2979     6.6638   245.7760 </r>
       <r>    -4.0815     1.0382   246.0007 </r>
       <r>    -3.8650     3.2290   246.6996 </r>
       <r>    -3.6486    11.7459   249.2422 </r>
       <r>    -3.4321    11.7378   251.7830 </r>
       <r>    -3.2156    17.3367   255.5357 </r>
       <r>    -2.9992    23.2045   260.5586 </r>
       <r>    -2.7827    21.1078   265.1276 </r>
       <r>    -2.5663    13.7175   268.0969 </r>
       <r>    -2.3498    19.0930   272.2298 </r>
       <r>    -2.1333    15.9909   275.6912 </r>
       <r>    -1.9169    13.4145   278.5949 </r>
       <r>    -1.7004    10.1009   280.7814 </r>
       <r>    -1.4840     5.1152   281.8886 </r>
       <r>    -1.2675     0.5133   281.9997 </r>
       <r>    -1.0510     0.0014   282.0000 </r>
       <r>    -0.8346     0.0000   282.0000 </r>
       <r>    -0.6181     0.0000   282.0000 </r>
       <r>    -0.4016     0.0000   282.0000 </r>
       <r>    -0.1852     0.0000   282.0000 </r>
       <r>     0.0313     0.0000   282.0000 </r>
       <r>     0.2477     0.0022   282.0005 </r>
       <r>     0.4642     0.4130   282.0899 </r>
       <r>     0.6807     1.1491   282.3386 </r>
       <r>     0.8971     5.3241   283.4911 </r>
       <r>     1.1136     8.8573   285.4083 </r>
       <r>     1.3300    11.4090   287.8779 </r>
       <r>     1.5465    16.6916   291.4910 </r>
       <r>     1.7630    18.8476   295.5708 </r>
       <r>     1.9794    26.5589   301.3197 </r>
       <r>     2.1959    26.0196   306.9519 </r>
       <r>     2.4123    26.9310   312.7815 </r>
       <r>     2.6288    30.5724   319.3992 </r>
       <r>     2.8453    32.8447   326.5088 </r>
       <r>     3.0617    38.1215   334.7606 </r>
       <r>     3.2782    49.2788   345.4276 </r>
       <r>     3.4947    56.6286   357.6855 </r>
       <r>     3.7111    59.1165   370.4819 </r>
       <r>     3.9276    64.2557   384.3908 </r>
       <r>     4.1440    59.8638   397.3489 </r>
       <r>     4.3605    56.4973   409.5784 </r>
       <r>     4.5770    53.2551   421.1061 </r>
       <r>     4.7934    46.6670   431.2077 </r>
       <r>     5.0099    45.4553   441.0470 </r>
       <r>     5.2263    36.2266   448.8886 </r>
       <r>     5.4428    29.8576   455.3516 </r>
       <r>     5.6593    27.7368   461.3555 </r>
       <r>     5.8757    24.9346   466.7529 </r>
       <r>     6.0922    15.3156   470.0682 </r>
       <r>     6.3087    14.0561   473.1108 </r>
       <r>     6.5251    10.1525   475.3084 </r>
       <r>     6.7416    12.7859   478.0760 </r>
       <r>     6.9580    17.5893   481.8834 </r>
       <r>     7.1745    17.8223   485.7413 </r>
       <r>     7.3910    22.8007   490.6767 </r>
       <r>     7.6074    20.7929   495.1776 </r>
       <r>     7.8239    21.8365   499.9043 </r>
       <r>     8.0403    25.2149   505.3624 </r>
       <r>     8.2568    30.7620   512.0211 </r>
       <r>     8.4733    23.8039   517.1738 </r>
       <r>     8.6897    25.0912   522.6050 </r>
       <r>     8.9062    30.2995   529.1637 </r>
       <r>     9.1226    36.9192   537.1553 </r>
       <r>     9.3391    38.1467   545.4126 </r>
       <r>     9.5556    40.5839   554.1974 </r>
       <r>     9.7720    43.3926   563.5902 </r>
       <r>     9.9885    44.4238   573.2062 </r>
       <r>    10.2050    43.5936   582.6426 </r>
       <r>    10.4214    42.6273   591.8697 </r>
       <r>    10.6379    39.2458   600.3649 </r>
       <r>    10.8543    37.6044   608.5048 </r>
       <r>    11.0708    35.6510   616.2219 </r>
       <r>    11.2873    29.7311   622.6575 </r>
       <r>    11.5037     6.1560   623.9900 </r>
       <r>    11.7202     0.0461   624.0000 </r>
       <r>    11.9366     0.0000   624.0000 </r>
       <r>    12.1531     0.0000   624.0000 </r>
       <r>    12.3696     0.0000   624.0000 </r>
       <r>    12.5860     0.0000   624.0000 </r>
       <r>    12.8025     0.0000   624.0000 </r>
       <r>    13.0189     0.0000   624.0000 </r>
       <r>    13.2354     0.0000   624.0000 </r>
       <r>    13.4519     0.0000   624.0000 </r>
       <r>    13.6683     0.0000   624.0000 </r>
       <r>    13.8848     0.0000   624.0000 </r>
       <r>    14.1013     0.0000   624.0000 </r>
       <r>    14.3177     0.0000   624.0000 </r>
      </set>
     </set>
    </array>
   </total>
  </dos>
 </calculation>
 <structure name="finalpos" >
  <crystal>
   <varray name="basis" >
    <v>       8.93924066       0.01781618      -0.01688816 </v>
    <v>       0.02390804       8.96732232      -0.01045493 </v>
    <v>       0.01521245      -0.02585077       8.94795993 </v>
   </varray>
   <i name="volume">    717.27396802 </i>
   <varray name="rec_basis" >
    <v>       0.11186656      -0.00029847      -0.00019105 </v>
    <v>      -0.00022165       0.11151698       0.00032255 </v>
    <v>       0.00021088       0.00012973       0.11175733 </v>
   </varray>
  </crystal>
  <varray name="positions" >
   <v>       0.99603477       0.99380952       0.99288190 </v>
   <v>       0.26112586       0.99676615       0.25319749 </v>
   <v>       0.24180645       0.50052045       0.24433431 </v>
   <v>       0.50119936       0.50202417       0.99767600 </v>
   <v>       0.50574586       0.24591268       0.74354725 </v>
   <v>       0.99809022       0.50289559       0.49909796 </v>
   <v>       0.50018829       0.75587188       0.74414404 </v>
   <v>       0.99433406       0.23278540       0.25922871 </v>
   <v>       0.75423379       0.74705977       0.00623911 </v>
   <v>       0.00197231       0.24831103       0.74061608 </v>
   <v>       0.75328903       0.26042284       0.50416292 </v>
   <v>       0.99980098       0.74553496       0.75616448 </v>
   <v>       0.24625135       0.49551124       0.75194108 </v>
   <v>       0.24736261       0.24217755       0.99429353 </v>
   <v>       0.50386473       0.25134306       0.25100081 </v>
   <v>       0.73913357       0.99185298       0.26696488 </v>
   <v>       0.75371678       0.24968331       0.99458071 </v>
   <v>       0.25537741       0.75660954       0.99916232 </v>
   <v>       0.25299404       0.24958791       0.50237104 </v>
   <v>       0.24850257       0.75072106       0.50222493 </v>
   <v>       0.24828173       0.24844483       0.24823336 </v>
   <v>       0.24570859       0.00022865       0.00480989 </v>
   <v>       0.00053042       0.24375110       0.00038168 </v>
   <v>       0.75345359       0.25146337       0.25295297 </v>
   <v>       0.74707827       0.99475167      -0.00408341 </v>
   <v>       0.49785028       0.99719214       0.27936565 </v>
   <v>       0.99236481       0.49563636       0.24949277 </v>
   <v>       0.50814183       0.76075098      -0.00791095 </v>
   <v>       0.98439100       0.00238001       0.74340631 </v>
   <v>       0.75228452       0.26009250       0.74554263 </v>
   <v>       0.76471592       0.00499979       0.50875482 </v>
   <v>       0.50687563       0.25190664       0.50120559 </v>
   <v>       0.53210363      -0.00042513       0.73665243 </v>
   <v>       0.00030598      -0.00250714       0.25186737 </v>
   <v>       0.50307267       0.23854512      -0.00550634 </v>
   <v>       0.25305737       0.74897141       0.25008838 </v>
   <v>       0.24238275       0.50147493       0.99530202 </v>
   <v>       0.99951561       0.74333254       0.00663560 </v>
   <v>       0.74536436       0.74139773       0.25116971 </v>
   <v>       0.76232361       0.50355936       0.00586782 </v>
   <v>       0.49476639       0.50513933       0.24819440 </v>
   <v>       0.25001983       0.24461334       0.74831988 </v>
   <v>       0.25152439       0.00006040       0.51272383 </v>
   <v>      -0.00145713       0.24941827       0.50120782 </v>
   <v>       0.24542007       0.75771501       0.75065364 </v>
   <v>       0.25336562       0.50112619       0.49845230 </v>
   <v>       0.98968018       0.75707568       0.50001786 </v>
   <v>       0.99904485       0.49929036       0.75354841 </v>
   <v>       0.75132100       0.75175410       0.74640916 </v>
   <v>       0.74770247       0.49954317       0.50414608 </v>
   <v>       0.50545795       0.76278133       0.49176283 </v>
   <v>       0.50620695       0.50164119       0.74286447 </v>
   <v>       0.52839960       0.00652972       0.95404293 </v>
   <v>       0.99708566       0.52201715       0.97681097 </v>
   <v>       0.50443770       0.72957211       0.27263862 </v>
   <v>       0.21746091       0.01004078       0.73585307 </v>
   <v>       0.46875919       0.99105845       0.52234316 </v>
   <v>       0.74322671       0.96316421       0.77106329 </v>
   <v>       0.00073467       0.77104523       0.25260847 </v>
   <v>       0.73245865       0.50767485       0.25192910 </v>
   <v>       0.01294767       0.00397435       0.50239136 </v>
   <v>       0.50507603       0.51218755       0.48884062 </v>
   <v>       0.75744738       0.51684543       0.76294217 </v>
   <v>       0.74408705       0.73038359       0.49217783 </v>
  </varray>
 </structure>
</modeling>
