  64  64   0   0
  0.2218804E+02  0.1124000E-08  0.1124000E-08  0.1124000E-08  0.5000000E-15
  1.000000000000000E-004
  CAR 
 HECN                                    
     14.49608264    -59.86052424  301      8.51218370      1.00000000
    -59.861  0.0000E+00  0.0000E+00
    -59.613  0.0000E+00  0.0000E+00
    -59.365  0.0000E+00  0.0000E+00
    -59.117  0.0000E+00  0.0000E+00
    -58.869  0.0000E+00  0.0000E+00
    -58.621  0.0000E+00  0.0000E+00
    -58.373  0.0000E+00  0.0000E+00
    -58.126  0.0000E+00  0.0000E+00
    -57.878  0.0000E+00  0.0000E+00
    -57.630  0.0000E+00  0.0000E+00
    -57.382  0.0000E+00  0.0000E+00
    -57.134  0.0000E+00  0.0000E+00
    -56.886  0.7101E-09  0.1760E-09
    -56.638  0.2831E-02  0.7016E-03
    -56.391  0.4117E+00  0.1027E+00
    -56.143  0.1503E+00  0.1400E+00
    -55.895  0.4409E-04  0.1400E+00
    -55.647  0.2849E-12  0.1400E+00
    -55.399  0.0000E+00  0.1400E+00
    -55.151  0.0000E+00  0.1400E+00
    -54.903  0.0000E+00  0.1400E+00
    -54.656  0.0000E+00  0.1400E+00
    -54.408  0.0000E+00  0.1400E+00
    -54.160  0.0000E+00  0.1400E+00
    -53.912  0.0000E+00  0.1400E+00
    -53.664  0.0000E+00  0.1400E+00
    -53.416  0.0000E+00  0.1400E+00
    -53.168  0.0000E+00  0.1400E+00
    -52.921  0.0000E+00  0.1400E+00
    -52.673  0.0000E+00  0.1400E+00
    -52.425  0.0000E+00  0.1400E+00
    -52.177  0.0000E+00  0.1400E+00
    -51.929  0.0000E+00  0.1400E+00
    -51.681  0.0000E+00  0.1400E+00
    -51.433  0.0000E+00  0.1400E+00
    -51.186  0.0000E+00  0.1400E+00
    -50.938  0.0000E+00  0.1400E+00
    -50.690  0.0000E+00  0.1400E+00
    -50.442  0.0000E+00  0.1400E+00
    -50.194  0.0000E+00  0.1400E+00
    -49.946  0.0000E+00  0.1400E+00
    -49.698  0.1997E-09  0.1400E+00
    -49.451  0.7705E-03  0.1402E+00
    -49.203  0.7294E-01  0.1583E+00
    -48.955  0.2529E+00  0.2210E+00
    -48.707  0.2213E+00  0.2758E+00
    -48.459  0.1690E-01  0.2800E+00
    -48.211  0.6284E-06  0.2800E+00
    -47.963  0.0000E+00  0.2800E+00
    -47.716  0.0000E+00  0.2800E+00
    -47.468  0.0000E+00  0.2800E+00
    -47.220  0.0000E+00  0.2800E+00
    -46.972  0.0000E+00  0.2800E+00
    -46.724  0.0000E+00  0.2800E+00
    -46.476  0.0000E+00  0.2800E+00
    -46.228  0.0000E+00  0.2800E+00
    -45.981  0.0000E+00  0.2800E+00
    -45.733  0.0000E+00  0.2800E+00
    -45.485  0.0000E+00  0.2800E+00
    -45.237  0.0000E+00  0.2800E+00
    -44.989  0.0000E+00  0.2800E+00
    -44.741  0.0000E+00  0.2800E+00
    -44.493  0.0000E+00  0.2800E+00
    -44.246  0.0000E+00  0.2800E+00
    -43.998  0.0000E+00  0.2800E+00
    -43.750  0.0000E+00  0.2800E+00
    -43.502  0.0000E+00  0.2800E+00
    -43.254  0.0000E+00  0.2800E+00
    -43.006  0.0000E+00  0.2800E+00
    -42.759  0.0000E+00  0.2800E+00
    -42.511  0.0000E+00  0.2800E+00
    -42.263  0.0000E+00  0.2800E+00
    -42.015  0.0000E+00  0.2800E+00
    -41.767  0.0000E+00  0.2800E+00
    -41.519  0.0000E+00  0.2800E+00
    -41.271  0.0000E+00  0.2800E+00
    -41.024  0.0000E+00  0.2800E+00
    -40.776  0.0000E+00  0.2800E+00
    -40.528  0.0000E+00  0.2800E+00
    -40.280  0.0000E+00  0.2800E+00
    -40.032  0.0000E+00  0.2800E+00
    -39.784  0.0000E+00  0.2800E+00
    -39.536  0.0000E+00  0.2800E+00
    -39.289  0.0000E+00  0.2800E+00
    -39.041  0.0000E+00  0.2800E+00
    -38.793  0.0000E+00  0.2800E+00
    -38.545  0.0000E+00  0.2800E+00
    -38.297  0.0000E+00  0.2800E+00
    -38.049  0.0000E+00  0.2800E+00
    -37.801  0.0000E+00  0.2800E+00
    -37.554  0.0000E+00  0.2800E+00
    -37.306  0.0000E+00  0.2800E+00
    -37.058  0.0000E+00  0.2800E+00
    -36.810  0.0000E+00  0.2800E+00
    -36.562  0.0000E+00  0.2800E+00
    -36.314  0.0000E+00  0.2800E+00
    -36.066  0.0000E+00  0.2800E+00
    -35.819  0.0000E+00  0.2800E+00
    -35.571  0.0000E+00  0.2800E+00
    -35.323  0.0000E+00  0.2800E+00
    -35.075  0.0000E+00  0.2800E+00
    -34.827  0.0000E+00  0.2800E+00
    -34.579  0.0000E+00  0.2800E+00
    -34.331  0.0000E+00  0.2800E+00
    -34.084  0.0000E+00  0.2800E+00
    -33.836  0.0000E+00  0.2800E+00
    -33.588  0.0000E+00  0.2800E+00
    -33.340  0.0000E+00  0.2800E+00
    -33.092  0.0000E+00  0.2800E+00
    -32.844  0.0000E+00  0.2800E+00
    -32.596  0.0000E+00  0.2800E+00
    -32.349  0.0000E+00  0.2800E+00
    -32.101  0.0000E+00  0.2800E+00
    -31.853  0.0000E+00  0.2800E+00
    -31.605  0.1321E-13  0.2800E+00
    -31.357  0.7024E-05  0.2800E+00
    -31.109  0.5889E-01  0.2946E+00
    -30.861  0.5894E+00  0.4407E+00
    -30.614  0.8173E+00  0.6433E+00
    -30.366  0.1049E+01  0.9033E+00
    -30.118  0.6310E+00  0.1060E+01
    -29.870  0.1162E-02  0.1060E+01
    -29.622  0.8028E-10  0.1060E+01
    -29.374  0.0000E+00  0.1060E+01
    -29.126  0.0000E+00  0.1060E+01
    -28.879  0.0000E+00  0.1060E+01
    -28.631  0.0000E+00  0.1060E+01
    -28.383  0.0000E+00  0.1060E+01
    -28.135  0.0000E+00  0.1060E+01
    -27.887  0.2416E-08  0.1060E+01
    -27.639  0.2617E-02  0.1061E+01
    -27.391  0.1803E+00  0.1105E+01
    -27.144  0.3717E+00  0.1197E+01
    -26.896  0.4773E+00  0.1316E+01
    -26.648  0.4061E+00  0.1416E+01
    -26.400  0.1448E-01  0.1420E+01
    -26.152  0.1284E-06  0.1420E+01
    -25.904  0.3581E-03  0.1420E+01
    -25.656  0.1404E+00  0.1455E+01
    -25.409  0.5413E+00  0.1589E+01
    -25.161  0.8419E+00  0.1798E+01
    -24.913  0.1702E+00  0.1840E+01
    -24.665  0.3550E-03  0.1840E+01
    -24.417  0.2441E-10  0.1840E+01
    -24.169  0.0000E+00  0.1840E+01
    -23.921  0.0000E+00  0.1840E+01
    -23.674  0.0000E+00  0.1840E+01
    -23.426  0.0000E+00  0.1840E+01
    -23.178  0.0000E+00  0.1840E+01
    -22.930  0.0000E+00  0.1840E+01
    -22.682  0.0000E+00  0.1840E+01
    -22.434  0.0000E+00  0.1840E+01
    -22.187  0.0000E+00  0.1840E+01
    -21.939  0.0000E+00  0.1840E+01
    -21.691  0.0000E+00  0.1840E+01
    -21.443  0.0000E+00  0.1840E+01
    -21.195  0.0000E+00  0.1840E+01
    -20.947  0.0000E+00  0.1840E+01
    -20.699  0.0000E+00  0.1840E+01
    -20.452  0.0000E+00  0.1840E+01
    -20.204  0.0000E+00  0.1840E+01
    -19.956  0.0000E+00  0.1840E+01
    -19.708  0.0000E+00  0.1840E+01
    -19.460  0.0000E+00  0.1840E+01
    -19.212  0.0000E+00  0.1840E+01
    -18.964  0.0000E+00  0.1840E+01
    -18.717  0.0000E+00  0.1840E+01
    -18.469  0.0000E+00  0.1840E+01
    -18.221  0.0000E+00  0.1840E+01
    -17.973  0.0000E+00  0.1840E+01
    -17.725  0.0000E+00  0.1840E+01
    -17.477  0.0000E+00  0.1840E+01
    -17.229  0.0000E+00  0.1840E+01
    -16.982  0.0000E+00  0.1840E+01
    -16.734  0.0000E+00  0.1840E+01
    -16.486  0.0000E+00  0.1840E+01
    -16.238  0.0000E+00  0.1840E+01
    -15.990  0.0000E+00  0.1840E+01
    -15.742  0.0000E+00  0.1840E+01
    -15.494  0.0000E+00  0.1840E+01
    -15.247  0.0000E+00  0.1840E+01
    -14.999  0.0000E+00  0.1840E+01
    -14.751  0.0000E+00  0.1840E+01
    -14.503  0.0000E+00  0.1840E+01
    -14.255  0.0000E+00  0.1840E+01
    -14.007  0.0000E+00  0.1840E+01
    -13.759  0.0000E+00  0.1840E+01
    -13.512  0.0000E+00  0.1840E+01
    -13.264  0.0000E+00  0.1840E+01
    -13.016  0.0000E+00  0.1840E+01
    -12.768  0.0000E+00  0.1840E+01
    -12.520  0.0000E+00  0.1840E+01
    -12.272  0.0000E+00  0.1840E+01
    -12.024  0.0000E+00  0.1840E+01
    -11.777  0.0000E+00  0.1840E+01
    -11.529  0.0000E+00  0.1840E+01
    -11.281  0.0000E+00  0.1840E+01
    -11.033  0.0000E+00  0.1840E+01
    -10.785  0.0000E+00  0.1840E+01
    -10.537  0.0000E+00  0.1840E+01
    -10.289  0.0000E+00  0.1840E+01
    -10.042  0.0000E+00  0.1840E+01
     -9.794  0.0000E+00  0.1840E+01
     -9.546  0.0000E+00  0.1840E+01
     -9.298  0.0000E+00  0.1840E+01
     -9.050  0.1659E-18  0.1840E+01
     -8.802  0.1989E-08  0.1840E+01
     -8.554  0.4746E-03  0.1840E+01
     -8.307  0.3220E-01  0.1848E+01
     -8.059  0.4816E-01  0.1860E+01
     -7.811  0.6618E-01  0.1876E+01
     -7.563  0.1207E+00  0.1906E+01
     -7.315  0.7338E-01  0.1925E+01
     -7.067  0.1234E+00  0.1955E+01
     -6.819  0.1982E+00  0.2004E+01
     -6.572  0.2621E+00  0.2069E+01
     -6.324  0.9288E-01  0.2092E+01
     -6.076  0.3138E-01  0.2100E+01
     -5.828  0.6810E-05  0.2100E+01
     -5.580  0.1796E-13  0.2100E+01
     -5.332  0.9960E-07  0.2100E+01
     -5.084  0.2332E-02  0.2101E+01
     -4.837  0.5051E-01  0.2113E+01
     -4.589  0.3102E-01  0.2121E+01
     -4.341  0.7722E-01  0.2140E+01
     -4.093  0.7705E-01  0.2159E+01
     -3.845  0.1341E+00  0.2192E+01
     -3.597  0.2263E+00  0.2248E+01
     -3.350  0.2606E+00  0.2313E+01
     -3.102  0.2014E+00  0.2363E+01
     -2.854  0.1926E+00  0.2411E+01
     -2.606  0.1644E+00  0.2451E+01
     -2.358  0.1021E+00  0.2477E+01
     -2.110  0.1353E-01  0.2480E+01
     -1.862  0.1603E-04  0.2480E+01
     -1.615  0.1538E-11  0.2480E+01
     -1.367  0.0000E+00  0.2480E+01
     -1.119  0.0000E+00  0.2480E+01
     -0.871  0.0000E+00  0.2480E+01
     -0.623  0.1691E-11  0.2480E+01
     -0.375  0.1741E-04  0.2480E+01
     -0.127  0.4455E-02  0.2481E+01
      0.120  0.1805E-01  0.2486E+01
      0.368  0.7157E-01  0.2503E+01
      0.616  0.8682E-01  0.2525E+01
      0.864  0.1485E+00  0.2562E+01
      1.112  0.1931E+00  0.2610E+01
      1.360  0.2726E+00  0.2677E+01
      1.608  0.2635E+00  0.2742E+01
      1.855  0.2430E+00  0.2803E+01
      2.103  0.3255E+00  0.2883E+01
      2.351  0.3335E+00  0.2966E+01
      2.599  0.3992E+00  0.3065E+01
      2.847  0.4528E+00  0.3177E+01
      3.095  0.5823E+00  0.3321E+01
      3.343  0.6459E+00  0.3482E+01
      3.590  0.5900E+00  0.3628E+01
      3.838  0.5569E+00  0.3766E+01
      4.086  0.5811E+00  0.3910E+01
      4.334  0.4685E+00  0.4026E+01
      4.582  0.3762E+00  0.4119E+01
      4.830  0.2969E+00  0.4193E+01
      5.078  0.2981E+00  0.4267E+01
      5.325  0.2166E+00  0.4320E+01
      5.573  0.1658E+00  0.4361E+01
      5.821  0.1217E+00  0.4392E+01
      6.069  0.6658E-01  0.4408E+01
      6.317  0.1324E+00  0.4441E+01
      6.565  0.1790E+00  0.4485E+01
      6.813  0.1701E+00  0.4527E+01
      7.060  0.1798E+00  0.4572E+01
      7.308  0.1609E+00  0.4612E+01
      7.556  0.2059E+00  0.4663E+01
      7.804  0.2417E+00  0.4723E+01
      8.052  0.2580E+00  0.4787E+01
      8.300  0.2246E+00  0.4842E+01
      8.548  0.2692E+00  0.4909E+01
      8.795  0.3073E+00  0.4985E+01
      9.043  0.4319E+00  0.5092E+01
      9.291  0.5140E+00  0.5220E+01
      9.539  0.5541E+00  0.5357E+01
      9.787  0.5587E+00  0.5496E+01
     10.035  0.6264E+00  0.5651E+01
     10.283  0.6278E+00  0.5807E+01
     10.530  0.5784E+00  0.5950E+01
     10.778  0.6103E+00  0.6101E+01
     11.026  0.4878E+00  0.6222E+01
     11.274  0.7224E-01  0.6240E+01
     11.522  0.1810E-03  0.6240E+01
     11.770  0.3693E-10  0.6240E+01
     12.018  0.0000E+00  0.6240E+01
     12.265  0.0000E+00  0.6240E+01
     12.513  0.0000E+00  0.6240E+01
     12.761  0.0000E+00  0.6240E+01
     13.009  0.0000E+00  0.6240E+01
     13.257  0.0000E+00  0.6240E+01
     13.505  0.0000E+00  0.6240E+01
     13.753  0.0000E+00  0.6240E+01
     14.000  0.0000E+00  0.6240E+01
     14.248  0.0000E+00  0.6240E+01
     14.496  0.0000E+00  0.6240E+01
