<?xml version="1.0" encoding="ISO-8859-1"?>
<modeling>
 <generator>
  <i name="program" type="string">vasp </i>
  <i name="version" type="string">5.4.4.18Apr17-6-g9f103f2a35  </i>
  <i name="subversion" type="string">(build Oct 18 2021 20:38:43) complex            parallel </i>
  <i name="platform" type="string">LinuxIFC </i>
  <i name="date" type="string">2024 05 30 </i>
  <i name="time" type="string">10:53:55 </i>
 </generator>
 <incar>
  <i type="string" name="SYSTEM">HECN</i>
  <i type="int" name="ISTART">     0</i>
  <i type="string" name="PREC">normal</i>
  <i type="string" name="ALGO">Fast</i>
  <i type="int" name="ICHARG">     2</i>
  <i type="int" name="NELM">    60</i>
  <i type="int" name="IBRION">     2</i>
  <i name="EDIFF">      0.00001000</i>
  <i name="EDIFFG">     -0.01000000</i>
  <i type="int" name="NSW">   100</i>
  <i type="int" name="ISIF">     3</i>
  <i name="ENCUT">    400.00000000</i>
  <i name="POTIM">      0.50000000</i>
  <i type="logical" name="LREAL"> F  </i>
  <i type="int" name="ISMEAR">     0</i>
  <i name="SIGMA">      0.10000000</i>
  <i type="logical" name="LWAVE"> F  </i>
  <i type="logical" name="LCHARG"> F  </i>
  <v type="int" name="KPOINT_BSE">    -1     0     0     0</v>
  <i type="int" name="NELM">    60</i>
 </incar>
 <structure name="primitive_cell" >
  <crystal>
   <varray name="basis" >
    <v>      11.23999977       0.00000000       0.00000000 </v>
    <v>       0.00000000      11.23999977       0.00000000 </v>
    <v>       0.00000000       0.00000000      11.23999977 </v>
   </varray>
   <i name="volume">   1420.03453724 </i>
   <varray name="rec_basis" >
    <v>       0.08896797       0.00000000       0.00000000 </v>
    <v>       0.00000000       0.08896797       0.00000000 </v>
    <v>       0.00000000       0.00000000       0.08896797 </v>
   </varray>
  </crystal>
  <varray name="positions" >
   <v>       0.00000000       0.00000000       0.00000000 </v>
   <v>      -0.24999996       0.00000000       0.00000000 </v>
   <v>       0.00000000       0.00000000      -0.24999996 </v>
   <v>       0.00000000      -0.24999996       0.00000000 </v>
   <v>       0.25000000       0.00000000       0.00000000 </v>
   <v>       0.00000000       0.25000000       0.00000000 </v>
   <v>       0.00000000       0.00000000       0.25000000 </v>
   <v>      -0.24999996      -0.24999996       0.00000000 </v>
   <v>       0.00000000      -0.24999996      -0.24999996 </v>
   <v>      -0.24999996       0.00000000      -0.24999996 </v>
   <v>       0.00000000       0.25000000      -0.24999996 </v>
   <v>      -0.24999996       0.00000000       0.25000000 </v>
   <v>      -0.24999996       0.25000000       0.00000000 </v>
   <v>       0.25000000      -0.24999996       0.00000000 </v>
   <v>       0.25000000       0.00000000      -0.24999996 </v>
   <v>       0.00000000      -0.24999996       0.25000000 </v>
   <v>       0.25000000       0.00000000       0.25000000 </v>
   <v>       0.00000000       0.25000000       0.25000000 </v>
   <v>       0.25000000       0.25000000       0.00000000 </v>
   <v>      -0.24999996      -0.24999996      -0.24999996 </v>
   <v>      -0.24999996       0.25000000      -0.24999996 </v>
   <v>       0.25000000      -0.24999996      -0.24999996 </v>
   <v>      -0.24999996      -0.24999996       0.25000000 </v>
   <v>      -0.24999996       0.25000000       0.25000000 </v>
   <v>       0.25000000      -0.24999996       0.25000000 </v>
   <v>       0.25000000       0.25000000      -0.24999996 </v>
   <v>       0.25000000       0.25000000       0.25000000 </v>
   <v>      -0.50000000       0.00000000       0.00000000 </v>
   <v>       0.00000000      -0.50000000       0.00000000 </v>
   <v>       0.00000000       0.00000000      -0.50000000 </v>
   <v>      -0.50000000      -0.24999996       0.00000000 </v>
   <v>      -0.24999996       0.00000000      -0.50000000 </v>
   <v>      -0.50000000       0.00000000      -0.24999996 </v>
   <v>      -0.24999996      -0.50000000       0.00000000 </v>
   <v>       0.00000000      -0.24999996      -0.50000000 </v>
   <v>       0.00000000      -0.50000000      -0.24999996 </v>
   <v>      -0.50000000       0.00000000       0.25000000 </v>
   <v>       0.00000000      -0.50000000       0.25000000 </v>
   <v>      -0.50000000       0.25000000       0.00000000 </v>
   <v>       0.25000000      -0.50000000       0.00000000 </v>
   <v>       0.25000000       0.00000000      -0.50000000 </v>
   <v>       0.00000000       0.25000000      -0.50000000 </v>
   <v>      -0.24999996      -0.24999996      -0.50000000 </v>
   <v>      -0.50000000      -0.24999996      -0.24999996 </v>
   <v>      -0.24999996      -0.50000000      -0.24999996 </v>
   <v>      -0.50000000       0.25000000      -0.24999996 </v>
   <v>      -0.24999996       0.25000000      -0.50000000 </v>
   <v>       0.25000000      -0.50000000      -0.24999996 </v>
   <v>       0.25000000      -0.24999996      -0.50000000 </v>
   <v>      -0.50000000      -0.24999996       0.25000000 </v>
   <v>      -0.24999996      -0.50000000       0.25000000 </v>
   <v>       0.25000000      -0.50000000       0.25000000 </v>
   <v>      -0.50000000       0.25000000       0.25000000 </v>
   <v>       0.25000000       0.25000000      -0.50000000 </v>
   <v>      -0.50000000      -0.50000000       0.00000000 </v>
   <v>       0.00000000      -0.50000000      -0.50000000 </v>
   <v>      -0.50000000       0.00000000      -0.50000000 </v>
   <v>      -0.24999996      -0.50000000      -0.50000000 </v>
   <v>      -0.50000000      -0.24999996      -0.50000000 </v>
   <v>      -0.50000000      -0.50000000      -0.24999996 </v>
   <v>      -0.50000000       0.25000000      -0.50000000 </v>
   <v>      -0.50000000      -0.50000000       0.25000000 </v>
   <v>       0.25000000      -0.50000000      -0.50000000 </v>
   <v>      -0.50000000      -0.50000000      -0.50000000 </v>
  </varray>
 </structure>
 <varray name="primitive_index" >
  <v type="int" >        1 </v>
  <v type="int" >       25 </v>
  <v type="int" >       29 </v>
  <v type="int" >       38 </v>
  <v type="int" >       22 </v>
  <v type="int" >       23 </v>
  <v type="int" >       34 </v>
  <v type="int" >        9 </v>
  <v type="int" >       12 </v>
  <v type="int" >       58 </v>
  <v type="int" >       10 </v>
  <v type="int" >       16 </v>
  <v type="int" >       17 </v>
  <v type="int" >       18 </v>
  <v type="int" >       56 </v>
  <v type="int" >       59 </v>
  <v type="int" >        2 </v>
  <v type="int" >        8 </v>
  <v type="int" >       14 </v>
  <v type="int" >       49 </v>
  <v type="int" >       30 </v>
  <v type="int" >       45 </v>
  <v type="int" >       39 </v>
  <v type="int" >       24 </v>
  <v type="int" >       36 </v>
  <v type="int" >       42 </v>
  <v type="int" >       21 </v>
  <v type="int" >       53 </v>
  <v type="int" >       54 </v>
  <v type="int" >       61 </v>
  <v type="int" >       28 </v>
  <v type="int" >       31 </v>
  <v type="int" >       33 </v>
  <v type="int" >       40 </v>
  <v type="int" >       47 </v>
  <v type="int" >       48 </v>
  <v type="int" >       26 </v>
  <v type="int" >       27 </v>
  <v type="int" >       35 </v>
  <v type="int" >       37 </v>
  <v type="int" >       43 </v>
  <v type="int" >       44 </v>
  <v type="int" >       64 </v>
  <v type="int" >        7 </v>
  <v type="int" >       63 </v>
  <v type="int" >        5 </v>
  <v type="int" >       11 </v>
  <v type="int" >       13 </v>
  <v type="int" >       20 </v>
  <v type="int" >       55 </v>
  <v type="int" >       60 </v>
  <v type="int" >        3 </v>
  <v type="int" >       15 </v>
  <v type="int" >       19 </v>
  <v type="int" >        4 </v>
  <v type="int" >        6 </v>
  <v type="int" >       57 </v>
  <v type="int" >       50 </v>
  <v type="int" >       51 </v>
  <v type="int" >       52 </v>
  <v type="int" >       32 </v>
  <v type="int" >       41 </v>
  <v type="int" >       46 </v>
  <v type="int" >       62 </v>
 </varray>
 <kpoints>
  <generation param="Gamma">
   <v type="int" name="divisions">       3        3        3 </v>
   <v name="usershift">      0.00000000       0.00000000       0.00000000 </v>
   <v name="genvec1">      0.33333333       0.00000000       0.00000000 </v>
   <v name="genvec2">      0.00000000       0.33333333       0.00000000 </v>
   <v name="genvec3">      0.00000000       0.00000000       0.33333333 </v>
   <v name="shift">      0.00000000       0.00000000       0.00000000 </v>
  </generation>
  <varray name="kpointlist" >
   <v>       0.00000000       0.00000000       0.00000000 </v>
   <v>       0.33333333       0.00000000       0.00000000 </v>
   <v>       0.00000000       0.33333333       0.00000000 </v>
   <v>       0.33333333       0.33333333       0.00000000 </v>
   <v>      -0.33333333       0.33333333       0.00000000 </v>
   <v>       0.00000000       0.00000000       0.33333333 </v>
   <v>       0.33333333       0.00000000       0.33333333 </v>
   <v>      -0.33333333       0.00000000       0.33333333 </v>
   <v>       0.00000000       0.33333333       0.33333333 </v>
   <v>       0.33333333       0.33333333       0.33333333 </v>
   <v>      -0.33333333       0.33333333       0.33333333 </v>
   <v>       0.00000000      -0.33333333       0.33333333 </v>
   <v>       0.33333333      -0.33333333       0.33333333 </v>
   <v>      -0.33333333      -0.33333333       0.33333333 </v>
  </varray>
  <varray name="weights" >
   <v>       0.03703704 </v>
   <v>       0.07407407 </v>
   <v>       0.07407407 </v>
   <v>       0.07407407 </v>
   <v>       0.07407407 </v>
   <v>       0.07407407 </v>
   <v>       0.07407407 </v>
   <v>       0.07407407 </v>
   <v>       0.07407407 </v>
   <v>       0.07407407 </v>
   <v>       0.07407407 </v>
   <v>       0.07407407 </v>
   <v>       0.07407407 </v>
   <v>       0.07407407 </v>
  </varray>
 </kpoints>
 <parameters>
  <separator name="general" >
   <i type="string" name="SYSTEM">HECN</i>
   <i type="logical" name="LCOMPAT"> F  </i>
  </separator>
  <separator name="electronic" >
   <i type="string" name="PREC">normal</i>
   <i name="ENMAX">    400.00000000</i>
   <i name="ENAUG">    644.87300000</i>
   <i name="EDIFF">      0.00001000</i>
   <i type="int" name="IALGO">    68</i>
   <i type="int" name="IWAVPR">    11</i>
   <i type="int" name="NBANDS">   312</i>
   <i name="NELECT">    490.00000000</i>
   <i type="int" name="TURBO">     0</i>
   <i type="int" name="IRESTART">     0</i>
   <i type="int" name="NREBOOT">     0</i>
   <i type="int" name="NMIN">     0</i>
   <i name="EREF">      0.00000000</i>
   <separator name="electronic smearing" >
    <i type="int" name="ISMEAR">     0</i>
    <i name="SIGMA">      0.10000000</i>
    <i name="KSPACING">      0.50000000</i>
    <i type="logical" name="KGAMMA"> T  </i>
   </separator>
   <separator name="electronic projectors" >
    <i type="logical" name="LREAL"> F  </i>
    <v name="ROPT">      0.00000000      0.00000000      0.00000000      0.00000000      0.00000000      0.00000000      0.00000000</v>
    <i type="int" name="LMAXPAW">  -100</i>
    <i type="int" name="LMAXMIX">     2</i>
    <i type="logical" name="NLSPLINE"> F  </i>
   </separator>
   <separator name="electronic startup" >
    <i type="int" name="ISTART">     0</i>
    <i type="int" name="ICHARG">     2</i>
    <i type="int" name="INIWAV">     1</i>
   </separator>
   <separator name="electronic spin" >
    <i type="int" name="ISPIN">     1</i>
    <i type="logical" name="LNONCOLLINEAR"> F  </i>
    <v name="MAGMOM">      1.00000000      1.00000000      1.00000000      1.00000000      1.00000000      1.00000000      1.00000000      1.00000000      1.00000000      1.00000000      1.00000000      1.00000000      1.00000000      1.00000000      1.00000000      1.00000000      1.00000000      1.00000000      1.00000000      1.00000000
      1.00000000      1.00000000      1.00000000      1.00000000      1.00000000      1.00000000      1.00000000      1.00000000      1.00000000      1.00000000      1.00000000      1.00000000      1.00000000      1.00000000      1.00000000      1.00000000      1.00000000      1.00000000      1.00000000      1.00000000
      1.00000000      1.00000000      1.00000000      1.00000000      1.00000000      1.00000000      1.00000000      1.00000000      1.00000000      1.00000000      1.00000000      1.00000000      1.00000000      1.00000000      1.00000000      1.00000000      1.00000000      1.00000000      1.00000000      1.00000000
      1.00000000      1.00000000      1.00000000      1.00000000</v>
    <i name="NUPDOWN">     -1.00000000</i>
    <i type="logical" name="LSORBIT"> F  </i>
    <v name="SAXIS">      0.00000000      0.00000000      1.00000000</v>
    <i type="logical" name="LSPIRAL"> F  </i>
    <v name="QSPIRAL">      0.00000000      0.00000000      0.00000000</v>
    <i type="logical" name="LZEROZ"> F  </i>
   </separator>
   <separator name="electronic exchange-correlation" >
    <i type="logical" name="LASPH"> F  </i>
    <i type="logical" name="LMETAGGA"> F  </i>
   </separator>
   <separator name="electronic convergence" >
    <i type="int" name="NELM">    60</i>
    <i type="int" name="NELMDL">    -5</i>
    <i type="int" name="NELMIN">     2</i>
    <i name="ENINI">    400.00000000</i>
    <separator name="electronic convergence detail" >
     <i type="logical" name="LDIAG"> T  </i>
     <i type="logical" name="LSUBROT"> F  </i>
     <i name="WEIMIN">      0.00100000</i>
     <i name="EBREAK">      0.00000001</i>
     <i name="DEPER">      0.30000000</i>
     <i type="int" name="NRMM">     4</i>
     <i name="TIME">      0.40000000</i>
    </separator>
   </separator>
   <separator name="electronic mixer" >
    <i name="AMIX">      0.40000000</i>
    <i name="BMIX">      1.00000000</i>
    <i name="AMIN">      0.10000000</i>
    <i name="AMIX_MAG">      1.60000000</i>
    <i name="BMIX_MAG">      1.00000000</i>
    <separator name="electronic mixer details" >
     <i type="int" name="IMIX">     4</i>
     <i type="logical" name="MIXFIRST"> F  </i>
     <i type="int" name="MAXMIX">   -45</i>
     <i name="WC">    100.00000000</i>
     <i type="int" name="INIMIX">     1</i>
     <i type="int" name="MIXPRE">     1</i>
     <i type="int" name="MREMOVE">     5</i>
    </separator>
   </separator>
   <separator name="electronic dipolcorrection" >
    <i type="logical" name="LDIPOL"> F  </i>
    <i type="logical" name="LMONO"> F  </i>
    <i type="int" name="IDIPOL">     0</i>
    <i name="EPSILON">      1.00000000</i>
    <v name="DIPOL">   -100.00000000   -100.00000000   -100.00000000</v>
    <i name="EFIELD">      0.00000000</i>
   </separator>
  </separator>
  <separator name="grids" >
   <i type="int" name="NGX">    56</i>
   <i type="int" name="NGY">    56</i>
   <i type="int" name="NGZ">    56</i>
   <i type="int" name="NGXF">   112</i>
   <i type="int" name="NGYF">   112</i>
   <i type="int" name="NGZF">   112</i>
   <i type="logical" name="ADDGRID"> F  </i>
  </separator>
  <separator name="ionic" >
   <i type="int" name="NSW">   100</i>
   <i type="int" name="IBRION">     2</i>
   <i type="int" name="MDALGO">     0</i>
   <i type="int" name="ISIF">     3</i>
   <i name="PSTRESS">      0.00000000</i>
   <i name="EDIFFG">     -0.01000000</i>
   <i type="int" name="NFREE">     1</i>
   <i name="POTIM">      0.50000000</i>
   <i name="SMASS">     -3.00000000</i>
   <i name="SCALEE">      1.00000000</i>
  </separator>
  <separator name="ionic md" >
   <i name="TEBEG">      0.00010000</i>
   <i name="TEEND">      0.00010000</i>
   <i type="int" name="NBLOCK">     1</i>
   <i type="int" name="KBLOCK">   100</i>
   <i type="int" name="NPACO">   256</i>
   <i name="APACO">     16.00000000</i>
  </separator>
  <separator name="symmetry" >
   <i type="int" name="ISYM">     2</i>
   <i name="SYMPREC">      0.00001000</i>
  </separator>
  <separator name="dos" >
   <i type="int" name="LORBIT">     0</i>
   <v name="RWIGS">     -1.00000000     -1.00000000     -1.00000000     -1.00000000     -1.00000000     -1.00000000     -1.00000000</v>
   <i type="int" name="NEDOS">   301</i>
   <i name="EMIN">     10.00000000</i>
   <i name="EMAX">    -10.00000000</i>
   <i name="EFERMI">      0.00000000</i>
  </separator>
  <separator name="writing" >
   <i type="int" name="NWRITE">     2</i>
   <i type="logical" name="LWAVE"> F  </i>
   <i type="logical" name="LDOWNSAMPLE"> F  </i>
   <i type="logical" name="LCHARG"> F  </i>
   <i type="logical" name="LPARD"> F  </i>
   <i type="logical" name="LVTOT"> F  </i>
   <i type="logical" name="LVHAR"> F  </i>
   <i type="logical" name="LELF"> F  </i>
   <i type="logical" name="LOPTICS"> F  </i>
   <v name="STM">      0.00000000      0.00000000      0.00000000      0.00000000      0.00000000      0.00000000      0.00000000</v>
  </separator>
  <separator name="performance" >
   <i type="int" name="NPAR">    24</i>
   <i type="int" name="NSIM">     4</i>
   <i type="int" name="NBLK">    -1</i>
   <i type="logical" name="LPLANE"> T  </i>
   <i type="logical" name="LSCALAPACK"> T  </i>
   <i type="logical" name="LSCAAWARE"> F  </i>
   <i type="logical" name="LSCALU"> F  </i>
   <i type="logical" name="LASYNC"> F  </i>
   <i type="logical" name="LORBITALREAL"> F  </i>
  </separator>
  <separator name="miscellaneous" >
   <i type="int" name="IDIOT">     3</i>
   <i type="int" name="ISPECIAL">     0</i>
   <i type="logical" name="LMUSIC"> F  </i>
   <v name="POMASS">     47.88000000     95.94000000     50.94100000     14.00100000     12.01100000    180.94800000    183.85000000</v>
   <v name="DARWINR">      0.00000000      0.00000000      0.00000000      0.00000000      0.00000000      0.00000000      0.00000000</v>
   <v name="DARWINV">      1.00000000      1.00000000      1.00000000      1.00000000      1.00000000      1.00000000      1.00000000</v>
   <i type="logical" name="LCORR"> T  </i>
  </separator>
  <i type="logical" name="GGA_COMPAT"> T  </i>
  <i type="logical" name="LBERRY"> F  </i>
  <i type="int" name="ICORELEVEL">     0</i>
  <i type="logical" name="LDAU"> F  </i>
  <i type="int" name="I_CONSTRAINED_M">     0</i>
  <separator name="electronic exchange-correlation" >
   <i type="string" name="GGA">--</i>
   <i type="int" name="VOSKOWN">     0</i>
   <i type="logical" name="LHFCALC"> F  </i>
   <i type="string" name="PRECFOCK"></i>
   <i type="logical" name="LSYMGRAD"> F  </i>
   <i type="logical" name="LHFONE"> F  </i>
   <i type="logical" name="LRHFCALC"> F  </i>
   <i type="logical" name="LTHOMAS"> F  </i>
   <i type="logical" name="LMODELHF"> F  </i>
   <i name="ENCUT4O">     -1.00000000</i>
   <i type="int" name="EXXOEP">     0</i>
   <i type="int" name="FOURORBIT">     0</i>
   <i name="AEXX">      0.00000000</i>
   <i name="HFALPHA">      0.00000000</i>
   <i name="MCALPHA">      0.00000000</i>
   <i name="ALDAX">      1.00000000</i>
   <i name="AGGAX">      1.00000000</i>
   <i name="ALDAC">      1.00000000</i>
   <i name="AGGAC">      1.00000000</i>
   <i type="int" name="NKREDX">     1</i>
   <i type="int" name="NKREDY">     1</i>
   <i type="int" name="NKREDZ">     1</i>
   <i type="logical" name="SHIFTRED"> F  </i>
   <i type="logical" name="ODDONLY"> F  </i>
   <i type="logical" name="EVENONLY"> F  </i>
   <i type="int" name="LMAXFOCK">     0</i>
   <i type="int" name="NMAXFOCKAE">     0</i>
   <i type="logical" name="LFOCKAEDFT"> F  </i>
   <i name="HFSCREEN">      0.00000000</i>
   <i name="HFSCREENC">      0.00000000</i>
   <i type="int" name="NBANDSGWLOW">     0</i>
  </separator>
  <separator name="vdW DFT" >
   <i type="logical" name="LUSE_VDW"> F  </i>
   <i name="Zab_VDW">     -0.84910000</i>
   <i name="PARAM1">      0.12340000</i>
   <i name="PARAM2">      1.00000000</i>
   <i name="PARAM3">      0.00000000</i>
  </separator>
  <separator name="model GW" >
   <i type="int" name="MODEL_GW">     0</i>
   <i name="MODEL_EPS0">     13.31282379</i>
   <i name="MODEL_ALPHA">      1.00000000</i>
  </separator>
  <separator name="linear response parameters" >
   <i type="logical" name="LEPSILON"> F  </i>
   <i type="logical" name="LRPA"> F  </i>
   <i type="logical" name="LNABLA"> F  </i>
   <i type="logical" name="LVEL"> F  </i>
   <i type="int" name="KINTER">     0</i>
   <i name="CSHIFT">      0.10000000</i>
   <i name="OMEGAMAX">     -1.00000000</i>
   <i name="DEG_THRESHOLD">      0.00200000</i>
   <i name="RTIME">     -0.10000000</i>
   <i name="WPLASMAI">      0.00000000</i>
   <v name="DFIELD">      0.00000000      0.00000000      0.00000000</v>
   <v name="WPLASMA">      0.00000000      0.00000000      0.00000000      0.00000000      0.00000000      0.00000000      0.00000000      0.00000000      0.00000000</v>
  </separator>
  <separator name="orbital magnetization" >
   <i type="logical" name="NUCIND"> F  </i>
   <v name="MAGPOS">      0.00000000      0.00000000      0.00000000</v>
   <i type="logical" name="LNICSALL"> T  </i>
   <i type="logical" name="ORBITALMAG"> F  </i>
   <i type="logical" name="LMAGBLOCH"> F  </i>
   <i type="logical" name="LCHIMAG"> F  </i>
   <i type="logical" name="LGAUGE"> T  </i>
   <i type="int" name="MAGATOM">     0</i>
   <v name="MAGDIPOL">      0.00000000      0.00000000      0.00000000</v>
   <v name="AVECCONST">      0.00000000      0.00000000      0.00000000</v>
  </separator>
  <separator name="response functions" >
   <i type="logical" name="LADDER"> F  </i>
   <i type="logical" name="LRPAFORCE"> F  </i>
   <i type="logical" name="LFXC"> F  </i>
   <i type="logical" name="LHARTREE"> T  </i>
   <i type="int" name="IBSE">     0</i>
   <v type="int" name="KPOINT">    -1     0     0     0</v>
   <i type="logical" name="LTCTE"> F  </i>
   <i type="logical" name="LTETE"> F  </i>
   <i type="logical" name="LTRIPLET"> F  </i>
   <i type="logical" name="LFXCEPS"> F  </i>
   <i type="logical" name="LFXHEG"> F  </i>
   <i type="int" name="NATURALO">     2</i>
   <i type="logical" name="L2ORDER"> F  </i>
   <i type="logical" name="LMP2LT"> F  </i>
   <i type="logical" name="LUSEW"> F  </i>
   <i name="ENCUTGW">     -2.00000000</i>
   <i name="ENCUTGWSOFT">     -2.00000000</i>
   <i name="ENCUTLF">     -1.00000000</i>
   <i type="int" name="LMAXMP2">    -1</i>
   <i name="SCISSOR">      0.00000000</i>
   <i type="int" name="NOMEGA">     0</i>
   <i type="int" name="NOMEGAR">     0</i>
   <i type="int" name="NBANDSGW">    -1</i>
   <i type="int" name="NBANDSO">    -1</i>
   <i type="int" name="NBANDSV">    -1</i>
   <i type="int" name="NELM">    60</i>
   <i type="int" name="NELMHF">     1</i>
   <i type="int" name="DIM">     3</i>
   <i type="int" name="ANTIRES">     0</i>
   <i name="OMEGAMAX">    -30.00000000</i>
   <i name="OMEGAMIN">    -30.00000000</i>
   <i name="OMEGATL">   -200.00000000</i>
   <i type="int" name="OMEGAGRID">   140</i>
   <i name="CSHIFT">     -0.10000000</i>
   <i type="logical" name="SELFENERGY"> F  </i>
   <i type="logical" name="LSPECTRAL"> F  </i>
   <i type="logical" name="LSPECTRALGW"> F  </i>
   <i type="logical" name="LSINGLES"> F  </i>
   <i type="logical" name="LFERMIGW"> F  </i>
   <i type="logical" name="ODDONLYGW"> F  </i>
   <i type="logical" name="EVENONLYGW"> F  </i>
   <i type="int" name="NKREDLFX">     1</i>
   <i type="int" name="NKREDLFY">     1</i>
   <i type="int" name="NKREDLFZ">     1</i>
   <i type="int" name="MAXMEM">  2800</i>
   <i type="int" name="TELESCOPE">     0</i>
   <i type="int" name="TAUPAR">     1</i>
   <i type="int" name="OMEGAPAR">    -1</i>
   <i name="LAMBDA">      1.00000000</i>
  </separator>
  <separator name="External order field" >
   <i name="OFIELD_KAPPA">      0.00000000</i>
   <v name="OFIELD_K">      0.00000000      0.00000000      0.00000000</v>
   <i name="OFIELD_Q6_NEAR">      0.00000000</i>
   <i name="OFIELD_Q6_FAR">      0.00000000</i>
   <i name="OFIELD_A">      0.00000000</i>
  </separator>
 </parameters>
 <atominfo>
  <atoms>      64 </atoms>
  <types>       7 </types>
  <array name="atoms" >
   <dimension dim="1">ion</dimension>
   <field type="string">element</field>
   <field type="int">atomtype</field>
   <set>
    <rc><c>Ti</c><c>   1</c></rc>
    <rc><c>Ti</c><c>   1</c></rc>
    <rc><c>Ti</c><c>   1</c></rc>
    <rc><c>Ti</c><c>   1</c></rc>
    <rc><c>Ti</c><c>   1</c></rc>
    <rc><c>Ti</c><c>   1</c></rc>
    <rc><c>Ti</c><c>   1</c></rc>
    <rc><c>Mo</c><c>   2</c></rc>
    <rc><c>Mo</c><c>   2</c></rc>
    <rc><c>Mo</c><c>   2</c></rc>
    <rc><c>Mo</c><c>   2</c></rc>
    <rc><c>Mo</c><c>   2</c></rc>
    <rc><c>Mo</c><c>   2</c></rc>
    <rc><c>V </c><c>   3</c></rc>
    <rc><c>V </c><c>   3</c></rc>
    <rc><c>V </c><c>   3</c></rc>
    <rc><c>V </c><c>   3</c></rc>
    <rc><c>V </c><c>   3</c></rc>
    <rc><c>V </c><c>   3</c></rc>
    <rc><c>V </c><c>   3</c></rc>
    <rc><c>N </c><c>   4</c></rc>
    <rc><c>N </c><c>   4</c></rc>
    <rc><c>N </c><c>   4</c></rc>
    <rc><c>N </c><c>   4</c></rc>
    <rc><c>N </c><c>   4</c></rc>
    <rc><c>N </c><c>   4</c></rc>
    <rc><c>N </c><c>   4</c></rc>
    <rc><c>N </c><c>   4</c></rc>
    <rc><c>N </c><c>   4</c></rc>
    <rc><c>N </c><c>   4</c></rc>
    <rc><c>N </c><c>   4</c></rc>
    <rc><c>N </c><c>   4</c></rc>
    <rc><c>N </c><c>   4</c></rc>
    <rc><c>C </c><c>   5</c></rc>
    <rc><c>C </c><c>   5</c></rc>
    <rc><c>C </c><c>   5</c></rc>
    <rc><c>C </c><c>   5</c></rc>
    <rc><c>C </c><c>   5</c></rc>
    <rc><c>C </c><c>   5</c></rc>
    <rc><c>C </c><c>   5</c></rc>
    <rc><c>C </c><c>   5</c></rc>
    <rc><c>C </c><c>   5</c></rc>
    <rc><c>C </c><c>   5</c></rc>
    <rc><c>C </c><c>   5</c></rc>
    <rc><c>C </c><c>   5</c></rc>
    <rc><c>C </c><c>   5</c></rc>
    <rc><c>C </c><c>   5</c></rc>
    <rc><c>C </c><c>   5</c></rc>
    <rc><c>C </c><c>   5</c></rc>
    <rc><c>C </c><c>   5</c></rc>
    <rc><c>C </c><c>   5</c></rc>
    <rc><c>C </c><c>   5</c></rc>
    <rc><c>Ta</c><c>   6</c></rc>
    <rc><c>Ta</c><c>   6</c></rc>
    <rc><c>Ta</c><c>   6</c></rc>
    <rc><c>Ta</c><c>   6</c></rc>
    <rc><c>Ta</c><c>   6</c></rc>
    <rc><c>Ta</c><c>   6</c></rc>
    <rc><c>W </c><c>   7</c></rc>
    <rc><c>W </c><c>   7</c></rc>
    <rc><c>W </c><c>   7</c></rc>
    <rc><c>W </c><c>   7</c></rc>
    <rc><c>W </c><c>   7</c></rc>
    <rc><c>W </c><c>   7</c></rc>
   </set>
  </array>
  <array name="atomtypes" >
   <dimension dim="1">type</dimension>
   <field type="int">atomspertype</field>
   <field type="string">element</field>
   <field>mass</field>
   <field>valence</field>
   <field type="string">pseudopotential</field>
   <set>
    <rc><c>   7</c><c>Ti</c><c>     47.88000000</c><c>     12.00000000</c><c> PAW_PBE Ti_sv 07Sep2000                </c></rc>
    <rc><c>   6</c><c>Mo</c><c>     95.94000000</c><c>      6.00000000</c><c> PAW_PBE Mo 08Apr2002                   </c></rc>
    <rc><c>   7</c><c>V </c><c>     50.94100000</c><c>     13.00000000</c><c> PAW_PBE V_sv 07Sep2000                 </c></rc>
    <rc><c>  13</c><c>N </c><c>     14.00100000</c><c>      5.00000000</c><c> PAW_PBE N 08Apr2002                    </c></rc>
    <rc><c>  19</c><c>C </c><c>     12.01100000</c><c>      4.00000000</c><c> PAW_PBE C 08Apr2002                    </c></rc>
    <rc><c>   6</c><c>Ta</c><c>    180.94800000</c><c>     11.00000000</c><c> PAW_PBE Ta_pv 07Sep2000                </c></rc>
    <rc><c>   6</c><c>W </c><c>    183.85000000</c><c>     12.00000000</c><c> PAW_PBE W_pv 06Sep2000                 </c></rc>
   </set>
  </array>
 </atominfo>
 <structure name="initialpos" >
  <crystal>
   <varray name="basis" >
    <v>      11.23999977       0.00000000       0.00000000 </v>
    <v>       0.00000000      11.23999977       0.00000000 </v>
    <v>       0.00000000       0.00000000      11.23999977 </v>
   </varray>
   <i name="volume">   1420.03453724 </i>
   <varray name="rec_basis" >
    <v>       0.08896797       0.00000000       0.00000000 </v>
    <v>       0.00000000       0.08896797       0.00000000 </v>
    <v>       0.00000000       0.00000000       0.08896797 </v>
   </varray>
  </crystal>
  <varray name="positions" >
   <v>       0.00000000       0.00000000       0.00000000 </v>
   <v>       0.25000000       0.00000000       0.25000000 </v>
   <v>       0.25000000       0.50000000       0.25000000 </v>
   <v>       0.50000000       0.50000000       0.00000000 </v>
   <v>       0.50000000       0.25000000       0.75000004 </v>
   <v>       0.00000000       0.50000000       0.50000000 </v>
   <v>       0.50000000       0.75000004       0.75000004 </v>
   <v>       0.00000000       0.25000000       0.25000000 </v>
   <v>       0.75000004       0.75000004       0.00000000 </v>
   <v>       0.00000000       0.25000000       0.75000004 </v>
   <v>       0.75000004       0.25000000       0.50000000 </v>
   <v>       0.00000000       0.75000004       0.75000004 </v>
   <v>       0.25000000       0.50000000       0.75000004 </v>
   <v>       0.25000000       0.25000000       0.00000000 </v>
   <v>       0.50000000       0.25000000       0.25000000 </v>
   <v>       0.75000004       0.00000000       0.25000000 </v>
   <v>       0.75000004       0.25000000       0.00000000 </v>
   <v>       0.25000000       0.75000004       0.00000000 </v>
   <v>       0.25000000       0.25000000       0.50000000 </v>
   <v>       0.25000000       0.75000004       0.50000000 </v>
   <v>       0.25000000       0.25000000       0.25000000 </v>
   <v>       0.25000000       0.00000000       0.00000000 </v>
   <v>       0.00000000       0.25000000       0.00000000 </v>
   <v>       0.75000004       0.25000000       0.25000000 </v>
   <v>       0.75000004       0.00000000       0.00000000 </v>
   <v>       0.50000000       0.00000000       0.25000000 </v>
   <v>       0.00000000       0.50000000       0.25000000 </v>
   <v>       0.50000000       0.75000004       0.00000000 </v>
   <v>       0.00000000       0.00000000       0.75000004 </v>
   <v>       0.75000004       0.25000000       0.75000004 </v>
   <v>       0.75000004       0.00000000       0.50000000 </v>
   <v>       0.50000000       0.25000000       0.50000000 </v>
   <v>       0.50000000       0.00000000       0.75000004 </v>
   <v>       0.00000000       0.00000000       0.25000000 </v>
   <v>       0.50000000       0.25000000       0.00000000 </v>
   <v>       0.25000000       0.75000004       0.25000000 </v>
   <v>       0.25000000       0.50000000       0.00000000 </v>
   <v>       0.00000000       0.75000004       0.00000000 </v>
   <v>       0.75000004       0.75000004       0.25000000 </v>
   <v>       0.75000004       0.50000000       0.00000000 </v>
   <v>       0.50000000       0.50000000       0.25000000 </v>
   <v>       0.25000000       0.25000000       0.75000004 </v>
   <v>       0.25000000       0.00000000       0.50000000 </v>
   <v>       0.00000000       0.25000000       0.50000000 </v>
   <v>       0.25000000       0.75000004       0.75000004 </v>
   <v>       0.25000000       0.50000000       0.50000000 </v>
   <v>       0.00000000       0.75000004       0.50000000 </v>
   <v>       0.00000000       0.50000000       0.75000004 </v>
   <v>       0.75000004       0.75000004       0.75000004 </v>
   <v>       0.75000004       0.50000000       0.50000000 </v>
   <v>       0.50000000       0.75000004       0.50000000 </v>
   <v>       0.50000000       0.50000000       0.75000004 </v>
   <v>       0.50000000       0.00000000       0.00000000 </v>
   <v>       0.00000000       0.50000000       0.00000000 </v>
   <v>       0.50000000       0.75000004       0.25000000 </v>
   <v>       0.25000000       0.00000000       0.75000004 </v>
   <v>       0.50000000       0.00000000       0.50000000 </v>
   <v>       0.75000004       0.00000000       0.75000004 </v>
   <v>       0.00000000       0.75000004       0.25000000 </v>
   <v>       0.75000004       0.50000000       0.25000000 </v>
   <v>       0.00000000       0.00000000       0.50000000 </v>
   <v>       0.50000000       0.50000000       0.50000000 </v>
   <v>       0.75000004       0.50000000       0.75000004 </v>
   <v>       0.75000004       0.75000004       0.50000000 </v>
  </varray>
 </structure>
 <calculation>
  <scstep>
   <time name="dav">   90.20   90.35</time>
   <time name="total">   90.25   90.41</time>
   <energy>
    <i name="alphaZ">   2011.00639192 </i>
    <i name="ewald"> -30644.63858403 </i>
    <i name="hartreedc"> -12798.18791758 </i>
    <i name="XCdc">   1334.43235575 </i>
    <i name="pawpsdc">  29761.66605306 </i>
    <i name="pawaedc"> -29168.52771240 </i>
    <i name="eentropy">     -0.12197855 </i>
    <i name="bandstr">  -2070.01933489 </i>
    <i name="atom">  46145.64258095 </i>
    <i name="e_fr_energy">   4571.25185422 </i>
    <i name="e_wo_entrp">   4571.37383277 </i>
    <i name="e_0_energy">   4571.31284350 </i>
   </energy>
  </scstep>
  <scstep>
   <time name="dav">   80.92   81.03</time>
   <time name="total">   80.92   81.03</time>
   <energy>
    <i name="e_fr_energy">    141.69987367 </i>
    <i name="e_wo_entrp">    142.03524919 </i>
    <i name="e_0_energy">    141.86756143 </i>
   </energy>
  </scstep>
  <scstep>
   <time name="dav">  114.21  114.35</time>
   <time name="total">  114.21  114.35</time>
   <energy>
    <i name="e_fr_energy">   -529.09206208 </i>
    <i name="e_wo_entrp">   -528.80424965 </i>
    <i name="e_0_energy">   -528.94815586 </i>
   </energy>
  </scstep>
  <scstep>
   <time name="dav">  115.81  116.52</time>
   <time name="total">  115.81  116.52</time>
   <energy>
    <i name="e_fr_energy">   -608.37570949 </i>
    <i name="e_wo_entrp">   -608.06587709 </i>
    <i name="e_0_energy">   -608.22079329 </i>
   </energy>
  </scstep>
  <scstep>
   <time name="dav">  122.99  123.29</time>
   <time name="total">  123.60  123.90</time>
   <energy>
    <i name="e_fr_energy">   -617.95239098 </i>
    <i name="e_wo_entrp">   -617.63136442 </i>
    <i name="e_0_energy">   -617.79187770 </i>
   </energy>
  </scstep>
  <scstep>
   <time name="diag">    2.90    2.92</time>
   <time name="diis">   83.02   83.14</time>
   <time name="orth">    0.68    0.68</time>
   <time name="total">   87.27   87.41</time>
   <energy>
    <i name="e_fr_energy">   -790.47249488 </i>
    <i name="e_wo_entrp">   -790.03850621 </i>
    <i name="e_0_energy">   -790.25550055 </i>
   </energy>
  </scstep>
  <scstep>
   <time name="diag">    2.84    2.84</time>
   <time name="diis">   84.36   84.62</time>
   <time name="orth">    0.68    0.68</time>
   <time name="total">   88.54   88.80</time>
   <energy>
    <i name="e_fr_energy">   -508.89464487 </i>
    <i name="e_wo_entrp">   -508.55786136 </i>
    <i name="e_0_energy">   -508.72625311 </i>
   </energy>
  </scstep>
  <scstep>
   <time name="diag">    2.83    2.83</time>
   <time name="diis">   72.07   72.27</time>
   <time name="orth">    0.68    0.69</time>
   <time name="total">   76.27   76.47</time>
   <energy>
    <i name="e_fr_energy">   -455.37707303 </i>
    <i name="e_wo_entrp">   -454.92320809 </i>
    <i name="e_0_energy">   -455.15014056 </i>
   </energy>
  </scstep>
  <scstep>
   <time name="diag">    2.82    2.82</time>
   <time name="diis">   85.08   85.35</time>
   <time name="orth">    0.68    0.68</time>
   <time name="total">   89.28   89.56</time>
   <energy>
    <i name="e_fr_energy">   -445.33518865 </i>
    <i name="e_wo_entrp">   -444.74848899 </i>
    <i name="e_0_energy">   -445.04183882 </i>
   </energy>
  </scstep>
  <scstep>
   <time name="diag">    2.82    2.82</time>
   <time name="diis">   85.92   86.12</time>
   <time name="orth">    0.68    0.68</time>
   <time name="total">   90.12   90.32</time>
   <energy>
    <i name="e_fr_energy">   -447.44647781 </i>
    <i name="e_wo_entrp">   -446.95994851 </i>
    <i name="e_0_energy">   -447.20321316 </i>
   </energy>
  </scstep>
  <scstep>
   <time name="diag">    2.85    2.85</time>
   <time name="diis">   84.31   84.59</time>
   <time name="orth">    0.68    0.68</time>
   <time name="total">   88.55   88.83</time>
   <energy>
    <i name="e_fr_energy">   -443.95969200 </i>
    <i name="e_wo_entrp">   -443.34906851 </i>
    <i name="e_0_energy">   -443.65438025 </i>
   </energy>
  </scstep>
  <scstep>
   <time name="diag">    2.82    2.82</time>
   <time name="diis">   86.54   86.67</time>
   <time name="orth">    0.68    0.68</time>
   <time name="total">   90.72   90.86</time>
   <energy>
    <i name="e_fr_energy">   -444.30395087 </i>
    <i name="e_wo_entrp">   -443.68700817 </i>
    <i name="e_0_energy">   -443.99547952 </i>
   </energy>
  </scstep>
  <scstep>
   <time name="diag">    2.83    2.83</time>
   <time name="diis">   85.25   85.48</time>
   <time name="orth">    0.68    0.68</time>
   <time name="total">   89.46   89.69</time>
   <energy>
    <i name="e_fr_energy">   -443.75511844 </i>
    <i name="e_wo_entrp">   -443.16160274 </i>
    <i name="e_0_energy">   -443.45836059 </i>
   </energy>
  </scstep>
  <scstep>
   <time name="diag">    2.83    2.83</time>
   <time name="diis">   84.50   84.83</time>
   <time name="orth">    0.69    0.69</time>
   <time name="total">   88.71   89.05</time>
   <energy>
    <i name="e_fr_energy">   -445.00585039 </i>
    <i name="e_wo_entrp">   -444.42352743 </i>
    <i name="e_0_energy">   -444.71468891 </i>
   </energy>
  </scstep>
  <scstep>
   <time name="diag">    2.82    2.83</time>
   <time name="diis">   85.18   85.28</time>
   <time name="orth">    0.68    0.68</time>
   <time name="total">   89.38   89.48</time>
   <energy>
    <i name="e_fr_energy">   -441.09455580 </i>
    <i name="e_wo_entrp">   -440.44008013 </i>
    <i name="e_0_energy">   -440.76731797 </i>
   </energy>
  </scstep>
  <scstep>
   <time name="diag">    2.83    2.83</time>
   <time name="diis">   86.23   86.42</time>
   <time name="orth">    0.68    0.68</time>
   <time name="total">   90.45   90.64</time>
   <energy>
    <i name="e_fr_energy">   -440.42924417 </i>
    <i name="e_wo_entrp">   -439.78609970 </i>
    <i name="e_0_energy">   -440.10767194 </i>
   </energy>
  </scstep>
  <scstep>
   <time name="diag">    2.85    2.85</time>
   <time name="diis">   85.45   85.62</time>
   <time name="orth">    0.68    0.68</time>
   <time name="total">   89.68   89.85</time>
   <energy>
    <i name="e_fr_energy">   -440.21627808 </i>
    <i name="e_wo_entrp">   -439.55712627 </i>
    <i name="e_0_energy">   -439.88670217 </i>
   </energy>
  </scstep>
  <scstep>
   <time name="diag">    2.83    2.83</time>
   <time name="diis">   85.92   86.08</time>
   <time name="orth">    0.70    0.71</time>
   <time name="total">   90.18   90.37</time>
   <energy>
    <i name="e_fr_energy">   -439.85519770 </i>
    <i name="e_wo_entrp">   -439.18495460 </i>
    <i name="e_0_energy">   -439.52007615 </i>
   </energy>
  </scstep>
  <scstep>
   <time name="diag">    2.86    2.88</time>
   <time name="diis">   85.31   85.38</time>
   <time name="orth">    0.69    0.69</time>
   <time name="total">   89.59   89.68</time>
   <energy>
    <i name="e_fr_energy">   -439.78165744 </i>
    <i name="e_wo_entrp">   -439.09649635 </i>
    <i name="e_0_energy">   -439.43907689 </i>
   </energy>
  </scstep>
  <scstep>
   <time name="diag">    2.82    2.82</time>
   <time name="diis">   86.96   87.09</time>
   <time name="orth">    0.68    0.68</time>
   <time name="total">   91.17   91.31</time>
   <energy>
    <i name="e_fr_energy">   -439.49146279 </i>
    <i name="e_wo_entrp">   -438.78674165 </i>
    <i name="e_0_energy">   -439.13910222 </i>
   </energy>
  </scstep>
  <scstep>
   <time name="diag">    2.82    2.82</time>
   <time name="diis">   86.91   87.01</time>
   <time name="orth">    0.69    0.69</time>
   <time name="total">   91.13   91.24</time>
   <energy>
    <i name="e_fr_energy">   -439.34203802 </i>
    <i name="e_wo_entrp">   -438.61956873 </i>
    <i name="e_0_energy">   -438.98080337 </i>
   </energy>
  </scstep>
  <scstep>
   <time name="diag">    2.83    2.83</time>
   <time name="diis">   86.39   86.73</time>
   <time name="orth">    0.68    0.68</time>
   <time name="total">   90.61   90.96</time>
   <energy>
    <i name="e_fr_energy">   -439.41583864 </i>
    <i name="e_wo_entrp">   -438.70001061 </i>
    <i name="e_0_energy">   -439.05792462 </i>
   </energy>
  </scstep>
  <scstep>
   <time name="diag">    2.82    2.82</time>
   <time name="diis">   86.27   86.42</time>
   <time name="orth">    0.67    0.67</time>
   <time name="total">   90.46   90.63</time>
   <energy>
    <i name="e_fr_energy">   -439.27606910 </i>
    <i name="e_wo_entrp">   -438.56710440 </i>
    <i name="e_0_energy">   -438.92158675 </i>
   </energy>
  </scstep>
  <scstep>
   <time name="diag">    2.82    2.82</time>
   <time name="diis">   87.13   87.34</time>
   <time name="orth">    0.68    0.68</time>
   <time name="total">   91.35   91.55</time>
   <energy>
    <i name="e_fr_energy">   -439.23678646 </i>
    <i name="e_wo_entrp">   -438.53005789 </i>
    <i name="e_0_energy">   -438.88342218 </i>
   </energy>
  </scstep>
  <scstep>
   <time name="diag">    2.83    2.83</time>
   <time name="diis">   87.08   87.21</time>
   <time name="orth">    0.68    0.68</time>
   <time name="total">   91.30   91.43</time>
   <energy>
    <i name="e_fr_energy">   -439.21705950 </i>
    <i name="e_wo_entrp">   -438.49701814 </i>
    <i name="e_0_energy">   -438.85703882 </i>
   </energy>
  </scstep>
  <scstep>
   <time name="diag">    2.84    2.85</time>
   <time name="diis">   86.24   86.41</time>
   <time name="orth">    0.68    0.68</time>
   <time name="total">   90.48   90.66</time>
   <energy>
    <i name="e_fr_energy">   -439.23868769 </i>
    <i name="e_wo_entrp">   -438.50791796 </i>
    <i name="e_0_energy">   -438.87330283 </i>
   </energy>
  </scstep>
  <scstep>
   <time name="diag">    2.85    2.87</time>
   <time name="diis">   86.93   87.19</time>
   <time name="orth">    0.68    0.68</time>
   <time name="total">   91.19   91.46</time>
   <energy>
    <i name="e_fr_energy">   -439.24116841 </i>
    <i name="e_wo_entrp">   -438.51345896 </i>
    <i name="e_0_energy">   -438.87731369 </i>
   </energy>
  </scstep>
  <scstep>
   <time name="diag">    2.84    2.84</time>
   <time name="diis">   85.74   85.99</time>
   <time name="orth">    0.68    0.68</time>
   <time name="total">   89.99   90.25</time>
   <energy>
    <i name="e_fr_energy">   -439.22992359 </i>
    <i name="e_wo_entrp">   -438.50620596 </i>
    <i name="e_0_energy">   -438.86806477 </i>
   </energy>
  </scstep>
  <scstep>
   <time name="diag">    2.84    2.85</time>
   <time name="diis">   86.84   87.00</time>
   <time name="orth">    0.68    0.68</time>
   <time name="total">   91.11   91.27</time>
   <energy>
    <i name="e_fr_energy">   -439.22064248 </i>
    <i name="e_wo_entrp">   -438.50010594 </i>
    <i name="e_0_energy">   -438.86037421 </i>
   </energy>
  </scstep>
  <scstep>
   <time name="diag">    2.84    2.84</time>
   <time name="diis">   86.29   86.47</time>
   <time name="orth">    0.68    0.68</time>
   <time name="total">   90.56   90.74</time>
   <energy>
    <i name="e_fr_energy">   -439.21910875 </i>
    <i name="e_wo_entrp">   -438.49589251 </i>
    <i name="e_0_energy">   -438.85750063 </i>
   </energy>
  </scstep>
  <scstep>
   <time name="diag">    2.83    2.83</time>
   <time name="diis">   84.96   85.17</time>
   <time name="orth">    0.69    0.69</time>
   <time name="total">   89.21   89.42</time>
   <energy>
    <i name="e_fr_energy">   -439.21894686 </i>
    <i name="e_wo_entrp">   -438.49043141 </i>
    <i name="e_0_energy">   -438.85468913 </i>
   </energy>
  </scstep>
  <scstep>
   <time name="diag">    2.84    2.84</time>
   <time name="diis">   84.31   84.52</time>
   <time name="orth">    0.68    0.68</time>
   <time name="total">   88.53   88.77</time>
   <energy>
    <i name="e_fr_energy">   -439.22252323 </i>
    <i name="e_wo_entrp">   -438.49283912 </i>
    <i name="e_0_energy">   -438.85768117 </i>
   </energy>
  </scstep>
  <scstep>
   <time name="diag">    2.85    2.85</time>
   <time name="diis">   81.46   81.63</time>
   <time name="orth">    0.68    0.69</time>
   <time name="total">   85.73   85.91</time>
   <energy>
    <i name="e_fr_energy">   -439.22269765 </i>
    <i name="e_wo_entrp">   -438.49261600 </i>
    <i name="e_0_energy">   -438.85765682 </i>
   </energy>
  </scstep>
  <scstep>
   <time name="diag">    2.84    2.84</time>
   <time name="diis">   80.64   80.93</time>
   <time name="orth">    0.68    0.68</time>
   <time name="total">   84.90   85.20</time>
   <energy>
    <i name="e_fr_energy">   -439.22320110 </i>
    <i name="e_wo_entrp">   -438.49286618 </i>
    <i name="e_0_energy">   -438.85803364 </i>
   </energy>
  </scstep>
  <scstep>
   <time name="diag">    2.83    2.83</time>
   <time name="diis">   80.53   80.75</time>
   <time name="orth">    0.69    0.68</time>
   <time name="total">   84.79   85.02</time>
   <energy>
    <i name="e_fr_energy">   -439.22333165 </i>
    <i name="e_wo_entrp">   -438.49228846 </i>
    <i name="e_0_energy">   -438.85781006 </i>
   </energy>
  </scstep>
  <scstep>
   <time name="diag">    2.83    2.83</time>
   <time name="diis">   81.08   81.29</time>
   <time name="orth">    0.70    0.70</time>
   <time name="total">   85.32   85.54</time>
   <energy>
    <i name="e_fr_energy">   -439.22384432 </i>
    <i name="e_wo_entrp">   -438.49296242 </i>
    <i name="e_0_energy">   -438.85840337 </i>
   </energy>
  </scstep>
  <scstep>
   <time name="diag">    2.82    2.82</time>
   <time name="diis">   78.23   78.52</time>
   <time name="orth">    0.68    0.68</time>
   <time name="total">   82.44   82.73</time>
   <energy>
    <i name="e_fr_energy">   -439.22427819 </i>
    <i name="e_wo_entrp">   -438.49391200 </i>
    <i name="e_0_energy">   -438.85909509 </i>
   </energy>
  </scstep>
  <scstep>
   <time name="diag">    2.83    2.84</time>
   <time name="diis">   75.21   75.43</time>
   <time name="orth">    0.67    0.67</time>
   <time name="total">   79.43   79.66</time>
   <energy>
    <i name="e_fr_energy">   -439.22454947 </i>
    <i name="e_wo_entrp">   -438.49370590 </i>
    <i name="e_0_energy">   -438.85912768 </i>
   </energy>
  </scstep>
  <scstep>
   <time name="diag">    2.84    2.84</time>
   <time name="diis">   72.49   72.66</time>
   <time name="orth">    0.70    0.70</time>
   <time name="total">   76.80   76.98</time>
   <energy>
    <i name="e_fr_energy">   -439.22475032 </i>
    <i name="e_wo_entrp">   -438.49362524 </i>
    <i name="e_0_energy">   -438.85918778 </i>
   </energy>
  </scstep>
  <scstep>
   <time name="diag">    2.82    2.82</time>
   <time name="diis">   66.98   67.15</time>
   <time name="orth">    0.68    0.69</time>
   <time name="total">   71.23   71.40</time>
   <energy>
    <i name="e_fr_energy">   -439.22493952 </i>
    <i name="e_wo_entrp">   -438.49355488 </i>
    <i name="e_0_energy">   -438.85924720 </i>
   </energy>
  </scstep>
  <scstep>
   <time name="diag">    2.82    2.83</time>
   <time name="diis">   53.44   53.48</time>
   <time name="orth">    0.68    0.68</time>
   <time name="total">   57.67   57.71</time>
   <energy>
    <i name="e_fr_energy">   -439.22509393 </i>
    <i name="e_wo_entrp">   -438.49344383 </i>
    <i name="e_0_energy">   -438.85926888 </i>
   </energy>
  </scstep>
  <scstep>
   <time name="diag">    2.82    2.82</time>
   <time name="diis">   47.90   47.99</time>
   <time name="orth">    0.68    0.68</time>
   <time name="total">   52.12   52.21</time>
   <energy>
    <i name="e_fr_energy">   -439.22521358 </i>
    <i name="e_wo_entrp">   -438.49331610 </i>
    <i name="e_0_energy">   -438.85926484 </i>
   </energy>
  </scstep>
  <scstep>
   <time name="diag">    2.83    2.86</time>
   <time name="diis">   46.74   46.82</time>
   <time name="orth">    0.69    0.69</time>
   <time name="total">   51.02   51.13</time>
   <energy>
    <i name="e_fr_energy">   -439.22531551 </i>
    <i name="e_wo_entrp">   -438.49330483 </i>
    <i name="e_0_energy">   -438.85931017 </i>
   </energy>
  </scstep>
  <scstep>
   <time name="diag">    2.81    2.81</time>
   <time name="diis">   46.49   46.73</time>
   <time name="orth">    0.68    0.68</time>
   <time name="total">   50.71   50.96</time>
   <energy>
    <i name="e_fr_energy">   -439.22539327 </i>
    <i name="e_wo_entrp">   -438.49327066 </i>
    <i name="e_0_energy">   -438.85933197 </i>
   </energy>
  </scstep>
  <scstep>
   <time name="diag">    2.82    2.82</time>
   <time name="diis">   46.27   46.37</time>
   <time name="orth">    0.68    0.68</time>
   <time name="total">   50.48   50.59</time>
   <energy>
    <i name="e_fr_energy">   -439.22545746 </i>
    <i name="e_wo_entrp">   -438.49327985 </i>
    <i name="e_0_energy">   -438.85936866 </i>
   </energy>
  </scstep>
  <scstep>
   <time name="diag">    2.81    2.81</time>
   <time name="diis">   45.80   45.94</time>
   <time name="orth">    0.68    0.69</time>
   <time name="total">   50.01   50.17</time>
   <energy>
    <i name="e_fr_energy">   -439.22550766 </i>
    <i name="e_wo_entrp">   -438.49325734 </i>
    <i name="e_0_energy">   -438.85938250 </i>
   </energy>
  </scstep>
  <scstep>
   <time name="diag">    2.86    2.86</time>
   <time name="diis">   45.64   46.09</time>
   <time name="orth">    1.22    1.41</time>
   <time name="total">   50.44   51.17</time>
   <energy>
    <i name="e_fr_energy">   -439.22554764 </i>
    <i name="e_wo_entrp">   -438.49323970 </i>
    <i name="e_0_energy">   -438.85939367 </i>
   </energy>
  </scstep>
  <scstep>
   <time name="diag">    2.96    3.00</time>
   <time name="diis">   45.22   45.38</time>
   <time name="orth">    0.69    0.69</time>
   <time name="total">   49.66   49.86</time>
   <energy>
    <i name="e_fr_energy">   -439.22558023 </i>
    <i name="e_wo_entrp">   -438.49320209 </i>
    <i name="e_0_energy">   -438.85939116 </i>
   </energy>
  </scstep>
  <scstep>
   <time name="diag">    2.82    2.82</time>
   <time name="diis">   45.59   45.70</time>
   <time name="orth">    0.68    0.68</time>
   <time name="total">   49.81   49.93</time>
   <energy>
    <i name="e_fr_energy">   -439.22560735 </i>
    <i name="e_wo_entrp">   -438.49318939 </i>
    <i name="e_0_energy">   -438.85939837 </i>
   </energy>
  </scstep>
  <scstep>
   <time name="diag">    2.81    2.81</time>
   <time name="diis">   44.47   44.62</time>
   <time name="orth">    0.68    0.68</time>
   <time name="total">   48.71   48.86</time>
   <energy>
    <i name="e_fr_energy">   -439.22562796 </i>
    <i name="e_wo_entrp">   -438.49316668 </i>
    <i name="e_0_energy">   -438.85939732 </i>
   </energy>
  </scstep>
  <scstep>
   <time name="diag">    2.82    2.82</time>
   <time name="diis">   43.92   43.98</time>
   <time name="orth">    0.69    0.69</time>
   <time name="total">   48.18   48.23</time>
   <energy>
    <i name="e_fr_energy">   -439.22564567 </i>
    <i name="e_wo_entrp">   -438.49313484 </i>
    <i name="e_0_energy">   -438.85939025 </i>
   </energy>
  </scstep>
  <scstep>
   <time name="diag">    2.84    2.84</time>
   <time name="diis">   43.73   43.89</time>
   <time name="orth">    0.68    0.68</time>
   <time name="total">   48.00   48.17</time>
   <energy>
    <i name="e_fr_energy">   -439.22565950 </i>
    <i name="e_wo_entrp">   -438.49311420 </i>
    <i name="e_0_energy">   -438.85938685 </i>
   </energy>
  </scstep>
  <scstep>
   <time name="diag">    2.84    2.84</time>
   <time name="diis">   44.35   44.50</time>
   <time name="orth">    0.68    0.68</time>
   <time name="total">   48.59   48.74</time>
   <energy>
    <i name="e_fr_energy">   -439.22567096 </i>
    <i name="e_wo_entrp">   -438.49309728 </i>
    <i name="e_0_energy">   -438.85938412 </i>
   </energy>
  </scstep>
  <scstep>
   <time name="diag">    2.81    2.81</time>
   <time name="diis">   43.36   43.44</time>
   <time name="orth">    0.68    0.68</time>
   <time name="total">   46.91   46.99</time>
   <energy>
    <i name="alphaZ">   2011.00639192 </i>
    <i name="ewald"> -30644.63858403 </i>
    <i name="hartreedc"> -11947.09844064 </i>
    <i name="XCdc">   1308.57335450 </i>
    <i name="pawpsdc">  27711.73123270 </i>
    <i name="pawaedc"> -27182.25767711 </i>
    <i name="eentropy">     -0.73259999 </i>
    <i name="bandstr">  -7841.45193828 </i>
    <i name="atom">  46145.64258095 </i>
    <i name="e_fr_energy">   -439.22567998 </i>
    <i name="e_wo_entrp">   -438.49308000 </i>
    <i name="e_0_energy">   -438.85937999 </i>
   </energy>
  </scstep>
  <structure>
   <crystal>
    <varray name="basis" >
     <v>      11.23999977       0.00000000       0.00000000 </v>
     <v>       0.00000000      11.23999977       0.00000000 </v>
     <v>       0.00000000       0.00000000      11.23999977 </v>
    </varray>
    <i name="volume">   1420.03453724 </i>
    <varray name="rec_basis" >
     <v>       0.08896797       0.00000000       0.00000000 </v>
     <v>       0.00000000       0.08896797       0.00000000 </v>
     <v>       0.00000000       0.00000000       0.08896797 </v>
    </varray>
   </crystal>
   <varray name="positions" >
    <v>       0.00000000       0.00000000       0.00000000 </v>
    <v>       0.25000000       0.00000000       0.25000000 </v>
    <v>       0.25000000       0.50000000       0.25000000 </v>
    <v>       0.50000000       0.50000000       0.00000000 </v>
    <v>       0.50000000       0.25000000       0.75000004 </v>
    <v>       0.00000000       0.50000000       0.50000000 </v>
    <v>       0.50000000       0.75000004       0.75000004 </v>
    <v>       0.00000000       0.25000000       0.25000000 </v>
    <v>       0.75000004       0.75000004       0.00000000 </v>
    <v>       0.00000000       0.25000000       0.75000004 </v>
    <v>       0.75000004       0.25000000       0.50000000 </v>
    <v>       0.00000000       0.75000004       0.75000004 </v>
    <v>       0.25000000       0.50000000       0.75000004 </v>
    <v>       0.25000000       0.25000000       0.00000000 </v>
    <v>       0.50000000       0.25000000       0.25000000 </v>
    <v>       0.75000004       0.00000000       0.25000000 </v>
    <v>       0.75000004       0.25000000       0.00000000 </v>
    <v>       0.25000000       0.75000004       0.00000000 </v>
    <v>       0.25000000       0.25000000       0.50000000 </v>
    <v>       0.25000000       0.75000004       0.50000000 </v>
    <v>       0.25000000       0.25000000       0.25000000 </v>
    <v>       0.25000000       0.00000000       0.00000000 </v>
    <v>       0.00000000       0.25000000       0.00000000 </v>
    <v>       0.75000004       0.25000000       0.25000000 </v>
    <v>       0.75000004       0.00000000       0.00000000 </v>
    <v>       0.50000000       0.00000000       0.25000000 </v>
    <v>       0.00000000       0.50000000       0.25000000 </v>
    <v>       0.50000000       0.75000004       0.00000000 </v>
    <v>       0.00000000       0.00000000       0.75000004 </v>
    <v>       0.75000004       0.25000000       0.75000004 </v>
    <v>       0.75000004       0.00000000       0.50000000 </v>
    <v>       0.50000000       0.25000000       0.50000000 </v>
    <v>       0.50000000       0.00000000       0.75000004 </v>
    <v>       0.00000000       0.00000000       0.25000000 </v>
    <v>       0.50000000       0.25000000       0.00000000 </v>
    <v>       0.25000000       0.75000004       0.25000000 </v>
    <v>       0.25000000       0.50000000       0.00000000 </v>
    <v>       0.00000000       0.75000004       0.00000000 </v>
    <v>       0.75000004       0.75000004       0.25000000 </v>
    <v>       0.75000004       0.50000000       0.00000000 </v>
    <v>       0.50000000       0.50000000       0.25000000 </v>
    <v>       0.25000000       0.25000000       0.75000004 </v>
    <v>       0.25000000       0.00000000       0.50000000 </v>
    <v>       0.00000000       0.25000000       0.50000000 </v>
    <v>       0.25000000       0.75000004       0.75000004 </v>
    <v>       0.25000000       0.50000000       0.50000000 </v>
    <v>       0.00000000       0.75000004       0.50000000 </v>
    <v>       0.00000000       0.50000000       0.75000004 </v>
    <v>       0.75000004       0.75000004       0.75000004 </v>
    <v>       0.75000004       0.50000000       0.50000000 </v>
    <v>       0.50000000       0.75000004       0.50000000 </v>
    <v>       0.50000000       0.50000000       0.75000004 </v>
    <v>       0.50000000       0.00000000       0.00000000 </v>
    <v>       0.00000000       0.50000000       0.00000000 </v>
    <v>       0.50000000       0.75000004       0.25000000 </v>
    <v>       0.25000000       0.00000000       0.75000004 </v>
    <v>       0.50000000       0.00000000       0.50000000 </v>
    <v>       0.75000004       0.00000000       0.75000004 </v>
    <v>       0.00000000       0.75000004       0.25000000 </v>
    <v>       0.75000004       0.50000000       0.25000000 </v>
    <v>       0.00000000       0.00000000       0.50000000 </v>
    <v>       0.50000000       0.50000000       0.50000000 </v>
    <v>       0.75000004       0.50000000       0.75000004 </v>
    <v>       0.75000004       0.75000004       0.50000000 </v>
   </varray>
  </structure>
  <varray name="forces" >
   <v>      -0.08685239      -0.20973282       0.29281263 </v>
   <v>      -0.28081064      -0.10817679       0.28826960 </v>
   <v>       0.25732432       0.12884506       0.00618707 </v>
   <v>       0.02718015      -0.30022403      -0.02272137 </v>
   <v>      -0.18750585       0.37858183       0.16293509 </v>
   <v>       0.01989293      -0.04175053       0.27046037 </v>
   <v>      -0.01399893      -0.36945826      -0.28477352 </v>
   <v>      -0.06789141      -0.58242894       0.50311572 </v>
   <v>       0.56018022      -0.45845409      -0.01574071 </v>
   <v>       0.43079459       0.41450088      -0.51257627 </v>
   <v>       0.54677487       0.48494860      -0.05802112 </v>
   <v>      -0.00583076      -0.43664521      -0.00459364 </v>
   <v>       0.05187554       0.01912604      -0.02044124 </v>
   <v>       0.18422779       0.35348026      -0.26849021 </v>
   <v>       0.05261232       0.33775870      -0.26086637 </v>
   <v>       0.33593339      -0.26627827       0.02266830 </v>
   <v>      -0.21631968       0.32481255       0.05475024 </v>
   <v>      -0.40125479      -0.36144323      -0.05511926 </v>
   <v>      -0.35907677       0.08148220       0.26910375 </v>
   <v>      -0.11962722      -0.07259029       0.06626035 </v>
   <v>      -0.21455302      -0.03720330       0.00397401 </v>
   <v>       0.56595804       0.00259505      -0.49968051 </v>
   <v>      -0.02424945       0.54346604       0.01912429 </v>
   <v>       0.19740160       0.47174128       0.23424807 </v>
   <v>      -0.56089411      -0.09141101      -0.71073364 </v>
   <v>      -0.10552087      -0.61610103      -0.03937627 </v>
   <v>      -0.30552811       0.24242212      -0.53269738 </v>
   <v>       0.11087575       0.59352271       0.51033771 </v>
   <v>      -0.05865345       0.02515112      -0.24730531 </v>
   <v>      -0.02274776      -0.30203248      -0.18509208 </v>
   <v>      -0.18954042      -0.22362932       0.61881130 </v>
   <v>       0.18043025      -0.25627352       0.13270249 </v>
   <v>       0.05735812       0.00525057       0.03461526 </v>
   <v>      -0.00544763      -0.28283477       0.52973754 </v>
   <v>       0.02038270      -0.71888450      -0.04175779 </v>
   <v>       0.11333900       0.01405037      -0.01687080 </v>
   <v>      -0.65149688      -0.01743152      -0.13443938 </v>
   <v>      -0.24616141      -0.56418269       0.30661674 </v>
   <v>      -0.09655120      -0.50505865       0.29040377 </v>
   <v>       0.57883423       0.19196620       0.04131124 </v>
   <v>       0.52519358       0.58999064       0.45765970 </v>
   <v>      -0.25155191      -0.43548417      -0.00736201 </v>
   <v>       0.09619663       0.03512947       0.56304766 </v>
   <v>      -0.29465698      -0.51145055      -0.00974176 </v>
   <v>      -0.16446213       0.44476321       0.01119470 </v>
   <v>       0.50688898      -0.03756306       0.14801715 </v>
   <v>      -0.53036402       0.47947520      -0.28261045 </v>
   <v>      -0.30667808      -0.02202786       0.55958200 </v>
   <v>       0.12618710       0.12285854      -0.29964888 </v>
   <v>      -0.40678041       0.25781523      -0.02902546 </v>
   <v>       0.50453518       0.12287671      -0.53738390 </v>
   <v>       0.32471343      -0.01463670      -0.48556517 </v>
   <v>       0.14220165       0.49775682       0.08791488 </v>
   <v>      -0.02741379       0.25123999      -0.35473483 </v>
   <v>       0.04315662      -0.40527825       0.37394492 </v>
   <v>      -0.24111882      -0.02268226      -0.40313384 </v>
   <v>      -0.41219395      -0.34236213      -0.08701591 </v>
   <v>       0.24439494      -0.40467793      -0.04066375 </v>
   <v>      -0.04916547       0.59951600      -0.02385555 </v>
   <v>      -0.47634305       0.40580675      -0.04376664 </v>
   <v>       0.46721229       0.08077799      -0.45041372 </v>
   <v>      -0.01065886       0.46718399       0.03496290 </v>
   <v>      -0.05262223       0.56917645       0.04738736 </v>
   <v>       0.17246623      -0.51968039       0.02406195 </v>
  </varray>
  <varray name="stress" >
   <v>    -426.26919487       0.17320084      -0.00048739 </v>
   <v>       0.17320264    -425.30020651       0.07628753 </v>
   <v>      -0.00048754       0.07628743    -426.63859896 </v>
  </varray>
  <energy>
   <i name="e_fr_energy">   -439.22567998 </i>
   <i name="e_wo_entrp">   -438.85937999 </i>
   <i name="e_0_energy">     -0.73259999 </i>
  </energy>
  <time name="totalsc"> 4441.65 4453.05</time>
 </calculation>
 <calculation>
  <scstep>
   <time name="dav">   79.21   79.27</time>
   <time name="total">   79.82   79.89</time>
   <energy>
    <i name="alphaZ">   5493.74131614 </i>
    <i name="ewald"> -42868.08936133 </i>
    <i name="hartreedc"> -16667.65205937 </i>
    <i name="XCdc">   2022.85472733 </i>
    <i name="pawpsdc">  27711.73511391 </i>
    <i name="pawaedc"> -27182.26135124 </i>
    <i name="eentropy">     -0.06143133 </i>
    <i name="bandstr">   1400.89810980 </i>
    <i name="atom">  46145.64258095 </i>
    <i name="e_fr_energy">  -3943.19235514 </i>
    <i name="e_wo_entrp">  -3943.13092381 </i>
    <i name="e_0_energy">  -3943.16163947 </i>
   </energy>
  </scstep>
  <scstep>
   <time name="diag">    2.82    2.82</time>
   <time name="diis">   86.35   86.76</time>
   <time name="orth">    0.69    0.69</time>
   <time name="total">   90.51   90.92</time>
   <energy>
    <i name="e_fr_energy">  -1489.01519664 </i>
    <i name="e_wo_entrp">  -1488.93244520 </i>
    <i name="e_0_energy">  -1488.97382092 </i>
   </energy>
  </scstep>
  <scstep>
   <time name="diag">    2.84    2.88</time>
   <time name="diis">   62.80   63.05</time>
   <time name="orth">    0.68    0.68</time>
   <time name="total">   66.95   67.23</time>
   <energy>
    <i name="e_fr_energy">   -673.48231161 </i>
    <i name="e_wo_entrp">   -673.34373700 </i>
    <i name="e_0_energy">   -673.41302430 </i>
   </energy>
  </scstep>
  <scstep>
   <time name="diag">    2.82    2.82</time>
   <time name="diis">   69.21   69.32</time>
   <time name="orth">    0.68    0.68</time>
   <time name="total">   73.33   73.44</time>
   <energy>
    <i name="e_fr_energy">   -638.42342541 </i>
    <i name="e_wo_entrp">   -638.27671411 </i>
    <i name="e_0_energy">   -638.35006976 </i>
   </energy>
  </scstep>
  <scstep>
   <time name="diag">    2.81    2.81</time>
   <time name="diis">   90.39   90.59</time>
   <time name="orth">    0.68    0.68</time>
   <time name="total">   94.53   94.73</time>
   <energy>
    <i name="e_fr_energy">   -629.77383882 </i>
    <i name="e_wo_entrp">   -629.67898999 </i>
    <i name="e_0_energy">   -629.72641440 </i>
   </energy>
  </scstep>
  <scstep>
   <time name="diag">    2.84    2.84</time>
   <time name="diis">   91.86   92.17</time>
   <time name="orth">    0.68    0.68</time>
   <time name="total">   96.00   96.32</time>
   <energy>
    <i name="e_fr_energy">   -609.73788351 </i>
    <i name="e_wo_entrp">   -609.61934365 </i>
    <i name="e_0_energy">   -609.67861358 </i>
   </energy>
  </scstep>
  <scstep>
   <time name="diag">    2.83    2.84</time>
   <time name="diis">   92.07   92.28</time>
   <time name="orth">    0.68    0.68</time>
   <time name="total">   96.20   96.43</time>
   <energy>
    <i name="e_fr_energy">   -610.23733520 </i>
    <i name="e_wo_entrp">   -610.10372654 </i>
    <i name="e_0_energy">   -610.17053087 </i>
   </energy>
  </scstep>
  <scstep>
   <time name="diag">    2.84    2.84</time>
   <time name="diis">   95.80   95.95</time>
   <time name="orth">    0.72    0.73</time>
   <time name="total">   99.99  100.15</time>
   <energy>
    <i name="e_fr_energy">   -609.72996682 </i>
    <i name="e_wo_entrp">   -609.61356408 </i>
    <i name="e_0_energy">   -609.67176545 </i>
   </energy>
  </scstep>
  <scstep>
   <time name="diag">    2.89    2.90</time>
   <time name="diis">   92.61   92.88</time>
   <time name="orth">    0.69    0.69</time>
   <time name="total">   96.81   97.10</time>
   <energy>
    <i name="e_fr_energy">   -610.01224560 </i>
    <i name="e_wo_entrp">   -609.89114304 </i>
    <i name="e_0_energy">   -609.95169432 </i>
   </energy>
  </scstep>
  <scstep>
   <time name="diag">    2.82    2.82</time>
   <time name="diis">   94.04   94.26</time>
   <time name="orth">    0.69    0.70</time>
   <time name="total">   98.18   98.41</time>
   <energy>
    <i name="e_fr_energy">   -610.33581591 </i>
    <i name="e_wo_entrp">   -610.22259111 </i>
    <i name="e_0_energy">   -610.27920351 </i>
   </energy>
  </scstep>
  <scstep>
   <time name="diag">    2.85    2.85</time>
   <time name="diis">   95.97   96.09</time>
   <time name="orth">    0.70    0.71</time>
   <time name="total">  100.18  100.31</time>
   <energy>
    <i name="e_fr_energy">   -610.85271616 </i>
    <i name="e_wo_entrp">   -610.73749261 </i>
    <i name="e_0_energy">   -610.79510438 </i>
   </energy>
  </scstep>
  <scstep>
   <time name="diag">    2.85    2.86</time>
   <time name="diis">   95.68   95.76</time>
   <time name="orth">    0.67    0.67</time>
   <time name="total">   99.83   99.92</time>
   <energy>
    <i name="e_fr_energy">   -611.10291212 </i>
    <i name="e_wo_entrp">   -610.98890010 </i>
    <i name="e_0_energy">   -611.04590611 </i>
   </energy>
  </scstep>
  <scstep>
   <time name="diag">    2.81    2.81</time>
   <time name="diis">   94.95   95.10</time>
   <time name="orth">    0.69    0.70</time>
   <time name="total">   99.08   99.24</time>
   <energy>
    <i name="e_fr_energy">   -611.05762417 </i>
    <i name="e_wo_entrp">   -610.94370838 </i>
    <i name="e_0_energy">   -611.00066628 </i>
   </energy>
  </scstep>
  <scstep>
   <time name="diag">    2.84    2.84</time>
   <time name="diis">   93.02   93.25</time>
   <time name="orth">    0.68    0.68</time>
   <time name="total">   97.17   97.40</time>
   <energy>
    <i name="e_fr_energy">   -611.10386891 </i>
    <i name="e_wo_entrp">   -610.98870300 </i>
    <i name="e_0_energy">   -611.04628595 </i>
   </energy>
  </scstep>
  <scstep>
   <time name="diag">    2.83    2.84</time>
   <time name="diis">   93.13   93.51</time>
   <time name="orth">    0.70    0.70</time>
   <time name="total">   97.30   97.68</time>
   <energy>
    <i name="e_fr_energy">   -611.06099586 </i>
    <i name="e_wo_entrp">   -610.94726409 </i>
    <i name="e_0_energy">   -611.00412998 </i>
   </energy>
  </scstep>
  <scstep>
   <time name="diag">    2.83    2.83</time>
   <time name="diis">   94.87   95.01</time>
   <time name="orth">    0.68    0.68</time>
   <time name="total">   99.01   99.15</time>
   <energy>
    <i name="e_fr_energy">   -611.05971568 </i>
    <i name="e_wo_entrp">   -610.94451968 </i>
    <i name="e_0_energy">   -611.00211768 </i>
   </energy>
  </scstep>
  <scstep>
   <time name="diag">    2.82    2.82</time>
   <time name="diis">   95.02   95.12</time>
   <time name="orth">    0.69    0.69</time>
   <time name="total">   99.18   99.29</time>
   <energy>
    <i name="e_fr_energy">   -611.05621069 </i>
    <i name="e_wo_entrp">   -610.94187293 </i>
    <i name="e_0_energy">   -610.99904181 </i>
   </energy>
  </scstep>
  <scstep>
   <time name="diag">    2.85    2.86</time>
   <time name="diis">   97.09   97.37</time>
   <time name="orth">    0.69    0.70</time>
   <time name="total">  101.27  101.56</time>
   <energy>
    <i name="e_fr_energy">   -611.05657261 </i>
    <i name="e_wo_entrp">   -610.94199071 </i>
    <i name="e_0_energy">   -610.99928166 </i>
   </energy>
  </scstep>
  <scstep>
   <time name="diag">    2.81    2.82</time>
   <time name="diis">   95.60   95.81</time>
   <time name="orth">    0.75    0.77</time>
   <time name="total">   99.81  100.04</time>
   <energy>
    <i name="e_fr_energy">   -611.05658048 </i>
    <i name="e_wo_entrp">   -610.94226688 </i>
    <i name="e_0_energy">   -610.99942368 </i>
   </energy>
  </scstep>
  <scstep>
   <time name="diag">    2.87    2.87</time>
   <time name="diis">   94.01   94.25</time>
   <time name="orth">    0.69    0.69</time>
   <time name="total">   98.21   98.46</time>
   <energy>
    <i name="e_fr_energy">   -611.05644108 </i>
    <i name="e_wo_entrp">   -610.94207637 </i>
    <i name="e_0_energy">   -610.99925873 </i>
   </energy>
  </scstep>
  <scstep>
   <time name="diag">    2.83    2.83</time>
   <time name="diis">   88.61   88.73</time>
   <time name="orth">    0.68    0.68</time>
   <time name="total">   92.75   92.87</time>
   <energy>
    <i name="e_fr_energy">   -611.05648863 </i>
    <i name="e_wo_entrp">   -610.94213026 </i>
    <i name="e_0_energy">   -610.99930944 </i>
   </energy>
  </scstep>
  <scstep>
   <time name="diag">    2.83    2.84</time>
   <time name="diis">   84.41   84.62</time>
   <time name="orth">    0.68    0.68</time>
   <time name="total">   88.58   88.79</time>
   <energy>
    <i name="e_fr_energy">   -611.05651711 </i>
    <i name="e_wo_entrp">   -610.94216381 </i>
    <i name="e_0_energy">   -610.99934046 </i>
   </energy>
  </scstep>
  <scstep>
   <time name="diag">    2.82    2.82</time>
   <time name="diis">   74.85   74.93</time>
   <time name="orth">    0.68    0.68</time>
   <time name="total">   78.99   79.06</time>
   <energy>
    <i name="e_fr_energy">   -611.05653159 </i>
    <i name="e_wo_entrp">   -610.94217484 </i>
    <i name="e_0_energy">   -610.99935321 </i>
   </energy>
  </scstep>
  <scstep>
   <time name="diag">    2.84    2.84</time>
   <time name="diis">   64.21   64.24</time>
   <time name="orth">    0.68    0.68</time>
   <time name="total">   67.78   67.81</time>
   <energy>
    <i name="alphaZ">   5493.74131614 </i>
    <i name="ewald"> -42868.08936133 </i>
    <i name="hartreedc">  -7302.62838560 </i>
    <i name="XCdc">   1515.93579110 </i>
    <i name="pawpsdc">  34373.90049186 </i>
    <i name="pawaedc"> -33857.60009473 </i>
    <i name="eentropy">     -0.11435177 </i>
    <i name="bandstr">  -4111.84452478 </i>
    <i name="atom">  46145.64258095 </i>
    <i name="e_fr_energy">   -611.05653816 </i>
    <i name="e_wo_entrp">   -610.94218639 </i>
    <i name="e_0_energy">   -610.99936228 </i>
   </energy>
  </scstep>
  <structure>
   <crystal>
    <varray name="basis" >
     <v>       8.03896940       0.00130064      -0.00000366 </v>
     <v>       0.00130065       8.04624593       0.00057287 </v>
     <v>      -0.00000366       0.00057287       8.03619539 </v>
    </varray>
    <i name="volume">    519.80942800 </i>
    <varray name="rec_basis" >
     <v>       0.12439406      -0.00002011       0.00000006 </v>
     <v>      -0.00002011       0.12428156      -0.00000886 </v>
     <v>       0.00000006      -0.00000886       0.12443699 </v>
    </varray>
   </crystal>
   <varray name="positions" >
    <v>      -0.00037277      -0.00090018       0.00125677 </v>
    <v>       0.24879475      -0.00046430       0.25123727 </v>
    <v>       0.25110445       0.50055301       0.25002656 </v>
    <v>       0.50011666       0.49871142      -0.00009752 </v>
    <v>       0.49919522       0.25162489       0.75069937 </v>
    <v>       0.00008538       0.49982080       0.50116083 </v>
    <v>       0.49993992       0.74841431       0.74877778 </v>
    <v>      -0.00029139       0.24750019       0.25215940 </v>
    <v>       0.75240436       0.74803233      -0.00006756 </v>
    <v>       0.00184899       0.25177906       0.74780004 </v>
    <v>       0.75234683       0.25208142       0.49975097 </v>
    <v>      -0.00002503       0.74812594       0.74998033 </v>
    <v>       0.25022265       0.50008209       0.74991231 </v>
    <v>       0.25079072       0.25151716      -0.00115237 </v>
    <v>       0.50022581       0.25144968       0.24888035 </v>
    <v>       0.75144189      -0.00114288       0.25009729 </v>
    <v>       0.74907159       0.25139411       0.00023499 </v>
    <v>       0.24827779       0.74844871      -0.00023657 </v>
    <v>       0.24845882       0.25034973       0.50115501 </v>
    <v>       0.24948655       0.74968848       0.50028439 </v>
    <v>       0.24907913       0.24984032       0.25001706 </v>
    <v>       0.25242912       0.00001114      -0.00214465 </v>
    <v>      -0.00010408       0.25233258       0.00008208 </v>
    <v>       0.75084730       0.25202474       0.25100540 </v>
    <v>       0.74759266      -0.00039234      -0.00305051 </v>
    <v>       0.49954710      -0.00264434       0.24983100 </v>
    <v>      -0.00131134       0.50104049       0.24771364 </v>
    <v>       0.50047588       0.75254747       0.00219040 </v>
    <v>      -0.00025174       0.00010795       0.74893859 </v>
    <v>       0.74990241       0.24870366       0.74920562 </v>
    <v>       0.74918652      -0.00095983       0.50265597 </v>
    <v>       0.50077442       0.24890006       0.50056957 </v>
    <v>       0.50024618       0.00002254       0.75014861 </v>
    <v>      -0.00002338      -0.00121394       0.25227366 </v>
    <v>       0.50008748       0.24691451      -0.00017923 </v>
    <v>       0.25048646       0.75006035       0.24992759 </v>
    <v>       0.24720374       0.49992518      -0.00057702 </v>
    <v>      -0.00105654       0.74757854       0.00131601 </v>
    <v>       0.74958564       0.74783230       0.25124643 </v>
    <v>       0.75248443       0.50082393       0.00017731 </v>
    <v>       0.50225416       0.50253227       0.25196430 </v>
    <v>       0.24892033       0.24813088       0.74996844 </v>
    <v>       0.25041288       0.00015078       0.50241663 </v>
    <v>      -0.00126468       0.24780483       0.49995819 </v>
    <v>       0.24929412       0.75190899       0.75004809 </v>
    <v>       0.25217559       0.49983878       0.50063530 </v>
    <v>      -0.00227635       0.75205797       0.49878702 </v>
    <v>      -0.00131628       0.49990546       0.75240180 </v>
    <v>       0.75054164       0.75052736       0.74871393 </v>
    <v>       0.74825412       0.50110656       0.49987542 </v>
    <v>       0.50216549       0.75052744       0.49769352 </v>
    <v>       0.50139369       0.49993718       0.74791597 </v>
    <v>       0.50061034       0.00213640       0.00037734 </v>
    <v>      -0.00011766       0.50107833      -0.00152254 </v>
    <v>       0.50018523       0.74826057       0.25160499 </v>
    <v>       0.24896511      -0.00009735       0.74826977 </v>
    <v>       0.49823084      -0.00146944       0.49962652 </v>
    <v>       0.75104900      -0.00173690       0.74982551 </v>
    <v>      -0.00021102       0.75257320       0.24989761 </v>
    <v>       0.74795555       0.50174174       0.24981215 </v>
    <v>       0.00200530       0.00034670       0.49806680 </v>
    <v>       0.49995425       0.50200518       0.50015006 </v>
    <v>       0.74977418       0.50244293       0.75020343 </v>
    <v>       0.75074028       0.74776955       0.50010328 </v>
   </varray>
  </structure>
  <varray name="forces" >
   <v>      -0.07830127       0.46017152       0.51973052 </v>
   <v>      -0.02628370       0.71394427      -0.13579029 </v>
   <v>       0.28926420      -0.78573232       0.03737041 </v>
   <v>      -0.47345492      -0.64457934       0.01626023 </v>
   <v>      -0.38411740       0.30494966       0.53512217 </v>
   <v>       0.91095831      -0.20619614      -0.33070487 </v>
   <v>      -0.59235182      -0.24523486       0.16414256 </v>
   <v>       0.84082136      -1.02041771      -0.09563933 </v>
   <v>       0.28298881       0.08753526       0.01731383 </v>
   <v>       0.72647150       0.43274521       0.12021731 </v>
   <v>       0.01365476       0.32031750      -0.58029222 </v>
   <v>       0.83822168      -0.36676555       0.26092899 </v>
   <v>       0.70871694      -0.19429770       0.08657798 </v>
   <v>       0.68443199       0.57573607       0.07519701 </v>
   <v>      -0.56569182       0.31793385      -0.80796825 </v>
   <v>       0.15434342       0.27538952      -0.58375883 </v>
   <v>      -0.74191857       0.03454419       0.40373099 </v>
   <v>      -0.53622711      -0.68492549       0.24837334 </v>
   <v>      -0.11330800       0.20380476      -0.14678641 </v>
   <v>       0.01797875      -0.14184125      -0.26248376 </v>
   <v>       1.99207534      -0.01586213       0.02569718 </v>
   <v>      -1.84104671       0.07589106       2.04786873 </v>
   <v>       0.03722618      -1.94613055       0.10619619 </v>
   <v>      -2.11230166      -2.01704492      -2.01167787 </v>
   <v>       2.21205427       2.07470629       2.52216671 </v>
   <v>       0.20636546       2.35268142      -0.09654511 </v>
   <v>       1.80430564      -0.07577227       1.94973560 </v>
   <v>      -2.04816622      -1.72340930      -1.97286585 </v>
   <v>       0.06591871      -0.00645109       1.76377909 </v>
   <v>      -1.81239047       0.47359900       2.03346605 </v>
   <v>       0.40731052       0.11788578      -2.57766700 </v>
   <v>      -2.01095214       0.44468128      -0.36517438 </v>
   <v>      -0.14432271       0.09549393       0.13249227 </v>
   <v>      -0.50194286       0.34283438      -1.99326846 </v>
   <v>      -0.09501040       2.58505250       0.57794996 </v>
   <v>      -0.47947619       0.06799568      -0.05571344 </v>
   <v>       2.24409849      -0.11696646       1.50312839 </v>
   <v>       2.34249559       2.26590733      -0.18157727 </v>
   <v>       0.28825496       2.39279397      -0.32741687 </v>
   <v>      -2.26101445      -2.28645253       0.06991612 </v>
   <v>      -2.14774069      -2.99989155      -1.95374543 </v>
   <v>       1.61982057       0.86189226      -0.01154229 </v>
   <v>      -0.62751223       0.10729187      -2.59619573 </v>
   <v>       2.32625656       1.96244383       0.00424900 </v>
   <v>       1.67126894      -0.81513457       0.02628717 </v>
   <v>      -1.64894364      -0.13501308      -1.52824805 </v>
   <v>       2.39199783      -1.66891535       0.19427342 </v>
   <v>       0.48508042      -0.09052288      -2.44126388 </v>
   <v>      -1.90811675      -0.48229378       0.31522533 </v>
   <v>       1.96995808      -0.44659003      -0.02490066 </v>
   <v>      -2.30448857      -0.51539324       2.43305430 </v>
   <v>      -0.48058135      -0.05932093       1.88948714 </v>
   <v>      -0.23006174       0.69653365       0.65219541 </v>
   <v>       0.74351345      -0.98389579       0.64171141 </v>
   <v>      -1.14200618       0.06486869      -0.81766193 </v>
   <v>      -0.11432155       0.05162352       0.69465469 </v>
   <v>      -0.93692410       0.60100024      -0.54578581 </v>
   <v>       0.11445368       0.54766968       0.91214268 </v>
   <v>       1.15128924       0.63231097      -0.13965183 </v>
   <v>      -0.14723669      -1.04712620      -0.57914945 </v>
   <v>       1.02482591       0.13192510      -0.44229695 </v>
[...]
      </set>
     </set>
    </set>
   </array>
  </eigenvalues>
  <separator name="orbital magnetization" >
   <v name="MAGDIPOLOUT">      0.00000000      0.00000000      0.00000000</v>
  </separator>
  <dos>
   <i name="efermi">      8.51218370 </i>
   <total>
    <array>
     <dimension dim="1">gridpoints</dimension>
     <dimension dim="2">spin</dimension>
     <field>energy</field>
     <field>total</field>
     <field>integrated</field>
     <set>
      <set comment="spin 1">
       <r>   -59.8605     0.0000     0.0000 </r>
       <r>   -59.6127     0.0000     0.0000 </r>
       <r>   -59.3648     0.0000     0.0000 </r>
       <r>   -59.1170     0.0000     0.0000 </r>
       <r>   -58.8691     0.0000     0.0000 </r>
       <r>   -58.6212     0.0000     0.0000 </r>
       <r>   -58.3734     0.0000     0.0000 </r>
       <r>   -58.1255     0.0000     0.0000 </r>
       <r>   -57.8777     0.0000     0.0000 </r>
       <r>   -57.6298     0.0000     0.0000 </r>
       <r>   -57.3820     0.0000     0.0000 </r>
       <r>   -57.1341     0.0000     0.0000 </r>
       <r>   -56.8863     0.0000     0.0000 </r>
       <r>   -56.6384     0.2831     0.0702 </r>
       <r>   -56.3905    41.1662    10.2734 </r>
       <r>   -56.1427    15.0309    13.9989 </r>
       <r>   -55.8948     0.0044    14.0000 </r>
       <r>   -55.6470     0.0000    14.0000 </r>
       <r>   -55.3991     0.0000    14.0000 </r>
       <r>   -55.1513     0.0000    14.0000 </r>
       <r>   -54.9034     0.0000    14.0000 </r>
       <r>   -54.6556     0.0000    14.0000 </r>
       <r>   -54.4077     0.0000    14.0000 </r>
       <r>   -54.1599     0.0000    14.0000 </r>
       <r>   -53.9120     0.0000    14.0000 </r>
       <r>   -53.6641     0.0000    14.0000 </r>
       <r>   -53.4163     0.0000    14.0000 </r>
       <r>   -53.1684     0.0000    14.0000 </r>
       <r>   -52.9206     0.0000    14.0000 </r>
       <r>   -52.6727     0.0000    14.0000 </r>
       <r>   -52.4249     0.0000    14.0000 </r>
       <r>   -52.1770     0.0000    14.0000 </r>
       <r>   -51.9292     0.0000    14.0000 </r>
       <r>   -51.6813     0.0000    14.0000 </r>
       <r>   -51.4334     0.0000    14.0000 </r>
       <r>   -51.1856     0.0000    14.0000 </r>
       <r>   -50.9377     0.0000    14.0000 </r>
       <r>   -50.6899     0.0000    14.0000 </r>
       <r>   -50.4420     0.0000    14.0000 </r>
       <r>   -50.1942     0.0000    14.0000 </r>
       <r>   -49.9463     0.0000    14.0000 </r>
       <r>   -49.6985     0.0000    14.0000 </r>
       <r>   -49.4506     0.0771    14.0191 </r>
       <r>   -49.2027     7.2943    15.8270 </r>
       <r>   -48.9549    25.2898    22.0952 </r>
       <r>   -48.7070    22.1330    27.5810 </r>
       <r>   -48.4592     1.6903    28.0000 </r>
       <r>   -48.2113     0.0001    28.0000 </r>
       <r>   -47.9635     0.0000    28.0000 </r>
       <r>   -47.7156     0.0000    28.0000 </r>
       <r>   -47.4678     0.0000    28.0000 </r>
       <r>   -47.2199     0.0000    28.0000 </r>
       <r>   -46.9720     0.0000    28.0000 </r>
       <r>   -46.7242     0.0000    28.0000 </r>
       <r>   -46.4763     0.0000    28.0000 </r>
       <r>   -46.2285     0.0000    28.0000 </r>
       <r>   -45.9806     0.0000    28.0000 </r>
       <r>   -45.7328     0.0000    28.0000 </r>
       <r>   -45.4849     0.0000    28.0000 </r>
       <r>   -45.2371     0.0000    28.0000 </r>
       <r>   -44.9892     0.0000    28.0000 </r>
       <r>   -44.7413     0.0000    28.0000 </r>
       <r>   -44.4935     0.0000    28.0000 </r>
       <r>   -44.2456     0.0000    28.0000 </r>
       <r>   -43.9978     0.0000    28.0000 </r>
       <r>   -43.7499     0.0000    28.0000 </r>
       <r>   -43.5021     0.0000    28.0000 </r>
       <r>   -43.2542     0.0000    28.0000 </r>
       <r>   -43.0064     0.0000    28.0000 </r>
       <r>   -42.7585     0.0000    28.0000 </r>
       <r>   -42.5106     0.0000    28.0000 </r>
       <r>   -42.2628     0.0000    28.0000 </r>
       <r>   -42.0149     0.0000    28.0000 </r>
       <r>   -41.7671     0.0000    28.0000 </r>
       <r>   -41.5192     0.0000    28.0000 </r>
       <r>   -41.2714     0.0000    28.0000 </r>
       <r>   -41.0235     0.0000    28.0000 </r>
       <r>   -40.7757     0.0000    28.0000 </r>
       <r>   -40.5278     0.0000    28.0000 </r>
       <r>   -40.2800     0.0000    28.0000 </r>
       <r>   -40.0321     0.0000    28.0000 </r>
       <r>   -39.7842     0.0000    28.0000 </r>
       <r>   -39.5364     0.0000    28.0000 </r>
       <r>   -39.2885     0.0000    28.0000 </r>
       <r>   -39.0407     0.0000    28.0000 </r>
       <r>   -38.7928     0.0000    28.0000 </r>
       <r>   -38.5450     0.0000    28.0000 </r>
       <r>   -38.2971     0.0000    28.0000 </r>
       <r>   -38.0493     0.0000    28.0000 </r>
       <r>   -37.8014     0.0000    28.0000 </r>
       <r>   -37.5535     0.0000    28.0000 </r>
       <r>   -37.3057     0.0000    28.0000 </r>
       <r>   -37.0578     0.0000    28.0000 </r>
       <r>   -36.8100     0.0000    28.0000 </r>
       <r>   -36.5621     0.0000    28.0000 </r>
       <r>   -36.3143     0.0000    28.0000 </r>
       <r>   -36.0664     0.0000    28.0000 </r>
       <r>   -35.8186     0.0000    28.0000 </r>
       <r>   -35.5707     0.0000    28.0000 </r>
       <r>   -35.3228     0.0000    28.0000 </r>
       <r>   -35.0750     0.0000    28.0000 </r>
       <r>   -34.8271     0.0000    28.0000 </r>
       <r>   -34.5793     0.0000    28.0000 </r>
       <r>   -34.3314     0.0000    28.0000 </r>
       <r>   -34.0836     0.0000    28.0000 </r>
       <r>   -33.8357     0.0000    28.0000 </r>
       <r>   -33.5879     0.0000    28.0000 </r>
       <r>   -33.3400     0.0000    28.0000 </r>
       <r>   -33.0921     0.0000    28.0000 </r>
       <r>   -32.8443     0.0000    28.0000 </r>
       <r>   -32.5964     0.0000    28.0000 </r>
       <r>   -32.3486     0.0000    28.0000 </r>
       <r>   -32.1007     0.0000    28.0000 </r>
       <r>   -31.8529     0.0000    28.0000 </r>
       <r>   -31.6050     0.0000    28.0000 </r>
       <r>   -31.3572     0.0007    28.0002 </r>
       <r>   -31.1093     5.8891    29.4598 </r>
       <r>   -30.8614    58.9392    44.0682 </r>
       <r>   -30.6136    81.7301    64.3254 </r>
       <r>   -30.3657   104.9266    90.3321 </r>
       <r>   -30.1179    63.0978   105.9712 </r>
       <r>   -29.8700     0.1162   106.0000 </r>
       <r>   -29.6222     0.0000   106.0000 </r>
       <r>   -29.3743     0.0000   106.0000 </r>
       <r>   -29.1265     0.0000   106.0000 </r>
       <r>   -28.8786     0.0000   106.0000 </r>
       <r>   -28.6307     0.0000   106.0000 </r>
       <r>   -28.3829     0.0000   106.0000 </r>
       <r>   -28.1350     0.0000   106.0000 </r>
       <r>   -27.8872     0.0000   106.0000 </r>
       <r>   -27.6393     0.2617   106.0649 </r>
       <r>   -27.3915    18.0258   110.5327 </r>
       <r>   -27.1436    37.1702   119.7455 </r>
       <r>   -26.8958    47.7292   131.5754 </r>
       <r>   -26.6479    40.6109   141.6410 </r>
       <r>   -26.4001     1.4482   142.0000 </r>
       <r>   -26.1522     0.0000   142.0000 </r>
       <r>   -25.9043     0.0358   142.0089 </r>
       <r>   -25.6565    14.0371   145.4881 </r>
       <r>   -25.4086    54.1284   158.9041 </r>
       <r>   -25.1608    84.1920   179.7715 </r>
       <r>   -24.9129    17.0248   183.9912 </r>
       <r>   -24.6651     0.0355   184.0000 </r>
       <r>   -24.4172     0.0000   184.0000 </r>
       <r>   -24.1694     0.0000   184.0000 </r>
       <r>   -23.9215     0.0000   184.0000 </r>
       <r>   -23.6736     0.0000   184.0000 </r>
       <r>   -23.4258     0.0000   184.0000 </r>
       <r>   -23.1779     0.0000   184.0000 </r>
       <r>   -22.9301     0.0000   184.0000 </r>
       <r>   -22.6822     0.0000   184.0000 </r>
       <r>   -22.4344     0.0000   184.0000 </r>
       <r>   -22.1865     0.0000   184.0000 </r>
       <r>   -21.9387     0.0000   184.0000 </r>
       <r>   -21.6908     0.0000   184.0000 </r>
       <r>   -21.4429     0.0000   184.0000 </r>
       <r>   -21.1951     0.0000   184.0000 </r>
       <r>   -20.9472     0.0000   184.0000 </r>
       <r>   -20.6994     0.0000   184.0000 </r>
       <r>   -20.4515     0.0000   184.0000 </r>
       <r>   -20.2037     0.0000   184.0000 </r>
       <r>   -19.9558     0.0000   184.0000 </r>
       <r>   -19.7080     0.0000   184.0000 </r>
       <r>   -19.4601     0.0000   184.0000 </r>
       <r>   -19.2122     0.0000   184.0000 </r>
       <r>   -18.9644     0.0000   184.0000 </r>
       <r>   -18.7165     0.0000   184.0000 </r>
       <r>   -18.4687     0.0000   184.0000 </r>
       <r>   -18.2208     0.0000   184.0000 </r>
       <r>   -17.9730     0.0000   184.0000 </r>
       <r>   -17.7251     0.0000   184.0000 </r>
       <r>   -17.4773     0.0000   184.0000 </r>
       <r>   -17.2294     0.0000   184.0000 </r>
       <r>   -16.9815     0.0000   184.0000 </r>
       <r>   -16.7337     0.0000   184.0000 </r>
       <r>   -16.4858     0.0000   184.0000 </r>
       <r>   -16.2380     0.0000   184.0000 </r>
       <r>   -15.9901     0.0000   184.0000 </r>
       <r>   -15.7423     0.0000   184.0000 </r>
       <r>   -15.4944     0.0000   184.0000 </r>
       <r>   -15.2466     0.0000   184.0000 </r>
       <r>   -14.9987     0.0000   184.0000 </r>
       <r>   -14.7508     0.0000   184.0000 </r>
       <r>   -14.5030     0.0000   184.0000 </r>
       <r>   -14.2551     0.0000   184.0000 </r>
       <r>   -14.0073     0.0000   184.0000 </r>
       <r>   -13.7594     0.0000   184.0000 </r>
       <r>   -13.5116     0.0000   184.0000 </r>
       <r>   -13.2637     0.0000   184.0000 </r>
       <r>   -13.0159     0.0000   184.0000 </r>
       <r>   -12.7680     0.0000   184.0000 </r>
       <r>   -12.5202     0.0000   184.0000 </r>
       <r>   -12.2723     0.0000   184.0000 </r>
       <r>   -12.0244     0.0000   184.0000 </r>
       <r>   -11.7766     0.0000   184.0000 </r>
       <r>   -11.5287     0.0000   184.0000 </r>
       <r>   -11.2809     0.0000   184.0000 </r>
       <r>   -11.0330     0.0000   184.0000 </r>
       <r>   -10.7852     0.0000   184.0000 </r>
       <r>   -10.5373     0.0000   184.0000 </r>
       <r>   -10.2895     0.0000   184.0000 </r>
       <r>   -10.0416     0.0000   184.0000 </r>
       <r>    -9.7937     0.0000   184.0000 </r>
       <r>    -9.5459     0.0000   184.0000 </r>
       <r>    -9.2980     0.0000   184.0000 </r>
       <r>    -9.0502     0.0000   184.0000 </r>
       <r>    -8.8023     0.0000   184.0000 </r>
       <r>    -8.5545     0.0475   184.0118 </r>
       <r>    -8.3066     3.2199   184.8098 </r>
       <r>    -8.0588     4.8159   186.0035 </r>
       <r>    -7.8109     6.6184   187.6439 </r>
       <r>    -7.5630    12.0657   190.6344 </r>
       <r>    -7.3152     7.3383   192.4533 </r>
       <r>    -7.0673    12.3396   195.5117 </r>
       <r>    -6.8195    19.8171   200.4235 </r>
       <r>    -6.5716    26.2111   206.9200 </r>
       <r>    -6.3238     9.2877   209.2221 </r>
       <r>    -6.0759     3.1380   209.9998 </r>
       <r>    -5.8281     0.0007   210.0000 </r>
       <r>    -5.5802     0.0000   210.0000 </r>
       <r>    -5.3323     0.0000   210.0000 </r>
       <r>    -5.0845     0.2332   210.0578 </r>
       <r>    -4.8366     5.0514   211.3098 </r>
       <r>    -4.5888     3.1019   212.0787 </r>
       <r>    -4.3409     7.7216   213.9925 </r>
       <r>    -4.0931     7.7047   215.9022 </r>
       <r>    -3.8452    13.4080   219.2254 </r>
       <r>    -3.5974    22.6317   224.8348 </r>
       <r>    -3.3495    26.0569   231.2931 </r>
       <r>    -3.1016    20.1394   236.2848 </r>
       <r>    -2.8538    19.2583   241.0581 </r>
       <r>    -2.6059    16.4432   245.1336 </r>
       <r>    -2.3581    10.2104   247.6643 </r>
       <r>    -2.1102     1.3528   247.9996 </r>
       <r>    -1.8624     0.0016   248.0000 </r>
       <r>    -1.6145     0.0000   248.0000 </r>
       <r>    -1.3667     0.0000   248.0000 </r>
       <r>    -1.1188     0.0000   248.0000 </r>
       <r>    -0.8709     0.0000   248.0000 </r>
       <r>    -0.6231     0.0000   248.0000 </r>
       <r>    -0.3752     0.0017   248.0004 </r>
       <r>    -0.1274     0.4455   248.1109 </r>
       <r>     0.1205     1.8052   248.5583 </r>
       <r>     0.3683     7.1570   250.3322 </r>
       <r>     0.6162     8.6818   252.4840 </r>
       <r>     0.8640    14.8505   256.1648 </r>
       <r>     1.1119    19.3145   260.9520 </r>
       <r>     1.3597    27.2636   267.7094 </r>
       <r>     1.6076    26.3474   274.2398 </r>
       <r>     1.8555    24.3014   280.2630 </r>
       <r>     2.1033    32.5455   288.3296 </r>
       <r>     2.3512    33.3452   296.5944 </r>
       <r>     2.5990    39.9208   306.4889 </r>
       <r>     2.8469    45.2826   317.7125 </r>
       <r>     3.0947    58.2271   332.1444 </r>
       <r>     3.3426    64.5910   348.1536 </r>
       <r>     3.5904    59.0002   362.7771 </r>
       <r>     3.8383    55.6865   376.5793 </r>
       <r>     4.0862    58.1095   390.9821 </r>
       <r>     4.3340    46.8527   402.5948 </r>
       <r>     4.5819    37.6216   411.9195 </r>
       <r>     4.8297    29.6906   419.2784 </r>
       <r>     5.0776    29.8095   426.6669 </r>
       <r>     5.3254    21.6571   432.0347 </r>
       <r>     5.5733    16.5818   436.1446 </r>
       <r>     5.8211    12.1697   439.1609 </r>
       <r>     6.0690     6.6585   440.8112 </r>
       <r>     6.3169    13.2440   444.0938 </r>
       <r>     6.5647    17.8998   448.5304 </r>
       <r>     6.8126    17.0103   452.7465 </r>
       <r>     7.0604    17.9845   457.2040 </r>
       <r>     7.3083    16.0942   461.1931 </r>
       <r>     7.5561    20.5936   466.2973 </r>
       <r>     7.8040    24.1657   472.2869 </r>
       <r>     8.0518    25.8004   478.6817 </r>
       <r>     8.2997    22.4616   484.2489 </r>
       <r>     8.5476    26.9209   490.9214 </r>
       <r>     8.7954    30.7325   498.5386 </r>
       <r>     9.0433    43.1871   509.2428 </r>
       <r>     9.2911    51.4011   521.9828 </r>
       <r>     9.5390    55.4090   535.7162 </r>
       <r>     9.7868    55.8750   549.5651 </r>
       <r>    10.0347    62.6373   565.0901 </r>
       <r>    10.2825    62.7816   580.6509 </r>
       <r>    10.5304    57.8416   594.9872 </r>
       <r>    10.7783    61.0293   610.1137 </r>
       <r>    11.0261    48.7838   622.2050 </r>
       <r>    11.2740     7.2241   623.9955 </r>
       <r>    11.5218     0.0181   624.0000 </r>
       <r>    11.7697     0.0000   624.0000 </r>
       <r>    12.0175     0.0000   624.0000 </r>
       <r>    12.2654     0.0000   624.0000 </r>
       <r>    12.5132     0.0000   624.0000 </r>
       <r>    12.7611     0.0000   624.0000 </r>
       <r>    13.0090     0.0000   624.0000 </r>
       <r>    13.2568     0.0000   624.0000 </r>
       <r>    13.5047     0.0000   624.0000 </r>
       <r>    13.7525     0.0000   624.0000 </r>
       <r>    14.0004     0.0000   624.0000 </r>
       <r>    14.2482     0.0000   624.0000 </r>
       <r>    14.4961     0.0000   624.0000 </r>
      </set>
     </set>
    </array>
   </total>
  </dos>
 </calculation>
 <structure name="finalpos" >
  <crystal>
   <varray name="basis" >
    <v>       8.69639499      -0.00568839       0.03050453 </v>
    <v>      -0.00560292       8.67863371       0.01452833 </v>
    <v>       0.03032128       0.01437878       8.69430413 </v>
   </varray>
   <i name="volume">    656.17358341 </i>
   <varray name="rec_basis" >
    <v>       0.11499163       0.00007491      -0.00040116 </v>
    <v>       0.00007604       0.11522588      -0.00019083 </v>
    <v>      -0.00040358      -0.00019281       0.11501956 </v>
   </varray>
  </crystal>
  <varray name="positions" >
   <v>      -0.00070254       0.00962385       0.00494098 </v>
   <v>       0.24457423       0.00943323       0.25090821 </v>
   <v>       0.25372683       0.49005852       0.25261726 </v>
   <v>       0.49853282       0.49919062       0.00037382 </v>
   <v>       0.49959661       0.25490792       0.75410329 </v>
   <v>       0.00992129       0.49964152       0.50192632 </v>
   <v>       0.49473545       0.74684590       0.74550908 </v>
   <v>      -0.01422986       0.23652214       0.26391607 </v>
   <v>       0.77369453       0.74783141      -0.00351423 </v>
   <v>       0.02244673       0.26291659       0.74882157 </v>
   <v>       0.76291181       0.26816690       0.47760975 </v>
   <v>      -0.00045353       0.73637450       0.75105011 </v>
   <v>       0.25680415       0.49784001       0.74868002 </v>
   <v>       0.26667713       0.26230102      -0.00970570 </v>
   <v>       0.50060627       0.25999186       0.23181982 </v>
   <v>       0.75656683      -0.00815193       0.21958450 </v>
   <v>       0.72542431       0.25170802       0.00316983 </v>
   <v>       0.23526769       0.73280889       0.00873501 </v>
   <v>       0.24388061       0.24949717       0.51591763 </v>
   <v>       0.25170627       0.75262851       0.49023440 </v>
   <v>       0.24989431       0.24899416       0.24935196 </v>
   <v>       0.25146387       0.00511650       0.00049305 </v>
   <v>      -0.00319936       0.24792250       0.00630678 </v>
   <v>       0.73678861       0.23094377       0.24146924 </v>
   <v>       0.75394389       0.00581624      -0.00334596 </v>
   <v>       0.49997520       0.00327358       0.24938323 </v>
   <v>       0.00023601       0.50003427       0.25320850 </v>
   <v>       0.49296540       0.75456817      -0.00117221 </v>
   <v>      -0.00144497       0.00184885       0.75314177 </v>
   <v>       0.74724769       0.24632339       0.75275228 </v>
   <v>       0.74836903       0.00048239       0.50635085 </v>
   <v>       0.49979009       0.24837279       0.49919239 </v>
   <v>       0.50100201       0.00188759       0.74966652 </v>
   <v>      -0.00515492       0.00050362       0.25012145 </v>
   <v>       0.49545384       0.25662492      -0.00270088 </v>
   <v>       0.24853608       0.75006515       0.24826483 </v>
   <v>       0.25007058       0.49867705       0.00382959 </v>
   <v>       0.01006666       0.75111414       0.00408658 </v>
   <v>       0.75156219       0.74807807       0.24922971 </v>
   <v>       0.74568108       0.49469267       0.00617990 </v>
   <v>       0.49472116       0.49320502       0.24931906 </v>
   <v>       0.26012407       0.24868492       0.75274887 </v>
   <v>       0.25161954       0.00289156       0.49399391 </v>
   <v>       0.00386363       0.25224080       0.50726675 </v>
   <v>       0.25017846       0.74864369       0.75352421 </v>
   <v>       0.25081200       0.49892607       0.49814310 </v>
   <v>       0.00358510       0.75101065       0.50214018 </v>
   <v>      -0.00209193       0.49782231       0.74889443 </v>
   <v>       0.74313833       0.75000492       0.74778277 </v>
   <v>       0.75452190       0.49959341       0.50418670 </v>
   <v>       0.49672857       0.75105344       0.50241200 </v>
   <v>       0.50176488       0.50127610       0.75090375 </v>
   <v>       0.49856856       0.00661096       0.00479163 </v>
   <v>      -0.00130519       0.49393640       0.00164682 </v>
   <v>       0.49532763       0.74267088       0.25173172 </v>
   <v>       0.24556505      -0.00371512       0.74597334 </v>
   <v>       0.49203660       0.00021037       0.49336687 </v>
   <v>       0.75595857      -0.00389262       0.75540210 </v>
   <v>       0.00585631       0.76566304       0.25562801 </v>
   <v>       0.73923578       0.49208380       0.24855199 </v>
   <v>       0.01677781       0.00362316       0.49537101 </v>
   <v>       0.49213041       0.50768609       0.50159723 </v>
   <v>       0.74363504       0.51022350       0.76609603 </v>
   <v>       0.75231350       0.73407082       0.49602084 </v>
  </varray>
 </structure>
</modeling>
