<?xml version="1.0" encoding="ISO-8859-1"?>
<modeling>
 <generator>
  <i name="program" type="string">vasp </i>
  <i name="version" type="string">5.4.4.18Apr17-6-g9f103f2a35  </i>
  <i name="subversion" type="string">(build Oct 18 2021 20:38:43) complex            parallel </i>
  <i name="platform" type="string">LinuxIFC </i>
  <i name="date" type="string">2024 06 11 </i>
  <i name="time" type="string">17:02:27 </i>
 </generator>
 <incar>
  <i type="string" name="SYSTEM">HECN</i>
  <i type="int" name="ISTART">     0</i>
  <i type="string" name="PREC">normal</i>
  <i type="string" name="ALGO">Fast</i>
  <i type="int" name="ICHARG">     2</i>
  <i type="int" name="NELM">    60</i>
  <i type="int" name="IBRION">     2</i>
  <i name="EDIFF">      0.00001000</i>
  <i name="EDIFFG">     -0.01000000</i>
  <i type="int" name="NSW">   100</i>
  <i type="int" name="ISIF">     3</i>
  <i name="ENCUT">    400.00000000</i>
  <i name="POTIM">      0.50000000</i>
  <i type="logical" name="LREAL"> F  </i>
  <i type="int" name="ISMEAR">     0</i>
  <i name="SIGMA">      0.10000000</i>
  <i type="logical" name="LWAVE"> F  </i>
  <i type="logical" name="LCHARG"> F  </i>
  <v type="int" name="KPOINT_BSE">    -1     0     0     0</v>
  <i type="int" name="NELM">    60</i>
 </incar>
 <structure name="primitive_cell" >
  <crystal>
   <varray name="basis" >
    <v>       8.93249989       0.00000000       0.00000000 </v>
    <v>       0.00575300       9.05559834       0.00000000 </v>
    <v>       0.03210180      -0.01574346       8.93712807 </v>
   </varray>
   <i name="volume">    722.91652451 </i>
   <varray name="rec_basis" >
    <v>       0.11195074      -0.00007112      -0.00040225 </v>
    <v>       0.00000000       0.11042893       0.00019453 </v>
    <v>       0.00000000       0.00000000       0.11189277 </v>
   </varray>
  </crystal>
  <varray name="positions" >
   <v>      -0.00311999      -0.00795003      -0.00075998 </v>
   <v>      -0.25232999      -0.00252000       0.01202000 </v>
   <v>      -0.00162995      -0.25686004       0.00460000 </v>
   <v>      -0.00280000      -0.00228008       0.25899999 </v>
   <v>       0.00281000       0.25024000       0.00130000 </v>
   <v>      -0.01103011       0.00202000      -0.26291001 </v>
   <v>       0.26146999      -0.00015998      -0.00704004 </v>
   <v>      -0.00135002      -0.22426001       0.26102000 </v>
   <v>      -0.25720997      -0.02130006      -0.23549005 </v>
   <v>       0.23780002       0.01082000      -0.25392002 </v>
   <v>      -0.24282000      -0.25897003       0.01100000 </v>
   <v>       0.24762001      -0.25026001      -0.00025994 </v>
   <v>      -0.00485996      -0.25507996      -0.25488003 </v>
   <v>      -0.24281000       0.25603001      -0.00408003 </v>
   <v>       0.25398003      -0.00285005       0.24912000 </v>
   <v>       0.24788999       0.24839000      -0.00342003 </v>
   <v>      -0.00562996       0.23617001       0.26379999 </v>
   <v>      -0.25120996      -0.01212001       0.26967001 </v>
   <v>       0.00201000       0.25541000      -0.26105999 </v>
   <v>       0.24177002      -0.24659003      -0.24981998 </v>
   <v>      -0.24963995      -0.25112000      -0.25243996 </v>
   <v>      -0.24255004       0.24437997      -0.25103001 </v>
   <v>       0.25133999      -0.25041998       0.24910999 </v>
   <v>      -0.24367000      -0.26108997       0.25767000 </v>
   <v>      -0.24686002       0.24616999       0.25492002 </v>
   <v>       0.24982001       0.24942998       0.24825000 </v>
   <v>       0.24900999       0.25315000      -0.25146000 </v>
   <v>      -0.48411003       0.01358000      -0.01924992 </v>
   <v>      -0.00158006      -0.49023002      -0.01386996 </v>
   <v>       0.02362000      -0.00216999       0.49557002 </v>
   <v>      -0.49480995      -0.23869001       0.00855000 </v>
   <v>      -0.49285006      -0.00023001       0.24673000 </v>
   <v>      -0.24160996      -0.49684002       0.00288000 </v>
   <v>      -0.00999997      -0.23784997       0.49746000 </v>
   <v>      -0.00948001       0.48088003       0.24100999 </v>
   <v>       0.24446000      -0.00176004      -0.49712002 </v>
   <v>      -0.26367999       0.00417000      -0.48937000 </v>
   <v>       0.24328000      -0.49927003      -0.00489006 </v>
   <v>      -0.49572003       0.24673000       0.00262000 </v>
   <v>      -0.00796004      -0.49944001      -0.24861998 </v>
   <v>      -0.00195991       0.24229999      -0.49871997 </v>
   <v>      -0.49991002       0.00061000      -0.26528002 </v>
   <v>      -0.26123997      -0.47171998      -0.26185001 </v>
   <v>       0.49950005      -0.24518001      -0.25182996 </v>
   <v>       0.24457999      -0.24951001       0.49983999 </v>
   <v>      -0.24599997      -0.27062001       0.49116997 </v>
   <v>      -0.49520997       0.24631001      -0.25289998 </v>
   <v>       0.24803003      -0.49835000       0.24955001 </v>
   <v>      -0.26448999      -0.48531996       0.26666001 </v>
   <v>      -0.49167000       0.25676999       0.25376001 </v>
   <v>      -0.49620997      -0.26073003       0.25905001 </v>
   <v>      -0.24692999       0.26163001      -0.49466998 </v>
   <v>       0.25272001       0.24823001      -0.49984997 </v>
   <v>       0.25679999       0.49462002      -0.25454998 </v>
   <v>       0.47957999      -0.01691999       0.49717999 </v>
   <v>      -0.49498994       0.49745998      -0.00165997 </v>
   <v>      -0.00572008      -0.49550001       0.49779000 </v>
   <v>      -0.49436004       0.23264998       0.49544997 </v>
   <v>      -0.49424994      -0.25041998       0.49720000 </v>
   <v>      -0.49299998      -0.49666998       0.25878999 </v>
   <v>      -0.49498997      -0.49782002      -0.26087997 </v>
   <v>      -0.25963999      -0.49803000      -0.49932997 </v>
   <v>       0.25841001      -0.49937998      -0.49870999 </v>
   <v>      -0.49461000      -0.47166995       0.49917999 </v>
  </varray>
 </structure>
 <varray name="primitive_index" >
  <v type="int" >        1 </v>
  <v type="int" >       25 </v>
  <v type="int" >       38 </v>
  <v type="int" >       34 </v>
  <v type="int" >       23 </v>
  <v type="int" >       29 </v>
  <v type="int" >       22 </v>
  <v type="int" >       59 </v>
  <v type="int" >       58 </v>
  <v type="int" >       56 </v>
  <v type="int" >        9 </v>
  <v type="int" >       18 </v>
  <v type="int" >       12 </v>
  <v type="int" >       17 </v>
  <v type="int" >        2 </v>
  <v type="int" >       14 </v>
  <v type="int" >        8 </v>
  <v type="int" >       16 </v>
  <v type="int" >       10 </v>
  <v type="int" >       45 </v>
  <v type="int" >       49 </v>
  <v type="int" >       30 </v>
  <v type="int" >       36 </v>
  <v type="int" >       39 </v>
  <v type="int" >       24 </v>
  <v type="int" >       21 </v>
  <v type="int" >       42 </v>
  <v type="int" >       53 </v>
  <v type="int" >       54 </v>
  <v type="int" >       61 </v>
  <v type="int" >       28 </v>
  <v type="int" >       26 </v>
  <v type="int" >       40 </v>
  <v type="int" >       47 </v>
  <v type="int" >       27 </v>
  <v type="int" >       43 </v>
  <v type="int" >       31 </v>
  <v type="int" >       37 </v>
  <v type="int" >       35 </v>
  <v type="int" >       48 </v>
  <v type="int" >       44 </v>
  <v type="int" >       33 </v>
  <v type="int" >       63 </v>
  <v type="int" >        7 </v>
  <v type="int" >       20 </v>
  <v type="int" >       64 </v>
  <v type="int" >        5 </v>
  <v type="int" >        3 </v>
  <v type="int" >       60 </v>
  <v type="int" >       15 </v>
  <v type="int" >       55 </v>
  <v type="int" >       11 </v>
  <v type="int" >       19 </v>
  <v type="int" >       13 </v>
  <v type="int" >       57 </v>
  <v type="int" >        4 </v>
  <v type="int" >        6 </v>
  <v type="int" >       32 </v>
  <v type="int" >       51 </v>
  <v type="int" >       41 </v>
  <v type="int" >       52 </v>
  <v type="int" >       50 </v>
  <v type="int" >       46 </v>
  <v type="int" >       62 </v>
 </varray>
 <kpoints>
  <generation param="Gamma">
   <v type="int" name="divisions">       3        3        3 </v>
   <v name="usershift">      0.00000000       0.00000000       0.00000000 </v>
   <v name="genvec1">      0.33333333      -0.00000000      -0.00000000 </v>
   <v name="genvec2">      0.00000000       0.33333333       0.00000000 </v>
   <v name="genvec3">      0.00000000       0.00000000       0.33333333 </v>
   <v name="shift">      0.00000000       0.00000000       0.00000000 </v>
  </generation>
  <varray name="kpointlist" >
   <v>       0.00000000       0.00000000       0.00000000 </v>
   <v>       0.33333333       0.00000000       0.00000000 </v>
   <v>       0.00000000       0.33333333       0.00000000 </v>
   <v>       0.33333333       0.33333333       0.00000000 </v>
   <v>      -0.33333333       0.33333333       0.00000000 </v>
   <v>       0.00000000       0.00000000       0.33333333 </v>
   <v>       0.33333333       0.00000000       0.33333333 </v>
   <v>      -0.33333333       0.00000000       0.33333333 </v>
   <v>       0.00000000       0.33333333       0.33333333 </v>
   <v>       0.33333333       0.33333333       0.33333333 </v>
   <v>      -0.33333333       0.33333333       0.33333333 </v>
   <v>       0.00000000      -0.33333333       0.33333333 </v>
   <v>       0.33333333      -0.33333333       0.33333333 </v>
   <v>      -0.33333333      -0.33333333       0.33333333 </v>
  </varray>
  <varray name="weights" >
   <v>       0.03703704 </v>
   <v>       0.07407407 </v>
   <v>       0.07407407 </v>
   <v>       0.07407407 </v>
   <v>       0.07407407 </v>
   <v>       0.07407407 </v>
   <v>       0.07407407 </v>
   <v>       0.07407407 </v>
   <v>       0.07407407 </v>
   <v>       0.07407407 </v>
   <v>       0.07407407 </v>
   <v>       0.07407407 </v>
   <v>       0.07407407 </v>
   <v>       0.07407407 </v>
  </varray>
 </kpoints>
 <parameters>
  <separator name="general" >
   <i type="string" name="SYSTEM">HECN</i>
   <i type="logical" name="LCOMPAT"> F  </i>
  </separator>
  <separator name="electronic" >
   <i type="string" name="PREC">normal</i>
   <i name="ENMAX">    400.00000000</i>
   <i name="ENAUG">    644.87300000</i>
   <i name="EDIFF">      0.00001000</i>
   <i type="int" name="IALGO">    68</i>
   <i type="int" name="IWAVPR">    11</i>
   <i type="int" name="NBANDS">   312</i>
   <i name="NELECT">    512.00000000</i>
   <i type="int" name="TURBO">     0</i>
   <i type="int" name="IRESTART">     0</i>
   <i type="int" name="NREBOOT">     0</i>
   <i type="int" name="NMIN">     0</i>
   <i name="EREF">      0.00000000</i>
   <separator name="electronic smearing" >
    <i type="int" name="ISMEAR">     0</i>
    <i name="SIGMA">      0.10000000</i>
    <i name="KSPACING">      0.50000000</i>
    <i type="logical" name="KGAMMA"> T  </i>
   </separator>
   <separator name="electronic projectors" >
    <i type="logical" name="LREAL"> F  </i>
    <v name="ROPT">      0.00000000      0.00000000      0.00000000      0.00000000      0.00000000      0.00000000      0.00000000</v>
    <i type="int" name="LMAXPAW">  -100</i>
    <i type="int" name="LMAXMIX">     2</i>
    <i type="logical" name="NLSPLINE"> F  </i>
   </separator>
   <separator name="electronic startup" >
    <i type="int" name="ISTART">     0</i>
    <i type="int" name="ICHARG">     2</i>
    <i type="int" name="INIWAV">     1</i>
   </separator>
   <separator name="electronic spin" >
    <i type="int" name="ISPIN">     1</i>
    <i type="logical" name="LNONCOLLINEAR"> F  </i>
    <v name="MAGMOM">      1.00000000      1.00000000      1.00000000      1.00000000      1.00000000      1.00000000      1.00000000      1.00000000      1.00000000      1.00000000      1.00000000      1.00000000      1.00000000      1.00000000      1.00000000      1.00000000      1.00000000      1.00000000      1.00000000      1.00000000
      1.00000000      1.00000000      1.00000000      1.00000000      1.00000000      1.00000000      1.00000000      1.00000000      1.00000000      1.00000000      1.00000000      1.00000000      1.00000000      1.00000000      1.00000000      1.00000000      1.00000000      1.00000000      1.00000000      1.00000000
      1.00000000      1.00000000      1.00000000      1.00000000      1.00000000      1.00000000      1.00000000      1.00000000      1.00000000      1.00000000      1.00000000      1.00000000      1.00000000      1.00000000      1.00000000      1.00000000      1.00000000      1.00000000      1.00000000      1.00000000
      1.00000000      1.00000000      1.00000000      1.00000000</v>
    <i name="NUPDOWN">     -1.00000000</i>
    <i type="logical" name="LSORBIT"> F  </i>
    <v name="SAXIS">      0.00000000      0.00000000      1.00000000</v>
    <i type="logical" name="LSPIRAL"> F  </i>
    <v name="QSPIRAL">      0.00000000      0.00000000      0.00000000</v>
    <i type="logical" name="LZEROZ"> F  </i>
   </separator>
   <separator name="electronic exchange-correlation" >
    <i type="logical" name="LASPH"> F  </i>
    <i type="logical" name="LMETAGGA"> F  </i>
   </separator>
   <separator name="electronic convergence" >
    <i type="int" name="NELM">    60</i>
    <i type="int" name="NELMDL">    -5</i>
    <i type="int" name="NELMIN">     2</i>
    <i name="ENINI">    400.00000000</i>
    <separator name="electronic convergence detail" >
     <i type="logical" name="LDIAG"> T  </i>
     <i type="logical" name="LSUBROT"> F  </i>
     <i name="WEIMIN">      0.00100000</i>
     <i name="EBREAK">      0.00000001</i>
     <i name="DEPER">      0.30000000</i>
     <i type="int" name="NRMM">     4</i>
     <i name="TIME">      0.40000000</i>
    </separator>
   </separator>
   <separator name="electronic mixer" >
    <i name="AMIX">      0.40000000</i>
    <i name="BMIX">      1.00000000</i>
    <i name="AMIN">      0.10000000</i>
    <i name="AMIX_MAG">      1.60000000</i>
    <i name="BMIX_MAG">      1.00000000</i>
    <separator name="electronic mixer details" >
     <i type="int" name="IMIX">     4</i>
     <i type="logical" name="MIXFIRST"> F  </i>
     <i type="int" name="MAXMIX">   -45</i>
     <i name="WC">    100.00000000</i>
     <i type="int" name="INIMIX">     1</i>
     <i type="int" name="MIXPRE">     1</i>
     <i type="int" name="MREMOVE">     5</i>
    </separator>
   </separator>
   <separator name="electronic dipolcorrection" >
    <i type="logical" name="LDIPOL"> F  </i>
    <i type="logical" name="LMONO"> F  </i>
    <i type="int" name="IDIPOL">     0</i>
    <i name="EPSILON">      1.00000000</i>
    <v name="DIPOL">   -100.00000000   -100.00000000   -100.00000000</v>
    <i name="EFIELD">      0.00000000</i>
   </separator>
  </separator>
  <separator name="grids" >
   <i type="int" name="NGX">    48</i>
   <i type="int" name="NGY">    48</i>
   <i type="int" name="NGZ">    48</i>
   <i type="int" name="NGXF">    96</i>
   <i type="int" name="NGYF">    96</i>
   <i type="int" name="NGZF">    96</i>
   <i type="logical" name="ADDGRID"> F  </i>
  </separator>
  <separator name="ionic" >
   <i type="int" name="NSW">   100</i>
   <i type="int" name="IBRION">     2</i>
   <i type="int" name="MDALGO">     0</i>
   <i type="int" name="ISIF">     3</i>
   <i name="PSTRESS">      0.00000000</i>
   <i name="EDIFFG">     -0.01000000</i>
   <i type="int" name="NFREE">     1</i>
   <i name="POTIM">      0.50000000</i>
   <i name="SMASS">     -3.00000000</i>
   <i name="SCALEE">      1.00000000</i>
  </separator>
  <separator name="ionic md" >
   <i name="TEBEG">      0.00010000</i>
   <i name="TEEND">      0.00010000</i>
   <i type="int" name="NBLOCK">     1</i>
   <i type="int" name="KBLOCK">   100</i>
   <i type="int" name="NPACO">   256</i>
   <i name="APACO">     16.00000000</i>
  </separator>
  <separator name="symmetry" >
   <i type="int" name="ISYM">     2</i>
   <i name="SYMPREC">      0.00001000</i>
  </separator>
  <separator name="dos" >
   <i type="int" name="LORBIT">     0</i>
   <v name="RWIGS">     -1.00000000     -1.00000000     -1.00000000     -1.00000000     -1.00000000     -1.00000000     -1.00000000</v>
   <i type="int" name="NEDOS">   301</i>
   <i name="EMIN">     10.00000000</i>
   <i name="EMAX">    -10.00000000</i>
   <i name="EFERMI">      0.00000000</i>
  </separator>
  <separator name="writing" >
   <i type="int" name="NWRITE">     2</i>
   <i type="logical" name="LWAVE"> F  </i>
   <i type="logical" name="LDOWNSAMPLE"> F  </i>
   <i type="logical" name="LCHARG"> F  </i>
   <i type="logical" name="LPARD"> F  </i>
   <i type="logical" name="LVTOT"> F  </i>
   <i type="logical" name="LVHAR"> F  </i>
   <i type="logical" name="LELF"> F  </i>
   <i type="logical" name="LOPTICS"> F  </i>
   <v name="STM">      0.00000000      0.00000000      0.00000000      0.00000000      0.00000000      0.00000000      0.00000000</v>
  </separator>
  <separator name="performance" >
   <i type="int" name="NPAR">    24</i>
   <i type="int" name="NSIM">     4</i>
   <i type="int" name="NBLK">    -1</i>
   <i type="logical" name="LPLANE"> T  </i>
   <i type="logical" name="LSCALAPACK"> T  </i>
   <i type="logical" name="LSCAAWARE"> F  </i>
   <i type="logical" name="LSCALU"> F  </i>
   <i type="logical" name="LASYNC"> F  </i>
   <i type="logical" name="LORBITALREAL"> F  </i>
  </separator>
  <separator name="miscellaneous" >
   <i type="int" name="IDIOT">     3</i>
   <i type="int" name="ISPECIAL">     0</i>
   <i type="logical" name="LMUSIC"> F  </i>
   <v name="POMASS">     92.91000000    180.94800000    178.49000000     14.00100000     12.01100000     51.99600000    183.85000000</v>
   <v name="DARWINR">      0.00000000      0.00000000      0.00000000      0.00000000      0.00000000      0.00000000      0.00000000</v>
   <v name="DARWINV">      1.00000000      1.00000000      1.00000000      1.00000000      1.00000000      1.00000000      1.00000000</v>
   <i type="logical" name="LCORR"> T  </i>
  </separator>
  <i type="logical" name="GGA_COMPAT"> T  </i>
  <i type="logical" name="LBERRY"> F  </i>
  <i type="int" name="ICORELEVEL">     0</i>
  <i type="logical" name="LDAU"> F  </i>
  <i type="int" name="I_CONSTRAINED_M">     0</i>
  <separator name="electronic exchange-correlation" >
   <i type="string" name="GGA">--</i>
   <i type="int" name="VOSKOWN">     0</i>
   <i type="logical" name="LHFCALC"> F  </i>
   <i type="string" name="PRECFOCK"></i>
   <i type="logical" name="LSYMGRAD"> F  </i>
   <i type="logical" name="LHFONE"> F  </i>
   <i type="logical" name="LRHFCALC"> F  </i>
   <i type="logical" name="LTHOMAS"> F  </i>
   <i type="logical" name="LMODELHF"> F  </i>
   <i name="ENCUT4O">     -1.00000000</i>
   <i type="int" name="EXXOEP">     0</i>
   <i type="int" name="FOURORBIT">     0</i>
   <i name="AEXX">      0.00000000</i>
   <i name="HFALPHA">      0.00000000</i>
   <i name="MCALPHA">      0.00000000</i>
   <i name="ALDAX">      1.00000000</i>
   <i name="AGGAX">      1.00000000</i>
   <i name="ALDAC">      1.00000000</i>
   <i name="AGGAC">      1.00000000</i>
   <i type="int" name="NKREDX">     1</i>
   <i type="int" name="NKREDY">     1</i>
   <i type="int" name="NKREDZ">     1</i>
   <i type="logical" name="SHIFTRED"> F  </i>
   <i type="logical" name="ODDONLY"> F  </i>
   <i type="logical" name="EVENONLY"> F  </i>
   <i type="int" name="LMAXFOCK">     0</i>
   <i type="int" name="NMAXFOCKAE">     0</i>
   <i type="logical" name="LFOCKAEDFT"> F  </i>
   <i name="HFSCREEN">      0.00000000</i>
   <i name="HFSCREENC">      0.00000000</i>
   <i type="int" name="NBANDSGWLOW">     0</i>
  </separator>
  <separator name="vdW DFT" >
   <i type="logical" name="LUSE_VDW"> F  </i>
   <i name="Zab_VDW">     -0.84910000</i>
   <i name="PARAM1">      0.12340000</i>
   <i name="PARAM2">      1.00000000</i>
   <i name="PARAM3">      0.00000000</i>
  </separator>
  <separator name="model GW" >
   <i type="int" name="MODEL_GW">     0</i>
   <i name="MODEL_EPS0">      6.77734242</i>
   <i name="MODEL_ALPHA">      1.00000000</i>
  </separator>
  <separator name="linear response parameters" >
   <i type="logical" name="LEPSILON"> F  </i>
   <i type="logical" name="LRPA"> F  </i>
   <i type="logical" name="LNABLA"> F  </i>
   <i type="logical" name="LVEL"> F  </i>
   <i type="int" name="KINTER">     0</i>
   <i name="CSHIFT">      0.10000000</i>
   <i name="OMEGAMAX">     -1.00000000</i>
   <i name="DEG_THRESHOLD">      0.00200000</i>
   <i name="RTIME">     -0.10000000</i>
   <i name="WPLASMAI">      0.00000000</i>
   <v name="DFIELD">      0.00000000      0.00000000      0.00000000</v>
   <v name="WPLASMA">      0.00000000      0.00000000      0.00000000      0.00000000      0.00000000      0.00000000      0.00000000      0.00000000      0.00000000</v>
  </separator>
  <separator name="orbital magnetization" >
   <i type="logical" name="NUCIND"> F  </i>
   <v name="MAGPOS">      0.00000000      0.00000000      0.00000000</v>
   <i type="logical" name="LNICSALL"> T  </i>
   <i type="logical" name="ORBITALMAG"> F  </i>
   <i type="logical" name="LMAGBLOCH"> F  </i>
   <i type="logical" name="LCHIMAG"> F  </i>
   <i type="logical" name="LGAUGE"> T  </i>
   <i type="int" name="MAGATOM">     0</i>
   <v name="MAGDIPOL">      0.00000000      0.00000000      0.00000000</v>
   <v name="AVECCONST">      0.00000000      0.00000000      0.00000000</v>
  </separator>
  <separator name="response functions" >
   <i type="logical" name="LADDER"> F  </i>
   <i type="logical" name="LRPAFORCE"> F  </i>
   <i type="logical" name="LFXC"> F  </i>
   <i type="logical" name="LHARTREE"> T  </i>
   <i type="int" name="IBSE">     0</i>
   <v type="int" name="KPOINT">    -1     0     0     0</v>
   <i type="logical" name="LTCTE"> F  </i>
   <i type="logical" name="LTETE"> F  </i>
   <i type="logical" name="LTRIPLET"> F  </i>
   <i type="logical" name="LFXCEPS"> F  </i>
   <i type="logical" name="LFXHEG"> F  </i>
   <i type="int" name="NATURALO">     2</i>
   <i type="logical" name="L2ORDER"> F  </i>
   <i type="logical" name="LMP2LT"> F  </i>
   <i type="logical" name="LUSEW"> F  </i>
   <i name="ENCUTGW">     -2.00000000</i>
   <i name="ENCUTGWSOFT">     -2.00000000</i>
   <i name="ENCUTLF">     -1.00000000</i>
   <i type="int" name="LMAXMP2">    -1</i>
   <i name="SCISSOR">      0.00000000</i>
   <i type="int" name="NOMEGA">     0</i>
   <i type="int" name="NOMEGAR">     0</i>
   <i type="int" name="NBANDSGW">    -1</i>
   <i type="int" name="NBANDSO">    -1</i>
   <i type="int" name="NBANDSV">    -1</i>
   <i type="int" name="NELM">    60</i>
   <i type="int" name="NELMHF">     1</i>
   <i type="int" name="DIM">     3</i>
   <i type="int" name="ANTIRES">     0</i>
   <i name="OMEGAMAX">    -30.00000000</i>
   <i name="OMEGAMIN">    -30.00000000</i>
   <i name="OMEGATL">   -200.00000000</i>
   <i type="int" name="OMEGAGRID">   140</i>
   <i name="CSHIFT">     -0.10000000</i>
   <i type="logical" name="SELFENERGY"> F  </i>
   <i type="logical" name="LSPECTRAL"> F  </i>
   <i type="logical" name="LSPECTRALGW"> F  </i>
   <i type="logical" name="LSINGLES"> F  </i>
   <i type="logical" name="LFERMIGW"> F  </i>
   <i type="logical" name="ODDONLYGW"> F  </i>
   <i type="logical" name="EVENONLYGW"> F  </i>
   <i type="int" name="NKREDLFX">     1</i>
   <i type="int" name="NKREDLFY">     1</i>
   <i type="int" name="NKREDLFZ">     1</i>
   <i type="int" name="MAXMEM">  2800</i>
   <i type="int" name="TELESCOPE">     0</i>
   <i type="int" name="TAUPAR">     1</i>
   <i type="int" name="OMEGAPAR">    -1</i>
   <i name="LAMBDA">      1.00000000</i>
  </separator>
  <separator name="External order field" >
   <i name="OFIELD_KAPPA">      0.00000000</i>
   <v name="OFIELD_K">      0.00000000      0.00000000      0.00000000</v>
   <i name="OFIELD_Q6_NEAR">      0.00000000</i>
   <i name="OFIELD_Q6_FAR">      0.00000000</i>
   <i name="OFIELD_A">      0.00000000</i>
  </separator>
 </parameters>
 <atominfo>
  <atoms>      64 </atoms>
  <types>       7 </types>
  <array name="atoms" >
   <dimension dim="1">ion</dimension>
   <field type="string">element</field>
   <field type="int">atomtype</field>
   <set>
    <rc><c>Nb</c><c>   1</c></rc>
    <rc><c>Nb</c><c>   1</c></rc>
    <rc><c>Nb</c><c>   1</c></rc>
    <rc><c>Nb</c><c>   1</c></rc>
    <rc><c>Nb</c><c>   1</c></rc>
    <rc><c>Nb</c><c>   1</c></rc>
    <rc><c>Nb</c><c>   1</c></rc>
    <rc><c>Ta</c><c>   2</c></rc>
    <rc><c>Ta</c><c>   2</c></rc>
    <rc><c>Ta</c><c>   2</c></rc>
    <rc><c>Ta</c><c>   2</c></rc>
    <rc><c>Ta</c><c>   2</c></rc>
    <rc><c>Ta</c><c>   2</c></rc>
    <rc><c>Hf</c><c>   3</c></rc>
    <rc><c>Hf</c><c>   3</c></rc>
    <rc><c>Hf</c><c>   3</c></rc>
    <rc><c>Hf</c><c>   3</c></rc>
    <rc><c>Hf</c><c>   3</c></rc>
    <rc><c>Hf</c><c>   3</c></rc>
    <rc><c>Hf</c><c>   3</c></rc>
    <rc><c>N </c><c>   4</c></rc>
    <rc><c>N </c><c>   4</c></rc>
    <rc><c>N </c><c>   4</c></rc>
    <rc><c>N </c><c>   4</c></rc>
    <rc><c>N </c><c>   4</c></rc>
    <rc><c>N </c><c>   4</c></rc>
    <rc><c>N </c><c>   4</c></rc>
    <rc><c>N </c><c>   4</c></rc>
    <rc><c>N </c><c>   4</c></rc>
    <rc><c>N </c><c>   4</c></rc>
    <rc><c>N </c><c>   4</c></rc>
    <rc><c>N </c><c>   4</c></rc>
    <rc><c>N </c><c>   4</c></rc>
    <rc><c>C </c><c>   5</c></rc>
    <rc><c>C </c><c>   5</c></rc>
    <rc><c>C </c><c>   5</c></rc>
    <rc><c>C </c><c>   5</c></rc>
    <rc><c>C </c><c>   5</c></rc>
    <rc><c>C </c><c>   5</c></rc>
    <rc><c>C </c><c>   5</c></rc>
    <rc><c>C </c><c>   5</c></rc>
    <rc><c>C </c><c>   5</c></rc>
    <rc><c>C </c><c>   5</c></rc>
    <rc><c>C </c><c>   5</c></rc>
    <rc><c>C </c><c>   5</c></rc>
    <rc><c>C </c><c>   5</c></rc>
    <rc><c>C </c><c>   5</c></rc>
    <rc><c>C </c><c>   5</c></rc>
    <rc><c>C </c><c>   5</c></rc>
    <rc><c>C </c><c>   5</c></rc>
    <rc><c>C </c><c>   5</c></rc>
    <rc><c>C </c><c>   5</c></rc>
    <rc><c>Cr</c><c>   6</c></rc>
    <rc><c>Cr</c><c>   6</c></rc>
    <rc><c>Cr</c><c>   6</c></rc>
    <rc><c>Cr</c><c>   6</c></rc>
    <rc><c>Cr</c><c>   6</c></rc>
    <rc><c>Cr</c><c>   6</c></rc>
    <rc><c>W </c><c>   7</c></rc>
    <rc><c>W </c><c>   7</c></rc>
    <rc><c>W </c><c>   7</c></rc>
    <rc><c>W </c><c>   7</c></rc>
    <rc><c>W </c><c>   7</c></rc>
    <rc><c>W </c><c>   7</c></rc>
   </set>
  </array>
  <array name="atomtypes" >
   <dimension dim="1">type</dimension>
   <field type="int">atomspertype</field>
   <field type="string">element</field>
   <field>mass</field>
   <field>valence</field>
   <field type="string">pseudopotential</field>
   <set>
    <rc><c>   7</c><c>Nb</c><c>     92.91000000</c><c>     13.00000000</c><c> PAW_PBE Nb_sv 17Jan2003                </c></rc>
    <rc><c>   6</c><c>Ta</c><c>    180.94800000</c><c>     11.00000000</c><c> PAW_PBE Ta_pv 07Sep2000                </c></rc>
    <rc><c>   7</c><c>Hf</c><c>    178.49000000</c><c>     10.00000000</c><c> PAW_PBE Hf_pv 06Sep2000                </c></rc>
    <rc><c>  13</c><c>N </c><c>     14.00100000</c><c>      5.00000000</c><c> PAW_PBE N 08Apr2002                    </c></rc>
    <rc><c>  19</c><c>C </c><c>     12.01100000</c><c>      4.00000000</c><c> PAW_PBE C 08Apr2002                    </c></rc>
    <rc><c>   6</c><c>Cr</c><c>     51.99600000</c><c>     12.00000000</c><c> PAW_PBE Cr_pv 07Sep2000                </c></rc>
    <rc><c>   6</c><c>W </c><c>    183.85000000</c><c>     12.00000000</c><c> PAW_PBE W_pv 06Sep2000                 </c></rc>
   </set>
  </array>
 </atominfo>
 <structure name="initialpos" >
  <crystal>
   <varray name="basis" >
    <v>       8.93249989       0.00000000       0.00000000 </v>
    <v>       0.00575300       9.05559834       0.00000000 </v>
    <v>       0.03210180      -0.01574346       8.93712807 </v>
   </varray>
   <i name="volume">    722.91652451 </i>
   <varray name="rec_basis" >
    <v>       0.11195074      -0.00007112      -0.00040225 </v>
    <v>       0.00000000       0.11042893       0.00019453 </v>
    <v>       0.00000000       0.00000000       0.11189277 </v>
   </varray>
  </crystal>
  <varray name="positions" >
   <v>       0.99688001       0.99204997       0.99924002 </v>
   <v>       0.25398003       0.99714995       0.24912000 </v>
   <v>       0.24803003       0.50165000       0.24955001 </v>
   <v>       0.50501006       0.49745998       0.99834003 </v>
   <v>       0.50479003       0.24631001       0.74710002 </v>
   <v>       0.99427992       0.50449999       0.49779000 </v>
   <v>       0.49950005       0.75481999       0.74817004 </v>
   <v>       0.99437004       0.23617001       0.26379999 </v>
   <v>       0.75718000       0.74102998       0.01100000 </v>
   <v>       0.00201000       0.25541000       0.73894001 </v>
   <v>       0.75307001       0.26163001       0.50533002 </v>
   <v>       0.99514004       0.74492004       0.74511997 </v>
   <v>       0.25679999       0.49462002       0.74545002 </v>
   <v>       0.24788999       0.24839000       0.99657997 </v>
   <v>       0.50833000       0.25676999       0.25376001 </v>
   <v>       0.74879004       0.98787999       0.26967001 </v>
   <v>       0.75719000       0.25603001       0.99591997 </v>
   <v>       0.24762001       0.74973999       0.99974006 </v>
   <v>       0.25272001       0.24823001       0.50015003 </v>
   <v>       0.24457999       0.75048999       0.49983999 </v>
   <v>       0.24982001       0.24942998       0.24825000 </v>
   <v>       0.26146999       0.99984002       0.99295996 </v>
   <v>       0.00281000       0.25024000       0.00130000 </v>
   <v>       0.75313998       0.24617000       0.25492002 </v>
   <v>       0.74767001       0.99748000       0.01202000 </v>
   <v>       0.50714994       0.99977000       0.24673000 </v>
   <v>       0.99051999       0.48088002       0.24100998 </v>
   <v>       0.50519005       0.76130999       0.00855000 </v>
   <v>       0.98896989       0.00202000       0.73708999 </v>
   <v>       0.75744996       0.24437997       0.74896999 </v>
   <v>       0.73632001       0.00417000       0.51063000 </v>
   <v>       0.50563996       0.23264999       0.49544997 </v>
   <v>       0.50008998       0.00061000       0.73471998 </v>
   <v>       0.99720000       0.99771992       0.25899999 </v>
   <v>       0.50427997       0.24673000       0.00262000 </v>
   <v>       0.25133999       0.74958002       0.24910999 </v>
   <v>       0.24328000       0.50072997       0.99510994 </v>
   <v>       0.99837005       0.74313996       0.00460000 </v>
   <v>       0.75633000       0.73891003       0.25767000 </v>
   <v>       0.75839004       0.50315998       0.00288000 </v>
   <v>       0.50700002       0.50333002       0.25878999 </v>
   <v>       0.24900999       0.25315000       0.74854000 </v>
   <v>       0.24446000       0.99823996       0.50287998 </v>
   <v>       0.99804009       0.24229999       0.50128003 </v>
   <v>       0.24177002       0.75340997       0.75018002 </v>
   <v>       0.25841001       0.50062002       0.50129001 </v>
   <v>       0.99000004       0.76215003       0.49746000 </v>
   <v>       0.99203996       0.50055999       0.75138002 </v>
   <v>       0.75036005       0.74888000       0.74756004 </v>
   <v>       0.74036002       0.50197000       0.50067003 </v>
   <v>       0.50575006       0.74958002       0.49720000 </v>
   <v>       0.50501003       0.50217998       0.73912003 </v>
   <v>       0.51588997       0.01358000       0.98075008 </v>
   <v>       0.99841994       0.50976998       0.98613004 </v>
   <v>       0.50379003       0.73926997       0.25905001 </v>
   <v>       0.23780002       0.01082000       0.74607998 </v>
   <v>       0.47957999       0.98308000       0.49717999 </v>
   <v>       0.74279003       0.97869994       0.76450995 </v>
   <v>       0.99864998       0.77573999       0.26102000 </v>
   <v>       0.73551001       0.51468004       0.26666001 </v>
   <v>       0.02362000       0.99783001       0.49557002 </v>
   <v>       0.50539000       0.52833005       0.49917999 </v>
   <v>       0.73876003       0.52828003       0.73814999 </v>
   <v>       0.75400003       0.72937999       0.49116997 </v>
  </varray>
 </structure>
 <calculation>
  <scstep>
   <time name="dav">   20.48   20.56</time>
   <time name="total">   20.52   20.60</time>
   <energy>
    <i name="alphaZ">   4311.70706476 </i>
    <i name="ewald"> -41855.10752452 </i>
    <i name="hartreedc">  -7147.31153054 </i>
    <i name="XCdc">   1758.09057647 </i>
    <i name="pawpsdc">  28559.57951195 </i>
    <i name="pawaedc"> -28491.33313261 </i>
    <i name="eentropy">     -0.08194097 </i>
    <i name="bandstr">   2392.23412349 </i>
    <i name="atom">  46857.32045255 </i>
    <i name="e_fr_energy">   6385.09760058 </i>
    <i name="e_wo_entrp">   6385.17954155 </i>
    <i name="e_0_energy">   6385.13857107 </i>
   </energy>
  </scstep>
  <scstep>
   <time name="dav">   22.09   22.12</time>
   <time name="total">   22.09   22.12</time>
   <energy>
    <i name="e_fr_energy">    256.63985519 </i>
    <i name="e_wo_entrp">    256.75485397 </i>
    <i name="e_0_energy">    256.69735458 </i>
   </energy>
  </scstep>
  <scstep>
   <time name="dav">   30.79   30.81</time>
   <time name="total">   30.79   30.82</time>
   <energy>
    <i name="e_fr_energy">   -692.80653739 </i>
    <i name="e_wo_entrp">   -692.68811594 </i>
    <i name="e_0_energy">   -692.74732666 </i>
   </energy>
  </scstep>
  <scstep>
   <time name="dav">   32.42   32.53</time>
   <time name="total">   32.42   32.53</time>
   <energy>
    <i name="e_fr_energy">   -784.93487658 </i>
    <i name="e_wo_entrp">   -784.81308851 </i>
    <i name="e_0_energy">   -784.87398255 </i>
   </energy>
  </scstep>
  <scstep>
   <time name="dav">   37.29   37.65</time>
   <time name="total">   37.54   37.90</time>
   <energy>
    <i name="e_fr_energy">   -797.85396041 </i>
    <i name="e_wo_entrp">   -797.73374271 </i>
    <i name="e_0_energy">   -797.79385156 </i>
   </energy>
  </scstep>
  <scstep>
   <time name="diag">    1.90    1.90</time>
   <time name="diis">   18.51   18.55</time>
   <time name="orth">    0.44    0.44</time>
   <time name="total">   21.13   21.18</time>
   <energy>
    <i name="e_fr_energy">   -978.57765469 </i>
    <i name="e_wo_entrp">   -978.41065782 </i>
    <i name="e_0_energy">   -978.49415626 </i>
   </energy>
  </scstep>
  <scstep>
   <time name="diag">    1.87    1.90</time>
   <time name="diis">   20.25   20.90</time>
   <time name="orth">    0.42    0.43</time>
   <time name="total">   22.82   23.52</time>
   <energy>
    <i name="e_fr_energy">   -666.67638638 </i>
    <i name="e_wo_entrp">   -666.55147963 </i>
    <i name="e_0_energy">   -666.61393301 </i>
   </energy>
  </scstep>
  <scstep>
   <time name="diag">    1.90    1.90</time>
   <time name="diis">   22.11   22.16</time>
   <time name="orth">    0.43    0.43</time>
   <time name="total">   24.72   24.77</time>
   <energy>
    <i name="e_fr_energy">   -673.39195827 </i>
    <i name="e_wo_entrp">   -673.25445845 </i>
    <i name="e_0_energy">   -673.32320836 </i>
   </energy>
  </scstep>
  <scstep>
   <time name="diag">    1.86    1.90</time>
   <time name="diis">   20.52   21.18</time>
   <time name="orth">    0.42    0.42</time>
   <time name="total">   23.09   23.80</time>
   <energy>
    <i name="e_fr_energy">   -668.16437476 </i>
    <i name="e_wo_entrp">   -667.96772675 </i>
    <i name="e_0_energy">   -668.06605075 </i>
   </energy>
  </scstep>
  <scstep>
   <time name="diag">    1.85    1.89</time>
   <time name="diis">   22.41   23.07</time>
   <time name="orth">    0.44    0.45</time>
   <time name="total">   24.99   25.70</time>
   <energy>
    <i name="e_fr_energy">   -664.49059343 </i>
    <i name="e_wo_entrp">   -664.28157280 </i>
    <i name="e_0_energy">   -664.38608311 </i>
   </energy>
  </scstep>
  <scstep>
   <time name="diag">    1.89    1.89</time>
   <time name="diis">   17.72   17.74</time>
   <time name="orth">    0.43    0.43</time>
   <time name="total">   20.32   20.35</time>
   <energy>
    <i name="e_fr_energy">   -666.75882922 </i>
    <i name="e_wo_entrp">   -666.58297731 </i>
    <i name="e_0_energy">   -666.67090327 </i>
   </energy>
  </scstep>
  <scstep>
   <time name="diag">    1.91    1.91</time>
   <time name="diis">   19.78   19.79</time>
   <time name="orth">    0.43    0.43</time>
   <time name="total">   22.41   22.42</time>
   <energy>
    <i name="e_fr_energy">   -663.85332165 </i>
    <i name="e_wo_entrp">   -663.63618574 </i>
    <i name="e_0_energy">   -663.74475369 </i>
   </energy>
  </scstep>
  <scstep>
   <time name="diag">    1.89    1.89</time>
   <time name="diis">   21.27   21.30</time>
   <time name="orth">    0.43    0.43</time>
   <time name="total">   23.87   23.91</time>
   <energy>
    <i name="e_fr_energy">   -664.66695981 </i>
    <i name="e_wo_entrp">   -664.46370084 </i>
    <i name="e_0_energy">   -664.56533033 </i>
   </energy>
  </scstep>
  <scstep>
   <time name="diag">    1.92    1.96</time>
   <time name="diis">   19.43   20.01</time>
   <time name="orth">    0.43    0.43</time>
   <time name="total">   22.06   22.70</time>
   <energy>
    <i name="e_fr_energy">   -663.62984836 </i>
    <i name="e_wo_entrp">   -663.43436905 </i>
    <i name="e_0_energy">   -663.53210871 </i>
   </energy>
  </scstep>
  <scstep>
   <time name="diag">    1.92    1.92</time>
   <time name="diis">   21.18   21.19</time>
   <time name="orth">    0.43    0.43</time>
   <time name="total">   23.82   23.82</time>
   <energy>
    <i name="e_fr_energy">   -663.54451454 </i>
    <i name="e_wo_entrp">   -663.33331520 </i>
    <i name="e_0_energy">   -663.43891487 </i>
   </energy>
  </scstep>
  <scstep>
   <time name="diag">    1.84    1.88</time>
   <time name="diis">   20.35   20.98</time>
   <time name="orth">    0.42    0.42</time>
   <time name="total">   22.90   23.58</time>
   <energy>
    <i name="e_fr_energy">   -663.35653269 </i>
    <i name="e_wo_entrp">   -663.14335593 </i>
    <i name="e_0_energy">   -663.24994431 </i>
   </energy>
  </scstep>
  <scstep>
   <time name="diag">    1.88    1.88</time>
   <time name="diis">   22.03   22.07</time>
   <time name="orth">    0.42    0.42</time>
   <time name="total">   24.62   24.65</time>
   <energy>
    <i name="e_fr_energy">   -663.43460762 </i>
    <i name="e_wo_entrp">   -663.22295338 </i>
    <i name="e_0_energy">   -663.32878050 </i>
   </energy>
  </scstep>
  <scstep>
   <time name="diag">    1.87    1.87</time>
   <time name="diis">   20.33   20.35</time>
   <time name="orth">    0.42    0.42</time>
   <time name="total">   22.91   22.93</time>
   <energy>
    <i name="e_fr_energy">   -663.38831252 </i>
    <i name="e_wo_entrp">   -663.17284331 </i>
    <i name="e_0_energy">   -663.28057792 </i>
   </energy>
  </scstep>
  <scstep>
   <time name="diag">    1.98    2.03</time>
   <time name="diis">   20.85   20.90</time>
   <time name="orth">    0.42    0.42</time>
   <time name="total">   23.55   23.65</time>
   <energy>
    <i name="e_fr_energy">   -663.38891030 </i>
    <i name="e_wo_entrp">   -663.17313866 </i>
    <i name="e_0_energy">   -663.28102448 </i>
   </energy>
  </scstep>
  <scstep>
   <time name="diag">    1.89    1.91</time>
   <time name="diis">   19.77   19.83</time>
   <time name="orth">    0.43    0.43</time>
   <time name="total">   22.37   22.46</time>
   <energy>
    <i name="e_fr_energy">   -663.37856577 </i>
    <i name="e_wo_entrp">   -663.16196600 </i>
    <i name="e_0_energy">   -663.27026588 </i>
   </energy>
  </scstep>
  <scstep>
   <time name="diag">    1.84    1.87</time>
   <time name="diis">   21.30   21.96</time>
   <time name="orth">    0.45    0.45</time>
   <time name="total">   23.87   24.58</time>
   <energy>
    <i name="e_fr_energy">   -663.38099063 </i>
    <i name="e_wo_entrp">   -663.16519477 </i>
    <i name="e_0_energy">   -663.27309270 </i>
   </energy>
  </scstep>
  <scstep>
   <time name="diag">    1.84    1.87</time>
   <time name="diis">   19.12   19.70</time>
   <time name="orth">    0.42    0.42</time>
   <time name="total">   21.67   22.29</time>
   <energy>
    <i name="e_fr_energy">   -663.38218862 </i>
    <i name="e_wo_entrp">   -663.16657923 </i>
    <i name="e_0_energy">   -663.27438392 </i>
   </energy>
  </scstep>
  <scstep>
   <time name="diag">    1.83    1.87</time>
   <time name="diis">   20.01   20.62</time>
   <time name="orth">    0.43    0.43</time>
   <time name="total">   22.56   23.22</time>
   <energy>
    <i name="e_fr_energy">   -663.38350303 </i>
    <i name="e_wo_entrp">   -663.16761927 </i>
    <i name="e_0_energy">   -663.27556115 </i>
   </energy>
  </scstep>
  <scstep>
   <time name="diag">    1.87    1.87</time>
   <time name="diis">   17.38   17.45</time>
   <time name="orth">    0.42    0.42</time>
   <time name="total">   19.96   20.04</time>
   <energy>
    <i name="e_fr_energy">   -663.38403454 </i>
    <i name="e_wo_entrp">   -663.16817619 </i>
    <i name="e_0_energy">   -663.27610537 </i>
   </energy>
  </scstep>
  <scstep>
   <time name="diag">    1.88    1.88</time>
   <time name="diis">   18.10   18.13</time>
   <time name="orth">    0.42    0.42</time>
   <time name="total">   20.69   20.73</time>
   <energy>
    <i name="e_fr_energy">   -663.38464158 </i>
    <i name="e_wo_entrp">   -663.16879778 </i>
    <i name="e_0_energy">   -663.27671968 </i>
   </energy>
  </scstep>
  <scstep>
   <time name="diag">    1.86    1.86</time>
   <time name="diis">   17.23   17.25</time>
   <time name="orth">    0.42    0.42</time>
   <time name="total">   19.80   19.83</time>
   <energy>
    <i name="e_fr_energy">   -663.38498310 </i>
    <i name="e_wo_entrp">   -663.16916364 </i>
    <i name="e_0_energy">   -663.27707337 </i>
   </energy>
  </scstep>
  <scstep>
   <time name="diag">    1.89    1.89</time>
   <time name="diis">   15.58   15.61</time>
   <time name="orth">    0.42    0.42</time>
   <time name="total">   18.18   18.22</time>
   <energy>
    <i name="e_fr_energy">   -663.38510919 </i>
    <i name="e_wo_entrp">   -663.16925345 </i>
    <i name="e_0_energy">   -663.27718132 </i>
   </energy>
  </scstep>
  <scstep>
   <time name="diag">    1.86    1.89</time>
   <time name="diis">   15.15   15.43</time>
   <time name="orth">    0.42    0.42</time>
   <time name="total">   17.72   18.04</time>
   <energy>
    <i name="e_fr_energy">   -663.38517321 </i>
    <i name="e_wo_entrp">   -663.16932044 </i>
    <i name="e_0_energy">   -663.27724683 </i>
   </energy>
  </scstep>
  <scstep>
   <time name="diag">    1.87    1.87</time>
   <time name="diis">   15.04   15.04</time>
   <time name="orth">    0.42    0.42</time>
   <time name="total">   17.62   17.63</time>
   <energy>
    <i name="e_fr_energy">   -663.38520976 </i>
    <i name="e_wo_entrp">   -663.16934356 </i>
    <i name="e_0_energy">   -663.27727666 </i>
   </energy>
  </scstep>
  <scstep>
   <time name="diag">    1.83    1.87</time>
   <time name="diis">   14.02   14.08</time>
   <time name="orth">    0.42    0.42</time>
   <time name="total">   16.56   16.66</time>
   <energy>
    <i name="e_fr_energy">   -663.38523050 </i>
    <i name="e_wo_entrp">   -663.16936323 </i>
    <i name="e_0_energy">   -663.27729686 </i>
   </energy>
  </scstep>
  <scstep>
   <time name="diag">    1.88    1.88</time>
   <time name="diis">   13.20   13.22</time>
   <time name="orth">    0.42    0.42</time>
   <time name="total">   15.79   15.81</time>
   <energy>
    <i name="e_fr_energy">   -663.38524386 </i>
    <i name="e_wo_entrp">   -663.16937480 </i>
    <i name="e_0_energy">   -663.27730933 </i>
   </energy>
  </scstep>
  <scstep>
   <time name="diag">    1.88    1.88</time>
   <time name="diis">   12.58   12.60</time>
   <time name="orth">    0.42    0.42</time>
   <time name="total">   14.91   14.93</time>
   <energy>
    <i name="alphaZ">   4311.70706476 </i>
    <i name="ewald"> -41855.10752452 </i>
    <i name="hartreedc">  -6675.71167773 </i>
    <i name="XCdc">   1747.84432267 </i>
    <i name="pawpsdc">  29809.62455785 </i>
    <i name="pawaedc"> -29799.07706615 </i>
    <i name="eentropy">     -0.21586705 </i>
    <i name="bandstr">  -5059.76951515 </i>
    <i name="atom">  46857.32045255 </i>
    <i name="e_fr_energy">   -663.38525278 </i>
    <i name="e_wo_entrp">   -663.16938572 </i>
    <i name="e_0_energy">   -663.27731925 </i>
   </energy>
  </scstep>
  <structure>
   <crystal>
    <varray name="basis" >
     <v>       8.93249989       0.00000000       0.00000000 </v>
     <v>       0.00575300       9.05559834       0.00000000 </v>
     <v>       0.03210180      -0.01574346       8.93712807 </v>
    </varray>
    <i name="volume">    722.91652451 </i>
    <varray name="rec_basis" >
     <v>       0.11195074      -0.00007112      -0.00040225 </v>
     <v>       0.00000000       0.11042893       0.00019453 </v>
     <v>       0.00000000       0.00000000       0.11189277 </v>
    </varray>
   </crystal>
   <varray name="positions" >
    <v>       0.99688001       0.99204997       0.99924002 </v>
    <v>       0.25398003       0.99714995       0.24912000 </v>
    <v>       0.24803003       0.50165000       0.24955001 </v>
    <v>       0.50501006       0.49745998       0.99834003 </v>
    <v>       0.50479003       0.24631001       0.74710002 </v>
    <v>       0.99427992       0.50449999       0.49779000 </v>
    <v>       0.49950005       0.75481999       0.74817004 </v>
    <v>       0.99437004       0.23617001       0.26379999 </v>
    <v>       0.75718000       0.74102998       0.01100000 </v>
    <v>       0.00201000       0.25541000       0.73894001 </v>
    <v>       0.75307001       0.26163001       0.50533002 </v>
    <v>       0.99514004       0.74492004       0.74511997 </v>
    <v>       0.25679999       0.49462002       0.74545002 </v>
    <v>       0.24788999       0.24839000       0.99657997 </v>
    <v>       0.50833000       0.25676999       0.25376001 </v>
    <v>       0.74879004       0.98787999       0.26967001 </v>
    <v>       0.75719000       0.25603001       0.99591997 </v>
    <v>       0.24762001       0.74973999       0.99974006 </v>
    <v>       0.25272001       0.24823001       0.50015003 </v>
    <v>       0.24457999       0.75048999       0.49983999 </v>
    <v>       0.24982001       0.24942998       0.24825000 </v>
    <v>       0.26146999       0.99984002       0.99295996 </v>
    <v>       0.00281000       0.25024000       0.00130000 </v>
    <v>       0.75313998       0.24617000       0.25492002 </v>
    <v>       0.74767001       0.99748000       0.01202000 </v>
    <v>       0.50714994       0.99977000       0.24673000 </v>
    <v>       0.99051999       0.48088002       0.24100998 </v>
    <v>       0.50519005       0.76130999       0.00855000 </v>
    <v>       0.98896989       0.00202000       0.73708999 </v>
    <v>       0.75744996       0.24437997       0.74896999 </v>
    <v>       0.73632001       0.00417000       0.51063000 </v>
    <v>       0.50563996       0.23264999       0.49544997 </v>
    <v>       0.50008998       0.00061000       0.73471998 </v>
    <v>       0.99720000       0.99771992       0.25899999 </v>
    <v>       0.50427997       0.24673000       0.00262000 </v>
    <v>       0.25133999       0.74958002       0.24910999 </v>
    <v>       0.24328000       0.50072997       0.99510994 </v>
    <v>       0.99837005       0.74313996       0.00460000 </v>
    <v>       0.75633000       0.73891003       0.25767000 </v>
    <v>       0.75839004       0.50315998       0.00288000 </v>
    <v>       0.50700002       0.50333002       0.25878999 </v>
    <v>       0.24900999       0.25315000       0.74854000 </v>
    <v>       0.24446000       0.99823996       0.50287998 </v>
    <v>       0.99804009       0.24229999       0.50128003 </v>
    <v>       0.24177002       0.75340997       0.75018002 </v>
    <v>       0.25841001       0.50062002       0.50129001 </v>
    <v>       0.99000004       0.76215003       0.49746000 </v>
    <v>       0.99203996       0.50055999       0.75138002 </v>
    <v>       0.75036005       0.74888000       0.74756004 </v>
    <v>       0.74036002       0.50197000       0.50067003 </v>
    <v>       0.50575006       0.74958002       0.49720000 </v>
    <v>       0.50501003       0.50217998       0.73912003 </v>
    <v>       0.51588997       0.01358000       0.98075008 </v>
    <v>       0.99841994       0.50976998       0.98613004 </v>
    <v>       0.50379003       0.73926997       0.25905001 </v>
    <v>       0.23780002       0.01082000       0.74607998 </v>
    <v>       0.47957999       0.98308000       0.49717999 </v>
    <v>       0.74279003       0.97869994       0.76450995 </v>
    <v>       0.99864998       0.77573999       0.26102000 </v>
    <v>       0.73551001       0.51468004       0.26666001 </v>
    <v>       0.02362000       0.99783001       0.49557002 </v>
    <v>       0.50539000       0.52833005       0.49917999 </v>
    <v>       0.73876003       0.52828003       0.73814999 </v>
    <v>       0.75400003       0.72937999       0.49116997 </v>
   </varray>
  </structure>
  <varray name="forces" >
   <v>       0.15109127      -0.30306909      -0.32758513 </v>
   <v>       0.00389198      -0.88244698      -0.24676507 </v>
   <v>       0.60779490       0.88969959      -0.47406401 </v>
   <v>      -0.39481176      -0.50711263      -0.10814552 </v>
   <v>      -0.64506823      -0.76281868       0.76263652 </v>
   <v>       0.38333639      -0.56708071       0.65058332 </v>
   <v>      -0.22737009       1.13589628       0.19343575 </v>
   <v>       0.62336288      -0.01154077      -0.55690072 </v>
   <v>      -0.62959662       0.78082920      -0.40044606 </v>
   <v>       0.43186009      -0.35612201       0.29454442 </v>
   <v>      -0.44580354      -0.74542074       0.59456698 </v>
   <v>       0.77774841       0.52054075       0.61563026 </v>
   <v>      -0.31648809       0.50712655       0.79855300 </v>
   <v>       0.36685754      -0.30416406       0.05753805 </v>
   <v>      -0.58962950      -1.19493237      -0.34909900 </v>
   <v>      -1.53610519       0.47163967      -0.52462021 </v>
   <v>      -0.41161655      -0.52559284      -0.53928933 </v>
   <v>       0.84589847       0.46477289       0.00372650 </v>
   <v>       0.65559374      -0.00969139      -0.01391028 </v>
   <v>       0.79765395      -0.00089602      -0.06003694 </v>
   <v>       0.08100218       0.09965854       0.10151863 </v>
   <v>      -0.41412842       0.10319912       0.17911474 </v>
   <v>      -0.10923846      -0.35612462       0.12451651 </v>
   <v>       0.02058144       0.02390616      -0.09200214 </v>
   <v>       0.06201952      -0.19385519      -0.82982184 </v>
   <v>      -0.83409350       0.04067938       0.32007351 </v>
   <v>       0.36610580      -0.00600577       0.46722576 </v>
   <v>       0.08116494      -0.36191816      -0.45494866 </v>
   <v>      -0.16009768       0.06965262       0.73868344 </v>
   <v>      -0.33929477      -0.02502250       0.04936608 </v>
   <v>       0.30353833       0.00286808      -0.07866735 </v>
   <v>      -0.09411561       0.08145543       0.40068171 </v>
   <v>       0.57849336      -0.01634318       0.56376790 </v>
   <v>       0.46846299       0.81144279      -1.22404061 </v>
   <v>      -0.02746838       0.20996956      -0.63939525 </v>
   <v>       0.16200454      -0.09701161       0.07511706 </v>
   <v>       0.36775442      -0.17778155       0.36403007 </v>
   <v>      -0.06080265       0.02900115      -0.00411250 </v>
   <v>      -0.71298390       0.79609030      -1.06676999 </v>
   <v>      -0.10052481      -0.01654032      -0.00363030 </v>
   <v>      -1.53227683       0.52889035      -0.96261945 </v>
   <v>       0.31046680      -0.60270178       0.02208201 </v>
   <v>       1.72749753      -0.02933606       0.48430034 </v>
   <v>       0.05881183       0.72270714      -0.04174612 </v>
   <v>       0.56566169       0.01462498       0.02869404 </v>
   <v>      -0.61426247      -0.09155409      -0.49632602 </v>
   <v>       0.68485913      -0.85681838       0.74922859 </v>
   <v>       0.22369439       0.00605619       0.04081775 </v>
   <v>      -0.49996836       1.65521446       0.38460234 </v>
   <v>       1.23358736      -1.11553215       0.50666289 </v>
   <v>      -0.44746375       1.44400896      -0.26298806 </v>
   <v>      -0.62815621      -0.38837397       0.93285755 </v>
   <v>       0.30011326       0.56745815      -0.76578818 </v>
   <v>       0.18966622       0.99853306      -0.78394573 </v>
   <v>       0.13364538      -0.56140799      -0.10897016 </v>
   <v>      -0.18951719       0.03975034       0.38288764 </v>
   <v>      -0.61326058      -0.25226339       0.22278575 </v>
   <v>      -0.73258216      -0.82892288       0.52933309 </v>
   <v>       0.80881273      -0.26887673      -1.17876159 </v>
   <v>       0.41501958      -0.55926393      -1.60521435 </v>
   <v>      -0.60115007       0.64810748       0.67473313 </v>
   <v>      -1.25868272      -0.62600745      -0.22617139 </v>
   <v>       0.39633978      -1.37720009       1.35481468 </v>
   <v>      -0.01783472       1.31597090       0.75767198 </v>
  </varray>
  <varray name="stress" >
   <v>    -102.17122593       1.80604186      -1.34922825 </v>
   <v>       1.80604148    -117.79489636       1.59509146 </v>
   <v>      -1.34922969       1.59509109     -96.27456727 </v>
  </varray>
  <energy>
   <i name="e_fr_energy">   -663.38525278 </i>
   <i name="e_wo_entrp">   -663.27731925 </i>
   <i name="e_0_energy">     -0.21586705 </i>
  </energy>
  <time name="totalsc">  761.94  769.24</time>
 </calculation>
 <calculation>
  <scstep>
   <time name="dav">   27.29   27.31</time>
   <time name="total">   27.58   27.60</time>
   <energy>
    <i name="alphaZ">   4810.90258889 </i>
    <i name="ewald"> -43451.36653907 </i>
    <i name="hartreedc">  -6892.21892248 </i>
    <i name="XCdc">   1818.71294755 </i>
    <i name="pawpsdc">  29809.64394384 </i>
    <i name="pawaedc"> -29799.07379859 </i>
    <i name="eentropy">     -0.12581644 </i>
    <i name="bandstr">  -3849.82956734 </i>
    <i name="atom">  46857.32045255 </i>
    <i name="e_fr_energy">   -696.03471108 </i>
    <i name="e_wo_entrp">   -695.90889465 </i>
    <i name="e_0_energy">   -695.97180287 </i>
   </energy>
  </scstep>
  <scstep>
   <time name="diag">    1.83    1.86</time>
   <time name="diis">   16.30   16.56</time>
   <time name="orth">    0.43    0.43</time>
   <time name="total">   18.84   19.14</time>
   <energy>
    <i name="e_fr_energy">   -851.93952689 </i>
    <i name="e_wo_entrp">   -851.83392812 </i>
    <i name="e_0_energy">   -851.88672751 </i>
   </energy>
  </scstep>
  <scstep>
   <time name="diag">    1.85    1.88</time>
   <time name="diis">   18.13   18.68</time>
   <time name="orth">    0.42    0.42</time>
   <time name="total">   20.68   21.28</time>
   <energy>
    <i name="e_fr_energy">   -669.31905069 </i>
    <i name="e_wo_entrp">   -669.16333035 </i>
    <i name="e_0_energy">   -669.24119052 </i>
   </energy>
  </scstep>
  <scstep>
   <time name="diag">    1.87    1.88</time>
   <time name="diis">   18.26   18.26</time>
   <time name="orth">    0.42    0.43</time>
   <time name="total">   20.83   20.85</time>
   <energy>
    <i name="e_fr_energy">   -677.11918991 </i>
    <i name="e_wo_entrp">   -676.97629031 </i>
    <i name="e_0_energy">   -677.04774011 </i>
   </energy>
  </scstep>
  <scstep>
   <time name="diag">    1.88    1.88</time>
   <time name="diis">   17.40   17.42</time>
   <time name="orth">    0.45    0.45</time>
   <time name="total">   20.00   20.03</time>
   <energy>
    <i name="e_fr_energy">   -666.87786252 </i>
    <i name="e_wo_entrp">   -666.73555095 </i>
    <i name="e_0_energy">   -666.80670674 </i>
   </energy>
  </scstep>
  <scstep>
   <time name="diag">    1.87    1.87</time>
   <time name="diis">   18.66   18.67</time>
   <time name="orth">    0.43    0.43</time>
   <time name="total">   21.23   21.25</time>
   <energy>
    <i name="e_fr_energy">   -665.68195027 </i>
    <i name="e_wo_entrp">   -665.53040111 </i>
    <i name="e_0_energy">   -665.60617569 </i>
   </energy>
  </scstep>
  <scstep>
   <time name="diag">    1.86    1.86</time>
   <time name="diis">   19.36   19.36</time>
   <time name="orth">    0.42    0.42</time>
   <time name="total">   21.92   21.93</time>
   <energy>
    <i name="e_fr_energy">   -664.00415743 </i>
    <i name="e_wo_entrp">   -663.84281167 </i>
    <i name="e_0_energy">   -663.92348455 </i>
   </energy>
  </scstep>
  <scstep>
   <time name="diag">    1.91    1.91</time>
   <time name="diis">   18.09   18.21</time>
   <time name="orth">    0.42    0.42</time>
   <time name="total">   20.70   20.82</time>
   <energy>
    <i name="e_fr_energy">   -664.42071343 </i>
    <i name="e_wo_entrp">   -664.27652649 </i>
    <i name="e_0_energy">   -664.34861996 </i>
   </energy>
  </scstep>
  <scstep>
   <time name="diag">    1.86    1.89</time>
   <time name="diis">   18.72   18.77</time>
   <time name="orth">    0.42    0.42</time>
   <time name="total">   21.27   21.36</time>
   <energy>
    <i name="e_fr_energy">   -663.48469269 </i>
    <i name="e_wo_entrp">   -663.32754292 </i>
    <i name="e_0_energy">   -663.40611780 </i>
   </energy>
  </scstep>
  <scstep>
   <time name="diag">    1.86    1.86</time>
   <time name="diis">   22.89   22.92</time>
   <time name="orth">    0.43    0.43</time>
   <time name="total">   25.47   25.51</time>
   <energy>
    <i name="e_fr_energy">   -663.55600668 </i>
    <i name="e_wo_entrp">   -663.39575250 </i>
    <i name="e_0_energy">   -663.47587959 </i>
   </energy>
  </scstep>
  <scstep>
   <time name="diag">    1.85    1.89</time>
   <time name="diis">   22.35   23.04</time>
   <time name="orth">    0.42    0.43</time>
   <time name="total">   24.91   25.64</time>
   <energy>
    <i name="e_fr_energy">   -663.46203481 </i>
    <i name="e_wo_entrp">   -663.30182112 </i>
    <i name="e_0_energy">   -663.38192796 </i>
   </energy>
  </scstep>
  <scstep>
   <time name="diag">    1.84    1.88</time>
   <time name="diis">   22.37   23.07</time>
   <time name="orth">    0.42    0.43</time>
   <time name="total">   24.92   25.67</time>
   <energy>
    <i name="e_fr_energy">   -663.48906068 </i>
    <i name="e_wo_entrp">   -663.32838201 </i>
    <i name="e_0_energy">   -663.40872134 </i>
   </energy>
  </scstep>
  <scstep>
   <time name="diag">    1.86    1.86</time>
   <time name="diis">   23.27   23.33</time>
   <time name="orth">    0.43    0.43</time>
   <time name="total">   25.86   25.93</time>
   <energy>
    <i name="e_fr_energy">   -663.50282584 </i>
    <i name="e_wo_entrp">   -663.34106937 </i>
    <i name="e_0_energy">   -663.42194761 </i>
   </energy>
  </scstep>
  <scstep>
   <time name="diag">    1.89    1.95</time>
   <time name="diis">   22.66   23.36</time>
   <time name="orth">    0.42    0.42</time>
   <time name="total">   25.26   26.04</time>
   <energy>
    <i name="e_fr_energy">   -663.49308738 </i>
    <i name="e_wo_entrp">   -663.33134473 </i>
    <i name="e_0_energy">   -663.41221606 </i>
   </energy>
  </scstep>
  <scstep>
   <time name="diag">    1.87    1.87</time>
   <time name="diis">   23.54   23.58</time>
   <time name="orth">    0.43    0.43</time>
   <time name="total">   26.12   26.17</time>
   <energy>
    <i name="e_fr_energy">   -663.49633930 </i>
    <i name="e_wo_entrp">   -663.33455101 </i>
    <i name="e_0_energy">   -663.41544515 </i>
   </energy>
  </scstep>
  <scstep>
   <time name="diag">    1.85    1.85</time>
   <time name="diis">   23.38   23.40</time>
   <time name="orth">    0.43    0.43</time>
   <time name="total">   25.94   25.96</time>
   <energy>
    <i name="e_fr_energy">   -663.49842539 </i>
    <i name="e_wo_entrp">   -663.33679143 </i>
    <i name="e_0_energy">   -663.41760841 </i>
   </energy>
  </scstep>
  <scstep>
   <time name="diag">    1.85    1.86</time>
   <time name="diis">   22.88   22.91</time>
   <time name="orth">    0.42    0.42</time>
   <time name="total">   25.44   25.48</time>
   <energy>
    <i name="e_fr_energy">   -663.49983993 </i>
    <i name="e_wo_entrp">   -663.33821216 </i>
    <i name="e_0_energy">   -663.41902604 </i>
   </energy>
  </scstep>
  <scstep>
   <time name="diag">    1.86    1.86</time>
   <time name="diis">   22.46   22.52</time>
   <time name="orth">    0.42    0.42</time>
   <time name="total">   25.02   25.09</time>
   <energy>
    <i name="e_fr_energy">   -663.50068777 </i>
    <i name="e_wo_entrp">   -663.33906787 </i>
    <i name="e_0_energy">   -663.41987782 </i>
   </energy>
  </scstep>
  <scstep>
   <time name="diag">    1.87    1.87</time>
   <time name="diis">   21.74   21.81</time>
   <time name="orth">    0.42    0.42</time>
   <time name="total">   24.32   24.38</time>
   <energy>
    <i name="e_fr_energy">   -663.50112681 </i>
    <i name="e_wo_entrp">   -663.33950032 </i>
    <i name="e_0_energy">   -663.42031356 </i>
   </energy>
  </scstep>
  <scstep>
   <time name="diag">    1.84    1.88</time>
   <time name="diis">   21.85   22.53</time>
   <time name="orth">    0.42    0.42</time>
   <time name="total">   24.39   25.13</time>
   <energy>
    <i name="e_fr_energy">   -663.50144483 </i>
    <i name="e_wo_entrp">   -663.33977290 </i>
    <i name="e_0_energy">   -663.42060886 </i>
   </energy>
  </scstep>
  <scstep>
   <time name="diag">    1.85    1.85</time>
   <time name="diis">   20.75   20.80</time>
   <time name="orth">    0.43    0.43</time>
   <time name="total">   23.31   23.38</time>
   <energy>
    <i name="e_fr_energy">   -663.50158663 </i>
    <i name="e_wo_entrp">   -663.33994123 </i>
    <i name="e_0_energy">   -663.42076393 </i>
   </energy>
  </scstep>
  <scstep>
   <time name="diag">    1.84    1.85</time>
   <time name="diis">   19.93   19.97</time>
   <time name="orth">    0.42    0.42</time>
   <time name="total">   22.48   22.53</time>
   <energy>
    <i name="e_fr_energy">   -663.50169830 </i>
    <i name="e_wo_entrp">   -663.34003689 </i>
    <i name="e_0_energy">   -663.42086759 </i>
   </energy>
  </scstep>
  <scstep>
   <time name="diag">    1.87    1.88</time>
   <time name="diis">   19.88   19.95</time>
   <time name="orth">    0.44    0.45</time>
   <time name="total">   22.47   22.57</time>
   <energy>
    <i name="e_fr_energy">   -663.50175805 </i>
    <i name="e_wo_entrp">   -663.34010132 </i>
    <i name="e_0_energy">   -663.42092968 </i>
   </energy>
  </scstep>
  <scstep>
   <time name="diag">    1.86    1.86</time>
   <time name="diis">   18.77   18.80</time>
   <time name="orth">    0.42    0.42</time>
   <time name="total">   21.34   21.36</time>
   <energy>
    <i name="e_fr_energy">   -663.50179821 </i>
    <i name="e_wo_entrp">   -663.34014387 </i>
    <i name="e_0_energy">   -663.42097104 </i>
   </energy>
  </scstep>
  <scstep>
   <time name="diag">    1.82    1.86</time>
   <time name="diis">   16.55   17.09</time>
   <time name="orth">    0.42    0.42</time>
   <time name="total">   19.09   19.67</time>
   <energy>
    <i name="e_fr_energy">   -663.50182165 </i>
    <i name="e_wo_entrp">   -663.34017171 </i>
    <i name="e_0_energy">   -663.42099668 </i>
   </energy>
  </scstep>
  <scstep>
   <time name="diag">    1.87    1.88</time>
   <time name="diis">   16.77   16.87</time>
   <time name="orth">    0.42    0.42</time>
   <time name="total">   19.36   19.45</time>
   <energy>
    <i name="e_fr_energy">   -663.50183694 </i>
    <i name="e_wo_entrp">   -663.34018733 </i>
    <i name="e_0_energy">   -663.42101214 </i>
   </energy>
  </scstep>
  <scstep>
   <time name="diag">    1.86    1.86</time>
   <time name="diis">   14.69   15.13</time>
   <time name="orth">    0.42    0.42</time>
   <time name="total">   17.01   17.45</time>
   <energy>
    <i name="alphaZ">   4810.90258889 </i>
    <i name="ewald"> -43451.36653907 </i>
    <i name="hartreedc">  -6165.21698719 </i>
    <i name="XCdc">   1777.47033507 </i>
    <i name="pawpsdc">  30997.44480161 </i>
    <i name="pawaedc"> -30989.50810942 </i>
    <i name="eentropy">     -0.16164939 </i>
    <i name="bandstr">  -4500.38673943 </i>
    <i name="atom">  46857.32045255 </i>
    <i name="e_fr_energy">   -663.50184638 </i>
    <i name="e_wo_entrp">   -663.34019698 </i>
    <i name="e_0_energy">   -663.42102168 </i>
   </energy>
  </scstep>
  <structure>
   <crystal>
    <varray name="basis" >
     <v>       8.62209367       0.00548693      -0.00409909 </v>
     <v>       0.01111562       8.69279758       0.00491019 </v>
     <v>       0.02687537      -0.01024444       8.64446166 </v>
    </varray>
    <i name="volume">    647.90426087 </i>
    <varray name="rec_basis" >
     <v>       0.11598103      -0.00014810      -0.00036076 </v>
     <v>      -0.00007314       0.11503778       0.00013656 </v>
     <v>       0.00005504      -0.00006541       0.11568075 </v>
    </varray>
   </crystal>
   <varray name="positions" >
    <v>       0.99770342       0.99043233       0.99747171 </v>
    <v>       0.25400887       0.99244650       0.24778796 </v>
    <v>       0.25131875       0.50638533       0.24699101 </v>
    <v>       0.50288160       0.49475738       0.99775626 </v>
    <v>       0.50129396       0.24225334       0.75121673 </v>
    <v>       0.99633957       0.50148504       0.50130185 </v>
    <v>       0.49826442       0.76087316       0.74921421 </v>
    <v>       0.99774754       0.23610330       0.26079384 </v>
    <v>       0.75378476       0.74518599       0.00883839 </v>
    <v>       0.00433790       0.25351557       0.74052996 </v>
    <v>       0.75065334       0.25766445       0.50853950 </v>
    <v>       0.99932678       0.74769893       0.74844315 </v>
    <v>       0.25507347       0.49732917       0.74976062 </v>
    <v>       0.24987124       0.24677014       0.99689056 </v>
    <v>       0.50515641       0.25040085       0.25187557 </v>
    <v>       0.74050240       0.99038768       0.26683811 </v>
    <v>       0.75497921       0.25322491       0.99300888 </v>
    <v>       0.25218687       0.75221605       0.99976017 </v>
    <v>       0.25626104       0.24817825       0.50007495 </v>
    <v>       0.24888913       0.75048465       0.49951591 </v>
    <v>       0.25025518       0.24996185       0.24879799 </v>
    <v>       0.25922953       0.00039148       0.99392683 </v>
    <v>       0.00221883       0.24834396       0.00197214 </v>
    <v>       0.75325284       0.24629649       0.25442339 </v>
    <v>       0.74802174       0.99643947       0.00754062 </v>
    <v>       0.50263881       0.99998971       0.24845776 </v>
    <v>       0.99248821       0.48085241       0.24353207 </v>
    <v>       0.50563848       0.75937764       0.00609419 </v>
    <v>       0.98809066       0.00239800       0.74107741 </v>
    <v>       0.75561662       0.24424713       0.74923647 </v>
    <v>       0.73796088       0.00418454       0.51020536 </v>
    <v>       0.50512360       0.23308769       0.49761285 </v>
    <v>       0.50320342       0.00052822       0.73776320 </v>
    <v>       0.99975104       0.00203130       0.25239262 </v>
    <v>       0.50414331       0.24784258      -0.00083146 </v>
    <v>       0.25221382       0.74906390       0.24951547 </v>
    <v>       0.24525972       0.49978628       0.99707498 </v>
    <v>       0.99804164       0.74329442       0.00457780 </v>
    <v>       0.75249728       0.74314110       0.25191157 </v>
    <v>       0.75784725       0.50307183       0.00286040 </v>
    <v>       0.49874136       0.50613859       0.25359376 </v>
    <v>       0.25068840       0.24993939       0.74865920 </v>
    <v>       0.25378057       0.99808822       0.50549423 </v>
    <v>       0.99835605       0.24614974       0.50105469 </v>
    <v>       0.24482444       0.75348815       0.75033491 </v>
    <v>       0.25510244       0.50012762       0.49861084 </v>
    <v>       0.99368722       0.75759246       0.50150434 </v>
    <v>       0.99324728       0.50059264       0.75160035 </v>
    <v>       0.74764668       0.75770157       0.74963612 </v>
    <v>       0.74701637       0.49603189       0.50340500 </v>
    <v>       0.50333354       0.75727034       0.49578039 </v>
    <v>       0.50160071       0.50011972       0.74415560 </v>
    <v>       0.51752373       0.01659588       0.97661635 </v>
    <v>       0.99945608       0.51508220       0.98189829 </v>
    <v>       0.50451586       0.73627811       0.25846179 </v>
    <v>       0.23676891       0.01103536       0.74814681 </v>
    <v>       0.47626444       0.98173819       0.49838259 </v>
    <v>       0.73882607       0.97428891       0.76736729 </v>
    <v>       0.00304201       0.77429652       0.25465704 </v>
    <v>       0.73778452       0.51168556       0.25799506 </v>
    <v>       0.02035799       0.00128906       0.49921223 </v>
    <v>       0.49859864       0.52499295       0.49795912 </v>
    <v>       0.74087902       0.52095587       0.74546329 </v>
    <v>       0.75388449       0.73639778       0.49525989 </v>
   </varray>
  </structure>
  <varray name="forces" >
   <v>       0.50112832       0.15479894      -0.61636293 </v>
   <v>      -0.04633592       0.01870109       0.13658226 </v>
   <v>       0.07537049       0.20315250      -0.34854373 </v>
   <v>      -0.23081035      -0.07987907       0.10556200 </v>
   <v>      -0.47450061      -0.42998829       0.11054448 </v>
   <v>       0.78509734      -0.36019978       0.28545273 </v>
   <v>      -0.10665494       0.31965938      -0.14569925 </v>
   <v>       0.54401255       0.70994683      -0.84456123 </v>
   <v>      -0.67386079       0.70003230      -0.68815529 </v>
   <v>       0.38487914      -0.69591731       0.90114345 </v>
   <v>      -0.22238029      -0.98356945       0.11061715 </v>
   <v>       0.04903548       0.54360652       0.75282277 </v>
   <v>      -0.70640279       0.23835607       0.28575448 </v>
   <v>      -0.06744048      -0.23685645       0.26855828 </v>
   <v>      -0.58275651      -0.10577480      -0.33793677 </v>
   <v>       0.21859032       0.35095292      -0.77834962 </v>
   <v>       0.01738063      -0.54772026       0.09387359 </v>
   <v>       0.63485274       0.29154039       0.03913624 </v>
   <v>       0.04809873       0.04345491      -0.08432155 </v>
   <v>      -0.07317863       0.11613302       0.10024514 </v>
   <v>       0.07706561       0.02886053       0.00371328 </v>
   <v>       0.04818569      -0.00814281      -0.07183297 </v>
   <v>      -0.03099164       0.12349437       0.15937431 </v>
   <v>      -0.18604585       0.08976599      -0.18339086 </v>
   <v>      -0.24750704       0.02067409      -0.70279241 </v>
   <v>      -0.79276533      -0.34779257      -0.10500025 </v>
   <v>       0.12874896       0.93442620       0.07402222 </v>
   <v>      -0.11020200       0.10572362      -0.19847878 </v>
   <v>      -0.21596957       0.01006026       0.55432520 </v>
   <v>      -0.27623527       0.15653743       0.00724756 </v>
   <v>       0.57833633      -0.37059423       0.52349129 </v>
   <v>       0.03654504       0.43380331       0.27666459 </v>
   <v>       0.32428514       0.08595341       0.51860275 </v>
   <v>      -0.33935183      -0.28804088      -0.40804781 </v>
   <v>      -0.20276509      -0.11655904       0.00643727 </v>
   <v>       0.73161791      -0.07603873      -0.11714332 </v>
   <v>      -0.19333422       0.01609769       0.30777205 </v>
   <v>       0.47917994      -0.22540400       0.11301632 </v>
   <v>      -0.56227421       0.39732840       0.16160577 </v>
   <v>       0.33899385      -0.27548691       0.10629923 </v>
   <v>      -0.36325575       0.03495366      -0.46739014 </v>
   <v>       0.30787176      -0.48568213       0.09118175 </v>
   <v>       0.44340760       0.14585105       0.63345050 </v>
   <v>       0.30833598       0.56498300      -0.13338522 </v>
   <v>       0.55515613       0.50194541       0.05903632 </v>
   <v>      -0.52981845      -0.10312975      -0.06085897 </v>
   <v>       0.49499800      -0.43182523      -0.16875892 </v>
   <v>       0.41797473       0.02386549       0.30461762 </v>
   <v>       0.14313807      -0.07513291      -0.15153008 </v>
   <v>      -0.16300815       0.36861631      -0.31766719 </v>
   <v>       0.07846184       0.78634565      -0.45060268 </v>
   <v>      -0.14106337      -0.13616336       0.22738442 </v>
   <v>      -0.03779538       0.09095854      -0.45562199 </v>
   <v>       0.14719371       0.38322201      -0.54782586 </v>
   <v>      -0.16316626      -0.31560575      -0.13405302 </v>
   <v>      -0.40624961      -0.52913264       0.31301591 </v>
   <v>       0.26084890       0.33188673       0.06400885 </v>
   <v>      -0.70406991       0.64529868       0.62739018 </v>
   <v>       0.02687401      -1.09314317      -0.63779141 </v>
   <v>      -0.05394463      -0.75026661      -1.02604485 </v>
   <v>      -0.44202447       0.46526000       0.08262508 </v>
   <v>       0.18688250      -1.15254953      -0.33015528 </v>
   <v>       0.45187934      -0.56825085       1.57582321 </v>
   <v>      -0.47826745       0.35259984       0.53090415 </v>
  </varray>
  <varray name="stress" >
   <v>     248.78389233      -1.45413870       0.21128346 </v>
   <v>      -1.45413950     240.60909701      -0.07144561 </v>
   <v>       0.21128476      -0.07144582     237.14738275 </v>
  </varray>
  <energy>
   <i name="e_fr_energy">   -663.50184638 </i>
   <i name="e_wo_entrp">   -663.42102168 </i>
   <i name="e_0_energy">     -0.16164939 </i>
  </energy>
  <time name="totalsc">  659.61  665.62</time>
 </calculation>
 <calculation>
  <scstep>
   <time name="dav">   26.83   27.56</time>
   <time name="total">   27.12   27.86</time>
   <energy>
    <i name="alphaZ">   4561.88263213 </i>
    <i name="ewald"> -42683.73635667 </i>
    <i name="hartreedc">  -6057.73767737 </i>
    <i name="XCdc">   1743.54035348 </i>
    <i name="pawpsdc">  30997.48385196 </i>
    <i name="pawaedc"> -30989.51239106 </i>
    <i name="eentropy">     -0.17061823 </i>
    <i name="bandstr">  -5104.51352769 </i>
    <i name="atom">  46857.32045255 </i>
    <i name="e_fr_energy">   -675.44328090 </i>
    <i name="e_wo_entrp">   -675.27266267 </i>
    <i name="e_0_energy">   -675.35797179 </i>
   </energy>
  </scstep>
  <scstep>
   <time name="diag">    1.87    1.87</time>
   <time name="diis">   20.57   20.65</time>
   <time name="orth">    0.42    0.42</time>
   <time name="total">   23.15   23.23</time>
   <energy>
    <i name="e_fr_energy">   -796.58333706 </i>
    <i name="e_wo_entrp">   -796.43483112 </i>
    <i name="e_0_energy">   -796.50908409 </i>
   </energy>
  </scstep>
  <scstep>
   <time name="diag">    1.84    1.88</time>
   <time name="diis">   17.51   17.62</time>
   <time name="orth">    0.42    0.42</time>
   <time name="total">   20.05   20.20</time>
   <energy>
    <i name="e_fr_energy">   -674.06992189 </i>
    <i name="e_wo_entrp">   -673.91851179 </i>
    <i name="e_0_energy">   -673.99421684 </i>
   </energy>
  </scstep>
  <scstep>
   <time name="diag">    1.85    1.89</time>
   <time name="diis">   17.66   18.20</time>
   <time name="orth">    0.43    0.43</time>
   <time name="total">   20.23   20.84</time>
   <energy>
    <i name="e_fr_energy">   -672.58094658 </i>
    <i name="e_wo_entrp">   -672.46151604 </i>
    <i name="e_0_energy">   -672.52123131 </i>
   </energy>
  </scstep>
  <scstep>
   <time name="diag">    1.91    1.93</time>
   <time name="diis">   17.67   17.72</time>
   <time name="orth">    0.43    0.43</time>
   <time name="total">   20.28   20.37</time>
   <energy>
    <i name="e_fr_energy">   -672.75993718 </i>
    <i name="e_wo_entrp">   -672.61121785 </i>
    <i name="e_0_energy">   -672.68557751 </i>
   </energy>
  </scstep>
  <scstep>
   <time name="diag">    1.86    1.86</time>
   <time name="diis">   16.90   16.93</time>
   <time name="orth">    0.42    0.42</time>
   <time name="total">   19.47   19.50</time>
   <energy>
    <i name="e_fr_energy">   -667.21553546 </i>
    <i name="e_wo_entrp">   -667.03932611 </i>
    <i name="e_0_energy">   -667.12743078 </i>
   </energy>
  </scstep>
  <scstep>
   <time name="diag">    1.89    1.90</time>
   <time name="diis">   18.61   18.63</time>
   <time name="orth">    0.43    0.43</time>
   <time name="total">   21.24   21.26</time>
   <energy>
    <i name="e_fr_energy">   -666.36789515 </i>
    <i name="e_wo_entrp">   -666.18814610 </i>
    <i name="e_0_energy">   -666.27802063 </i>
   </energy>
  </scstep>
  <scstep>
   <time name="diag">    1.88    1.93</time>
   <time name="diis">   19.36   19.95</time>
   <time name="orth">    0.42    0.42</time>
   <time name="total">   21.94   22.61</time>
   <energy>
    <i name="e_fr_energy">   -666.26174691 </i>
    <i name="e_wo_entrp">   -666.08867930 </i>
    <i name="e_0_energy">   -666.17521311 </i>
   </energy>
  </scstep>
  <scstep>
   <time name="diag">    1.89    1.90</time>
   <time name="diis">   19.55   19.56</time>
   <time name="orth">    0.42    0.42</time>
   <time name="total">   22.15   22.16</time>
   <energy>
    <i name="e_fr_energy">   -665.72486188 </i>
    <i name="e_wo_entrp">   -665.53885722 </i>
    <i name="e_0_energy">   -665.63185955 </i>
   </energy>
  </scstep>
  <scstep>
   <time name="diag">    1.86    1.86</time>
   <time name="diis">   21.54   21.56</time>
   <time name="orth">    0.42    0.42</time>
   <time name="total">   24.11   24.14</time>
   <energy>
    <i name="e_fr_energy">   -665.76640244 </i>
    <i name="e_wo_entrp">   -665.58143531 </i>
    <i name="e_0_energy">   -665.67391887 </i>
   </energy>
  </scstep>
  <scstep>
   <time name="diag">    1.87    1.91</time>
   <time name="diis">   20.43   21.15</time>
   <time name="orth">    0.42    0.42</time>
   <time name="total">   23.01   23.79</time>
   <energy>
    <i name="e_fr_energy">   -665.71447123 </i>
    <i name="e_wo_entrp">   -665.52928192 </i>
    <i name="e_0_energy">   -665.62187658 </i>
   </energy>
  </scstep>
  <scstep>
   <time name="diag">    1.87    1.88</time>
   <time name="diis">   19.99   20.02</time>
   <time name="orth">    0.43    0.43</time>
   <time name="total">   22.58   22.61</time>
   <energy>
    <i name="e_fr_energy">   -665.68373593 </i>
    <i name="e_wo_entrp">   -665.49535760 </i>
    <i name="e_0_energy">   -665.58954677 </i>
   </energy>
  </scstep>
  <scstep>
   <time name="diag">    1.86    1.86</time>
   <time name="diis">   22.96   22.99</time>
   <time name="orth">    0.42    0.42</time>
   <time name="total">   25.52   25.57</time>
   <energy>
    <i name="e_fr_energy">   -665.66419395 </i>
    <i name="e_wo_entrp">   -665.47579007 </i>
    <i name="e_0_energy">   -665.56999201 </i>
   </energy>
  </scstep>
  <scstep>
   <time name="diag">    1.87    1.87</time>
   <time name="diis">   22.65   22.69</time>
   <time name="orth">    0.43    0.43</time>
   <time name="total">   25.24   25.28</time>
   <energy>
    <i name="e_fr_energy">   -665.66636996 </i>
    <i name="e_wo_entrp">   -665.47768247 </i>
    <i name="e_0_energy">   -665.57202621 </i>
   </energy>
  </scstep>
  <scstep>
   <time name="diag">    1.84    1.87</time>
   <time name="diis">   19.37   19.99</time>
   <time name="orth">    0.42    0.43</time>
   <time name="total">   21.95   22.62</time>
   <energy>
    <i name="e_fr_energy">   -665.66852495 </i>
    <i name="e_wo_entrp">   -665.48065756 </i>
    <i name="e_0_energy">   -665.57459125 </i>
   </energy>
  </scstep>
  <scstep>
   <time name="diag">    1.93    1.96</time>
   <time name="diis">   22.99   23.00</time>
   <time name="orth">    0.42    0.42</time>
   <time name="total">   25.63   25.67</time>
   <energy>
    <i name="e_fr_energy">   -665.66912771 </i>
    <i name="e_wo_entrp">   -665.48092468 </i>
    <i name="e_0_energy">   -665.57502619 </i>
   </energy>
  </scstep>
  <scstep>
   <time name="diag">    1.86    1.87</time>
   <time name="diis">   23.01   23.04</time>
   <time name="orth">    0.43    0.43</time>
[...]
      </set>
     </set>
    </set>
   </array>
  </eigenvalues>
  <separator name="orbital magnetization" >
   <v name="MAGDIPOLOUT">      0.00000000      0.00000000      0.00000000</v>
  </separator>
  <dos>
   <i name="efermi">      9.14790704 </i>
   <total>
    <array>
     <dimension dim="1">gridpoints</dimension>
     <dimension dim="2">spin</dimension>
     <field>energy</field>
     <field>total</field>
     <field>integrated</field>
     <set>
      <set comment="spin 1">
       <r>   -49.8205     0.0000     0.0000 </r>
       <r>   -49.6044     0.0000     0.0000 </r>
       <r>   -49.3883     0.0000     0.0000 </r>
       <r>   -49.1723     0.0000     0.0000 </r>
       <r>   -48.9562     0.0000     0.0000 </r>
       <r>   -48.7401     0.0000     0.0000 </r>
       <r>   -48.5241     0.0000     0.0000 </r>
       <r>   -48.3080     0.0000     0.0000 </r>
       <r>   -48.0919     0.0000     0.0000 </r>
       <r>   -47.8759     0.0000     0.0000 </r>
       <r>   -47.6598     0.0000     0.0000 </r>
       <r>   -47.4438     0.0000     0.0000 </r>
       <r>   -47.2277     0.0000     0.0000 </r>
       <r>   -47.0116     0.2432     0.0526 </r>
       <r>   -46.7956    11.9660     2.6380 </r>
       <r>   -46.5795    34.5187    10.0963 </r>
       <r>   -46.3634    18.0119    13.9880 </r>
       <r>   -46.1474     0.0554    14.0000 </r>
       <r>   -45.9313     0.0000    14.0000 </r>
       <r>   -45.7152     0.0000    14.0000 </r>
       <r>   -45.4992     0.0000    14.0000 </r>
       <r>   -45.2831     0.0000    14.0000 </r>
       <r>   -45.0670     0.0000    14.0000 </r>
       <r>   -44.8510     0.0000    14.0000 </r>
       <r>   -44.6349     0.0000    14.0000 </r>
       <r>   -44.4188     0.0000    14.0000 </r>
       <r>   -44.2028     0.0000    14.0000 </r>
       <r>   -43.9867     0.0000    14.0000 </r>
       <r>   -43.7706     0.0000    14.0000 </r>
       <r>   -43.5546     0.0000    14.0000 </r>
       <r>   -43.3385     0.0000    14.0000 </r>
       <r>   -43.1224     0.0000    14.0000 </r>
       <r>   -42.9064     0.0000    14.0000 </r>
       <r>   -42.6903     0.0000    14.0000 </r>
       <r>   -42.4742     0.0000    14.0000 </r>
       <r>   -42.2582     0.0000    14.0000 </r>
       <r>   -42.0421     0.0000    14.0000 </r>
       <r>   -41.8260     0.0000    14.0000 </r>
       <r>   -41.6100     0.0000    14.0000 </r>
       <r>   -41.3939     0.0000    14.0000 </r>
       <r>   -41.1779     0.0000    14.0000 </r>
       <r>   -40.9618     0.0000    14.0000 </r>
       <r>   -40.7457     0.0000    14.0000 </r>
       <r>   -40.5297     0.0000    14.0000 </r>
       <r>   -40.3136     0.0000    14.0000 </r>
       <r>   -40.0975     0.0000    14.0000 </r>
       <r>   -39.8815     0.0000    14.0000 </r>
       <r>   -39.6654     0.0000    14.0000 </r>
       <r>   -39.4493     0.0000    14.0000 </r>
       <r>   -39.2333     0.0000    14.0000 </r>
       <r>   -39.0172     0.0000    14.0000 </r>
       <r>   -38.8011     0.0000    14.0000 </r>
       <r>   -38.5851     0.0000    14.0000 </r>
       <r>   -38.3690     0.0000    14.0000 </r>
       <r>   -38.1529     0.0000    14.0000 </r>
       <r>   -37.9369     0.0000    14.0000 </r>
       <r>   -37.7208     0.0000    14.0000 </r>
       <r>   -37.5047     0.0000    14.0000 </r>
       <r>   -37.2887     0.0000    14.0000 </r>
       <r>   -37.0726     0.0000    14.0000 </r>
       <r>   -36.8565     0.0000    14.0000 </r>
       <r>   -36.6405     0.0000    14.0000 </r>
       <r>   -36.4244     0.0000    14.0000 </r>
       <r>   -36.2083     0.0000    14.0000 </r>
       <r>   -35.9923     0.0000    14.0000 </r>
       <r>   -35.7762     0.0000    14.0000 </r>
       <r>   -35.5602     0.0000    14.0000 </r>
       <r>   -35.3441     0.0000    14.0000 </r>
       <r>   -35.1280     0.0000    14.0000 </r>
       <r>   -34.9120     0.0004    14.0001 </r>
       <r>   -34.6959     1.9891    14.4299 </r>
       <r>   -34.4798    38.0275    22.6463 </r>
       <r>   -34.2638   105.0744    45.3492 </r>
       <r>   -34.0477    21.4412    49.9820 </r>
       <r>   -33.8316     0.0835    50.0000 </r>
       <r>   -33.6156     0.0000    50.0000 </r>
       <r>   -33.3995     0.0000    50.0000 </r>
       <r>   -33.1834     0.0000    50.0000 </r>
       <r>   -32.9674     0.0000    50.0000 </r>
       <r>   -32.7513     0.0000    50.0000 </r>
       <r>   -32.5352     0.0000    50.0000 </r>
       <r>   -32.3192     0.0000    50.0000 </r>
       <r>   -32.1031     0.0000    50.0000 </r>
       <r>   -31.8870     0.0000    50.0000 </r>
       <r>   -31.6710     0.0000    50.0000 </r>
       <r>   -31.4549     0.0000    50.0000 </r>
       <r>   -31.2388     0.0000    50.0000 </r>
       <r>   -31.0228     0.0000    50.0000 </r>
       <r>   -30.8067     0.0000    50.0000 </r>
       <r>   -30.5906     0.0005    50.0001 </r>
       <r>   -30.3746     3.6164    50.7815 </r>
       <r>   -30.1585    67.7048    65.4102 </r>
       <r>   -29.9424    73.1198    81.2088 </r>
       <r>   -29.7264    22.0657    85.9765 </r>
       <r>   -29.5103     0.1088    86.0000 </r>
       <r>   -29.2943     0.0000    86.0000 </r>
       <r>   -29.0782     0.0000    86.0000 </r>
       <r>   -28.8621     0.0000    86.0000 </r>
       <r>   -28.6461     0.0000    86.0000 </r>
       <r>   -28.4300     0.0000    86.0000 </r>
       <r>   -28.2139     0.0000    86.0000 </r>
       <r>   -27.9979     0.0000    86.0000 </r>
       <r>   -27.7818     0.0000    86.0000 </r>
       <r>   -27.5657     0.0000    86.0000 </r>
       <r>   -27.3497     0.0000    86.0000 </r>
       <r>   -27.1336     0.0000    86.0000 </r>
       <r>   -26.9175     0.0017    86.0004 </r>
       <r>   -26.7015     3.8335    86.8287 </r>
       <r>   -26.4854    32.5207    93.8553 </r>
       <r>   -26.2693    34.3932   101.2864 </r>
       <r>   -26.0533    56.3388   113.4593 </r>
       <r>   -25.8372    36.6888   121.3865 </r>
       <r>   -25.6211     2.8390   121.9999 </r>
       <r>   -25.4051     0.0004   122.0000 </r>
       <r>   -25.1890     0.0000   122.0000 </r>
       <r>   -24.9729     0.0000   122.0000 </r>
       <r>   -24.7569     0.0000   122.0000 </r>
       <r>   -24.5408     0.0000   122.0000 </r>
       <r>   -24.3247     0.0000   122.0000 </r>
       <r>   -24.1087     0.0000   122.0000 </r>
       <r>   -23.8926     0.0000   122.0000 </r>
       <r>   -23.6765     0.0000   122.0000 </r>
       <r>   -23.4605     0.0000   122.0000 </r>
       <r>   -23.2444     0.2679   122.0579 </r>
       <r>   -23.0284    24.6460   127.3830 </r>
       <r>   -22.8123    87.7970   146.3529 </r>
       <r>   -22.5962    69.3157   161.3297 </r>
       <r>   -22.3802    12.2997   163.9872 </r>
       <r>   -22.1641     6.9018   165.4785 </r>
       <r>   -21.9480    30.5339   172.0758 </r>
       <r>   -21.7320    41.8168   181.1110 </r>
       <r>   -21.5159    23.9218   186.2796 </r>
       <r>   -21.2998    58.3982   198.8975 </r>
       <r>   -21.0838    18.5758   202.9111 </r>
       <r>   -20.8677    14.2410   205.9880 </r>
       <r>   -20.6516     0.0553   206.0000 </r>
       <r>   -20.4356     0.0000   206.0000 </r>
       <r>   -20.2195     0.0000   206.0000 </r>
       <r>   -20.0034     0.0000   206.0000 </r>
       <r>   -19.7874     0.0000   206.0000 </r>
       <r>   -19.5713     0.0000   206.0000 </r>
       <r>   -19.3552     0.0000   206.0000 </r>
       <r>   -19.1392     0.0000   206.0000 </r>
       <r>   -18.9231     0.0000   206.0000 </r>
       <r>   -18.7070     0.0000   206.0000 </r>
       <r>   -18.4910     0.0000   206.0000 </r>
       <r>   -18.2749     0.0000   206.0000 </r>
       <r>   -18.0588     0.0000   206.0000 </r>
       <r>   -17.8428     0.0000   206.0000 </r>
       <r>   -17.6267     0.0000   206.0000 </r>
       <r>   -17.4106     0.0000   206.0000 </r>
       <r>   -17.1946     0.0000   206.0000 </r>
       <r>   -16.9785     0.0000   206.0000 </r>
       <r>   -16.7625     0.0000   206.0000 </r>
       <r>   -16.5464     0.0000   206.0000 </r>
       <r>   -16.3303     0.0000   206.0000 </r>
       <r>   -16.1143     0.0000   206.0000 </r>
       <r>   -15.8982     0.0000   206.0000 </r>
       <r>   -15.6821     0.0000   206.0000 </r>
       <r>   -15.4661     0.0000   206.0000 </r>
       <r>   -15.2500     0.0000   206.0000 </r>
       <r>   -15.0339     0.0000   206.0000 </r>
       <r>   -14.8179     0.0000   206.0000 </r>
       <r>   -14.6018     0.0000   206.0000 </r>
       <r>   -14.3857     0.0000   206.0000 </r>
       <r>   -14.1697     0.0000   206.0000 </r>
       <r>   -13.9536     0.0000   206.0000 </r>
       <r>   -13.7375     0.0000   206.0000 </r>
       <r>   -13.5215     0.0000   206.0000 </r>
       <r>   -13.3054     0.0000   206.0000 </r>
       <r>   -13.0893     0.0000   206.0000 </r>
       <r>   -12.8733     0.0000   206.0000 </r>
       <r>   -12.6572     0.0000   206.0000 </r>
       <r>   -12.4411     0.0000   206.0000 </r>
       <r>   -12.2251     0.0000   206.0000 </r>
       <r>   -12.0090     0.0000   206.0000 </r>
       <r>   -11.7929     0.0000   206.0000 </r>
       <r>   -11.5769     0.0000   206.0000 </r>
       <r>   -11.3608     0.0000   206.0000 </r>
       <r>   -11.1448     0.0000   206.0000 </r>
       <r>   -10.9287     0.0000   206.0000 </r>
       <r>   -10.7126     0.0000   206.0000 </r>
       <r>   -10.4966     0.0000   206.0000 </r>
       <r>   -10.2805     0.0000   206.0000 </r>
       <r>   -10.0644     0.0000   206.0000 </r>
       <r>    -9.8484     0.0000   206.0000 </r>
       <r>    -9.6323     0.0000   206.0000 </r>
       <r>    -9.4162     0.0000   206.0000 </r>
       <r>    -9.2002     0.0000   206.0000 </r>
       <r>    -8.9841     0.0000   206.0000 </r>
       <r>    -8.7680     0.0000   206.0000 </r>
       <r>    -8.5520     0.0000   206.0000 </r>
       <r>    -8.3359     0.0000   206.0000 </r>
       <r>    -8.1198     0.0000   206.0000 </r>
       <r>    -7.9038     0.0000   206.0000 </r>
       <r>    -7.6877     0.0000   206.0000 </r>
       <r>    -7.4716     0.0663   206.0143 </r>
       <r>    -7.2556     2.6403   206.5848 </r>
       <r>    -7.0395     6.3214   207.9506 </r>
       <r>    -6.8234     7.3336   209.5352 </r>
       <r>    -6.6074    14.8330   212.7401 </r>
       <r>    -6.3913    16.6468   216.3369 </r>
       <r>    -6.1752    14.3800   219.4439 </r>
       <r>    -5.9592    16.3526   222.9771 </r>
       <r>    -5.7431    10.7478   225.2994 </r>
       <r>    -5.5270    20.9268   229.8209 </r>
       <r>    -5.3110     9.4732   231.8677 </r>
       <r>    -5.0949     0.6121   232.0000 </r>
       <r>    -4.8789     0.0000   232.0000 </r>
       <r>    -4.6628     0.0000   232.0000 </r>
       <r>    -4.4467     0.0043   232.0009 </r>
       <r>    -4.2307     1.2348   232.2677 </r>
       <r>    -4.0146     6.0725   233.5798 </r>
       <r>    -3.7985     2.2038   234.0559 </r>
       <r>    -3.5825     7.1007   235.5902 </r>
       <r>    -3.3664     9.4395   237.6297 </r>
       <r>    -3.1503    12.1691   240.2590 </r>
       <r>    -2.9343    19.3009   244.4293 </r>
       <r>    -2.7182    23.0701   249.4139 </r>
       <r>    -2.5021    20.0043   253.7362 </r>
       <r>    -2.2861    18.8043   257.7991 </r>
       <r>    -2.0700    22.9242   262.7522 </r>
       <r>    -1.8539    15.4534   266.0912 </r>
       <r>    -1.6379     9.1274   268.0633 </r>
       <r>    -1.4218     7.5677   269.6984 </r>
       <r>    -1.2057     1.3627   269.9929 </r>
       <r>    -0.9897     0.0331   270.0000 </r>
       <r>    -0.7736     0.0000   270.0000 </r>
       <r>    -0.5575     0.0000   270.0000 </r>
       <r>    -0.3415     0.0000   270.0000 </r>
       <r>    -0.1254     0.0000   270.0000 </r>
       <r>     0.0907     0.0000   270.0000 </r>
       <r>     0.3067     0.0000   270.0000 </r>
       <r>     0.5228     0.0052   270.0011 </r>
       <r>     0.7389     0.6937   270.1510 </r>
       <r>     0.9549     1.5347   270.4826 </r>
       <r>     1.1710     7.9590   272.2023 </r>
       <r>     1.3870     8.4684   274.0320 </r>
       <r>     1.6031    13.4121   276.9299 </r>
       <r>     1.8192    15.3113   280.2381 </r>
       <r>     2.0352    19.9523   284.5491 </r>
       <r>     2.2513    29.8971   291.0089 </r>
       <r>     2.4674    26.5134   296.7375 </r>
       <r>     2.6834    24.3909   302.0075 </r>
       <r>     2.8995    31.6182   308.8392 </r>
       <r>     3.1156    30.3988   315.4073 </r>
       <r>     3.3316    30.1766   321.9274 </r>
       <r>     3.5477    45.1547   331.6838 </r>
       <r>     3.7638    55.6066   343.6984 </r>
       <r>     3.9798    62.0087   357.0964 </r>
       <r>     4.1959    66.7797   371.5252 </r>
       <r>     4.4120    64.7479   385.5150 </r>
       <r>     4.6280    61.0237   398.7001 </r>
       <r>     4.8441    53.8219   410.3291 </r>
       <r>     5.0602    47.7537   420.6471 </r>
       <r>     5.2762    41.3344   429.5780 </r>
       <r>     5.4923    31.1963   436.3184 </r>
       <r>     5.7084    30.3857   442.8837 </r>
       <r>     5.9244    30.4790   449.4692 </r>
       <r>     6.1405    23.9317   454.6400 </r>
       <r>     6.3566    16.3910   458.1815 </r>
       <r>     6.5726    12.8729   460.9629 </r>
       <r>     6.7887     6.8108   462.4345 </r>
       <r>     7.0048    11.9694   465.0207 </r>
       <r>     7.2208    18.9836   469.1224 </r>
       <r>     7.4369    18.1221   473.0379 </r>
       <r>     7.6529    16.5491   476.6136 </r>
       <r>     7.8690    18.1462   480.5344 </r>
       <r>     8.0851    19.5748   484.7638 </r>
       <r>     8.3011    22.6062   489.6482 </r>
       <r>     8.5172    25.8119   495.2253 </r>
       <r>     8.7333    29.4564   501.5898 </r>
       <r>     8.9493    25.7281   507.1487 </r>
       <r>     9.1654    24.3602   512.4121 </r>
       <r>     9.3815    26.2099   518.0752 </r>
       <r>     9.5975    34.3352   525.4938 </r>
       <r>     9.8136    38.3890   533.7884 </r>
       <r>    10.0297    42.1994   542.9062 </r>
       <r>    10.2457    42.3727   552.0615 </r>
       <r>    10.4618    42.7052   561.2886 </r>
       <r>    10.6779    42.7753   570.5309 </r>
       <r>    10.8939    42.0284   579.6118 </r>
       <r>    11.1100    43.5313   589.0174 </r>
       <r>    11.3261    42.8469   598.2751 </r>
       <r>    11.5421    43.2435   607.6185 </r>
       <r>    11.7582    41.9072   616.6732 </r>
       <r>    11.9743    29.0781   622.9560 </r>
       <r>    12.1903     4.7890   623.9907 </r>
       <r>    12.4064     0.0429   624.0000 </r>
       <r>    12.6225     0.0000   624.0000 </r>
       <r>    12.8385     0.0000   624.0000 </r>
       <r>    13.0546     0.0000   624.0000 </r>
       <r>    13.2706     0.0000   624.0000 </r>
       <r>    13.4867     0.0000   624.0000 </r>
       <r>    13.7028     0.0000   624.0000 </r>
       <r>    13.9188     0.0000   624.0000 </r>
       <r>    14.1349     0.0000   624.0000 </r>
       <r>    14.3510     0.0000   624.0000 </r>
       <r>    14.5670     0.0000   624.0000 </r>
       <r>    14.7831     0.0000   624.0000 </r>
       <r>    14.9992     0.0000   624.0000 </r>
      </set>
     </set>
    </array>
   </total>
  </dos>
 </calculation>
 <structure name="finalpos" >
  <crystal>
   <varray name="basis" >
    <v>       8.83108399      -0.00992658      -0.01729005 </v>
    <v>      -0.00429765       8.87801209      -0.00809027 </v>
    <v>       0.01444666      -0.02354729       8.87448545 </v>
   </varray>
   <i name="volume">    695.78173937 </i>
   <varray name="rec_basis" >
    <v>       0.11323608       0.00005465      -0.00018419 </v>
    <v>       0.00012720       0.11263816       0.00029866 </v>
    <v>       0.00022073       0.00010279       0.11268250 </v>
   </varray>
  </crystal>
  <varray name="positions" >
   <v>       0.00251452       0.98576717       0.99683702 </v>
   <v>       0.24657986       0.99001581       0.25740565 </v>
   <v>       0.25660327       0.51251096       0.24595258 </v>
   <v>       0.50372238       0.48832696       0.99409615 </v>
   <v>       0.49212663       0.24954198       0.74948231 </v>
   <v>       0.00054249       0.49880899       0.50706925 </v>
   <v>       0.50619936       0.75524708       0.73740268 </v>
   <v>      -0.00184621       0.24022577       0.25647831 </v>
   <v>       0.75122404       0.74786485       0.00255881 </v>
   <v>       0.00790894       0.24492372       0.74401153 </v>
   <v>       0.75096200       0.25394751       0.51138608 </v>
   <v>       0.00239266       0.75255681       0.75138860 </v>
   <v>       0.24991422       0.50437974       0.75315669 </v>
   <v>       0.24619235       0.24496809      -0.00109178 </v>
   <v>       0.49851301       0.24413054       0.24964949 </v>
   <v>       0.73551634       0.98929377       0.26185722 </v>
   <v>       0.75192331       0.24449108       0.99013771 </v>
   <v>       0.26588994       0.75785277       0.00083495 </v>
   <v>       0.25296456       0.25111191       0.50184404 </v>
   <v>       0.24931425       0.75239105       0.50105272 </v>
   <v>       0.24751861       0.25141761       0.25070722 </v>
   <v>       0.25373466       0.00093840       0.00113376 </v>
   <v>      -0.00102660       0.24287368       0.00355980 </v>
   <v>       0.74982873       0.24483125       0.25253000 </v>
   <v>       0.74342005       0.99331071       0.00170235 </v>
   <v>       0.49515909      -0.00057349       0.27640311 </v>
   <v>       0.99440685       0.49048186       0.25429301 </v>
   <v>       0.50909568       0.75786486      -0.01005840 </v>
   <v>       0.98473747       0.00193600       0.74300443 </v>
   <v>       0.75347318       0.25089134       0.74760659 </v>
   <v>       0.76146514       0.00783275       0.50238356 </v>
   <v>       0.50503845       0.25220041       0.49867175 </v>
   <v>       0.52855693       0.00306222       0.73501054 </v>
   <v>       0.99351224      -0.00029914       0.24790480 </v>
   <v>       0.49994930       0.24209032      -0.00244915 </v>
   <v>       0.26093461       0.75138525       0.25099353 </v>
   <v>       0.24266930       0.50206783       0.99891169 </v>
   <v>       0.00409104       0.74431186       0.00375439 </v>
   <v>       0.74505485       0.74187144       0.24861274 </v>
   <v>       0.76353403       0.49932721       0.00489838 </v>
   <v>       0.49646386       0.50365712       0.24547763 </v>
   <v>       0.25025978       0.24558727       0.75090636 </v>
   <v>       0.25155565       0.00127314       0.51521675 </v>
   <v>      -0.00086940       0.25016810       0.50075322 </v>
   <v>       0.25184633       0.75878065       0.75101807 </v>
   <v>       0.25222845       0.50179258       0.50027927 </v>
   <v>       0.99375290       0.75491632       0.49928587 </v>
   <v>       0.99932392       0.50018447       0.75315748 </v>
   <v>       0.75363326       0.75481645       0.74436870 </v>
   <v>       0.74765027       0.49521163       0.50170823 </v>
   <v>       0.50528537       0.76685357       0.49250701 </v>
   <v>       0.50481458       0.50036583       0.74241346 </v>
   <v>       0.51768876       0.01975270       0.94944019 </v>
   <v>      -0.00457421       0.52909121       0.97001801 </v>
   <v>       0.50762123       0.72910519       0.28056455 </v>
   <v>       0.21976381      -0.00263787       0.74976627 </v>
   <v>       0.46648845       0.99475339       0.51861313 </v>
   <v>       0.73867506       0.96964386       0.77514849 </v>
   <v>       0.00058594       0.76699897       0.25172663 </v>
   <v>       0.73030580       0.50925830       0.24607826 </v>
   <v>       0.01396298       0.00656899       0.49416326 </v>
   <v>       0.49837114       0.51351427       0.49092224 </v>
   <v>       0.75222726       0.51538913       0.75928190 </v>
   <v>       0.74862768       0.72877555       0.49610107 </v>
  </varray>
 </structure>
</modeling>
