<?xml version="1.0" encoding="ISO-8859-1"?>
<modeling>
 <generator>
  <i name="program" type="string">vasp </i>
  <i name="version" type="string">5.4.4.18Apr17-6-g9f103f2a35  </i>
  <i name="subversion" type="string">(build Oct 18 2021 20:38:43) complex            parallel </i>
  <i name="platform" type="string">LinuxIFC </i>
  <i name="date" type="string">2025 11 12 </i>
  <i name="time" type="string">17:05:37 </i>
 </generator>
 <incar>
  <i type="string" name="SYSTEM">HEBCN</i>
  <i type="int" name="ISTART">     0</i>
  <i type="string" name="PREC">normal</i>
  <i type="string" name="ALGO">Fast</i>
  <i type="int" name="ICHARG">     2</i>
  <i type="int" name="NELM">    60</i>
  <i type="int" name="IBRION">    -1</i>
  <i name="EDIFF">      0.00001000</i>
  <i name="EDIFFG">     -0.01000000</i>
  <i type="int" name="NSW">     0</i>
  <i type="int" name="ISIF">     2</i>
  <i name="ENCUT">    400.00000000</i>
  <i name="POTIM">      0.50000000</i>
  <i type="logical" name="LREAL"> F  </i>
  <i type="int" name="ISMEAR">     0</i>
  <i name="SIGMA">      0.10000000</i>
  <i type="logical" name="LWAVE"> T  </i>
  <i type="logical" name="LCHARG"> T  </i>
  <v type="int" name="KPOINT_BSE">    -1     0     0     0</v>
  <i type="int" name="NELM">    60</i>
 </incar>
 <structure name="primitive_cell" >
  <crystal>
   <varray name="basis" >
    <v>       8.96322135       0.01332519      -0.01329126 </v>
    <v>       0.01930872       8.99227925      -0.02330651 </v>
    <v>       0.01893902      -0.03865874       8.98613578 </v>
   </varray>
   <i name="volume">    724.27253135 </i>
   <varray name="rec_basis" >
    <v>       0.11156704      -0.00024018      -0.00023617 </v>
    <v>      -0.00016462       0.11120811       0.00047877 </v>
    <v>       0.00016459       0.00028807       0.11128343 </v>
   </varray>
  </crystal>
  <varray name="positions" >
   <v>      -0.00211340      -0.00646587      -0.00621684 </v>
   <v>      -0.01360021       0.00189223      -0.25269438 </v>
   <v>       0.24580175       0.00061996       0.00627096 </v>
   <v>      -0.00151044      -0.25428580       0.00189927 </v>
   <v>       0.00073975       0.24208519      -0.00002835 </v>
   <v>      -0.25422171      -0.00354005      -0.00554040 </v>
   <v>      -0.00145688      -0.00321108       0.25187366 </v>
   <v>      -0.25809140      -0.03367326      -0.22783360 </v>
   <v>       0.00099639      -0.25117767      -0.24570392 </v>
   <v>       0.22497381       0.00901140      -0.26513126 </v>
   <v>       0.00044319      -0.24134386       0.25030982 </v>
   <v>       0.25697606      -0.24314866      -0.00063283 </v>
   <v>      -0.25021102      -0.25271928       0.00213515 </v>
   <v>       0.24740621       0.24185602      -0.00445667 </v>
   <v>      -0.24614474       0.25107402      -0.00618931 </v>
   <v>      -0.00609128       0.23548157       0.26119476 </v>
   <v>       0.00301066       0.24694301      -0.26040374 </v>
   <v>      -0.26427371      -0.00713038       0.25501981 </v>
   <v>       0.26246545      -0.00341099       0.25528298 </v>
   <v>       0.24475165      -0.24090879      -0.24832212 </v>
   <v>      -0.24897830      -0.24738118      -0.24862652 </v>
   <v>       0.24942524       0.24354148      -0.25109002 </v>
   <v>       0.25104994      -0.25124370       0.25020198 </v>
   <v>      -0.24648693       0.25195351       0.25058174 </v>
   <v>       0.24735771       0.24730112       0.24828918 </v>
   <v>      -0.24742256       0.25778195      -0.25593926 </v>
   <v>      -0.25507095      -0.25505128       0.25132140 </v>
   <v>       0.00411752      -0.47569852      -0.01891136 </v>
   <v>      -0.47378578       0.01117092      -0.04669877 </v>
   <v>       0.00348576       0.00208080      -0.49470585 </v>
   <v>      -0.46910056      -0.00066274      -0.26265263 </v>
   <v>      -0.24373245       0.00154844      -0.49177459 </v>
   <v>      -0.49324808      -0.23907197      -0.00369116 </v>
   <v>       0.25237718      -0.00041293      -0.48818277 </v>
   <v>      -0.24075982      -0.49571803       0.00037654 </v>
   <v>      -0.00167037       0.49946697      -0.24274600 </v>
   <v>      -0.00677910      -0.24654889      -0.49920206 </v>
   <v>       0.24240821      -0.49866770      -0.00284541 </v>
   <v>      -0.49709027       0.23894329      -0.00576224 </v>
   <v>      -0.00087370       0.24845256      -0.49865460 </v>
   <v>      -0.00487261       0.49775281       0.24834445 </v>
   <v>       0.49679221      -0.00257326       0.27950014 </v>
   <v>      -0.24814250      -0.48836230      -0.24744362 </v>
   <v>       0.24933669      -0.24944077      -0.49747409 </v>
   <v>       0.49863580      -0.24211852      -0.25318079 </v>
   <v>       0.24606723       0.49494900      -0.24612361 </v>
   <v>      -0.25106448      -0.49371519       0.24839164 </v>
   <v>      -0.25100440      -0.25079462       0.49667641 </v>
   <v>       0.24373700      -0.49995568       0.24532877 </v>
   <v>      -0.49545719       0.24455275      -0.25719482 </v>
   <v>      -0.24376560       0.25589193       0.49988864 </v>
   <v>       0.25185599       0.24927842      -0.49797690 </v>
   <v>      -0.49585180       0.25316564       0.25105549 </v>
   <v>      -0.49759482      -0.26565197       0.26638257 </v>
   <v>       0.47368958      -0.01450748      -0.47636079 </v>
   <v>      -0.00082588      -0.49952518      -0.49530436 </v>
   <v>       0.49871619      -0.49914604      -0.00234962 </v>
   <v>      -0.25206065      -0.49705140       0.49864934 </v>
   <v>      -0.49764329      -0.23984805       0.49400389 </v>
   <v>      -0.49683648      -0.49897700      -0.25478282 </v>
   <v>      -0.49359556       0.25080657      -0.49805519 </v>
   <v>       0.25315059       0.49978838       0.49836749 </v>
   <v>      -0.49741862      -0.49479153       0.25131063 </v>
   <v>       0.49908017      -0.48945857       0.49822670 </v>
  </varray>
 </structure>
 <varray name="primitive_index" >
  <v type="int" >        1 </v>
  <v type="int" >       29 </v>
  <v type="int" >       22 </v>
  <v type="int" >       38 </v>
  <v type="int" >       23 </v>
  <v type="int" >       25 </v>
  <v type="int" >       34 </v>
  <v type="int" >       58 </v>
  <v type="int" >       12 </v>
  <v type="int" >       56 </v>
  <v type="int" >       59 </v>
  <v type="int" >       18 </v>
  <v type="int" >        9 </v>
  <v type="int" >       14 </v>
  <v type="int" >       17 </v>
  <v type="int" >        8 </v>
  <v type="int" >       10 </v>
  <v type="int" >       16 </v>
  <v type="int" >        2 </v>
  <v type="int" >       45 </v>
  <v type="int" >       49 </v>
  <v type="int" >       42 </v>
  <v type="int" >       36 </v>
  <v type="int" >       24 </v>
  <v type="int" >       21 </v>
  <v type="int" >       30 </v>
  <v type="int" >       39 </v>
  <v type="int" >       54 </v>
  <v type="int" >       53 </v>
  <v type="int" >       61 </v>
  <v type="int" >       33 </v>
  <v type="int" >       31 </v>
  <v type="int" >       28 </v>
  <v type="int" >       43 </v>
  <v type="int" >       40 </v>
  <v type="int" >       48 </v>
  <v type="int" >       47 </v>
  <v type="int" >       37 </v>
  <v type="int" >       35 </v>
  <v type="int" >       44 </v>
  <v type="int" >       27 </v>
  <v type="int" >       26 </v>
  <v type="int" >       63 </v>
  <v type="int" >       20 </v>
  <v type="int" >        7 </v>
  <v type="int" >       13 </v>
  <v type="int" >       60 </v>
  <v type="int" >       64 </v>
  <v type="int" >        3 </v>
  <v type="int" >        5 </v>
  <v type="int" >       11 </v>
  <v type="int" >       19 </v>
  <v type="int" >       15 </v>
  <v type="int" >       55 </v>
  <v type="int" >       57 </v>
  <v type="int" >        6 </v>
  <v type="int" >        4 </v>
  <v type="int" >       50 </v>
  <v type="int" >       51 </v>
  <v type="int" >       52 </v>
  <v type="int" >       32 </v>
  <v type="int" >       46 </v>
  <v type="int" >       41 </v>
  <v type="int" >       62 </v>
 </varray>
 <kpoints>
  <generation param="Gamma">
   <v type="int" name="divisions">       3        3        3 </v>
   <v name="usershift">      0.00000000       0.00000000       0.00000000 </v>
   <v name="genvec1">      0.33333333       0.00000000       0.00000000 </v>
   <v name="genvec2">     -0.00000000       0.33333333      -0.00000000 </v>
   <v name="genvec3">      0.00000000       0.00000000       0.33333333 </v>
   <v name="shift">      0.00000000       0.00000000       0.00000000 </v>
  </generation>
  <varray name="kpointlist" >
   <v>       0.00000000       0.00000000       0.00000000 </v>
   <v>       0.33333333      -0.00000000      -0.00000000 </v>
   <v>       0.00000000       0.33333333      -0.00000000 </v>
   <v>       0.33333333       0.33333333       0.00000000 </v>
   <v>      -0.33333333       0.33333333      -0.00000000 </v>
   <v>       0.00000000       0.00000000       0.33333333 </v>
   <v>       0.33333333       0.00000000       0.33333333 </v>
   <v>      -0.33333333      -0.00000000       0.33333333 </v>
   <v>       0.00000000       0.33333333       0.33333333 </v>
   <v>       0.33333333       0.33333333       0.33333333 </v>
   <v>      -0.33333333       0.33333333       0.33333333 </v>
   <v>       0.00000000      -0.33333333       0.33333333 </v>
   <v>       0.33333333      -0.33333333       0.33333333 </v>
   <v>      -0.33333333      -0.33333333       0.33333333 </v>
  </varray>
  <varray name="weights" >
   <v>       0.03703704 </v>
   <v>       0.07407407 </v>
   <v>       0.07407407 </v>
   <v>       0.07407407 </v>
   <v>       0.07407407 </v>
   <v>       0.07407407 </v>
   <v>       0.07407407 </v>
   <v>       0.07407407 </v>
   <v>       0.07407407 </v>
   <v>       0.07407407 </v>
   <v>       0.07407407 </v>
   <v>       0.07407407 </v>
   <v>       0.07407407 </v>
   <v>       0.07407407 </v>
  </varray>
 </kpoints>
 <parameters>
  <separator name="general" >
   <i type="string" name="SYSTEM">HEBCN</i>
   <i type="logical" name="LCOMPAT"> F  </i>
  </separator>
  <separator name="electronic" >
   <i type="string" name="PREC">normal</i>
   <i name="ENMAX">    400.00000000</i>
   <i name="ENAUG">    644.87300000</i>
   <i name="EDIFF">      0.00001000</i>
   <i type="int" name="IALGO">    68</i>
   <i type="int" name="IWAVPR">    10</i>
   <i type="int" name="NBANDS">   312</i>
   <i name="NELECT">    511.00000000</i>
   <i type="int" name="TURBO">     0</i>
   <i type="int" name="IRESTART">     0</i>
   <i type="int" name="NREBOOT">     0</i>
   <i type="int" name="NMIN">     0</i>
   <i name="EREF">      0.00000000</i>
   <separator name="electronic smearing" >
    <i type="int" name="ISMEAR">     0</i>
    <i name="SIGMA">      0.10000000</i>
    <i name="KSPACING">      0.50000000</i>
    <i type="logical" name="KGAMMA"> T  </i>
   </separator>
   <separator name="electronic projectors" >
    <i type="logical" name="LREAL"> F  </i>
    <v name="ROPT">      0.00000000      0.00000000      0.00000000      0.00000000      0.00000000      0.00000000      0.00000000</v>
    <i type="int" name="LMAXPAW">  -100</i>
    <i type="int" name="LMAXMIX">     2</i>
    <i type="logical" name="NLSPLINE"> F  </i>
   </separator>
   <separator name="electronic startup" >
    <i type="int" name="ISTART">     0</i>
    <i type="int" name="ICHARG">     2</i>
    <i type="int" name="INIWAV">     1</i>
   </separator>
   <separator name="electronic spin" >
    <i type="int" name="ISPIN">     1</i>
    <i type="logical" name="LNONCOLLINEAR"> F  </i>
    <v name="MAGMOM">      1.00000000      1.00000000      1.00000000      1.00000000      1.00000000      1.00000000      1.00000000      1.00000000      1.00000000      1.00000000      1.00000000      1.00000000      1.00000000      1.00000000      1.00000000      1.00000000      1.00000000      1.00000000      1.00000000      1.00000000
      1.00000000      1.00000000      1.00000000      1.00000000      1.00000000      1.00000000      1.00000000      1.00000000      1.00000000      1.00000000      1.00000000      1.00000000      1.00000000      1.00000000      1.00000000      1.00000000      1.00000000      1.00000000      1.00000000      1.00000000
      1.00000000      1.00000000      1.00000000      1.00000000      1.00000000      1.00000000      1.00000000      1.00000000      1.00000000      1.00000000      1.00000000      1.00000000      1.00000000      1.00000000      1.00000000      1.00000000      1.00000000      1.00000000      1.00000000      1.00000000
      1.00000000      1.00000000      1.00000000      1.00000000</v>
    <i name="NUPDOWN">     -1.00000000</i>
    <i type="logical" name="LSORBIT"> F  </i>
    <v name="SAXIS">      0.00000000      0.00000000      1.00000000</v>
    <i type="logical" name="LSPIRAL"> F  </i>
    <v name="QSPIRAL">      0.00000000      0.00000000      0.00000000</v>
    <i type="logical" name="LZEROZ"> F  </i>
   </separator>
   <separator name="electronic exchange-correlation" >
    <i type="logical" name="LASPH"> F  </i>
    <i type="logical" name="LMETAGGA"> F  </i>
   </separator>
   <separator name="electronic convergence" >
    <i type="int" name="NELM">    60</i>
    <i type="int" name="NELMDL">    -5</i>
    <i type="int" name="NELMIN">     2</i>
    <i name="ENINI">    400.00000000</i>
    <separator name="electronic convergence detail" >
     <i type="logical" name="LDIAG"> T  </i>
     <i type="logical" name="LSUBROT"> F  </i>
     <i name="WEIMIN">      0.00000000</i>
     <i name="EBREAK">      0.00000001</i>
     <i name="DEPER">      0.30000000</i>
     <i type="int" name="NRMM">     4</i>
     <i name="TIME">      0.40000000</i>
    </separator>
   </separator>
   <separator name="electronic mixer" >
    <i name="AMIX">      0.40000000</i>
    <i name="BMIX">      1.00000000</i>
    <i name="AMIN">      0.10000000</i>
    <i name="AMIX_MAG">      1.60000000</i>
    <i name="BMIX_MAG">      1.00000000</i>
    <separator name="electronic mixer details" >
     <i type="int" name="IMIX">     4</i>
     <i type="logical" name="MIXFIRST"> F  </i>
     <i type="int" name="MAXMIX">   -45</i>
     <i name="WC">    100.00000000</i>
     <i type="int" name="INIMIX">     1</i>
     <i type="int" name="MIXPRE">     1</i>
     <i type="int" name="MREMOVE">     5</i>
    </separator>
   </separator>
   <separator name="electronic dipolcorrection" >
    <i type="logical" name="LDIPOL"> F  </i>
    <i type="logical" name="LMONO"> F  </i>
    <i type="int" name="IDIPOL">     0</i>
    <i name="EPSILON">      1.00000000</i>
    <v name="DIPOL">   -100.00000000   -100.00000000   -100.00000000</v>
    <i name="EFIELD">      0.00000000</i>
   </separator>
  </separator>
  <separator name="grids" >
   <i type="int" name="NGX">    48</i>
   <i type="int" name="NGY">    48</i>
   <i type="int" name="NGZ">    48</i>
   <i type="int" name="NGXF">    96</i>
   <i type="int" name="NGYF">    96</i>
   <i type="int" name="NGZF">    96</i>
   <i type="logical" name="ADDGRID"> F  </i>
  </separator>
  <separator name="ionic" >
   <i type="int" name="NSW">     0</i>
   <i type="int" name="IBRION">    -1</i>
   <i type="int" name="MDALGO">     0</i>
   <i type="int" name="ISIF">     2</i>
   <i name="PSTRESS">      0.00000000</i>
   <i name="EDIFFG">     -0.01000000</i>
   <i type="int" name="NFREE">     0</i>
   <i name="POTIM">      0.50000000</i>
   <i name="SMASS">     -3.00000000</i>
   <i name="SCALEE">      1.00000000</i>
  </separator>
  <separator name="ionic md" >
   <i name="TEBEG">      0.00010000</i>
   <i name="TEEND">      0.00010000</i>
   <i type="int" name="NBLOCK">     1</i>
   <i type="int" name="KBLOCK">     1</i>
   <i type="int" name="NPACO">   256</i>
   <i name="APACO">     16.00000000</i>
  </separator>
  <separator name="symmetry" >
   <i type="int" name="ISYM">     2</i>
   <i name="SYMPREC">      0.00001000</i>
  </separator>
  <separator name="dos" >
   <i type="int" name="LORBIT">     0</i>
   <v name="RWIGS">     -1.00000000     -1.00000000     -1.00000000     -1.00000000     -1.00000000     -1.00000000     -1.00000000</v>
   <i type="int" name="NEDOS">   301</i>
   <i name="EMIN">     10.00000000</i>
   <i name="EMAX">    -10.00000000</i>
   <i name="EFERMI">      0.00000000</i>
  </separator>
  <separator name="writing" >
   <i type="int" name="NWRITE">     2</i>
   <i type="logical" name="LWAVE"> T  </i>
   <i type="logical" name="LDOWNSAMPLE"> F  </i>
   <i type="logical" name="LCHARG"> T  </i>
   <i type="logical" name="LPARD"> F  </i>
   <i type="logical" name="LVTOT"> F  </i>
   <i type="logical" name="LVHAR"> F  </i>
   <i type="logical" name="LELF"> F  </i>
   <i type="logical" name="LOPTICS"> F  </i>
   <v name="STM">      0.00000000      0.00000000      0.00000000      0.00000000      0.00000000      0.00000000      0.00000000</v>
  </separator>
  <separator name="performance" >
   <i type="int" name="NPAR">    24</i>
   <i type="int" name="NSIM">     4</i>
   <i type="int" name="NBLK">    -1</i>
   <i type="logical" name="LPLANE"> T  </i>
   <i type="logical" name="LSCALAPACK"> T  </i>
   <i type="logical" name="LSCAAWARE"> F  </i>
   <i type="logical" name="LSCALU"> F  </i>
   <i type="logical" name="LASYNC"> F  </i>
   <i type="logical" name="LORBITALREAL"> F  </i>
  </separator>
  <separator name="miscellaneous" >
   <i type="int" name="IDIOT">     3</i>
   <i type="int" name="ISPECIAL">     0</i>
   <i type="logical" name="LMUSIC"> F  </i>
   <v name="POMASS">    178.49000000     92.91000000     91.22400000     14.00100000     12.01100000     51.99600000    180.94800000</v>
   <v name="DARWINR">      0.00000000      0.00000000      0.00000000      0.00000000      0.00000000      0.00000000      0.00000000</v>
   <v name="DARWINV">      1.00000000      1.00000000      1.00000000      1.00000000      1.00000000      1.00000000      1.00000000</v>
   <i type="logical" name="LCORR"> T  </i>
  </separator>
  <i type="logical" name="GGA_COMPAT"> T  </i>
  <i type="logical" name="LBERRY"> F  </i>
  <i type="int" name="ICORELEVEL">     0</i>
  <i type="logical" name="LDAU"> F  </i>
  <i type="int" name="I_CONSTRAINED_M">     0</i>
  <separator name="electronic exchange-correlation" >
   <i type="string" name="GGA">--</i>
   <i type="int" name="VOSKOWN">     0</i>
   <i type="logical" name="LHFCALC"> F  </i>
   <i type="string" name="PRECFOCK"></i>
   <i type="logical" name="LSYMGRAD"> F  </i>
   <i type="logical" name="LHFONE"> F  </i>
   <i type="logical" name="LRHFCALC"> F  </i>
   <i type="logical" name="LTHOMAS"> F  </i>
   <i type="logical" name="LMODELHF"> F  </i>
   <i name="ENCUT4O">     -1.00000000</i>
   <i type="int" name="EXXOEP">     0</i>
   <i type="int" name="FOURORBIT">     0</i>
   <i name="AEXX">      0.00000000</i>
   <i name="HFALPHA">      0.00000000</i>
   <i name="MCALPHA">      0.00000000</i>
   <i name="ALDAX">      1.00000000</i>
   <i name="AGGAX">      1.00000000</i>
   <i name="ALDAC">      1.00000000</i>
   <i name="AGGAC">      1.00000000</i>
   <i type="int" name="NKREDX">     1</i>
   <i type="int" name="NKREDY">     1</i>
   <i type="int" name="NKREDZ">     1</i>
   <i type="logical" name="SHIFTRED"> F  </i>
   <i type="logical" name="ODDONLY"> F  </i>
   <i type="logical" name="EVENONLY"> F  </i>
   <i type="int" name="LMAXFOCK">     0</i>
   <i type="int" name="NMAXFOCKAE">     0</i>
   <i type="logical" name="LFOCKAEDFT"> F  </i>
   <i name="HFSCREEN">      0.00000000</i>
   <i name="HFSCREENC">      0.00000000</i>
   <i type="int" name="NBANDSGWLOW">     0</i>
  </separator>
  <separator name="vdW DFT" >
   <i type="logical" name="LUSE_VDW"> F  </i>
   <i name="Zab_VDW">     -0.84910000</i>
   <i name="PARAM1">      0.12340000</i>
   <i name="PARAM2">      1.00000000</i>
   <i name="PARAM3">      0.00000000</i>
  </separator>
  <separator name="model GW" >
   <i type="int" name="MODEL_GW">     0</i>
   <i name="MODEL_EPS0">      6.79005498</i>
   <i name="MODEL_ALPHA">      1.00000000</i>
  </separator>
  <separator name="linear response parameters" >
   <i type="logical" name="LEPSILON"> F  </i>
   <i type="logical" name="LRPA"> F  </i>
   <i type="logical" name="LNABLA"> F  </i>
   <i type="logical" name="LVEL"> F  </i>
   <i type="int" name="KINTER">     0</i>
   <i name="CSHIFT">      0.10000000</i>
   <i name="OMEGAMAX">     -1.00000000</i>
   <i name="DEG_THRESHOLD">      0.00200000</i>
   <i name="RTIME">     -0.10000000</i>
   <i name="WPLASMAI">      0.00000000</i>
   <v name="DFIELD">      0.00000000      0.00000000      0.00000000</v>
   <v name="WPLASMA">      0.00000000      0.00000000      0.00000000      0.00000000      0.00000000      0.00000000      0.00000000      0.00000000      0.00000000</v>
  </separator>
  <separator name="orbital magnetization" >
   <i type="logical" name="NUCIND"> F  </i>
   <v name="MAGPOS">      0.00000000      0.00000000      0.00000000</v>
   <i type="logical" name="LNICSALL"> T  </i>
   <i type="logical" name="ORBITALMAG"> F  </i>
   <i type="logical" name="LMAGBLOCH"> F  </i>
   <i type="logical" name="LCHIMAG"> F  </i>
   <i type="logical" name="LGAUGE"> T  </i>
   <i type="int" name="MAGATOM">     0</i>
   <v name="MAGDIPOL">      0.00000000      0.00000000      0.00000000</v>
   <v name="AVECCONST">      0.00000000      0.00000000      0.00000000</v>
  </separator>
  <separator name="response functions" >
   <i type="logical" name="LADDER"> F  </i>
   <i type="logical" name="LRPAFORCE"> F  </i>
   <i type="logical" name="LFXC"> F  </i>
   <i type="logical" name="LHARTREE"> T  </i>
   <i type="int" name="IBSE">     0</i>
   <v type="int" name="KPOINT">    -1     0     0     0</v>
   <i type="logical" name="LTCTE"> F  </i>
   <i type="logical" name="LTETE"> F  </i>
   <i type="logical" name="LTRIPLET"> F  </i>
   <i type="logical" name="LFXCEPS"> F  </i>
   <i type="logical" name="LFXHEG"> F  </i>
   <i type="int" name="NATURALO">     2</i>
   <i type="logical" name="L2ORDER"> F  </i>
   <i type="logical" name="LMP2LT"> F  </i>
   <i type="logical" name="LUSEW"> F  </i>
   <i name="ENCUTGW">     -2.00000000</i>
   <i name="ENCUTGWSOFT">     -2.00000000</i>
   <i name="ENCUTLF">     -1.00000000</i>
   <i type="int" name="LMAXMP2">    -1</i>
   <i name="SCISSOR">      0.00000000</i>
   <i type="int" name="NOMEGA">     0</i>
   <i type="int" name="NOMEGAR">     0</i>
   <i type="int" name="NBANDSGW">    -1</i>
   <i type="int" name="NBANDSO">    -1</i>
   <i type="int" name="NBANDSV">    -1</i>
   <i type="int" name="NELM">    60</i>
   <i type="int" name="NELMHF">     1</i>
   <i type="int" name="DIM">     3</i>
   <i type="int" name="ANTIRES">     0</i>
   <i name="OMEGAMAX">    -30.00000000</i>
   <i name="OMEGAMIN">    -30.00000000</i>
   <i name="OMEGATL">   -200.00000000</i>
   <i type="int" name="OMEGAGRID">   140</i>
   <i name="CSHIFT">     -0.10000000</i>
   <i type="logical" name="SELFENERGY"> F  </i>
   <i type="logical" name="LSPECTRAL"> F  </i>
   <i type="logical" name="LSPECTRALGW"> F  </i>
   <i type="logical" name="LSINGLES"> F  </i>
   <i type="logical" name="LFERMIGW"> F  </i>
   <i type="logical" name="ODDONLYGW"> F  </i>
   <i type="logical" name="EVENONLYGW"> F  </i>
   <i type="int" name="NKREDLFX">     1</i>
   <i type="int" name="NKREDLFY">     1</i>
   <i type="int" name="NKREDLFZ">     1</i>
   <i type="int" name="MAXMEM">  2800</i>
   <i type="int" name="TELESCOPE">     0</i>
   <i type="int" name="TAUPAR">     1</i>
   <i type="int" name="OMEGAPAR">    -1</i>
   <i name="LAMBDA">      1.00000000</i>
  </separator>
  <separator name="External order field" >
   <i name="OFIELD_KAPPA">      0.00000000</i>
   <v name="OFIELD_K">      0.00000000      0.00000000      0.00000000</v>
   <i name="OFIELD_Q6_NEAR">      0.00000000</i>
   <i name="OFIELD_Q6_FAR">      0.00000000</i>
   <i name="OFIELD_A">      0.00000000</i>
  </separator>
 </parameters>
 <atominfo>
  <atoms>      64 </atoms>
  <types>       7 </types>
  <array name="atoms" >
   <dimension dim="1">ion</dimension>
   <field type="string">element</field>
   <field type="int">atomtype</field>
   <set>
    <rc><c>Hf</c><c>   1</c></rc>
    <rc><c>Hf</c><c>   1</c></rc>
    <rc><c>Hf</c><c>   1</c></rc>
    <rc><c>Hf</c><c>   1</c></rc>
    <rc><c>Hf</c><c>   1</c></rc>
    <rc><c>Hf</c><c>   1</c></rc>
    <rc><c>Hf</c><c>   1</c></rc>
    <rc><c>Nb</c><c>   2</c></rc>
    <rc><c>Nb</c><c>   2</c></rc>
    <rc><c>Nb</c><c>   2</c></rc>
    <rc><c>Nb</c><c>   2</c></rc>
    <rc><c>Nb</c><c>   2</c></rc>
    <rc><c>Nb</c><c>   2</c></rc>
    <rc><c>Zr</c><c>   3</c></rc>
    <rc><c>Zr</c><c>   3</c></rc>
    <rc><c>Zr</c><c>   3</c></rc>
    <rc><c>Zr</c><c>   3</c></rc>
    <rc><c>Zr</c><c>   3</c></rc>
    <rc><c>Zr</c><c>   3</c></rc>
    <rc><c>Zr</c><c>   3</c></rc>
    <rc><c>N </c><c>   4</c></rc>
    <rc><c>N </c><c>   4</c></rc>
    <rc><c>N </c><c>   4</c></rc>
    <rc><c>N </c><c>   4</c></rc>
    <rc><c>N </c><c>   4</c></rc>
    <rc><c>N </c><c>   4</c></rc>
    <rc><c>N </c><c>   4</c></rc>
    <rc><c>N </c><c>   4</c></rc>
    <rc><c>N </c><c>   4</c></rc>
    <rc><c>N </c><c>   4</c></rc>
    <rc><c>N </c><c>   4</c></rc>
    <rc><c>N </c><c>   4</c></rc>
    <rc><c>N </c><c>   4</c></rc>
    <rc><c>C </c><c>   5</c></rc>
    <rc><c>C </c><c>   5</c></rc>
    <rc><c>C </c><c>   5</c></rc>
    <rc><c>C </c><c>   5</c></rc>
    <rc><c>C </c><c>   5</c></rc>
    <rc><c>C </c><c>   5</c></rc>
    <rc><c>C </c><c>   5</c></rc>
    <rc><c>C </c><c>   5</c></rc>
    <rc><c>C </c><c>   5</c></rc>
    <rc><c>C </c><c>   5</c></rc>
    <rc><c>C </c><c>   5</c></rc>
    <rc><c>C </c><c>   5</c></rc>
    <rc><c>C </c><c>   5</c></rc>
    <rc><c>C </c><c>   5</c></rc>
    <rc><c>C </c><c>   5</c></rc>
    <rc><c>C </c><c>   5</c></rc>
    <rc><c>C </c><c>   5</c></rc>
    <rc><c>C </c><c>   5</c></rc>
    <rc><c>C </c><c>   5</c></rc>
    <rc><c>Cr</c><c>   6</c></rc>
    <rc><c>Cr</c><c>   6</c></rc>
    <rc><c>Cr</c><c>   6</c></rc>
    <rc><c>Cr</c><c>   6</c></rc>
    <rc><c>Cr</c><c>   6</c></rc>
    <rc><c>Cr</c><c>   6</c></rc>
    <rc><c>Ta</c><c>   7</c></rc>
    <rc><c>Ta</c><c>   7</c></rc>
    <rc><c>Ta</c><c>   7</c></rc>
    <rc><c>Ta</c><c>   7</c></rc>
    <rc><c>Ta</c><c>   7</c></rc>
    <rc><c>Ta</c><c>   7</c></rc>
   </set>
  </array>
  <array name="atomtypes" >
   <dimension dim="1">type</dimension>
   <field type="int">atomspertype</field>
   <field type="string">element</field>
   <field>mass</field>
   <field>valence</field>
   <field type="string">pseudopotential</field>
   <set>
    <rc><c>   7</c><c>Hf</c><c>    178.49000000</c><c>     10.00000000</c><c> PAW_PBE Hf_pv 06Sep2000                </c></rc>
    <rc><c>   6</c><c>Nb</c><c>     92.91000000</c><c>     13.00000000</c><c> PAW_PBE Nb_sv 17Jan2003                </c></rc>
    <rc><c>   7</c><c>Zr</c><c>     91.22400000</c><c>     12.00000000</c><c> PAW_PBE Zr_sv 07Sep2000                </c></rc>
    <rc><c>  13</c><c>N </c><c>     14.00100000</c><c>      5.00000000</c><c> PAW_PBE N 08Apr2002                    </c></rc>
    <rc><c>  19</c><c>C </c><c>     12.01100000</c><c>      4.00000000</c><c> PAW_PBE C 08Apr2002                    </c></rc>
    <rc><c>   6</c><c>Cr</c><c>     51.99600000</c><c>     12.00000000</c><c> PAW_PBE Cr_pv 07Sep2000                </c></rc>
    <rc><c>   6</c><c>Ta</c><c>    180.94800000</c><c>     11.00000000</c><c> PAW_PBE Ta_pv 07Sep2000                </c></rc>
   </set>
  </array>
 </atominfo>
 <structure name="initialpos" >
  <crystal>
   <varray name="basis" >
    <v>       8.96322135       0.01332519      -0.01329126 </v>
    <v>       0.01930872       8.99227925      -0.02330651 </v>
    <v>       0.01893902      -0.03865874       8.98613578 </v>
   </varray>
   <i name="volume">    724.27253135 </i>
   <varray name="rec_basis" >
    <v>       0.11156704      -0.00024018      -0.00023617 </v>
    <v>      -0.00016462       0.11120811       0.00047877 </v>
    <v>       0.00016459       0.00028807       0.11128343 </v>
   </varray>
  </crystal>
  <varray name="positions" >
   <v>       0.99788660       0.99353413       0.99378316 </v>
   <v>       0.26246545       0.99658901       0.25528298 </v>
   <v>       0.24373700       0.50004432       0.24532877 </v>
   <v>       0.49871619       0.50085396       0.99765038 </v>
   <v>       0.50454281       0.24455275       0.74280518 </v>
   <v>       0.99917412       0.50047482       0.50469564 </v>
   <v>       0.49863580       0.75788148       0.74681921 </v>
   <v>       0.99390872       0.23548157       0.26119476 </v>
   <v>       0.74978898       0.74728072       0.00213515 </v>
   <v>       0.00301066       0.24694301       0.73959626 </v>
   <v>       0.75623440       0.25589193       0.49988864 </v>
   <v>       0.00099639       0.74882233       0.75429608 </v>
   <v>       0.24606723       0.49494900       0.75387639 </v>
   <v>       0.24740621       0.24185602       0.99554333 </v>
   <v>       0.50414820       0.25316564       0.25105549 </v>
   <v>       0.73572629       0.99286962       0.25501981 </v>
   <v>       0.75385526       0.25107402       0.99381069 </v>
   <v>       0.25697606       0.75685134       0.99936717 </v>
   <v>       0.25185599       0.24927842       0.50202310 </v>
   <v>       0.24933669       0.75055923       0.50252591 </v>
   <v>       0.24735771       0.24730112       0.24828918 </v>
   <v>       0.24580175       0.00061996       0.00627096 </v>
   <v>       0.00073975       0.24208519       0.99997165 </v>
   <v>       0.75351307       0.25195351       0.25058174 </v>
   <v>       0.74577829       0.99645995       0.99445960 </v>
   <v>       0.49679221       0.99742674       0.27950014 </v>
   <v>       0.99512739       0.49775281       0.24834445 </v>
   <v>       0.50675192       0.76092803       0.99630884 </v>
   <v>       0.98639979       0.00189223       0.74730562 </v>
   <v>       0.75257744       0.25778195       0.74406074 </v>
   <v>       0.75626755       0.00154844       0.50822541 </v>
   <v>       0.50640444       0.25080657       0.50194481 </v>
   <v>       0.53089944       0.99933726       0.73734737 </v>
   <v>       0.99854312       0.99678892       0.25187366 </v>
   <v>       0.50290973       0.23894329       0.99423776 </v>
   <v>       0.25104994       0.74875630       0.25020198 </v>
   <v>       0.24240821       0.50133230       0.99715459 </v>
   <v>       0.99848956       0.74571420       0.00189927 </v>
   <v>       0.74492905       0.74494872       0.25132140 </v>
   <v>       0.75924018       0.50428197       0.00037654 </v>
   <v>       0.50258138       0.50520847       0.25131063 </v>
   <v>       0.24942524       0.24354148       0.74890998 </v>
   <v>       0.25237718       0.99958707       0.51181723 </v>
   <v>       0.99912630       0.24845256       0.50134540 </v>
   <v>       0.24475165       0.75909121       0.75167788 </v>
   <v>       0.25315059       0.49978838       0.49836749 </v>
   <v>       0.99322090       0.75345111       0.50079794 </v>
   <v>       0.99832963       0.49946697       0.75725400 </v>
   <v>       0.75102170       0.75261882       0.75137348 </v>
   <v>       0.74793935       0.50294860       0.49864934 </v>
   <v>       0.50235671       0.76015195       0.49400389 </v>
   <v>       0.50316352       0.50102300       0.74521718 </v>
   <v>       0.52621422       0.01117092       0.95330123 </v>
   <v>       0.00411752       0.52430148       0.98108864 </v>
   <v>       0.50240518       0.73434803       0.26638257 </v>
   <v>       0.22497381       0.00901140       0.73486874 </v>
   <v>       0.47368958       0.98549252       0.52363921 </v>
   <v>       0.74190860       0.96632674       0.77216640 </v>
   <v>       0.00044319       0.75865614       0.25030982 </v>
   <v>       0.74893552       0.50628481       0.24839164 </v>
   <v>       0.00348576       0.00208080       0.50529415 </v>
   <v>       0.49908017       0.51054143       0.49822670 </v>
   <v>       0.75185750       0.51163770       0.75255638 </v>
   <v>       0.74899560       0.74920538       0.49667641 </v>
  </varray>
 </structure>
 <calculation>
  <scstep>
   <time name="dav">   32.76   33.80</time>
   <time name="total">   32.81   33.85</time>
   <energy>
    <i name="alphaZ">   4388.29848576 </i>
    <i name="ewald"> -41507.87504140 </i>
    <i name="hartreedc">  -7358.78995611 </i>
    <i name="XCdc">   1846.40237451 </i>
    <i name="pawpsdc">  28539.56887907 </i>
    <i name="pawaedc"> -28438.60930963 </i>
    <i name="eentropy">     -0.07609209 </i>
    <i name="bandstr">   1859.89269886 </i>
    <i name="atom">  46725.67819383 </i>
    <i name="e_fr_energy">   6054.49023281 </i>
    <i name="e_wo_entrp">   6054.56632490 </i>
    <i name="e_0_energy">   6054.52827885 </i>
   </energy>
  </scstep>
  <scstep>
   <time name="dav">   32.95   33.95</time>
   <time name="total">   32.95   33.95</time>
   <energy>
    <i name="e_fr_energy">    271.84122651 </i>
    <i name="e_wo_entrp">    271.94556149 </i>
    <i name="e_0_energy">    271.89339400 </i>
   </energy>
  </scstep>
  <scstep>
   <time name="dav">   47.25   47.85</time>
   <time name="total">   47.26   47.85</time>
   <energy>
    <i name="e_fr_energy">   -681.12889750 </i>
    <i name="e_wo_entrp">   -681.03723325 </i>
    <i name="e_0_energy">   -681.08306538 </i>
   </energy>
  </scstep>
  <scstep>
   <time name="dav">   51.62   52.08</time>
   <time name="total">   51.62   52.08</time>
   <energy>
    <i name="e_fr_energy">   -778.92417323 </i>
    <i name="e_wo_entrp">   -778.83043233 </i>
    <i name="e_0_energy">   -778.87730278 </i>
   </energy>
  </scstep>
  <scstep>
   <time name="dav">   57.61   58.52</time>
   <time name="total">   58.00   58.91</time>
   <energy>
    <i name="e_fr_energy">   -791.20869883 </i>
    <i name="e_wo_entrp">   -791.10970259 </i>
    <i name="e_0_energy">   -791.15920071 </i>
   </energy>
  </scstep>
  <scstep>
   <time name="diag">    2.13    2.17</time>
   <time name="diis">   33.92   34.39</time>
   <time name="orth">    0.49    0.49</time>
   <time name="total">   36.93   37.45</time>
   <energy>
    <i name="e_fr_energy">   -947.42346744 </i>
    <i name="e_wo_entrp">   -947.26230999 </i>
    <i name="e_0_energy">   -947.34288872 </i>
   </energy>
  </scstep>
  <scstep>
   <time name="diag">    2.05    2.07</time>
   <time name="diis">   30.71   31.13</time>
   <time name="orth">    0.46    0.47</time>
   <time name="total">   33.62   34.08</time>
   <energy>
    <i name="e_fr_energy">   -647.56806975 </i>
    <i name="e_wo_entrp">   -647.44307980 </i>
    <i name="e_0_energy">   -647.50557478 </i>
   </energy>
  </scstep>
  <scstep>
   <time name="diag">    2.07    2.09</time>
   <time name="diis">   41.46   41.97</time>
   <time name="orth">    0.46    0.47</time>
   <time name="total">   44.40   44.93</time>
   <energy>
    <i name="e_fr_energy">   -664.82678985 </i>
    <i name="e_wo_entrp">   -664.70061899 </i>
    <i name="e_0_energy">   -664.76370442 </i>
   </energy>
  </scstep>
  <scstep>
   <time name="diag">    2.05    2.08</time>
   <time name="diis">   34.58   35.05</time>
   <time name="orth">    0.49    0.49</time>
   <time name="total">   37.51   38.03</time>
   <energy>
    <i name="e_fr_energy">   -660.09758845 </i>
    <i name="e_wo_entrp">   -659.98937975 </i>
    <i name="e_0_energy">   -660.04348410 </i>
   </energy>
  </scstep>
  <scstep>
   <time name="diag">    2.09    2.13</time>
   <time name="diis">   41.00   41.95</time>
   <time name="orth">    0.49    0.49</time>
   <time name="total">   43.97   44.97</time>
   <energy>
    <i name="e_fr_energy">   -655.71238821 </i>
    <i name="e_wo_entrp">   -655.59069980 </i>
    <i name="e_0_energy">   -655.65154400 </i>
   </energy>
  </scstep>
  <scstep>
   <time name="diag">    2.08    2.11</time>
   <time name="diis">   36.13   36.61</time>
   <time name="orth">    0.48    0.49</time>
   <time name="total">   39.09   39.61</time>
   <energy>
    <i name="e_fr_energy">   -656.49785123 </i>
    <i name="e_wo_entrp">   -656.37786750 </i>
    <i name="e_0_energy">   -656.43785937 </i>
   </energy>
  </scstep>
  <scstep>
   <time name="diag">    2.03    2.08</time>
   <time name="diis">   37.09   38.43</time>
   <time name="orth">    0.46    0.47</time>
   <time name="total">   39.99   41.39</time>
   <energy>
    <i name="e_fr_energy">   -654.13061042 </i>
    <i name="e_wo_entrp">   -654.01077087 </i>
    <i name="e_0_energy">   -654.07069065 </i>
   </energy>
  </scstep>
  <scstep>
   <time name="diag">    2.04    2.09</time>
   <time name="diis">   38.00   39.10</time>
   <time name="orth">    0.48    0.49</time>
   <time name="total">   40.94   42.10</time>
   <energy>
    <i name="e_fr_energy">   -654.96427721 </i>
    <i name="e_wo_entrp">   -654.82600274 </i>
    <i name="e_0_energy">   -654.89513997 </i>
   </energy>
  </scstep>
  <scstep>
   <time name="diag">    2.05    2.07</time>
   <time name="diis">   36.44   36.83</time>
   <time name="orth">    0.59    0.59</time>
   <time name="total">   39.48   39.90</time>
   <energy>
    <i name="e_fr_energy">   -654.27685350 </i>
    <i name="e_wo_entrp">   -654.14840038 </i>
    <i name="e_0_energy">   -654.21262694 </i>
   </energy>
  </scstep>
  <scstep>
   <time name="diag">    2.06    2.08</time>
   <time name="diis">   39.09   39.69</time>
   <time name="orth">    0.82    0.86</time>
   <time name="total">   42.37   43.04</time>
   <energy>
    <i name="e_fr_energy">   -654.28376142 </i>
    <i name="e_wo_entrp">   -654.14587638 </i>
    <i name="e_0_energy">   -654.21481890 </i>
   </energy>
  </scstep>
  <scstep>
   <time name="diag">    2.05    2.07</time>
   <time name="diis">   38.64   39.22</time>
   <time name="orth">    0.48    0.49</time>
   <time name="total">   41.59   42.21</time>
   <energy>
    <i name="e_fr_energy">   -654.09943607 </i>
    <i name="e_wo_entrp">   -653.96647551 </i>
    <i name="e_0_energy">   -654.03295579 </i>
   </energy>
  </scstep>
  <scstep>
   <time name="diag">    2.05    2.10</time>
   <time name="diis">   41.20   41.78</time>
   <time name="orth">    0.46    0.47</time>
   <time name="total">   44.12   44.75</time>
   <energy>
    <i name="e_fr_energy">   -654.15309064 </i>
    <i name="e_wo_entrp">   -654.02264061 </i>
    <i name="e_0_energy">   -654.08786563 </i>
   </energy>
  </scstep>
  <scstep>
   <time name="diag">    2.06    2.08</time>
   <time name="diis">   36.20   36.72</time>
   <time name="orth">    0.46    0.47</time>
   <time name="total">   39.12   39.67</time>
   <energy>
    <i name="e_fr_energy">   -654.15717081 </i>
    <i name="e_wo_entrp">   -654.02607796 </i>
    <i name="e_0_energy">   -654.09162439 </i>
   </energy>
  </scstep>
  <scstep>
   <time name="diag">    2.03    2.08</time>
   <time name="diis">   38.17   39.56</time>
   <time name="orth">    0.46    0.47</time>
   <time name="total">   41.09   42.55</time>
   <energy>
    <i name="e_fr_energy">   -654.14703409 </i>
    <i name="e_wo_entrp">   -654.01953668 </i>
    <i name="e_0_energy">   -654.08328539 </i>
   </energy>
  </scstep>
  <scstep>
   <time name="diag">    2.07    2.13</time>
   <time name="diis">   39.77   41.15</time>
   <time name="orth">    0.48    0.49</time>
   <time name="total">   42.73   44.19</time>
   <energy>
    <i name="e_fr_energy">   -654.12581645 </i>
    <i name="e_wo_entrp">   -653.99706135 </i>
    <i name="e_0_energy">   -654.06143890 </i>
   </energy>
  </scstep>
  <scstep>
   <time name="diag">    2.05    2.10</time>
   <time name="diis">   38.93   39.97</time>
   <time name="orth">    0.48    0.49</time>
   <time name="total">   41.86   42.96</time>
   <energy>
    <i name="e_fr_energy">   -654.12820376 </i>
    <i name="e_wo_entrp">   -653.99992384 </i>
    <i name="e_0_energy">   -654.06406380 </i>
   </energy>
  </scstep>
  <scstep>
   <time name="diag">    2.19    2.25</time>
   <time name="diis">   37.58   38.14</time>
   <time name="orth">    0.46    0.46</time>
   <time name="total">   40.63   41.26</time>
   <energy>
    <i name="e_fr_energy">   -654.13043323 </i>
    <i name="e_wo_entrp">   -654.00183403 </i>
    <i name="e_0_energy">   -654.06613363 </i>
   </energy>
  </scstep>
  <scstep>
   <time name="diag">    2.05    2.08</time>
   <time name="diis">   36.54   37.00</time>
   <time name="orth">    0.46    0.46</time>
   <time name="total">   39.45   39.96</time>
   <energy>
    <i name="e_fr_energy">   -654.13106843 </i>
    <i name="e_wo_entrp">   -654.00245935 </i>
    <i name="e_0_energy">   -654.06676389 </i>
   </energy>
  </scstep>
  <scstep>
   <time name="diag">    2.04    2.06</time>
   <time name="diis">   36.29   36.66</time>
   <time name="orth">    0.47    0.48</time>
   <time name="total">   39.24   39.66</time>
   <energy>
    <i name="e_fr_energy">   -654.13157392 </i>
    <i name="e_wo_entrp">   -654.00267171 </i>
    <i name="e_0_energy">   -654.06712282 </i>
   </energy>
  </scstep>
  <scstep>
   <time name="diag">    2.06    2.10</time>
   <time name="diis">   34.55   35.65</time>
   <time name="orth">    0.46    0.47</time>
   <time name="total">   37.49   38.67</time>
   <energy>
    <i name="e_fr_energy">   -654.13197734 </i>
    <i name="e_wo_entrp">   -654.00316728 </i>
    <i name="e_0_energy">   -654.06757231 </i>
   </energy>
  </scstep>
  <scstep>
   <time name="diag">    2.03    2.08</time>
   <time name="diis">   33.17   34.26</time>
   <time name="orth">    0.48    0.49</time>
   <time name="total">   36.09   37.26</time>
   <energy>
    <i name="e_fr_energy">   -654.13218067 </i>
    <i name="e_wo_entrp">   -654.00336740 </i>
    <i name="e_0_energy">   -654.06777403 </i>
   </energy>
  </scstep>
  <scstep>
   <time name="diag">    2.03    2.09</time>
   <time name="diis">   33.27   34.45</time>
   <time name="orth">    0.48    0.49</time>
   <time name="total">   36.20   37.45</time>
   <energy>
    <i name="e_fr_energy">   -654.13231936 </i>
    <i name="e_wo_entrp">   -654.00353082 </i>
    <i name="e_0_energy">   -654.06792509 </i>
   </energy>
  </scstep>
  <scstep>
   <time name="diag">    2.04    2.08</time>
   <time name="diis">   32.65   33.57</time>
   <time name="orth">    0.50    0.50</time>
   <time name="total">   35.58   36.58</time>
   <energy>
    <i name="e_fr_energy">   -654.13241669 </i>
    <i name="e_wo_entrp">   -654.00359363 </i>
    <i name="e_0_energy">   -654.06800516 </i>
   </energy>
  </scstep>
  <scstep>
   <time name="diag">    2.11    2.15</time>
   <time name="diis">   32.86   32.97</time>
   <time name="orth">    0.49    0.49</time>
   <time name="total">   35.87   36.02</time>
   <energy>
    <i name="e_fr_energy">   -654.13246665 </i>
    <i name="e_wo_entrp">   -654.00365016 </i>
    <i name="e_0_energy">   -654.06805841 </i>
   </energy>
  </scstep>
  <scstep>
   <time name="diag">    2.05    2.07</time>
   <time name="diis">   31.84   32.07</time>
   <time name="orth">    0.46    0.47</time>
   <time name="total">   34.90   35.15</time>
   <energy>
    <i name="e_fr_energy">   -654.13250583 </i>
    <i name="e_wo_entrp">   -654.00369262 </i>
    <i name="e_0_energy">   -654.06809922 </i>
   </energy>
  </scstep>
  <scstep>
   <time name="diag">    2.16    2.16</time>
   <time name="diis">   31.00   31.33</time>
   <time name="orth">    0.46    0.47</time>
   <time name="total">   34.10   34.46</time>
   <energy>
    <i name="e_fr_energy">   -654.13252809 </i>
    <i name="e_wo_entrp">   -654.00372379 </i>
    <i name="e_0_energy">   -654.06812594 </i>
   </energy>
  </scstep>
  <scstep>
   <time name="diag">    2.05    2.07</time>
   <time name="diis">   29.70   30.03</time>
   <time name="orth">    0.50    0.51</time>
   <time name="total">   32.66   33.03</time>
   <energy>
    <i name="e_fr_energy">   -654.13254197 </i>
    <i name="e_wo_entrp">   -654.00373446 </i>
    <i name="e_0_energy">   -654.06813822 </i>
   </energy>
  </scstep>
  <scstep>
   <time name="diag">    2.05    2.07</time>
   <time name="diis">   27.72   28.08</time>
   <time name="orth">    0.46    0.46</time>
   <time name="total">   30.63   31.03</time>
   <energy>
    <i name="e_fr_energy">   -654.13255304 </i>
    <i name="e_wo_entrp">   -654.00374977 </i>
    <i name="e_0_energy">   -654.06815140 </i>
   </energy>
  </scstep>
  <scstep>
   <time name="diag">    2.05    2.07</time>
   <time name="diis">   25.89   26.29</time>
   <time name="orth">    0.48    0.49</time>
   <time name="total">   28.49   28.91</time>
   <energy>
    <i name="alphaZ">   4388.29848576 </i>
    <i name="ewald"> -41507.87504140 </i>
    <i name="hartreedc">  -6951.77278739 </i>
    <i name="XCdc">   1839.13832070 </i>
    <i name="pawpsdc">  30153.13200401 </i>
    <i name="pawaedc"> -30078.86471198 </i>
    <i name="eentropy">     -0.12880297 </i>
    <i name="bandstr">  -5221.73821996 </i>
    <i name="atom">  46725.67819383 </i>
    <i name="e_fr_energy">   -654.13255939 </i>
    <i name="e_wo_entrp">   -654.00375642 </i>
    <i name="e_0_energy">   -654.06815791 </i>
   </energy>
  </scstep>
  <structure>
   <crystal>
    <varray name="basis" >
     <v>       8.96322135       0.01332519      -0.01329126 </v>
     <v>       0.01930872       8.99227925      -0.02330651 </v>
     <v>       0.01893902      -0.03865874       8.98613578 </v>
    </varray>
    <i name="volume">    724.27253135 </i>
    <varray name="rec_basis" >
     <v>       0.11156704      -0.00024018      -0.00023617 </v>
     <v>      -0.00016462       0.11120811       0.00047877 </v>
     <v>       0.00016459       0.00028807       0.11128343 </v>
    </varray>
   </crystal>
   <varray name="positions" >
    <v>       0.99788660       0.99353413       0.99378316 </v>
    <v>       0.26246545       0.99658901       0.25528298 </v>
    <v>       0.24373700       0.50004432       0.24532877 </v>
    <v>       0.49871619       0.50085396       0.99765038 </v>
    <v>       0.50454281       0.24455275       0.74280518 </v>
    <v>       0.99917412       0.50047482       0.50469564 </v>
    <v>       0.49863580       0.75788148       0.74681921 </v>
    <v>       0.99390872       0.23548157       0.26119476 </v>
    <v>       0.74978898       0.74728072       0.00213515 </v>
    <v>       0.00301066       0.24694301       0.73959626 </v>
    <v>       0.75623440       0.25589193       0.49988864 </v>
    <v>       0.00099639       0.74882233       0.75429608 </v>
    <v>       0.24606723       0.49494900       0.75387639 </v>
    <v>       0.24740621       0.24185602       0.99554333 </v>
    <v>       0.50414820       0.25316564       0.25105549 </v>
    <v>       0.73572629       0.99286962       0.25501981 </v>
    <v>       0.75385526       0.25107402       0.99381069 </v>
    <v>       0.25697606       0.75685134       0.99936717 </v>
    <v>       0.25185599       0.24927842       0.50202310 </v>
    <v>       0.24933669       0.75055923       0.50252591 </v>
    <v>       0.24735771       0.24730112       0.24828918 </v>
    <v>       0.24580175       0.00061996       0.00627096 </v>
    <v>       0.00073975       0.24208519       0.99997165 </v>
    <v>       0.75351307       0.25195351       0.25058174 </v>
    <v>       0.74577829       0.99645995       0.99445960 </v>
    <v>       0.49679221       0.99742674       0.27950014 </v>
    <v>       0.99512739       0.49775281       0.24834445 </v>
    <v>       0.50675192       0.76092803       0.99630884 </v>
    <v>       0.98639979       0.00189223       0.74730562 </v>
    <v>       0.75257744       0.25778195       0.74406074 </v>
    <v>       0.75626755       0.00154844       0.50822541 </v>
    <v>       0.50640444       0.25080657       0.50194481 </v>
    <v>       0.53089944       0.99933726       0.73734737 </v>
    <v>       0.99854312       0.99678892       0.25187366 </v>
    <v>       0.50290973       0.23894329       0.99423776 </v>
    <v>       0.25104994       0.74875630       0.25020198 </v>
    <v>       0.24240821       0.50133230       0.99715459 </v>
    <v>       0.99848956       0.74571420       0.00189927 </v>
    <v>       0.74492905       0.74494872       0.25132140 </v>
    <v>       0.75924018       0.50428197       0.00037654 </v>
    <v>       0.50258138       0.50520847       0.25131063 </v>
    <v>       0.24942524       0.24354148       0.74890998 </v>
    <v>       0.25237718       0.99958707       0.51181723 </v>
    <v>       0.99912630       0.24845256       0.50134540 </v>
    <v>       0.24475165       0.75909121       0.75167788 </v>
    <v>       0.25315059       0.49978838       0.49836749 </v>
    <v>       0.99322090       0.75345111       0.50079794 </v>
    <v>       0.99832963       0.49946697       0.75725400 </v>
    <v>       0.75102170       0.75261882       0.75137348 </v>
    <v>       0.74793935       0.50294860       0.49864934 </v>
    <v>       0.50235671       0.76015195       0.49400389 </v>
    <v>       0.50316352       0.50102300       0.74521718 </v>
    <v>       0.52621422       0.01117092       0.95330123 </v>
    <v>       0.00411752       0.52430148       0.98108864 </v>
    <v>       0.50240518       0.73434803       0.26638257 </v>
    <v>       0.22497381       0.00901140       0.73486874 </v>
    <v>       0.47368958       0.98549252       0.52363921 </v>
    <v>       0.74190860       0.96632674       0.77216640 </v>
    <v>       0.00044319       0.75865614       0.25030982 </v>
    <v>       0.74893552       0.50628481       0.24839164 </v>
    <v>       0.00348576       0.00208080       0.50529415 </v>
    <v>       0.49908017       0.51054143       0.49822670 </v>
    <v>       0.75185750       0.51163770       0.75255638 </v>
    <v>       0.74899560       0.74920538       0.49667641 </v>
   </varray>
  </structure>
  <varray name="forces" >
   <v>      -0.00296938      -0.00275816      -0.00600131 </v>
   <v>       0.00361873       0.00151825       0.00048195 </v>
   <v>      -0.00099674      -0.00053026      -0.00729626 </v>
   <v>      -0.00134751      -0.00100426       0.00106000 </v>
   <v>       0.00366969      -0.00190153      -0.00052850 </v>
   <v>      -0.00584562       0.00211553       0.00003116 </v>
   <v>      -0.00719717       0.00016122       0.00514789 </v>
   <v>       0.00139206       0.00210447       0.00028513 </v>
   <v>       0.00045723       0.00007470       0.00349922 </v>
   <v>       0.00317875      -0.00037411      -0.00395469 </v>
   <v>       0.00421657      -0.00329194      -0.00406735 </v>
   <v>       0.00289660      -0.00229478       0.00166881 </v>
   <v>       0.00150040      -0.00074406       0.00557679 </v>
   <v>       0.00222910       0.00565051      -0.00850922 </v>
   <v>      -0.00022458       0.00138854       0.00069849 </v>
   <v>      -0.00396085       0.00215721       0.00142296 </v>
   <v>       0.00148116      -0.00226896      -0.00100736 </v>
   <v>       0.00284092      -0.00636478      -0.00422652 </v>
   <v>       0.00163686      -0.00393016      -0.00319124 </v>
   <v>       0.00331903       0.00498008       0.00338320 </v>
   <v>      -0.00089264       0.00043912      -0.00004347 </v>
   <v>       0.00723385      -0.00270831      -0.00398790 </v>
   <v>       0.00168488      -0.00040784      -0.00154658 </v>
   <v>       0.00210618       0.00098152      -0.00118332 </v>
   <v>      -0.00228967      -0.00033362      -0.00309921 </v>
   <v>       0.00025507       0.00186050      -0.00556314 </v>
   <v>      -0.00005666       0.00115620       0.00055305 </v>
   <v>      -0.00053962      -0.00283109       0.00363032 </v>
   <v>       0.00202208      -0.00253883      -0.00069683 </v>
   <v>       0.00177520      -0.00113042      -0.00040451 </v>
   <v>      -0.00368708       0.00158383       0.00307684 </v>
   <v>      -0.00039398       0.00222906      -0.00044757 </v>
   <v>      -0.00051708      -0.00187291       0.00759691 </v>
   <v>       0.00263747       0.00117709      -0.00137486 </v>
   <v>      -0.00024138       0.00065181      -0.00281143 </v>
   <v>      -0.00054482       0.00201877       0.00080314 </v>
   <v>      -0.00414698      -0.00197680       0.00371389 </v>
   <v>      -0.00048545      -0.00014342       0.00171761 </v>
   <v>      -0.00080343       0.00174765      -0.00016219 </v>
   <v>      -0.00047651      -0.00025384       0.00060634 </v>
   <v>      -0.00159190       0.00538235       0.00086856 </v>
   <v>       0.00064916      -0.00214031       0.00415800 </v>
   <v>       0.00192438       0.00044523       0.00011359 </v>
   <v>       0.00004207       0.00087705      -0.00049870 </v>
   <v>      -0.00057660      -0.00216128       0.00072530 </v>
   <v>      -0.00100583       0.00122240      -0.00019904 </v>
   <v>      -0.00324941      -0.00006099       0.00022696 </v>
   <v>      -0.00029489      -0.00045716      -0.00190360 </v>
   <v>      -0.00024079      -0.00343066       0.00229505 </v>
   <v>      -0.00028559       0.00093316       0.00212539 </v>
   <v>      -0.00592268       0.00510656       0.00104894 </v>
   <v>      -0.00089141       0.00169615       0.00054126 </v>
   <v>      -0.00377149       0.00367332      -0.00188072 </v>
   <v>       0.00106913      -0.00485046       0.00170893 </v>
   <v>       0.00124556       0.00104599       0.00094733 </v>
   <v>       0.00277531       0.00361022       0.00078298 </v>
   <v>       0.00086865      -0.00680156      -0.00098630 </v>
   <v>      -0.00611682       0.00302821       0.00300431 </v>
   <v>      -0.00307496      -0.00338485       0.00159550 </v>
   <v>       0.00138256      -0.00105851       0.00150064 </v>
   <v>      -0.00007199       0.00124804       0.00270988 </v>
   <v>       0.00186038      -0.00118307      -0.00132453 </v>
   <v>       0.00178799      -0.00295230      -0.00186581 </v>
   <v>       0.00095449       0.00587651      -0.00054412 </v>
  </varray>
  <varray name="stress" >
   <v>       1.16502294       0.29987625      -0.21979089 </v>
   <v>       0.29987620      -0.65876735      -0.47738155 </v>
   <v>      -0.21979204      -0.47738153       1.26009925 </v>
  </varray>
  <energy>
   <i name="e_fr_energy">   -654.13255939 </i>
   <i name="e_wo_entrp">   -654.06815791 </i>
   <i name="e_0_energy">     -0.12880297 </i>
  </energy>
  <time name="totalsc"> 1412.37 1439.01</time>
  <eigenvalues>
   <array>
    <dimension dim="1">band</dimension>
    <dimension dim="2">kpoint</dimension>
    <dimension dim="3">spin</dimension>
    <field>eigene</field>
    <field>occ</field>
    <set>
     <set comment="spin 1">
      <set comment="kpoint 1">
       <r>  -47.6883    1.0000 </r>
       <r>  -47.6013    1.0000 </r>
       <r>  -47.4915    1.0000 </r>
       <r>  -47.4766    1.0000 </r>
       <r>  -47.2653    1.0000 </r>
       <r>  -47.2223    1.0000 </r>
       <r>  -40.8500    1.0000 </r>
       <r>  -40.7868    1.0000 </r>
       <r>  -40.7653    1.0000 </r>
       <r>  -40.4270    1.0000 </r>
       <r>  -40.2968    1.0000 </r>
       <r>  -40.2765    1.0000 </r>
       <r>  -39.8824    1.0000 </r>
       <r>  -35.4455    1.0000 </r>
       <r>  -35.2735    1.0000 </r>
       <r>  -35.2328    1.0000 </r>
       <r>  -35.2312    1.0000 </r>
       <r>  -35.2220    1.0000 </r>
       <r>  -35.2156    1.0000 </r>
       <r>  -35.1886    1.0000 </r>
       <r>  -35.1833    1.0000 </r>
       <r>  -35.1674    1.0000 </r>
       <r>  -35.1565    1.0000 </r>
       <r>  -35.1515    1.0000 </r>
       <r>  -35.1256    1.0000 </r>
       <r>  -35.1241    1.0000 </r>
       <r>  -35.1168    1.0000 </r>
       <r>  -35.1102    1.0000 </r>
       <r>  -35.0996    1.0000 </r>
       <r>  -35.0297    1.0000 </r>
       <r>  -34.8881    1.0000 </r>
       <r>  -27.1059    1.0000 </r>
       <r>  -27.0900    1.0000 </r>
       <r>  -27.0599    1.0000 </r>
       <r>  -27.0121    1.0000 </r>
       <r>  -26.9350    1.0000 </r>
       <r>  -26.9059    1.0000 </r>
       <r>  -26.8858    1.0000 </r>
       <r>  -26.8573    1.0000 </r>
       <r>  -26.8512    1.0000 </r>
       <r>  -26.8300    1.0000 </r>
       <r>  -26.8260    1.0000 </r>
       <r>  -26.7963    1.0000 </r>
       <r>  -26.7772    1.0000 </r>
       <r>  -26.7507    1.0000 </r>
       <r>  -26.7429    1.0000 </r>
       <r>  -26.7041    1.0000 </r>
       <r>  -26.6648    1.0000 </r>
       <r>  -26.6484    1.0000 </r>
       <r>  -23.9972    1.0000 </r>
       <r>  -23.8952    1.0000 </r>
       <r>  -23.8150    1.0000 </r>
       <r>  -23.7655    1.0000 </r>
       <r>  -23.7206    1.0000 </r>
       <r>  -23.7125    1.0000 </r>
       <r>  -23.6740    1.0000 </r>
       <r>  -23.6688    1.0000 </r>
       <r>  -23.6431    1.0000 </r>
       <r>  -23.6297    1.0000 </r>
       <r>  -23.6149    1.0000 </r>
       <r>  -23.5716    1.0000 </r>
       <r>  -23.5219    1.0000 </r>
       <r>  -23.4173    1.0000 </r>
       <r>  -23.3880    1.0000 </r>
       <r>  -23.3474    1.0000 </r>
       <r>  -23.3169    1.0000 </r>
       <r>  -23.2917    1.0000 </r>
       <r>  -22.7115    1.0000 </r>
       <r>  -22.6393    1.0000 </r>
       <r>  -22.6091    1.0000 </r>
       <r>  -22.4253    1.0000 </r>
       <r>  -22.3870    1.0000 </r>
       <r>  -22.3764    1.0000 </r>
       <r>  -22.3687    1.0000 </r>
       <r>  -22.3622    1.0000 </r>
       <r>  -22.3580    1.0000 </r>
       <r>  -22.3347    1.0000 </r>
       <r>  -22.3195    1.0000 </r>
       <r>  -22.2514    1.0000 </r>
       <r>  -22.2417    1.0000 </r>
       <r>  -22.2321    1.0000 </r>
       <r>  -22.2216    1.0000 </r>
       <r>  -22.1970    1.0000 </r>
       <r>  -22.1928    1.0000 </r>
       <r>  -22.1722    1.0000 </r>
       <r>  -22.1624    1.0000 </r>
       <r>  -22.1294    1.0000 </r>
       <r>  -22.0379    1.0000 </r>
       <r>  -19.3951    1.0000 </r>
       <r>  -19.2217    1.0000 </r>
       <r>  -19.1877    1.0000 </r>
       <r>  -19.1422    1.0000 </r>
       <r>  -19.0954    1.0000 </r>
       <r>  -19.0643    1.0000 </r>
       <r>  -19.0104    1.0000 </r>
       <r>  -18.9562    1.0000 </r>
       <r>  -18.9085    1.0000 </r>
       <r>  -18.7591    1.0000 </r>
       <r>  -18.7349    1.0000 </r>
       <r>  -18.7044    1.0000 </r>
       <r>  -18.6426    1.0000 </r>
       <r>  -18.6336    1.0000 </r>
       <r>  -18.6175    1.0000 </r>
       <r>  -18.6014    1.0000 </r>
       <r>  -18.5905    1.0000 </r>
       <r>  -18.5743    1.0000 </r>
       <r>  -18.2654    1.0000 </r>
       <r>  -18.2483    1.0000 </r>
       <r>  -18.2376    1.0000 </r>
       <r>   -7.7156    1.0000 </r>
       <r>   -7.3934    1.0000 </r>
       <r>   -7.1557    1.0000 </r>
       <r>   -7.0815    1.0000 </r>
       <r>   -6.7896    1.0000 </r>
       <r>   -6.6868    1.0000 </r>
       <r>   -6.6364    1.0000 </r>
       <r>   -6.4594    1.0000 </r>
       <r>   -6.4194    1.0000 </r>
       <r>   -6.3563    1.0000 </r>
       <r>   -6.2708    1.0000 </r>
       <r>   -6.1654    1.0000 </r>
       <r>   -5.9241    1.0000 </r>
       <r>   -4.3240    1.0000 </r>
       <r>   -3.6917    1.0000 </r>
       <r>   -3.5358    1.0000 </r>
       <r>   -3.2379    1.0000 </r>
       <r>   -3.2046    1.0000 </r>
       <r>   -3.0969    1.0000 </r>
       <r>   -3.0537    1.0000 </r>
       <r>   -2.9248    1.0000 </r>
       <r>   -2.7134    1.0000 </r>
       <r>   -2.6997    1.0000 </r>
       <r>   -2.5758    1.0000 </r>
       <r>   -2.5609    1.0000 </r>
       <r>   -2.4783    1.0000 </r>
       <r>   -2.3830    1.0000 </r>
       <r>   -2.1770    1.0000 </r>
       <r>   -2.0547    1.0000 </r>
       <r>   -1.9416    1.0000 </r>
       <r>   -1.5933    1.0000 </r>
       <r>   -1.5685    1.0000 </r>
       <r>    0.4847    1.0000 </r>
       <r>    0.5320    1.0000 </r>
       <r>    0.6940    1.0000 </r>
       <r>    0.9162    1.0000 </r>
       <r>    1.5356    1.0000 </r>
       <r>    1.6877    1.0000 </r>
       <r>    1.7067    1.0000 </r>
       <r>    1.7321    1.0000 </r>
       <r>    1.7641    1.0000 </r>
       <r>    1.7697    1.0000 </r>
       <r>    1.8388    1.0000 </r>
       <r>    1.8801    1.0000 </r>
       <r>    1.9526    1.0000 </r>
       <r>    2.0257    1.0000 </r>
       <r>    2.0768    1.0000 </r>
       <r>    2.1713    1.0000 </r>
       <r>    2.5661    1.0000 </r>
       <r>    2.6413    1.0000 </r>
       <r>    2.6669    1.0000 </r>
       <r>    2.7267    1.0000 </r>
       <r>    2.7640    1.0000 </r>
       <r>    2.7712    1.0000 </r>
       <r>    2.8669    1.0000 </r>
       <r>    2.9203    1.0000 </r>
       <r>    2.9651    1.0000 </r>
       <r>    2.9840    1.0000 </r>
       <r>    3.0521    1.0000 </r>
       <r>    3.0932    1.0000 </r>
       <r>    3.1154    1.0000 </r>
       <r>    3.1759    1.0000 </r>
       <r>    3.2151    1.0000 </r>
       <r>    3.2522    1.0000 </r>
       <r>    3.2880    1.0000 </r>
       <r>    3.3314    1.0000 </r>
       <r>    3.3824    1.0000 </r>
       <r>    3.4032    1.0000 </r>
       <r>    3.4433    1.0000 </r>
       <r>    3.4794    1.0000 </r>
       <r>    3.5419    1.0000 </r>
       <r>    3.5530    1.0000 </r>
       <r>    3.5889    1.0000 </r>
       <r>    3.6358    1.0000 </r>
       <r>    3.6653    1.0000 </r>
       <r>    3.6793    1.0000 </r>
       <r>    3.7421    1.0000 </r>
       <r>    3.7585    1.0000 </r>
       <r>    3.7979    1.0000 </r>
       <r>    3.8055    1.0000 </r>
       <r>    3.8355    1.0000 </r>
       <r>    3.8456    1.0000 </r>
       <r>    3.8664    1.0000 </r>
       <r>    3.8813    1.0000 </r>
       <r>    3.9386    1.0000 </r>
       <r>    3.9521    1.0000 </r>
       <r>    4.0079    1.0000 </r>
       <r>    4.0365    1.0000 </r>
       <r>    4.0686    1.0000 </r>
       <r>    4.0981    1.0000 </r>
       <r>    4.1422    1.0000 </r>
       <r>    4.1678    1.0000 </r>
       <r>    4.1880    1.0000 </r>
       <r>    4.2070    1.0000 </r>
       <r>    4.2221    1.0000 </r>
       <r>    4.2638    1.0000 </r>
       <r>    4.2720    1.0000 </r>
       <r>    4.2960    1.0000 </r>
       <r>    4.3471    1.0000 </r>
       <r>    4.3999    1.0000 </r>
       <r>    4.4476    1.0000 </r>
       <r>    4.4734    1.0000 </r>
       <r>    4.4954    1.0000 </r>
       <r>    4.6247    1.0000 </r>
       <r>    4.6620    1.0000 </r>
       <r>    4.7641    1.0000 </r>
       <r>    4.7663    1.0000 </r>
       <r>    4.8371    1.0000 </r>
       <r>    5.0472    1.0000 </r>
       <r>    5.0685    1.0000 </r>
       <r>    5.3458    1.0000 </r>
       <r>    5.4670    1.0000 </r>
       <r>    5.6008    1.0000 </r>
       <r>    5.6946    1.0000 </r>
       <r>    5.7375    1.0000 </r>
       <r>    5.8240    1.0000 </r>
       <r>    5.8548    1.0000 </r>
       <r>    5.8752    1.0000 </r>
       <r>    5.8985    1.0000 </r>
       <r>    5.9652    1.0000 </r>
       <r>    6.0192    1.0000 </r>
       <r>    6.0256    1.0000 </r>
       <r>    6.1513    1.0000 </r>
       <r>    6.1786    1.0000 </r>
       <r>    6.2007    1.0000 </r>
       <r>    6.2541    1.0000 </r>
       <r>    6.2907    1.0000 </r>
       <r>    6.3873    1.0000 </r>
       <r>    6.4265    1.0000 </r>
       <r>    6.4679    1.0000 </r>
       <r>    6.5572    1.0000 </r>
       <r>    6.6204    1.0000 </r>
       <r>    6.7068    1.0000 </r>
       <r>    6.7749    1.0000 </r>
       <r>    7.2050    1.0000 </r>
       <r>    7.2591    1.0000 </r>
       <r>    7.3592    1.0000 </r>
       <r>    7.4480    1.0000 </r>
       <r>    7.6040    1.0000 </r>
       <r>    7.6561    1.0000 </r>
       <r>    7.8527    1.0000 </r>
       <r>    7.9725    1.0000 </r>
       <r>    8.1834    0.9840 </r>
       <r>    8.2776    0.7918 </r>
       <r>    8.3631    0.3457 </r>
       <r>    8.5326    0.0026 </r>
       <r>    8.5590    0.0008 </r>
       <r>    8.6424    0.0000 </r>
       <r>    8.6731    0.0000 </r>
       <r>    8.7981    0.0000 </r>
       <r>    8.8213    0.0000 </r>
       <r>    8.8830    0.0000 </r>
       <r>    8.9103    0.0000 </r>
       <r>    8.9913    0.0000 </r>
       <r>    9.0736    0.0000 </r>
       <r>    9.0805    0.0000 </r>
       <r>    9.1089    0.0000 </r>
       <r>    9.1389    0.0000 </r>
       <r>    9.2201    0.0000 </r>
       <r>    9.2774    0.0000 </r>
       <r>    9.3043    0.0000 </r>
       <r>    9.3431    0.0000 </r>
       <r>    9.3993    0.0000 </r>
       <r>    9.4144    0.0000 </r>
       <r>    9.5526    0.0000 </r>
       <r>    9.5747    0.0000 </r>
       <r>    9.6756    0.0000 </r>
       <r>    9.7623    0.0000 </r>
       <r>    9.8252    0.0000 </r>
       <r>    9.8596    0.0000 </r>
       <r>    9.9367    0.0000 </r>
       <r>    9.9710    0.0000 </r>
       <r>   10.0148    0.0000 </r>
       <r>   10.0525    0.0000 </r>
       <r>   10.0784    0.0000 </r>
       <r>   10.1333    0.0000 </r>
       <r>   10.1501    0.0000 </r>
       <r>   10.1799    0.0000 </r>
       <r>   10.2198    0.0000 </r>
       <r>   10.3111    0.0000 </r>
       <r>   10.3539    0.0000 </r>
       <r>   10.4032    0.0000 </r>
       <r>   10.4511    0.0000 </r>
       <r>   10.4577    0.0000 </r>
       <r>   10.5177    0.0000 </r>
       <r>   10.5710    0.0000 </r>
       <r>   10.6288    0.0000 </r>
       <r>   10.6635    0.0000 </r>
       <r>   10.6856    0.0000 </r>
       <r>   10.7389    0.0000 </r>
       <r>   10.8068    0.0000 </r>
       <r>   10.8615    0.0000 </r>
       <r>   10.9069    0.0000 </r>
       <r>   10.9627    0.0000 </r>
       <r>   10.9973    0.0000 </r>
       <r>   11.0743    0.0000 </r>
       <r>   11.0964    0.0000 </r>
       <r>   11.1828    0.0000 </r>
       <r>   11.2853    0.0000 </r>
       <r>   11.3329    0.0000 </r>
       <r>   11.3772    0.0000 </r>
       <r>   11.5046    0.0000 </r>
       <r>   11.5305    0.0000 </r>
      </set>
      <set comment="kpoint 2">
       <r>  -47.6883    1.0000 </r>
       <r>  -47.6013    1.0000 </r>
       <r>  -47.4915    1.0000 </r>
       <r>  -47.4766    1.0000 </r>
       <r>  -47.2653    1.0000 </r>
       <r>  -47.2223    1.0000 </r>
       <r>  -40.8500    1.0000 </r>
       <r>  -40.7868    1.0000 </r>
       <r>  -40.7653    1.0000 </r>
       <r>  -40.4270    1.0000 </r>
       <r>  -40.2968    1.0000 </r>
       <r>  -40.2765    1.0000 </r>
       <r>  -39.8824    1.0000 </r>
       <r>  -35.4455    1.0000 </r>
       <r>  -35.2735    1.0000 </r>
       <r>  -35.2328    1.0000 </r>
       <r>  -35.2312    1.0000 </r>
       <r>  -35.2219    1.0000 </r>
       <r>  -35.2156    1.0000 </r>
       <r>  -35.1886    1.0000 </r>
       <r>  -35.1833    1.0000 </r>
       <r>  -35.1675    1.0000 </r>
       <r>  -35.1565    1.0000 </r>
       <r>  -35.1514    1.0000 </r>
       <r>  -35.1256    1.0000 </r>
       <r>  -35.1241    1.0000 </r>
       <r>  -35.1167    1.0000 </r>
       <r>  -35.1102    1.0000 </r>
       <r>  -35.0996    1.0000 </r>
       <r>  -35.0297    1.0000 </r>
       <r>  -34.8880    1.0000 </r>
       <r>  -27.1059    1.0000 </r>
       <r>  -27.0899    1.0000 </r>
       <r>  -27.0599    1.0000 </r>
       <r>  -27.0118    1.0000 </r>
       <r>  -26.9351    1.0000 </r>
       <r>  -26.9059    1.0000 </r>
       <r>  -26.8858    1.0000 </r>
       <r>  -26.8574    1.0000 </r>
       <r>  -26.8512    1.0000 </r>
       <r>  -26.8300    1.0000 </r>
       <r>  -26.8260    1.0000 </r>
       <r>  -26.7970    1.0000 </r>
       <r>  -26.7773    1.0000 </r>
       <r>  -26.7509    1.0000 </r>
       <r>  -26.7428    1.0000 </r>
       <r>  -26.7042    1.0000 </r>
       <r>  -26.6647    1.0000 </r>
       <r>  -26.6480    1.0000 </r>
       <r>  -23.9968    1.0000 </r>
       <r>  -23.8951    1.0000 </r>
       <r>  -23.8150    1.0000 </r>
       <r>  -23.7655    1.0000 </r>
       <r>  -23.7205    1.0000 </r>
       <r>  -23.7124    1.0000 </r>
       <r>  -23.6741    1.0000 </r>
       <r>  -23.6684    1.0000 </r>
       <r>  -23.6430    1.0000 </r>
       <r>  -23.6304    1.0000 </r>
       <r>  -23.6148    1.0000 </r>
       <r>  -23.5714    1.0000 </r>
       <r>  -23.5225    1.0000 </r>
       <r>  -23.4174    1.0000 </r>
       <r>  -23.3889    1.0000 </r>
       <r>  -23.3475    1.0000 </r>
       <r>  -23.3165    1.0000 </r>
       <r>  -23.2909    1.0000 </r>
       <r>  -22.7116    1.0000 </r>
       <r>  -22.6392    1.0000 </r>
       <r>  -22.6095    1.0000 </r>
       <r>  -22.4272    1.0000 </r>
       <r>  -22.3877    1.0000 </r>
       <r>  -22.3765    1.0000 </r>
       <r>  -22.3686    1.0000 </r>
       <r>  -22.3618    1.0000 </r>
       <r>  -22.3577    1.0000 </r>
       <r>  -22.3347    1.0000 </r>
       <r>  -22.3186    1.0000 </r>
       <r>  -22.2514    1.0000 </r>
       <r>  -22.2412    1.0000 </r>
       <r>  -22.2316    1.0000 </r>
       <r>  -22.2189    1.0000 </r>
       <r>  -22.1968    1.0000 </r>
       <r>  -22.1927    1.0000 </r>
       <r>  -22.1746    1.0000 </r>
       <r>  -22.1598    1.0000 </r>
       <r>  -22.1300    1.0000 </r>
       <r>  -22.0406    1.0000 </r>
       <r>  -19.3969    1.0000 </r>
       <r>  -19.2217    1.0000 </r>
       <r>  -19.1887    1.0000 </r>
       <r>  -19.1398    1.0000 </r>
       <r>  -19.0941    1.0000 </r>
       <r>  -19.0635    1.0000 </r>
       <r>  -19.0102    1.0000 </r>
       <r>  -18.9553    1.0000 </r>
       <r>  -18.9081    1.0000 </r>
       <r>  -18.7592    1.0000 </r>
       <r>  -18.7352    1.0000 </r>
       <r>  -18.7054    1.0000 </r>
       <r>  -18.6431    1.0000 </r>
       <r>  -18.6335    1.0000 </r>
       <r>  -18.6176    1.0000 </r>
       <r>  -18.6019    1.0000 </r>
       <r>  -18.5907    1.0000 </r>
       <r>  -18.5755    1.0000 </r>
       <r>  -18.2654    1.0000 </r>
       <r>  -18.2484    1.0000 </r>
       <r>  -18.2376    1.0000 </r>
       <r>   -7.6469    1.0000 </r>
       <r>   -7.3247    1.0000 </r>
       <r>   -7.1951    1.0000 </r>
       <r>   -7.0906    1.0000 </r>
       <r>   -6.8173    1.0000 </r>
       <r>   -6.6759    1.0000 </r>
       <r>   -6.6332    1.0000 </r>
       <r>   -6.4880    1.0000 </r>
       <r>   -6.4189    1.0000 </r>
       <r>   -6.3640    1.0000 </r>
       <r>   -6.2767    1.0000 </r>
       <r>   -6.1605    1.0000 </r>
       <r>   -5.9165    1.0000 </r>
       <r>   -4.2253    1.0000 </r>
       <r>   -3.7684    1.0000 </r>
       <r>   -3.5077    1.0000 </r>
       <r>   -3.3158    1.0000 </r>
       <r>   -3.1293    1.0000 </r>
       <r>   -3.1090    1.0000 </r>
       <r>   -3.0435    1.0000 </r>
       <r>   -2.9048    1.0000 </r>
       <r>   -2.7758    1.0000 </r>
       <r>   -2.7278    1.0000 </r>
       <r>   -2.6670    1.0000 </r>
       <r>   -2.5791    1.0000 </r>
       <r>   -2.5152    1.0000 </r>
       <r>   -2.4104    1.0000 </r>
       <r>   -2.2520    1.0000 </r>
       <r>   -2.1933    1.0000 </r>
       <r>   -2.1078    1.0000 </r>
       <r>   -1.7607    1.0000 </r>
       <r>   -1.7139    1.0000 </r>
       <r>    0.7960    1.0000 </r>
       <r>    0.8103    1.0000 </r>
       <r>    1.0336    1.0000 </r>
       <r>    1.1456    1.0000 </r>
       <r>    1.4532    1.0000 </r>
       <r>    1.5111    1.0000 </r>
       <r>    1.6253    1.0000 </r>
       <r>    1.7312    1.0000 </r>
       <r>    1.9389    1.0000 </r>
       <r>    2.0025    1.0000 </r>
       <r>    2.0123    1.0000 </r>
       <r>    2.0600    1.0000 </r>
       <r>    2.0701    1.0000 </r>
       <r>    2.1569    1.0000 </r>
       <r>    2.2286    1.0000 </r>
       <r>    2.3572    1.0000 </r>
       <r>    2.4605    1.0000 </r>
       <r>    2.5289    1.0000 </r>
       <r>    2.6301    1.0000 </r>
       <r>    2.6407    1.0000 </r>
       <r>    2.7445    1.0000 </r>
       <r>    2.8006    1.0000 </r>
       <r>    2.8323    1.0000 </r>
       <r>    2.9315    1.0000 </r>
       <r>    3.0017    1.0000 </r>
       <r>    3.0221    1.0000 </r>
       <r>    3.0555    1.0000 </r>
       <r>    3.0760    1.0000 </r>
       <r>    3.1122    1.0000 </r>
       <r>    3.1564    1.0000 </r>
       <r>    3.2047    1.0000 </r>
       <r>    3.2496    1.0000 </r>
       <r>    3.2936    1.0000 </r>
       <r>    3.3899    1.0000 </r>
       <r>    3.4436    1.0000 </r>
       <r>    3.4777    1.0000 </r>
       <r>    3.5188    1.0000 </r>
       <r>    3.5456    1.0000 </r>
       <r>    3.5805    1.0000 </r>
       <r>    3.6105    1.0000 </r>
       <r>    3.6431    1.0000 </r>
       <r>    3.6676    1.0000 </r>
       <r>    3.6963    1.0000 </r>
       <r>    3.7285    1.0000 </r>
       <r>    3.7678    1.0000 </r>
       <r>    3.7944    1.0000 </r>
       <r>    3.8447    1.0000 </r>
       <r>    3.8580    1.0000 </r>
       <r>    3.8869    1.0000 </r>
       <r>    3.9141    1.0000 </r>
       <r>    3.9284    1.0000 </r>
       <r>    3.9603    1.0000 </r>
       <r>    3.9813    1.0000 </r>
       <r>    4.0247    1.0000 </r>
       <r>    4.0509    1.0000 </r>
       <r>    4.0788    1.0000 </r>
       <r>    4.0999    1.0000 </r>
       <r>    4.1345    1.0000 </r>
       <r>    4.1734    1.0000 </r>
       <r>    4.1875    1.0000 </r>
       <r>    4.2456    1.0000 </r>
       <r>    4.2669    1.0000 </r>
       <r>    4.3094    1.0000 </r>
       <r>    4.3457    1.0000 </r>
       <r>    4.3915    1.0000 </r>
       <r>    4.4316    1.0000 </r>
       <r>    4.4769    1.0000 </r>
       <r>    4.5056    1.0000 </r>
       <r>    4.5060    1.0000 </r>
       <r>    4.5629    1.0000 </r>
       <r>    4.6114    1.0000 </r>
       <r>    4.6630    1.0000 </r>
       <r>    4.7117    1.0000 </r>
       <r>    4.7802    1.0000 </r>
       <r>    4.8317    1.0000 </r>
       <r>    4.8513    1.0000 </r>
       <r>    4.8760    1.0000 </r>
       <r>    4.9179    1.0000 </r>
       <r>    4.9302    1.0000 </r>
       <r>    5.1093    1.0000 </r>
       <r>    5.1503    1.0000 </r>
       <r>    5.2368    1.0000 </r>
       <r>    5.2835    1.0000 </r>
       <r>    5.3263    1.0000 </r>
       <r>    5.4519    1.0000 </r>
       <r>    5.5170    1.0000 </r>
       <r>    5.5568    1.0000 </r>
       <r>    5.6843    1.0000 </r>
       <r>    5.7208    1.0000 </r>
       <r>    5.8186    1.0000 </r>
       <r>    5.8679    1.0000 </r>
       <r>    5.9301    1.0000 </r>
       <r>    5.9731    1.0000 </r>
       <r>    6.0203    1.0000 </r>
       <r>    6.3152    1.0000 </r>
       <r>    6.3875    1.0000 </r>
       <r>    6.6331    1.0000 </r>
       <r>    6.6840    1.0000 </r>
       <r>    6.7440    1.0000 </r>
       <r>    6.9175    1.0000 </r>
       <r>    6.9579    1.0000 </r>
       <r>    7.1434    1.0000 </r>
       <r>    7.2324    1.0000 </r>
       <r>    7.2755    1.0000 </r>
       <r>    7.3878    1.0000 </r>
       <r>    7.4219    1.0000 </r>
       <r>    7.5727    1.0000 </r>
       <r>    7.9052    1.0000 </r>
       <r>    7.9576    1.0000 </r>
       <r>    8.0596    1.0000 </r>
       <r>    8.1081    0.9993 </r>
       <r>    8.2518    0.8803 </r>
       <r>    8.3144    0.6147 </r>
       <r>    8.3578    0.3735 </r>
       <r>    8.4639    0.0342 </r>
       <r>    8.5047    0.0082 </r>
       <r>    8.5753    0.0003 </r>
       <r>    8.6562    0.0000 </r>
       <r>    8.7407    0.0000 </r>
       <r>    8.8049    0.0000 </r>
       <r>    8.8641    0.0000 </r>
       <r>    8.9256    0.0000 </r>
       <r>    8.9833    0.0000 </r>
       <r>    9.0063    0.0000 </r>
       <r>    9.0759    0.0000 </r>
       <r>    9.1659    0.0000 </r>
       <r>    9.2090    0.0000 </r>
       <r>    9.2421    0.0000 </r>
       <r>    9.3094    0.0000 </r>
       <r>    9.3576    0.0000 </r>
       <r>    9.4240    0.0000 </r>
       <r>    9.4482    0.0000 </r>
       <r>    9.5345    0.0000 </r>
       <r>    9.5634    0.0000 </r>
       <r>    9.5821    0.0000 </r>
       <r>    9.6133    0.0000 </r>
       <r>    9.6829    0.0000 </r>
       <r>    9.7291    0.0000 </r>
       <r>    9.7990    0.0000 </r>
       <r>    9.8306    0.0000 </r>
       <r>    9.8641    0.0000 </r>
       <r>    9.9428    0.0000 </r>
       <r>   10.0003    0.0000 </r>
       <r>   10.0402    0.0000 </r>
       <r>   10.1033    0.0000 </r>
       <r>   10.1178    0.0000 </r>
       <r>   10.1600    0.0000 </r>
       <r>   10.1958    0.0000 </r>
       <r>   10.2374    0.0000 </r>
       <r>   10.2766    0.0000 </r>
       <r>   10.3544    0.0000 </r>
       <r>   10.3715    0.0000 </r>
       <r>   10.4223    0.0000 </r>
       <r>   10.5180    0.0000 </r>
       <r>   10.5702    0.0000 </r>
       <r>   10.6406    0.0000 </r>
       <r>   10.7078    0.0000 </r>
       <r>   10.7178    0.0000 </r>
       <r>   10.7897    0.0000 </r>
       <r>   10.8438    0.0000 </r>
       <r>   10.8715    0.0000 </r>
       <r>   10.9901    0.0000 </r>
       <r>   11.0195    0.0000 </r>
       <r>   11.0762    0.0000 </r>
       <r>   11.1210    0.0000 </r>
       <r>   11.1941    0.0000 </r>
       <r>   11.2331    0.0000 </r>
       <r>   11.2759    0.0000 </r>
       <r>   11.4240    0.0000 </r>
       <r>   11.5221    0.0000 </r>
       <r>   11.7212    0.0000 </r>
      </set>
      <set comment="kpoint 3">
       <r>  -47.6883    1.0000 </r>
       <r>  -47.6013    1.0000 </r>
       <r>  -47.4915    1.0000 </r>
       <r>  -47.4766    1.0000 </r>
       <r>  -47.2653    1.0000 </r>
       <r>  -47.2223    1.0000 </r>
       <r>  -40.8500    1.0000 </r>
       <r>  -40.7868    1.0000 </r>
       <r>  -40.7653    1.0000 </r>
       <r>  -40.4270    1.0000 </r>
       <r>  -40.2968    1.0000 </r>
       <r>  -40.2765    1.0000 </r>
       <r>  -39.8824    1.0000 </r>
       <r>  -35.4455    1.0000 </r>
       <r>  -35.2735    1.0000 </r>
       <r>  -35.2328    1.0000 </r>
       <r>  -35.2312    1.0000 </r>
       <r>  -35.2220    1.0000 </r>
       <r>  -35.2156    1.0000 </r>
       <r>  -35.1886    1.0000 </r>
       <r>  -35.1833    1.0000 </r>
       <r>  -35.1674    1.0000 </r>
       <r>  -35.1565    1.0000 </r>
       <r>  -35.1515    1.0000 </r>
       <r>  -35.1256    1.0000 </r>
       <r>  -35.1240    1.0000 </r>
       <r>  -35.1168    1.0000 </r>
       <r>  -35.1102    1.0000 </r>
       <r>  -35.0996    1.0000 </r>
       <r>  -35.0297    1.0000 </r>
       <r>  -34.8881    1.0000 </r>
       <r>  -27.1058    1.0000 </r>
       <r>  -27.0898    1.0000 </r>
       <r>  -27.0598    1.0000 </r>
       <r>  -27.0116    1.0000 </r>
       <r>  -26.9356    1.0000 </r>
       <r>  -26.9059    1.0000 </r>
       <r>  -26.8860    1.0000 </r>
       <r>  -26.8576    1.0000 </r>
       <r>  -26.8512    1.0000 </r>
       <r>  -26.8300    1.0000 </r>
       <r>  -26.8260    1.0000 </r>
       <r>  -26.7968    1.0000 </r>
       <r>  -26.7770    1.0000 </r>
       <r>  -26.7508    1.0000 </r>
       <r>  -26.7428    1.0000 </r>
       <r>  -26.7041    1.0000 </r>
       <r>  -26.6647    1.0000 </r>
       <r>  -26.6481    1.0000 </r>
       <r>  -23.9971    1.0000 </r>
       <r>  -23.8952    1.0000 </r>
       <r>  -23.8150    1.0000 </r>
       <r>  -23.7653    1.0000 </r>
       <r>  -23.7198    1.0000 </r>
       <r>  -23.7133    1.0000 </r>
       <r>  -23.6738    1.0000 </r>
       <r>  -23.6679    1.0000 </r>
       <r>  -23.6435    1.0000 </r>
       <r>  -23.6289    1.0000 </r>
       <r>  -23.6144    1.0000 </r>
       <r>  -23.5714    1.0000 </r>
       <r>  -23.5248    1.0000 </r>
       <r>  -23.4188    1.0000 </r>
       <r>  -23.3883    1.0000 </r>
       <r>  -23.3469    1.0000 </r>
       <r>  -23.3151    1.0000 </r>
       <r>  -23.2925    1.0000 </r>
       <r>  -22.7116    1.0000 </r>
       <r>  -22.6384    1.0000 </r>
       <r>  -22.6078    1.0000 </r>
       <r>  -22.4242    1.0000 </r>
       <r>  -22.3893    1.0000 </r>
       <r>  -22.3765    1.0000 </r>
       <r>  -22.3686    1.0000 </r>
       <r>  -22.3599    1.0000 </r>
       <r>  -22.3566    1.0000 </r>
       <r>  -22.3349    1.0000 </r>
       <r>  -22.3200    1.0000 </r>
[...]
      </set>
     </set>
    </set>
   </array>
  </eigenvalues>
  <separator name="orbital magnetization" >
   <v name="MAGDIPOLOUT">      0.00000000      0.00000000      0.00000000</v>
  </separator>
  <dos>
   <i name="efermi">      8.33502451 </i>
   <total>
    <array>
     <dimension dim="1">gridpoints</dimension>
     <dimension dim="2">spin</dimension>
     <field>energy</field>
     <field>total</field>
     <field>integrated</field>
     <set>
      <set comment="spin 1">
       <r>   -50.6588     0.0000     0.0000 </r>
       <r>   -50.4409     0.0000     0.0000 </r>
       <r>   -50.2231     0.0000     0.0000 </r>
       <r>   -50.0053     0.0000     0.0000 </r>
       <r>   -49.7874     0.0000     0.0000 </r>
       <r>   -49.5696     0.0000     0.0000 </r>
       <r>   -49.3518     0.0000     0.0000 </r>
       <r>   -49.1339     0.0000     0.0000 </r>
       <r>   -48.9161     0.0000     0.0000 </r>
       <r>   -48.6983     0.0000     0.0000 </r>
       <r>   -48.4804     0.0000     0.0000 </r>
       <r>   -48.2626     0.0000     0.0000 </r>
       <r>   -48.0448     0.0000     0.0000 </r>
       <r>   -47.8269     0.2358     0.0514 </r>
       <r>   -47.6091    12.6508     2.8072 </r>
       <r>   -47.3913    22.4853     7.7052 </r>
       <r>   -47.1734    16.5789    11.3167 </r>
       <r>   -46.9556     3.1359    11.9998 </r>
       <r>   -46.7377     0.0008    12.0000 </r>
       <r>   -46.5199     0.0000    12.0000 </r>
       <r>   -46.3021     0.0000    12.0000 </r>
       <r>   -46.0842     0.0000    12.0000 </r>
       <r>   -45.8664     0.0000    12.0000 </r>
       <r>   -45.6486     0.0000    12.0000 </r>
       <r>   -45.4307     0.0000    12.0000 </r>
       <r>   -45.2129     0.0000    12.0000 </r>
       <r>   -44.9951     0.0000    12.0000 </r>
       <r>   -44.7772     0.0000    12.0000 </r>
       <r>   -44.5594     0.0000    12.0000 </r>
       <r>   -44.3416     0.0000    12.0000 </r>
       <r>   -44.1237     0.0000    12.0000 </r>
       <r>   -43.9059     0.0000    12.0000 </r>
       <r>   -43.6881     0.0000    12.0000 </r>
       <r>   -43.4702     0.0000    12.0000 </r>
       <r>   -43.2524     0.0000    12.0000 </r>
       <r>   -43.0346     0.0000    12.0000 </r>
       <r>   -42.8167     0.0000    12.0000 </r>
       <r>   -42.5989     0.0000    12.0000 </r>
       <r>   -42.3810     0.0000    12.0000 </r>
       <r>   -42.1632     0.0000    12.0000 </r>
       <r>   -41.9454     0.0000    12.0000 </r>
       <r>   -41.7275     0.0000    12.0000 </r>
       <r>   -41.5097     0.0000    12.0000 </r>
       <r>   -41.2919     0.0000    12.0000 </r>
       <r>   -41.0740     0.0073    12.0016 </r>
       <r>   -40.8562     6.6722    13.4550 </r>
       <r>   -40.6384    20.3668    17.8916 </r>
       <r>   -40.4205     5.9819    19.1947 </r>
       <r>   -40.2027    19.8502    23.5188 </r>
       <r>   -39.9849     2.8850    24.1472 </r>
       <r>   -39.7670     8.0335    25.8972 </r>
       <r>   -39.5492     0.4720    26.0000 </r>
       <r>   -39.3314     0.0000    26.0000 </r>
       <r>   -39.1135     0.0000    26.0000 </r>
       <r>   -38.8957     0.0000    26.0000 </r>
       <r>   -38.6779     0.0000    26.0000 </r>
       <r>   -38.4600     0.0000    26.0000 </r>
       <r>   -38.2422     0.0000    26.0000 </r>
       <r>   -38.0243     0.0000    26.0000 </r>
       <r>   -37.8065     0.0000    26.0000 </r>
       <r>   -37.5887     0.0000    26.0000 </r>
       <r>   -37.3708     0.0000    26.0000 </r>
       <r>   -37.1530     0.0000    26.0000 </r>
       <r>   -36.9352     0.0000    26.0000 </r>
       <r>   -36.7173     0.0000    26.0000 </r>
       <r>   -36.4995     0.0000    26.0000 </r>
       <r>   -36.2817     0.0000    26.0000 </r>
       <r>   -36.0638     0.0000    26.0000 </r>
       <r>   -35.8460     0.0000    26.0000 </r>
       <r>   -35.6282     0.0449    26.0098 </r>
       <r>   -35.4103     6.7258    27.4749 </r>
       <r>   -35.1925    59.0319    40.3341 </r>
       <r>   -34.9747    87.9966    59.5028 </r>
       <r>   -34.7568    11.1714    61.9363 </r>
       <r>   -34.5390     0.2923    62.0000 </r>
       <r>   -34.3212     0.0000    62.0000 </r>
       <r>   -34.1033     0.0000    62.0000 </r>
       <r>   -33.8855     0.0000    62.0000 </r>
       <r>   -33.6677     0.0000    62.0000 </r>
       <r>   -33.4498     0.0000    62.0000 </r>
       <r>   -33.2320     0.0000    62.0000 </r>
       <r>   -33.0141     0.0000    62.0000 </r>
       <r>   -32.7963     0.0000    62.0000 </r>
       <r>   -32.5785     0.0000    62.0000 </r>
       <r>   -32.3606     0.0000    62.0000 </r>
       <r>   -32.1428     0.0000    62.0000 </r>
       <r>   -31.9250     0.0000    62.0000 </r>
       <r>   -31.7071     0.0000    62.0000 </r>
       <r>   -31.4893     0.0000    62.0000 </r>
       <r>   -31.2715     0.0000    62.0000 </r>
       <r>   -31.0536     0.0000    62.0000 </r>
       <r>   -30.8358     0.0000    62.0000 </r>
       <r>   -30.6180     0.0000    62.0000 </r>
       <r>   -30.4001     0.0000    62.0000 </r>
       <r>   -30.1823     0.0000    62.0000 </r>
       <r>   -29.9645     0.0000    62.0000 </r>
       <r>   -29.7466     0.0000    62.0000 </r>
       <r>   -29.5288     0.0000    62.0000 </r>
       <r>   -29.3110     0.0000    62.0000 </r>
       <r>   -29.0931     0.0000    62.0000 </r>
       <r>   -28.8753     0.0000    62.0000 </r>
       <r>   -28.6574     0.0000    62.0000 </r>
       <r>   -28.4396     0.0000    62.0000 </r>
       <r>   -28.2218     0.0000    62.0000 </r>
       <r>   -28.0039     0.0000    62.0000 </r>
       <r>   -27.7861     0.0000    62.0000 </r>
       <r>   -27.5683     0.0000    62.0000 </r>
       <r>   -27.3504     0.0037    62.0008 </r>
       <r>   -27.1326     7.5508    63.6456 </r>
       <r>   -26.9148    47.5356    74.0005 </r>
       <r>   -26.6969    85.6043    92.6481 </r>
       <r>   -26.4791    24.4433    97.9727 </r>
       <r>   -26.2613     0.1251    98.0000 </r>
       <r>   -26.0434     0.0000    98.0000 </r>
       <r>   -25.8256     0.0000    98.0000 </r>
       <r>   -25.6078     0.0000    98.0000 </r>
       <r>   -25.3899     0.0000    98.0000 </r>
       <r>   -25.1721     0.0000    98.0000 </r>
       <r>   -24.9543     0.0000    98.0000 </r>
       <r>   -24.7364     0.0000    98.0000 </r>
       <r>   -24.5186     0.0000    98.0000 </r>
       <r>   -24.3008     0.0001    98.0000 </r>
       <r>   -24.0829     1.0601    98.2309 </r>
       <r>   -23.8651    17.2314   101.9845 </r>
       <r>   -23.6472    57.6109   114.5342 </r>
       <r>   -23.4294    50.8008   125.6004 </r>
       <r>   -23.2116    36.4035   133.5303 </r>
       <r>   -22.9937     2.1562   134.0000 </r>
       <r>   -22.7759     1.9873   134.4329 </r>
       <r>   -22.5581    22.5562   139.3465 </r>
       <r>   -22.3402    52.6533   150.8162 </r>
       <r>   -22.1224    93.5405   171.1926 </r>
       <r>   -21.9046    21.8005   175.9415 </r>
       <r>   -21.6867     0.2686   176.0000 </r>
       <r>   -21.4689     0.0000   176.0000 </r>
       <r>   -21.2511     0.0000   176.0000 </r>
       <r>   -21.0332     0.0000   176.0000 </r>
       <r>   -20.8154     0.0000   176.0000 </r>
       <r>   -20.5976     0.0000   176.0000 </r>
       <r>   -20.3797     0.0000   176.0000 </r>
       <r>   -20.1619     0.0000   176.0000 </r>
       <r>   -19.9441     0.0000   176.0000 </r>
       <r>   -19.7262     0.0000   176.0000 </r>
       <r>   -19.5084     0.5222   176.1138 </r>
       <r>   -19.2905    10.4255   178.3848 </r>
       <r>   -19.0727    35.7037   186.1623 </r>
       <r>   -18.8549    34.4090   193.6578 </r>
       <r>   -18.6370    46.2983   203.7432 </r>
       <r>   -18.4192    37.8892   211.9968 </r>
       <r>   -18.2014    20.8008   216.5279 </r>
       <r>   -17.9835     6.7552   217.9994 </r>
       <r>   -17.7657     0.0026   218.0000 </r>
       <r>   -17.5479     0.0000   218.0000 </r>
       <r>   -17.3300     0.0000   218.0000 </r>
       <r>   -17.1122     0.0000   218.0000 </r>
       <r>   -16.8944     0.0000   218.0000 </r>
       <r>   -16.6765     0.0000   218.0000 </r>
       <r>   -16.4587     0.0000   218.0000 </r>
       <r>   -16.2409     0.0000   218.0000 </r>
       <r>   -16.0230     0.0000   218.0000 </r>
       <r>   -15.8052     0.0000   218.0000 </r>
       <r>   -15.5874     0.0000   218.0000 </r>
       <r>   -15.3695     0.0000   218.0000 </r>
       <r>   -15.1517     0.0000   218.0000 </r>
       <r>   -14.9338     0.0000   218.0000 </r>
       <r>   -14.7160     0.0000   218.0000 </r>
       <r>   -14.4982     0.0000   218.0000 </r>
       <r>   -14.2803     0.0000   218.0000 </r>
       <r>   -14.0625     0.0000   218.0000 </r>
       <r>   -13.8447     0.0000   218.0000 </r>
       <r>   -13.6268     0.0000   218.0000 </r>
       <r>   -13.4090     0.0000   218.0000 </r>
       <r>   -13.1912     0.0000   218.0000 </r>
       <r>   -12.9733     0.0000   218.0000 </r>
       <r>   -12.7555     0.0000   218.0000 </r>
       <r>   -12.5377     0.0000   218.0000 </r>
       <r>   -12.3198     0.0000   218.0000 </r>
       <r>   -12.1020     0.0000   218.0000 </r>
       <r>   -11.8842     0.0000   218.0000 </r>
       <r>   -11.6663     0.0000   218.0000 </r>
       <r>   -11.4485     0.0000   218.0000 </r>
       <r>   -11.2307     0.0000   218.0000 </r>
       <r>   -11.0128     0.0000   218.0000 </r>
       <r>   -10.7950     0.0000   218.0000 </r>
       <r>   -10.5772     0.0000   218.0000 </r>
       <r>   -10.3593     0.0000   218.0000 </r>
       <r>   -10.1415     0.0000   218.0000 </r>
       <r>    -9.9236     0.0000   218.0000 </r>
       <r>    -9.7058     0.0000   218.0000 </r>
       <r>    -9.4880     0.0000   218.0000 </r>
       <r>    -9.2701     0.0000   218.0000 </r>
       <r>    -9.0523     0.0000   218.0000 </r>
       <r>    -8.8345     0.0000   218.0000 </r>
       <r>    -8.6166     0.0000   218.0000 </r>
       <r>    -8.3988     0.0000   218.0000 </r>
       <r>    -8.1810     0.0000   218.0000 </r>
       <r>    -7.9631     0.0001   218.0000 </r>
       <r>    -7.7453     0.3406   218.0742 </r>
       <r>    -7.5275     6.5142   219.4932 </r>
       <r>    -7.3096     8.3150   221.3045 </r>
       <r>    -7.0918    15.6208   224.7073 </r>
       <r>    -6.8740     7.0258   226.2377 </r>
       <r>    -6.6561    18.0186   230.1628 </r>
       <r>    -6.4383    21.0495   234.7481 </r>
       <r>    -6.2205    23.7527   239.9223 </r>
       <r>    -6.0026    10.5014   242.2099 </r>
       <r>    -5.7848     7.9522   243.9421 </r>
       <r>    -5.5669     0.2656   244.0000 </r>
       <r>    -5.3491     0.0000   244.0000 </r>
       <r>    -5.1313     0.0000   244.0000 </r>
       <r>    -4.9134     0.0000   244.0000 </r>
       <r>    -4.6956     0.0000   244.0000 </r>
       <r>    -4.4778     0.0672   244.0146 </r>
       <r>    -4.2599     2.9571   244.6588 </r>
       <r>    -4.0421     5.6677   245.8934 </r>
       <r>    -3.8243     1.0270   246.1171 </r>
       <r>    -3.6064     9.0414   248.0867 </r>
       <r>    -3.3886    11.4825   250.5880 </r>
       <r>    -3.1708    13.8433   253.6035 </r>
       <r>    -2.9529    23.3267   258.6849 </r>
       <r>    -2.7351    23.5029   263.8046 </r>
       <r>    -2.5173    24.7065   269.1866 </r>
       <r>    -2.2994    21.4938   273.8687 </r>
       <r>    -2.0816    18.7869   277.9611 </r>
       <r>    -1.8638    11.2336   280.4082 </r>
       <r>    -1.6459     6.3147   281.7837 </r>
       <r>    -1.4281     0.9813   281.9975 </r>
       <r>    -1.2102     0.0114   282.0000 </r>
       <r>    -0.9924     0.0000   282.0000 </r>
       <r>    -0.7746     0.0000   282.0000 </r>
       <r>    -0.5567     0.0000   282.0000 </r>
       <r>    -0.3389     0.0000   282.0000 </r>
       <r>    -0.1211     0.0000   282.0000 </r>
       <r>     0.0968     0.0000   282.0000 </r>
       <r>     0.3146     0.0031   282.0007 </r>
       <r>     0.5324     0.4268   282.0937 </r>
       <r>     0.7503     1.1084   282.3351 </r>
       <r>     0.9681     5.4396   283.5200 </r>
       <r>     1.1859     8.9600   285.4718 </r>
       <r>     1.4038    11.9255   288.0696 </r>
       <r>     1.6216    17.6693   291.9186 </r>
       <r>     1.8394    23.0746   296.9451 </r>
       <r>     2.0573    27.8985   303.0223 </r>
       <r>     2.2751    28.0135   309.1247 </r>
       <r>     2.4929    27.4804   315.1109 </r>
       <r>     2.7108    31.3451   321.9389 </r>
       <r>     2.9286    34.8734   329.5355 </r>
       <r>     3.1464    38.5669   337.9368 </r>
       <r>     3.3643    45.9696   347.9506 </r>
       <r>     3.5821    52.4503   359.3761 </r>
       <r>     3.8000    59.4387   372.3239 </r>
       <r>     4.0178    68.3982   387.2234 </r>
       <r>     4.2356    66.8862   401.7936 </r>
       <r>     4.4535    60.4334   414.9580 </r>
       <r>     4.6713    54.3162   426.7900 </r>
       <r>     4.8891    47.9618   437.2377 </r>
       <r>     5.1070    40.7893   446.1231 </r>
       <r>     5.3248    32.2538   453.1491 </r>
       <r>     5.5426    28.6963   459.4002 </r>
       <r>     5.7605    25.8313   465.0271 </r>
       <r>     5.9783    18.8011   469.1227 </r>
       <r>     6.1961    14.1433   472.2036 </r>
       <r>     6.4140     7.2150   473.7752 </r>
       <r>     6.6318     7.5532   475.4206 </r>
       <r>     6.8496    15.4616   478.7887 </r>
       <r>     7.0675    17.6142   482.6257 </r>
       <r>     7.2853    18.7518   486.7105 </r>
       <r>     7.5031    20.8867   491.2603 </r>
       <r>     7.7210    19.1160   495.4244 </r>
       <r>     7.9388    22.4164   500.3075 </r>
       <r>     8.1567    27.5365   506.3059 </r>
       <r>     8.3745    26.2224   512.0181 </r>
       <r>     8.5923    27.3628   517.9786 </r>
       <r>     8.8102    32.3715   525.0303 </r>
       <r>     9.0280    35.6053   532.7863 </r>
       <r>     9.2458    38.3435   541.1389 </r>
       <r>     9.4637    37.4385   549.2943 </r>
       <r>     9.6815    39.2514   557.8446 </r>
       <r>     9.8993    39.0431   566.3496 </r>
       <r>    10.1172    37.2685   574.4680 </r>
       <r>    10.3350    38.8914   582.9399 </r>
       <r>    10.5528    37.2848   591.0618 </r>
       <r>    10.7707    36.4804   599.0085 </r>
       <r>    10.9885    34.7629   606.5811 </r>
       <r>    11.2063    31.2244   613.3829 </r>
       <r>    11.4242    26.9515   619.2538 </r>
       <r>    11.6420    16.9413   622.9442 </r>
       <r>    11.8598     4.8139   623.9929 </r>
       <r>    12.0777     0.0327   624.0000 </r>
       <r>    12.2955     0.0000   624.0000 </r>
       <r>    12.5133     0.0000   624.0000 </r>
       <r>    12.7312     0.0000   624.0000 </r>
       <r>    12.9490     0.0000   624.0000 </r>
       <r>    13.1669     0.0000   624.0000 </r>
       <r>    13.3847     0.0000   624.0000 </r>
       <r>    13.6025     0.0000   624.0000 </r>
       <r>    13.8204     0.0000   624.0000 </r>
       <r>    14.0382     0.0000   624.0000 </r>
       <r>    14.2560     0.0000   624.0000 </r>
       <r>    14.4739     0.0000   624.0000 </r>
       <r>    14.6917     0.0000   624.0000 </r>
      </set>
     </set>
    </array>
   </total>
  </dos>
 </calculation>
 <structure name="finalpos" >
  <crystal>
   <varray name="basis" >
    <v>       8.96322135       0.01332519      -0.01329126 </v>
    <v>       0.01930872       8.99227925      -0.02330651 </v>
    <v>       0.01893902      -0.03865874       8.98613578 </v>
   </varray>
   <i name="volume">    724.27253135 </i>
   <varray name="rec_basis" >
    <v>       0.11156704      -0.00024018      -0.00023617 </v>
    <v>      -0.00016462       0.11120811       0.00047877 </v>
    <v>       0.00016459       0.00028807       0.11128343 </v>
   </varray>
  </crystal>
  <varray name="positions" >
   <v>       0.99788660       0.99353413       0.99378316 </v>
   <v>       0.26246545       0.99658901       0.25528298 </v>
   <v>       0.24373700       0.50004432       0.24532877 </v>
   <v>       0.49871619       0.50085396       0.99765038 </v>
   <v>       0.50454281       0.24455275       0.74280518 </v>
   <v>       0.99917412       0.50047482       0.50469564 </v>
   <v>       0.49863580       0.75788148       0.74681921 </v>
   <v>       0.99390872       0.23548157       0.26119476 </v>
   <v>       0.74978898       0.74728072       0.00213515 </v>
   <v>       0.00301066       0.24694301       0.73959626 </v>
   <v>       0.75623440       0.25589193       0.49988864 </v>
   <v>       0.00099639       0.74882233       0.75429608 </v>
   <v>       0.24606723       0.49494900       0.75387639 </v>
   <v>       0.24740621       0.24185602       0.99554333 </v>
   <v>       0.50414820       0.25316564       0.25105549 </v>
   <v>       0.73572629       0.99286962       0.25501981 </v>
   <v>       0.75385526       0.25107402       0.99381069 </v>
   <v>       0.25697606       0.75685134       0.99936717 </v>
   <v>       0.25185599       0.24927842       0.50202310 </v>
   <v>       0.24933669       0.75055923       0.50252591 </v>
   <v>       0.24735771       0.24730112       0.24828918 </v>
   <v>       0.24580175       0.00061996       0.00627096 </v>
   <v>       0.00073975       0.24208519       0.99997165 </v>
   <v>       0.75351307       0.25195351       0.25058174 </v>
   <v>       0.74577829       0.99645995       0.99445960 </v>
   <v>       0.49679221       0.99742674       0.27950014 </v>
   <v>       0.99512739       0.49775281       0.24834445 </v>
   <v>       0.50675192       0.76092803       0.99630884 </v>
   <v>       0.98639979       0.00189223       0.74730562 </v>
   <v>       0.75257744       0.25778195       0.74406074 </v>
   <v>       0.75626755       0.00154844       0.50822541 </v>
   <v>       0.50640444       0.25080657       0.50194481 </v>
   <v>       0.53089944       0.99933726       0.73734737 </v>
   <v>       0.99854312       0.99678892       0.25187366 </v>
   <v>       0.50290973       0.23894329       0.99423776 </v>
   <v>       0.25104994       0.74875630       0.25020198 </v>
   <v>       0.24240821       0.50133230       0.99715459 </v>
   <v>       0.99848956       0.74571420       0.00189927 </v>
   <v>       0.74492905       0.74494872       0.25132140 </v>
   <v>       0.75924018       0.50428197       0.00037654 </v>
   <v>       0.50258138       0.50520847       0.25131063 </v>
   <v>       0.24942524       0.24354148       0.74890998 </v>
   <v>       0.25237718       0.99958707       0.51181723 </v>
   <v>       0.99912630       0.24845256       0.50134540 </v>
   <v>       0.24475165       0.75909121       0.75167788 </v>
   <v>       0.25315059       0.49978838       0.49836749 </v>
   <v>       0.99322090       0.75345111       0.50079794 </v>
   <v>       0.99832963       0.49946697       0.75725400 </v>
   <v>       0.75102170       0.75261882       0.75137348 </v>
   <v>       0.74793935       0.50294860       0.49864934 </v>
   <v>       0.50235671       0.76015195       0.49400389 </v>
   <v>       0.50316352       0.50102300       0.74521718 </v>
   <v>       0.52621422       0.01117092       0.95330123 </v>
   <v>       0.00411752       0.52430148       0.98108864 </v>
   <v>       0.50240518       0.73434803       0.26638257 </v>
   <v>       0.22497381       0.00901140       0.73486874 </v>
   <v>       0.47368958       0.98549252       0.52363921 </v>
   <v>       0.74190860       0.96632674       0.77216640 </v>
   <v>       0.00044319       0.75865614       0.25030982 </v>
   <v>       0.74893552       0.50628481       0.24839164 </v>
   <v>       0.00348576       0.00208080       0.50529415 </v>
   <v>       0.49908017       0.51054143       0.49822670 </v>
   <v>       0.75185750       0.51163770       0.75255638 </v>
   <v>       0.74899560       0.74920538       0.49667641 </v>
  </varray>
 </structure>
</modeling>
