   2   2   0   0
  0.1558184E+02  0.3146900E-09  0.3146900E-09  0.3146900E-09  0.5000000E-15
  1.000000000000000E-004
  CAR 
 HECN                                    
     33.44198377    -30.53763850  301      7.76225280      1.00000000
    -30.538  0.0000E+00  0.0000E+00
    -30.324  0.0000E+00  0.0000E+00
    -30.111  0.0000E+00  0.0000E+00
    -29.898  0.0000E+00  0.0000E+00
    -29.685  0.0000E+00  0.0000E+00
    -29.471  0.0000E+00  0.0000E+00
    -29.258  0.0000E+00  0.0000E+00
    -29.045  0.0000E+00  0.0000E+00
    -28.832  0.0000E+00  0.0000E+00
    -28.618  0.0000E+00  0.0000E+00
    -28.405  0.0000E+00  0.0000E+00
    -28.192  0.3933E-16  0.8388E-17
    -27.978  0.1668E-07  0.3556E-08
    -27.765  0.1145E-02  0.2443E-03
    -27.552  0.3926E-01  0.8617E-02
    -27.339  0.1034E+00  0.3066E-01
    -27.125  0.7264E-01  0.4616E-01
    -26.912  0.6584E-01  0.6020E-01
    -26.699  0.1374E+00  0.8949E-01
    -26.486  0.1103E+00  0.1130E+00
    -26.272  0.3256E-01  0.1200E+00
    -26.059  0.1618E-03  0.1200E+00
    -25.846  0.2324E-09  0.1200E+00
    -25.633  0.0000E+00  0.1200E+00
    -25.419  0.0000E+00  0.1200E+00
    -25.206  0.0000E+00  0.1200E+00
    -24.993  0.0000E+00  0.1200E+00
    -24.779  0.0000E+00  0.1200E+00
    -24.566  0.0000E+00  0.1200E+00
    -24.353  0.0000E+00  0.1200E+00
    -24.140  0.0000E+00  0.1200E+00
    -23.926  0.0000E+00  0.1200E+00
    -23.713  0.0000E+00  0.1200E+00
    -23.500  0.0000E+00  0.1200E+00
    -23.287  0.0000E+00  0.1200E+00
    -23.073  0.0000E+00  0.1200E+00
    -22.860  0.0000E+00  0.1200E+00
    -22.647  0.0000E+00  0.1200E+00
    -22.434  0.0000E+00  0.1200E+00
    -22.220  0.0000E+00  0.1200E+00
    -22.007  0.0000E+00  0.1200E+00
    -21.794  0.0000E+00  0.1200E+00
    -21.580  0.0000E+00  0.1200E+00
    -21.367  0.0000E+00  0.1200E+00
    -21.154  0.0000E+00  0.1200E+00
    -20.941  0.0000E+00  0.1200E+00
    -20.727  0.0000E+00  0.1200E+00
    -20.514  0.0000E+00  0.1200E+00
    -20.301  0.0000E+00  0.1200E+00
    -20.088  0.0000E+00  0.1200E+00
    -19.874  0.0000E+00  0.1200E+00
    -19.661  0.0000E+00  0.1200E+00
    -19.448  0.0000E+00  0.1200E+00
    -19.235  0.0000E+00  0.1200E+00
    -19.021  0.0000E+00  0.1200E+00
    -18.808  0.0000E+00  0.1200E+00
    -18.595  0.0000E+00  0.1200E+00
    -18.382  0.0000E+00  0.1200E+00
    -18.168  0.0000E+00  0.1200E+00
    -17.955  0.0000E+00  0.1200E+00
    -17.742  0.0000E+00  0.1200E+00
    -17.528  0.0000E+00  0.1200E+00
    -17.315  0.0000E+00  0.1200E+00
    -17.102  0.0000E+00  0.1200E+00
    -16.889  0.0000E+00  0.1200E+00
    -16.675  0.0000E+00  0.1200E+00
    -16.462  0.0000E+00  0.1200E+00
    -16.249  0.0000E+00  0.1200E+00
    -16.036  0.0000E+00  0.1200E+00
    -15.822  0.0000E+00  0.1200E+00
    -15.609  0.0000E+00  0.1200E+00
    -15.396  0.0000E+00  0.1200E+00
    -15.183  0.0000E+00  0.1200E+00
    -14.969  0.0000E+00  0.1200E+00
    -14.756  0.0000E+00  0.1200E+00
    -14.543  0.0000E+00  0.1200E+00
    -14.329  0.0000E+00  0.1200E+00
    -14.116  0.0000E+00  0.1200E+00
    -13.903  0.0000E+00  0.1200E+00
    -13.690  0.0000E+00  0.1200E+00
    -13.476  0.0000E+00  0.1200E+00
    -13.263  0.0000E+00  0.1200E+00
    -13.050  0.0000E+00  0.1200E+00
    -12.837  0.0000E+00  0.1200E+00
    -12.623  0.0000E+00  0.1200E+00
    -12.410  0.0000E+00  0.1200E+00
    -12.197  0.0000E+00  0.1200E+00
    -11.984  0.0000E+00  0.1200E+00
    -11.770  0.0000E+00  0.1200E+00
    -11.557  0.0000E+00  0.1200E+00
    -11.344  0.0000E+00  0.1200E+00
    -11.130  0.0000E+00  0.1200E+00
    -10.917  0.0000E+00  0.1200E+00
    -10.704  0.0000E+00  0.1200E+00
    -10.491  0.0000E+00  0.1200E+00
    -10.277  0.0000E+00  0.1200E+00
    -10.064  0.0000E+00  0.1200E+00
     -9.851  0.0000E+00  0.1200E+00
     -9.638  0.0000E+00  0.1200E+00
     -9.424  0.0000E+00  0.1200E+00
     -9.211  0.0000E+00  0.1200E+00
     -8.998  0.0000E+00  0.1200E+00
     -8.785  0.0000E+00  0.1200E+00
     -8.571  0.0000E+00  0.1200E+00
     -8.358  0.0000E+00  0.1200E+00
     -8.145  0.0000E+00  0.1200E+00
     -7.932  0.0000E+00  0.1200E+00
     -7.718  0.0000E+00  0.1200E+00
     -7.505  0.0000E+00  0.1200E+00
     -7.292  0.0000E+00  0.1200E+00
     -7.078  0.0000E+00  0.1200E+00
     -6.865  0.0000E+00  0.1200E+00
     -6.652  0.0000E+00  0.1200E+00
     -6.439  0.0000E+00  0.1200E+00
     -6.225  0.0000E+00  0.1200E+00
     -6.012  0.0000E+00  0.1200E+00
     -5.799  0.0000E+00  0.1200E+00
     -5.586  0.0000E+00  0.1200E+00
     -5.372  0.0000E+00  0.1200E+00
     -5.159  0.0000E+00  0.1200E+00
     -4.946  0.0000E+00  0.1200E+00
     -4.733  0.0000E+00  0.1200E+00
     -4.519  0.0000E+00  0.1200E+00
     -4.306  0.0000E+00  0.1200E+00
     -4.093  0.0000E+00  0.1200E+00
     -3.879  0.0000E+00  0.1200E+00
     -3.666  0.0000E+00  0.1200E+00
     -3.453  0.0000E+00  0.1200E+00
     -3.240  0.0000E+00  0.1200E+00
     -3.026  0.0000E+00  0.1200E+00
     -2.813  0.0000E+00  0.1200E+00
     -2.600  0.0000E+00  0.1200E+00
     -2.387  0.0000E+00  0.1200E+00
     -2.173  0.0000E+00  0.1200E+00
     -1.960  0.0000E+00  0.1200E+00
     -1.747  0.0000E+00  0.1200E+00
     -1.534  0.0000E+00  0.1200E+00
     -1.320  0.0000E+00  0.1200E+00
     -1.107  0.0000E+00  0.1200E+00
     -0.894  0.0000E+00  0.1200E+00
     -0.680  0.0000E+00  0.1200E+00
     -0.467  0.0000E+00  0.1200E+00
     -0.254  0.0000E+00  0.1200E+00
     -0.041  0.0000E+00  0.1200E+00
      0.173  0.0000E+00  0.1200E+00
      0.386  0.0000E+00  0.1200E+00
      0.599  0.4435E-17  0.1200E+00
      0.812  0.1724E-08  0.1200E+00
      1.026  0.1051E-03  0.1200E+00
      1.239  0.2926E-02  0.1206E+00
      1.452  0.4423E-03  0.1207E+00
      1.665  0.5648E-07  0.1207E+00
      1.879  0.1292E-14  0.1207E+00
      2.092  0.0000E+00  0.1207E+00
      2.305  0.0000E+00  0.1207E+00
      2.518  0.7635E-16  0.1207E+00
      2.732  0.1316E-07  0.1207E+00
      2.945  0.3781E-03  0.1208E+00
      3.158  0.1137E-01  0.1232E+00
      3.372  0.3383E-01  0.1305E+00
      3.585  0.2380E-01  0.1355E+00
      3.798  0.7717E-02  0.1372E+00
      4.011  0.3333E-01  0.1443E+00
      4.225  0.3220E-02  0.1450E+00
      4.438  0.2099E-01  0.1495E+00
      4.651  0.4107E-01  0.1582E+00
      4.864  0.4905E-02  0.1593E+00
      5.078  0.4667E-03  0.1594E+00
      5.291  0.4349E-01  0.1686E+00
      5.504  0.6720E-01  0.1830E+00
      5.717  0.1387E-01  0.1859E+00
      5.931  0.9028E-02  0.1878E+00
      6.144  0.6576E-01  0.2019E+00
      6.357  0.2316E-01  0.2068E+00
      6.571  0.3347E-01  0.2140E+00
      6.784  0.7835E-02  0.2156E+00
      6.997  0.1996E-01  0.2199E+00
      7.210  0.3149E-01  0.2266E+00
      7.424  0.3213E-02  0.2273E+00
      7.637  0.5266E-01  0.2385E+00
      7.850  0.8841E-02  0.2404E+00
      8.063  0.1799E-01  0.2442E+00
      8.277  0.9890E-03  0.2444E+00
      8.490  0.1638E-02  0.2448E+00
      8.703  0.3571E-01  0.2524E+00
      8.916  0.2091E-01  0.2569E+00
      9.130  0.2498E-01  0.2622E+00
      9.343  0.1228E-03  0.2622E+00
      9.556  0.6494E-02  0.2636E+00
      9.770  0.3542E-01  0.2712E+00
      9.983  0.6737E-02  0.2726E+00
     10.196  0.5612E-01  0.2846E+00
     10.409  0.1023E+00  0.3064E+00
     10.623  0.1790E-01  0.3102E+00
     10.836  0.5298E-01  0.3215E+00
     11.049  0.6875E-02  0.3230E+00
     11.262  0.8655E-06  0.3230E+00
     11.476  0.2177E-13  0.3230E+00
     11.689  0.1656E-07  0.3230E+00
     11.902  0.5231E-03  0.3231E+00
     12.115  0.9013E-02  0.3250E+00
     12.329  0.9220E-03  0.3252E+00
     12.542  0.1909E-01  0.3293E+00
     12.755  0.2248E-01  0.3341E+00
     12.969  0.8121E-04  0.3341E+00
     13.182  0.7167E-02  0.3356E+00
     13.395  0.1357E-01  0.3385E+00
     13.608  0.9295E-04  0.3385E+00
     13.822  0.8717E-04  0.3385E+00
     14.035  0.2361E-01  0.3436E+00
     14.248  0.3954E-01  0.3520E+00
     14.461  0.6233E-02  0.3533E+00
     14.675  0.2203E-05  0.3533E+00
     14.888  0.1522E-12  0.3533E+00
     15.101  0.0000E+00  0.3533E+00
     15.314  0.0000E+00  0.3533E+00
     15.528  0.0000E+00  0.3533E+00
     15.741  0.0000E+00  0.3533E+00
     15.954  0.0000E+00  0.3533E+00
     16.167  0.0000E+00  0.3533E+00
     16.381  0.0000E+00  0.3533E+00
     16.594  0.0000E+00  0.3533E+00
     16.807  0.5784E-18  0.3533E+00
     17.021  0.6614E-09  0.3533E+00
     17.234  0.1218E-03  0.3534E+00
     17.447  0.7933E-02  0.3551E+00
     17.660  0.2364E-02  0.3556E+00
     17.874  0.8683E-06  0.3556E+00
     18.087  0.1058E-03  0.3556E+00
     18.300  0.1827E-01  0.3595E+00
     18.513  0.5294E-01  0.3708E+00
     18.727  0.1203E-01  0.3733E+00
     18.940  0.1021E-02  0.3736E+00
     19.153  0.3450E-01  0.3809E+00
     19.366  0.6160E-02  0.3822E+00
     19.580  0.1015E-05  0.3822E+00
     19.793  0.3050E-13  0.3822E+00
     20.006  0.0000E+00  0.3822E+00
     20.220  0.0000E+00  0.3822E+00
     20.433  0.0000E+00  0.3822E+00
     20.646  0.0000E+00  0.3822E+00
     20.859  0.0000E+00  0.3822E+00
     21.073  0.0000E+00  0.3822E+00
     21.286  0.1829E-14  0.3822E+00
     21.499  0.1586E-06  0.3822E+00
     21.712  0.2361E-02  0.3827E+00
     21.926  0.2403E-01  0.3879E+00
     22.139  0.1394E-02  0.3881E+00
     22.352  0.1112E-01  0.3905E+00
     22.565  0.1170E+00  0.4155E+00
     22.779  0.1078E-01  0.4178E+00
     22.992  0.7627E-02  0.4194E+00
     23.205  0.3333E-01  0.4265E+00
     23.419  0.8585E-03  0.4267E+00
     23.632  0.2554E-01  0.4321E+00
     23.845  0.1598E-01  0.4356E+00
     24.058  0.5275E-02  0.4367E+00
     24.272  0.4424E-01  0.4461E+00
     24.485  0.2599E-02  0.4467E+00
     24.698  0.1740E-02  0.4470E+00
     24.911  0.1502E+00  0.4791E+00
     25.125  0.5640E-01  0.4911E+00
     25.338  0.3216E-04  0.4911E+00
     25.551  0.8664E-03  0.4913E+00
     25.764  0.1805E-01  0.4951E+00
     25.978  0.3100E-01  0.5018E+00
     26.191  0.1953E-01  0.5059E+00
     26.404  0.2988E-04  0.5059E+00
     26.617  0.1179E-10  0.5059E+00
     26.831  0.8066E-14  0.5059E+00
     27.044  0.4577E-06  0.5059E+00
     27.257  0.4603E-02  0.5069E+00
     27.471  0.3810E-01  0.5150E+00
     27.684  0.3225E-02  0.5157E+00
     27.897  0.1780E-01  0.5195E+00
     28.110  0.2262E-02  0.5200E+00
     28.324  0.2224E-06  0.5200E+00
     28.537  0.2377E-06  0.5200E+00
     28.750  0.1161E-02  0.5202E+00
     28.963  0.6838E-02  0.5217E+00
     29.177  0.2404E-01  0.5268E+00
     29.390  0.3377E-02  0.5276E+00
     29.603  0.5630E-01  0.5396E+00
     29.816  0.2635E-01  0.5452E+00
     30.030  0.3105E-04  0.5452E+00
     30.243  0.9075E-03  0.5454E+00
     30.456  0.2922E-01  0.5516E+00
     30.670  0.3820E-01  0.5598E+00
     30.883  0.1145E-02  0.5600E+00
     31.096  0.1668E-07  0.5600E+00
     31.309  0.3702E-16  0.5600E+00
     31.523  0.0000E+00  0.5600E+00
     31.736  0.0000E+00  0.5600E+00
     31.949  0.0000E+00  0.5600E+00
     32.162  0.0000E+00  0.5600E+00
     32.376  0.0000E+00  0.5600E+00
     32.589  0.0000E+00  0.5600E+00
     32.802  0.0000E+00  0.5600E+00
     33.015  0.0000E+00  0.5600E+00
     33.229  0.0000E+00  0.5600E+00
     33.442  0.0000E+00  0.5600E+00
