    2    2  100    1
  0.1558184E+02  0.3146900E-09  0.3146900E-09  0.3146900E-09  0.5000000E-15
  1.000000000000000E-004
  CAR 
 HECN                                    
     24      4     28
 
  0.0000000E+00  0.0000000E+00  0.0000000E+00  0.3703704E-01
      1        -27.336506   1.000000
      2        -27.336506   1.000000
      3        -27.336506   1.000000
      4        -26.460642   1.000000
      5        -26.460642   1.000000
      6        -26.460642   1.000000
      7          1.158365   1.000000
      8          3.058635   1.000000
      9          3.058635   1.000000
     10          6.917309   1.000000
     11          6.917309   1.000000
     12          6.917309   1.000000
     13          9.837139   0.000000
     14          9.837139   0.000000
     15         12.018350   0.000000
     16         12.018350   0.000000
     17         12.018350   0.000000
     18         17.394125   0.000000
     19         17.394125   0.000000
     20         17.394125   0.000000
     21         24.186441   0.000000
     22         24.186441   0.000000
     23         24.186441   0.000000
     24         24.866313   0.000000
     25         24.866704   0.000000
     26         27.425423   0.000000
     27         28.818428   0.000000
     28         28.818428   0.000000
 
  0.3333333E+00  0.0000000E+00  0.0000000E+00  0.2222222E+00
      1        -27.295834   1.000000
      2        -27.111679   1.000000
      3        -27.111679   1.000000
      4        -26.865867   1.000000
      5        -26.673000   1.000000
      6        -26.673000   1.000000
      7          3.204815   1.000000
      8          4.307778   1.000000
      9          4.517700   1.000000
     10          7.040669   1.000000
     11          7.040669   1.000000
     12          7.519963   0.999694
     13          7.945311   0.004815
     14          8.934786   0.000000
     15          8.934786   0.000000
     16         10.429004   0.000000
     17         10.723655   0.000000
     18         13.210120   0.000000
     19         23.055897   0.000000
     20         23.055897   0.000000
     21         24.859287   0.000000
     22         24.866473   0.000000
     23         24.887401   0.000000
     24         25.673682   0.000000
     25         25.947527   0.000000
     26         27.344117   0.000000
     27         27.344117   0.000000
     28         27.809800   0.000000
 
  0.3333333E+00  0.3333333E+00  0.0000000E+00  0.4444444E+00
      1        -27.629474   1.000000
      2        -27.425358   1.000000
      3        -26.987323   1.000000
      4        -26.767306   1.000000
      5        -26.696140   1.000000
      6        -26.467310   1.000000
      7          3.383788   1.000000
      8          3.862026   1.000000
      9          5.392972   1.000000
     10          6.145953   1.000000
     11          6.505955   1.000000
     12          7.561424   0.997745
     13          8.614300   0.000000
     14          9.627802   0.000000
     15         10.180476   0.000000
     16         10.758445   0.000000
     17         12.549261   0.000000
     18         14.024084   0.000000
     19         19.079250   0.000000
     20         22.456883   0.000000
     21         22.494470   0.000000
     22         23.610890   0.000000
     23         24.142328   0.000000
     24         24.866692   0.000000
     25         24.866752   0.000000
     26         29.545442   0.000000
     27         29.590026   0.000000
     28         30.533819   0.000000
 
  0.3333333E+00  0.3333333E+00  0.3333333E+00  0.2962963E+00
      1        -27.461500   1.000000
      2        -27.338007   1.000000
      3        -27.338007   1.000000
      4        -26.756169   1.000000
      5        -26.756169   1.000000
      6        -26.621741   1.000000
      7          4.579178   1.000000
      8          5.246814   1.000000
      9          5.246814   1.000000
     10          5.488629   1.000000
     11          6.000686   1.000000
     12          6.000686   1.000000
     13         10.200698   0.000000
     14         10.200698   0.000000
     15         10.288297   0.000000
     16         10.288297   0.000000
     17         14.194266   0.000000
     18         18.275579   0.000000
     19         18.457944   0.000000
     20         18.457944   0.000000
     21         21.809430   0.000000
     22         22.431310   0.000000
     23         22.431310   0.000000
     24         24.866691   0.000000
     25         24.866814   0.000000
     26         25.969281   0.000000
     27         29.084889   0.000000
     28         30.373353   0.000000
