 running   28 mpi-ranks, on    1 nodes
 distrk:  each k-point on   28 cores,    1 groups
 distr:  one band on    1 cores,   28 groups
 vasp.6.4.3 19Mar24 (build Sep 18 2024 11:30:23) complex                        
  
 POSCAR found type information on POSCAR Mo
 POSCAR found :  1 types and       2 ions
 Reading from existing POTCAR
 scaLAPACK will be used
 -----------------------------------------------------------------------------
|                                                                             |
|           W    W    AA    RRRRR   N    N  II  N    N   GGGG   !!!           |
|           W    W   A  A   R    R  NN   N  II  NN   N  G    G  !!!           |
|           W    W  A    A  R    R  N N  N  II  N N  N  G       !!!           |
|           W WW W  AAAAAA  RRRRR   N  N N  II  N  N N  G  GGG   !            |
|           WW  WW  A    A  R   R   N   NN  II  N   NN  G    G                |
|           W    W  A    A  R    R  N    N  II  N    N   GGGG   !!!           |
|                                                                             |
|     For optimal performance we recommend to set                             |
|       NCORE = 2 up to number-of-cores-per-socket                            |
|     NCORE specifies how many cores store one orbital (NPAR=cpu/NCORE).      |
|     This setting can greatly improve the performance of VASP for DFT.       |
|     The default, NCORE=1 might be grossly inefficient on modern             |
|     multi-core architectures or massively parallel machines. Do your        |
|     own testing! More info at https://www.vasp.at/wiki/index.php/NCORE      |
|     Unfortunately you need to use the default for GW and RPA                |
|     calculations (for HF NCORE is supported but not extensively tested      |
|     yet).                                                                   |
|                                                                             |
 -----------------------------------------------------------------------------

 Reading from existing POTCAR
 LDA part: xc-table for (Slater+PW92), standard interpolation
 POSCAR, INCAR and KPOINTS ok, starting setup
 FFT: planning ... GRIDC
 FFT: planning ... GRID_SOFT
 FFT: planning ... GRID
 WAVECAR not read
 entering main loop
       N       E                     dE             d eps       ncg     rms          rms(c)
DAV:   1     0.278958634798E+02    0.27896E+02   -0.13174E+04   224   0.799E+02
DAV:   2    -0.228160918343E+02   -0.50712E+02   -0.50712E+02   336   0.131E+02
DAV:   3    -0.229658348474E+02   -0.14974E+00   -0.14974E+00   224   0.752E+00
DAV:   4    -0.229659080789E+02   -0.73231E-04   -0.73231E-04   336   0.204E-01
DAV:   5    -0.229659081098E+02   -0.30875E-07   -0.30855E-07   224   0.223E-03    0.647E+00
RMM:   6    -0.217448421567E+02    0.12211E+01   -0.80789E-01   224   0.514E+00    0.283E+00
RMM:   7    -0.214755921261E+02    0.26925E+00   -0.56082E-01   224   0.416E+00    0.484E-01
RMM:   8    -0.214709311865E+02    0.46609E-02   -0.42867E-02   224   0.157E+00    0.157E-01
RMM:   9    -0.214706911976E+02    0.23999E-03   -0.76751E-03   224   0.558E-01    0.508E-02
RMM:  10    -0.214707112095E+02   -0.20012E-04   -0.10703E-03   222   0.244E-01    0.380E-02
RMM:  11    -0.214706571425E+02    0.54067E-04   -0.30802E-04   221   0.120E-01    0.581E-03
RMM:  12    -0.214706625660E+02   -0.54235E-05   -0.55650E-05   163   0.508E-02
   1 F= -.21470663E+02 E0= -.21469577E+02  d E =-.214707E+02
 curvature:   0.00 expect dE= 0.000E+00 dE for cont linesearch  0.000E+00
 trial: gam= 0.00000 g(F)=  0.123E-61 g(S)=  0.232E+00 ort = 0.000E+00 (trialstep = 0.100E+01)
 search vector abs. value=  0.232E+00
 bond charge predicted
       N       E                     dE             d eps       ncg     rms          rms(c)
DAV:   1    -0.251349668260E+02   -0.36643E+01   -0.85598E+01   224   0.629E+01    0.108E+01
RMM:   2    -0.213865768736E+02    0.37484E+01   -0.31654E+00   224   0.107E+01    0.283E+00
RMM:   3    -0.212447292569E+02    0.14185E+00   -0.49600E-01   224   0.416E+00    0.956E-01
RMM:   4    -0.212737735762E+02   -0.29044E-01   -0.53299E-02   224   0.147E+00    0.226E-01
RMM:   5    -0.212740200898E+02   -0.24651E-03   -0.46509E-03   224   0.437E-01    0.327E-02
RMM:   6    -0.212740039838E+02    0.16106E-04   -0.38988E-04   224   0.155E-01    0.204E-02
RMM:   7    -0.212740128858E+02   -0.89021E-05   -0.78092E-05   193   0.600E-02
   2 F= -.21274013E+02 E0= -.21272674E+02  d E =0.196650E+00
 trial-energy change:    0.196650  1 .order    0.176683   -0.232087    0.585453
 step:   0.2560(harm=  0.2839)  dis= 0.00000  next Energy=   -21.500032 (dE=-0.294E-01)
 bond charge predicted
       N       E                     dE             d eps       ncg     rms          rms(c)
DAV:   1    -0.233537238913E+02   -0.20797E+01   -0.42270E+01   224   0.406E+01    0.700E+00
RMM:   2    -0.217186315904E+02    0.16351E+01   -0.13238E+00   224   0.716E+00    0.276E+00
RMM:   3    -0.214863611889E+02    0.23227E+00   -0.57524E-01   224   0.429E+00    0.559E-01
RMM:   4    -0.214987497561E+02   -0.12389E-01   -0.40349E-02   224   0.137E+00    0.109E-01
RMM:   5    -0.214987366510E+02    0.13105E-04   -0.66165E-03   224   0.516E-01    0.517E-02
RMM:   6    -0.214987059895E+02    0.30661E-04   -0.88295E-04   220   0.228E-01    0.188E-02
RMM:   7    -0.214987116033E+02   -0.56137E-05   -0.21258E-04   207   0.984E-02    0.781E-03
RMM:   8    -0.214987145352E+02   -0.29320E-05   -0.44834E-05   156   0.485E-02
   3 F= -.21498715E+02 E0= -.21498267E+02  d E =-.280520E-01
 curvature:  -0.14 expect dE=-0.501E-04 dE for cont linesearch -0.501E-04
 ZBRENT: interpolating
 opt :   0.2464  next Energy=   -21.498758 (dE=-0.281E-01)
 bond charge predicted
       N       E                     dE             d eps       ncg     rms          rms(c)
DAV:   1    -0.214990640898E+02   -0.35249E-03   -0.73615E-03   224   0.565E-01    0.918E-02
RMM:   2    -0.214987803057E+02    0.28378E-03   -0.21501E-04   222   0.909E-02    0.349E-02
RMM:   3    -0.214987449916E+02    0.35314E-04   -0.87432E-05   212   0.540E-02    0.719E-03
RMM:   4    -0.214987506167E+02   -0.56250E-05   -0.68162E-06   132   0.178E-02
   4 F= -.21498751E+02 E0= -.21498291E+02  d E =-.280881E-01
 curvature:  -0.12 expect dE=-0.330E-07 dE for cont linesearch -0.330E-07
 trial: gam= 0.00000 g(F)=  0.415E-60 g(S)=  0.268E-06 ort =-0.249E-03 (trialstep = 0.849E+00)
 search vector abs. value=  0.268E-06
 reached required accuracy - stopping structural energy minimisation
