HECN                                    
           1
     3.146900    0.000000    0.000000
     0.000000    3.146900    0.000000
     0.000000    0.000000    3.146900
   Mo
     2
Direct configuration=     1
   0.00000000  0.00000000  0.00000000
   0.50000000  0.50000000  0.50000000
HECN                                    
           1
     3.282840    0.000000   -0.000000
     0.000000    3.282840   -0.000000
     0.000000    0.000000    3.282840
   Mo
     2
Direct configuration=     2
   1.00000000  1.00000000  1.00000000
   0.50000000  0.50000000  0.50000000
HECN                                    
           1
     3.181697    0.000000   -0.000000
     0.000000    3.181697   -0.000000
     0.000000    0.000000    3.181697
   Mo
     2
Direct configuration=     3
   0.00000000  0.00000000  0.00000000
   0.50000000  0.50000000  0.50000000
HECN                                    
           1
     3.180390    0.000000   -0.000000
     0.000000    3.180390   -0.000000
     0.000000    0.000000    3.180390
   Mo
     2
Direct configuration=     4
   0.00000000  0.00000000  0.00000000
   0.50000000  0.50000000  0.50000000
