  64  64   0   0
  0.1022278E+02  0.8633241E-09  0.8768525E-09  0.8642731E-09  0.5000000E-15
  1.000000000000000E-004
  CAR 
 HECN                                    
     13.72058599    -60.72642875  301      7.69454591      1.00000000
    -60.726  0.0000E+00  0.0000E+00
    -60.478  0.0000E+00  0.0000E+00
    -60.230  0.0000E+00  0.0000E+00
    -59.982  0.0000E+00  0.0000E+00
    -59.734  0.0000E+00  0.0000E+00
    -59.486  0.0000E+00  0.0000E+00
    -59.237  0.0000E+00  0.0000E+00
    -58.989  0.0000E+00  0.0000E+00
    -58.741  0.0000E+00  0.0000E+00
    -58.493  0.0000E+00  0.0000E+00
    -58.245  0.0000E+00  0.0000E+00
    -57.997  0.0000E+00  0.0000E+00
    -57.749  0.4115E-09  0.1021E-09
    -57.500  0.1482E-02  0.3679E-03
    -57.252  0.2035E+00  0.5086E-01
    -57.004  0.2689E+00  0.1176E+00
    -56.756  0.9731E-02  0.1200E+00
    -56.508  0.2753E-07  0.1200E+00
    -56.260  0.0000E+00  0.1200E+00
    -56.011  0.0000E+00  0.1200E+00
    -55.763  0.0000E+00  0.1200E+00
    -55.515  0.0000E+00  0.1200E+00
    -55.267  0.0000E+00  0.1200E+00
    -55.019  0.0000E+00  0.1200E+00
    -54.771  0.0000E+00  0.1200E+00
    -54.523  0.0000E+00  0.1200E+00
    -54.274  0.0000E+00  0.1200E+00
    -54.026  0.0000E+00  0.1200E+00
    -53.778  0.0000E+00  0.1200E+00
    -53.530  0.0000E+00  0.1200E+00
    -53.282  0.0000E+00  0.1200E+00
    -53.034  0.0000E+00  0.1200E+00
    -52.785  0.0000E+00  0.1200E+00
    -52.537  0.0000E+00  0.1200E+00
    -52.289  0.0000E+00  0.1200E+00
    -52.041  0.0000E+00  0.1200E+00
    -51.793  0.0000E+00  0.1200E+00
    -51.545  0.0000E+00  0.1200E+00
    -51.296  0.0000E+00  0.1200E+00
    -51.048  0.0000E+00  0.1200E+00
    -50.800  0.0000E+00  0.1200E+00
    -50.552  0.0000E+00  0.1200E+00
    -50.304  0.2157E-10  0.1200E+00
    -50.056  0.3226E-03  0.1201E+00
    -49.808  0.1482E+00  0.1569E+00
    -49.559  0.2295E+00  0.2138E+00
    -49.311  0.1674E+00  0.2553E+00
    -49.063  0.1874E-01  0.2600E+00
    -48.815  0.8299E-06  0.2600E+00
    -48.567  0.3221E-15  0.2600E+00
    -48.319  0.0000E+00  0.2600E+00
    -48.070  0.0000E+00  0.2600E+00
    -47.822  0.0000E+00  0.2600E+00
    -47.574  0.0000E+00  0.2600E+00
    -47.326  0.0000E+00  0.2600E+00
    -47.078  0.0000E+00  0.2600E+00
    -46.830  0.0000E+00  0.2600E+00
    -46.581  0.0000E+00  0.2600E+00
    -46.333  0.0000E+00  0.2600E+00
    -46.085  0.0000E+00  0.2600E+00
    -45.837  0.0000E+00  0.2600E+00
    -45.589  0.0000E+00  0.2600E+00
    -45.341  0.0000E+00  0.2600E+00
    -45.093  0.0000E+00  0.2600E+00
    -44.844  0.0000E+00  0.2600E+00
    -44.596  0.0000E+00  0.2600E+00
    -44.348  0.0000E+00  0.2600E+00
    -44.100  0.0000E+00  0.2600E+00
    -43.852  0.0000E+00  0.2600E+00
    -43.604  0.0000E+00  0.2600E+00
    -43.355  0.0000E+00  0.2600E+00
    -43.107  0.0000E+00  0.2600E+00
    -42.859  0.0000E+00  0.2600E+00
    -42.611  0.0000E+00  0.2600E+00
    -42.363  0.0000E+00  0.2600E+00
    -42.115  0.0000E+00  0.2600E+00
    -41.867  0.5643E-13  0.2600E+00
    -41.618  0.1414E-04  0.2600E+00
    -41.370  0.3819E-01  0.2695E+00
    -41.122  0.4799E-01  0.2814E+00
    -40.874  0.1724E+00  0.3242E+00
    -40.626  0.2642E+00  0.3898E+00
    -40.378  0.4128E-01  0.4000E+00
    -40.129  0.2312E-05  0.4000E+00
    -39.881  0.1581E-14  0.4000E+00
    -39.633  0.0000E+00  0.4000E+00
    -39.385  0.0000E+00  0.4000E+00
    -39.137  0.0000E+00  0.4000E+00
    -38.889  0.0000E+00  0.4000E+00
    -38.640  0.0000E+00  0.4000E+00
    -38.392  0.0000E+00  0.4000E+00
    -38.144  0.0000E+00  0.4000E+00
    -37.896  0.0000E+00  0.4000E+00
    -37.648  0.0000E+00  0.4000E+00
    -37.400  0.0000E+00  0.4000E+00
    -37.152  0.0000E+00  0.4000E+00
    -36.903  0.0000E+00  0.4000E+00
    -36.655  0.5970E-10  0.4000E+00
    -36.407  0.4507E-03  0.4001E+00
    -36.159  0.7952E-01  0.4198E+00
    -35.911  0.6890E+00  0.5908E+00
    -35.663  0.6553E+00  0.7534E+00
    -35.414  0.2642E-01  0.7600E+00
    -35.166  0.2660E-06  0.7600E+00
    -34.918  0.0000E+00  0.7600E+00
    -34.670  0.0000E+00  0.7600E+00
    -34.422  0.0000E+00  0.7600E+00
    -34.174  0.0000E+00  0.7600E+00
    -33.926  0.0000E+00  0.7600E+00
    -33.677  0.0000E+00  0.7600E+00
    -33.429  0.0000E+00  0.7600E+00
    -33.181  0.0000E+00  0.7600E+00
    -32.933  0.0000E+00  0.7600E+00
    -32.685  0.0000E+00  0.7600E+00
    -32.437  0.0000E+00  0.7600E+00
    -32.188  0.0000E+00  0.7600E+00
    -31.940  0.1577E-15  0.7600E+00
    -31.692  0.7773E-06  0.7600E+00
    -31.444  0.3924E-01  0.7697E+00
    -31.196  0.6253E+00  0.9249E+00
    -30.948  0.7362E+00  0.1108E+01
    -30.699  0.4990E-01  0.1120E+01
    -30.451  0.1443E-05  0.1120E+01
    -30.203  0.6326E-15  0.1120E+01
    -29.955  0.0000E+00  0.1120E+01
    -29.707  0.0000E+00  0.1120E+01
    -29.459  0.0000E+00  0.1120E+01
    -29.211  0.0000E+00  0.1120E+01
    -28.962  0.0000E+00  0.1120E+01
    -28.714  0.0000E+00  0.1120E+01
    -28.466  0.0000E+00  0.1120E+01
    -28.218  0.0000E+00  0.1120E+01
    -27.970  0.0000E+00  0.1120E+01
    -27.722  0.0000E+00  0.1120E+01
    -27.473  0.0000E+00  0.1120E+01
    -27.225  0.0000E+00  0.1120E+01
    -26.977  0.0000E+00  0.1120E+01
    -26.729  0.6736E-08  0.1120E+01
    -26.481  0.3783E-02  0.1121E+01
    -26.233  0.3081E+00  0.1197E+01
    -25.984  0.6970E+00  0.1370E+01
    -25.736  0.5779E+00  0.1514E+01
    -25.488  0.1057E+00  0.1540E+01
    -25.240  0.2775E-04  0.1540E+01
    -24.992  0.1146E-12  0.1540E+01
    -24.744  0.0000E+00  0.1540E+01
    -24.496  0.0000E+00  0.1540E+01
    -24.247  0.0000E+00  0.1540E+01
    -23.999  0.0000E+00  0.1540E+01
    -23.751  0.0000E+00  0.1540E+01
    -23.503  0.0000E+00  0.1540E+01
    -23.255  0.0000E+00  0.1540E+01
    -23.007  0.0000E+00  0.1540E+01
    -22.758  0.0000E+00  0.1540E+01
    -22.510  0.0000E+00  0.1540E+01
    -22.262  0.0000E+00  0.1540E+01
    -22.014  0.0000E+00  0.1540E+01
    -21.766  0.0000E+00  0.1540E+01
    -21.518  0.0000E+00  0.1540E+01
    -21.270  0.0000E+00  0.1540E+01
    -21.021  0.0000E+00  0.1540E+01
    -20.773  0.0000E+00  0.1540E+01
    -20.525  0.0000E+00  0.1540E+01
    -20.277  0.8021E-12  0.1540E+01
    -20.029  0.5707E-04  0.1540E+01
    -19.781  0.7712E-01  0.1559E+01
    -19.532  0.1856E+00  0.1605E+01
    -19.284  0.5456E+00  0.1741E+01
    -19.036  0.5762E+00  0.1884E+01
    -18.788  0.2461E+00  0.1945E+01
    -18.540  0.6163E-01  0.1960E+01
    -18.292  0.9760E-04  0.1960E+01
    -18.043  0.2446E-11  0.1960E+01
    -17.795  0.0000E+00  0.1960E+01
    -17.547  0.0000E+00  0.1960E+01
    -17.299  0.0000E+00  0.1960E+01
    -17.051  0.0000E+00  0.1960E+01
    -16.803  0.0000E+00  0.1960E+01
    -16.555  0.0000E+00  0.1960E+01
    -16.306  0.0000E+00  0.1960E+01
    -16.058  0.0000E+00  0.1960E+01
    -15.810  0.0000E+00  0.1960E+01
    -15.562  0.0000E+00  0.1960E+01
    -15.314  0.0000E+00  0.1960E+01
    -15.066  0.0000E+00  0.1960E+01
    -14.817  0.0000E+00  0.1960E+01
    -14.569  0.0000E+00  0.1960E+01
    -14.321  0.0000E+00  0.1960E+01
    -14.073  0.0000E+00  0.1960E+01
    -13.825  0.0000E+00  0.1960E+01
    -13.577  0.0000E+00  0.1960E+01
    -13.328  0.0000E+00  0.1960E+01
    -13.080  0.0000E+00  0.1960E+01
    -12.832  0.0000E+00  0.1960E+01
    -12.584  0.0000E+00  0.1960E+01
    -12.336  0.0000E+00  0.1960E+01
    -12.088  0.0000E+00  0.1960E+01
    -11.840  0.0000E+00  0.1960E+01
    -11.591  0.0000E+00  0.1960E+01
    -11.343  0.0000E+00  0.1960E+01
    -11.095  0.0000E+00  0.1960E+01
    -10.847  0.0000E+00  0.1960E+01
    -10.599  0.0000E+00  0.1960E+01
    -10.351  0.0000E+00  0.1960E+01
    -10.102  0.0000E+00  0.1960E+01
     -9.854  0.0000E+00  0.1960E+01
     -9.606  0.0000E+00  0.1960E+01
     -9.358  0.0000E+00  0.1960E+01
     -9.110  0.0000E+00  0.1960E+01
     -8.862  0.3165E-13  0.1960E+01
     -8.614  0.2951E-05  0.1960E+01
     -8.365  0.9564E-02  0.1962E+01
     -8.117  0.6685E-01  0.1979E+01
     -7.869  0.6474E-01  0.1995E+01
     -7.621  0.1389E+00  0.2029E+01
     -7.373  0.9867E-01  0.2054E+01
     -7.125  0.1405E+00  0.2089E+01
     -6.876  0.1943E+00  0.2137E+01
     -6.628  0.2634E+00  0.2202E+01
     -6.380  0.7067E-01  0.2220E+01
     -6.132  0.2289E-03  0.2220E+01
     -5.884  0.1535E-10  0.2220E+01
     -5.636  0.0000E+00  0.2220E+01
     -5.387  0.1595E-13  0.2220E+01
     -5.139  0.2374E-05  0.2220E+01
     -4.891  0.7563E-02  0.2222E+01
     -4.643  0.6199E-01  0.2237E+01
     -4.395  0.4408E-01  0.2248E+01
     -4.147  0.1035E+00  0.2274E+01
     -3.899  0.1438E+00  0.2310E+01
     -3.650  0.2371E+00  0.2368E+01
     -3.402  0.2212E+00  0.2423E+01
     -3.154  0.2040E+00  0.2474E+01
     -2.906  0.1920E+00  0.2522E+01
     -2.658  0.1726E+00  0.2564E+01
     -2.410  0.1145E+00  0.2593E+01
     -2.161  0.2859E-01  0.2600E+01
     -1.913  0.3317E-03  0.2600E+01
     -1.665  0.1527E-08  0.2600E+01
     -1.417  0.0000E+00  0.2600E+01
     -1.169  0.0000E+00  0.2600E+01
     -0.921  0.0000E+00  0.2600E+01
     -0.673  0.0000E+00  0.2600E+01
     -0.424  0.4971E-18  0.2600E+01
     -0.176  0.7211E-08  0.2600E+01
      0.072  0.8122E-03  0.2600E+01
      0.320  0.1232E-01  0.2603E+01
      0.568  0.8747E-01  0.2625E+01
      0.816  0.1098E+00  0.2652E+01
      1.065  0.1546E+00  0.2691E+01
      1.313  0.2414E+00  0.2750E+01
      1.561  0.2965E+00  0.2824E+01
      1.809  0.3052E+00  0.2900E+01
      2.057  0.3386E+00  0.2984E+01
      2.305  0.3753E+00  0.3077E+01
      2.554  0.3967E+00  0.3175E+01
      2.802  0.4751E+00  0.3293E+01
      3.050  0.6086E+00  0.3444E+01
      3.298  0.6608E+00  0.3608E+01
      3.546  0.6207E+00  0.3762E+01
      3.794  0.5852E+00  0.3908E+01
      4.042  0.5177E+00  0.4036E+01
      4.291  0.4594E+00  0.4150E+01
      4.539  0.3961E+00  0.4248E+01
      4.787  0.3218E+00  0.4328E+01
      5.035  0.2773E+00  0.4397E+01
      5.283  0.2288E+00  0.4454E+01
      5.531  0.1607E+00  0.4494E+01
      5.780  0.1069E+00  0.4520E+01
      6.028  0.1195E+00  0.4550E+01
      6.276  0.1750E+00  0.4593E+01
      6.524  0.1782E+00  0.4637E+01
      6.772  0.2528E+00  0.4700E+01
      7.020  0.2379E+00  0.4759E+01
      7.269  0.2669E+00  0.4825E+01
      7.517  0.2907E+00  0.4898E+01
      7.765  0.2897E+00  0.4970E+01
      8.013  0.3500E+00  0.5056E+01
      8.261  0.4774E+00  0.5175E+01
      8.509  0.5613E+00  0.5314E+01
      8.757  0.5778E+00  0.5457E+01
      9.006  0.5564E+00  0.5596E+01
      9.254  0.5616E+00  0.5735E+01
      9.502  0.5329E+00  0.5867E+01
      9.750  0.5575E+00  0.6006E+01
      9.998  0.5100E+00  0.6132E+01
     10.246  0.3653E+00  0.6223E+01
     10.495  0.6931E-01  0.6240E+01
     10.743  0.2088E-03  0.6240E+01
     10.991  0.4516E-10  0.6240E+01
     11.239  0.0000E+00  0.6240E+01
     11.487  0.0000E+00  0.6240E+01
     11.735  0.0000E+00  0.6240E+01
     11.983  0.0000E+00  0.6240E+01
     12.232  0.0000E+00  0.6240E+01
     12.480  0.0000E+00  0.6240E+01
     12.728  0.0000E+00  0.6240E+01
     12.976  0.0000E+00  0.6240E+01
     13.224  0.0000E+00  0.6240E+01
     13.472  0.0000E+00  0.6240E+01
     13.721  0.0000E+00  0.6240E+01
