HECN                                    
           1
     8.633238    0.002341   -0.006968
     0.007933    8.768521   -0.003022
     0.024051   -0.018214    8.642678
   Zr   V    Ti   N    C    Cr   Mo
   7   6   7  13  19   6   6
Direct configuration=     1
   0.99581125  0.99400113  0.99641172
   0.25782012  0.99867763  0.24729779
   0.24710257  0.50027895  0.24835528
   0.50391548  0.49863052  0.99899093
   0.50549763  0.24371514  0.74556532
   0.99586085  0.50224492  0.49851106
   0.49721546  0.75864239  0.75071600
   0.99283227  0.23424606  0.26511741
   0.75822701  0.74050652  0.01152304
   0.00268769  0.25559212  0.73784215
   0.75358521  0.26061191  0.50480469
   0.99610286  0.74422049  0.74599037
   0.25601140  0.49396288  0.74621886
   0.24708678  0.24880600  0.99556553
   0.50986296  0.25484676  0.25421561
   0.74607741  0.98962724  0.27033909
   0.75772724  0.25598880  0.99567715
   0.24696109  0.74908824  0.99892760
   0.25280233  0.24819827  0.50109577
   0.24483332  0.75073293  0.50089243
   0.25034768  0.24934305  0.24859334
   0.26074260  0.00009248  0.99238141
   0.00259110  0.25030441  0.00081647
   0.75300432  0.24570985  0.25508856
   0.74604130  0.99742193  0.01008173
   0.50844216  0.99962723  0.24794773
   0.99086904  0.48067874  0.24151757
   0.50518996  0.76108774  0.00819877
   0.98936342  0.00202727  0.73855171
   0.75842841  0.24431851  0.74918623
   0.73657499  0.00404484  0.50859207
   0.50505496  0.23300997  0.49416256
   0.50110794  0.00044788  0.73626986
   0.99559583  0.00082737  0.25786369
   0.50467253  0.24523929  0.00344754
   0.25179490  0.74938655  0.24916229
   0.24256780  0.50097540  0.99343085
   0.99806633  0.74120270  0.00332678
   0.75461633  0.74145749  0.25422199
   0.76002137  0.50355466  0.00252474
   0.50518423  0.50298745  0.25743990
   0.24692956  0.25302614  0.74833236
   0.24847162  0.99794604  0.50492413
   0.99789143  0.24317737  0.50156944
   0.24015734  0.75309963  0.75007330
   0.25747716  0.50084230  0.50312217
   0.99255332  0.76106873  0.50020618
   0.99325526  0.50064821  0.75378544
   0.75223609  0.75226854  0.74922570
   0.74188945  0.49839248  0.50147980
   0.50340902  0.75291367  0.49497555
   0.50213610  0.50187002  0.74075627
   0.51763258  0.01416635  0.98096010
   0.99815765  0.51088293  0.98424967
   0.50420161  0.73885274  0.25861943
   0.23707890  0.01163086  0.74615774
   0.47852715  0.98350623  0.49742664
   0.74234129  0.97688580  0.76504166
   0.99944741  0.77442835  0.25981986
   0.73649110  0.51291867  0.26448990
   0.02160029  0.99938009  0.49792073
   0.50435975  0.52634096  0.49842150
   0.74133359  0.52579191  0.73977860
   0.75412456  0.73359803  0.49180038
HECN                                    
           1
     8.686174    0.009933   -0.012657
     0.015683    8.791571   -0.009680
     0.018533   -0.024779    8.698381
   Zr   V    Ti   N    C    Cr   Mo
   7   6   7  13  19   6   6
Direct configuration=     2
   0.99470329  0.99813221  0.99017915
   0.26394742  0.00204048  0.24350146
   0.24402815  0.49681360  0.24608886
   0.50122880  0.50080481  0.99998185
   0.50649721  0.24036202  0.74340748
   0.00036298  0.49808419  0.50023467
   0.49283855  0.76340385  0.75586097
   0.98980522  0.23077439  0.26598666
   0.75986938  0.74068956  0.01164991
   0.00385173  0.25491815  0.73772815
   0.75450973  0.25719755  0.50316223
   0.99899282  0.74325406  0.74943272
   0.25293093  0.49293941  0.74868829
   0.24563587  0.24925059  0.99366164
   0.51219879  0.25107443  0.25437930
   0.74082056  0.99447046  0.27015928
   0.75848060  0.25530722  0.99569291
   0.24531396  0.74826227  0.99713484
   0.25324064  0.24793080  0.50219878
   0.24579073  0.75146575  0.50312347
   0.25113315  0.24904350  0.24918320
   0.26083717  0.00061876  0.98925333
   0.00221895  0.25251863 -0.00004359
   0.75309820  0.24425181  0.25499221
   0.74113522  0.99748413  0.00586769
   0.51265777  0.99916982  0.24951999
   0.99075729  0.48110952  0.24029109
   0.50486238  0.76232888  0.00926459
   0.98970278  0.00239269  0.74192093
   0.76218920  0.24423751  0.74943779
   0.73829724  0.00357396  0.50595708
   0.50401906  0.23461277  0.49053367
   0.50311085  0.00078118  0.74004507
   0.99225229  0.00791900  0.25476360
   0.50515336  0.24163303  0.00594147
   0.25410793  0.74892646  0.24899481
   0.24001129  0.50125511  0.98859352
   0.99794547  0.73718755 -0.00012645
   0.74907763  0.74865836  0.24543348
   0.76416343  0.50365277  0.00199444
   0.49955756  0.50125067  0.25390475
   0.24230391  0.25262793  0.74799215
   0.25821300  0.99776600  0.50997567
   0.99801124  0.24536269  0.50246970
   0.23570845  0.75271310  0.75021879
   0.25552188  0.50080519  0.50732866
   0.99966805  0.75805116  0.50757873
   0.99800278  0.50020728  0.75906283
   0.75622392  0.76013505  0.75373909
   0.74529505  0.49018282  0.50297553
   0.49723031  0.76168312  0.49082486
   0.49473851  0.50119142  0.74429889
   0.52055093  0.01395516  0.98183069
   0.99822083  0.51164553  0.98142038
   0.50398411  0.73898375  0.25575019
   0.23484654  0.01316702  0.74733108
   0.47803148  0.98555028  0.49712688
   0.74153584  0.97558715  0.76666785
   0.00238283  0.76932555  0.25473684
   0.74196967  0.50639810  0.25678045
   0.01527003  0.00380032  0.50400353
   0.50071348  0.51926714  0.49738357
   0.74753800  0.51792148  0.74735470
   0.75270398  0.74389062  0.49517380
HECN                                    
           1
     8.679218    0.008935   -0.011910
     0.014665    8.788542   -0.008805
     0.019258   -0.023916    8.691062
   Zr   V    Ti   N    C    Cr   Mo
   7   6   7  13  19   6   6
Direct configuration=     3
   0.99484899  0.99759131  0.99099250
   0.26314795  0.00160084  0.24399622
   0.24442943  0.49726760  0.24638535
   0.50157983  0.50051947  0.99985249
   0.50636646  0.24080176  0.74368944
  -0.00022560  0.49862979  0.50000968
   0.49341026  0.76277888  0.75518918
   0.99020005  0.23122892  0.26587378
   0.75965491  0.74066574  0.01163319
   0.00369965  0.25500662  0.73774300
   0.75438873  0.25764526  0.50337692
   0.99861501  0.74338071  0.74898317
   0.25333289  0.49307295  0.74836627
   0.24582556  0.24919234  0.99391027
   0.51189330  0.25156904  0.25435811
   0.74150765  0.99383518  0.27018271
   0.75838214  0.25539663  0.99569086
   0.24552912  0.74837050  0.99736911
   0.25318327  0.24796580  0.50205477
   0.24566559  0.75136961  0.50283205
   0.25103049  0.24908279  0.24910616
   0.26082515  0.00055010  0.98966165
   0.00226788  0.25222850  0.00006850
   0.75308578  0.24444290  0.25500493
   0.74177628  0.99747583  0.00641825
   0.51210706  0.99923009  0.24931442
   0.99077204  0.48105317  0.24045118
   0.50490522  0.76216609  0.00912534
   0.98965822  0.00234451  0.74148101
   0.76169803  0.24424853  0.74940464
   0.73807250  0.00363611  0.50630098
   0.50415484  0.23440296  0.49100735
   0.50284900  0.00073736  0.73955201
   0.99269003  0.00698957  0.25516790
   0.50508993  0.24210544  0.00561620
   0.25380583  0.74898703  0.24901653
   0.24034560  0.50121863  0.98922523
   0.99796108  0.73771404  0.00032479
   0.74980253  0.74771491  0.24658058
   0.76362256  0.50364042  0.00206331
   0.50029246  0.50147798  0.25436692
   0.24290797  0.25267962  0.74803699
   0.25694040  0.99779020  0.50931537
   0.99799577  0.24507623  0.50235194
   0.23628939  0.75276324  0.75020021
   0.25577686  0.50080943  0.50677966
   0.99873794  0.75844670  0.50661593
   0.99738229  0.50026509  0.75837349
   0.75570367  0.75910417  0.75314873
   0.74484921  0.49125893  0.50278079
   0.49803858  0.76053360  0.49136639
   0.49570420  0.50127918  0.74383709
   0.52016972  0.01398308  0.98171681
   0.99821291  0.51154587  0.98178967
   0.50401277  0.73896683  0.25612478
   0.23513815  0.01296535  0.74717793
   0.47809647  0.98528238  0.49716585
   0.74164074  0.97575709  0.76645575
   0.00199932  0.76999508  0.25540070
   0.74125410  0.50725397  0.25778713
   0.01609671  0.00321976  0.50320950
   0.50118892  0.52019385  0.49752009
   0.74672618  0.51895286  0.74636589
   0.75289041  0.74254130  0.49473248
HECN                                    
           1
     8.589392    0.010931   -0.011458
     0.016655    8.663960   -0.014061
     0.019381   -0.028865    8.596404
   Zr   V    Ti   N    C    Cr   Mo
   7   6   7  13  19   6   6
Direct configuration=     4
   0.99367809  0.99906236  0.98860701
   0.26444320  0.00207351  0.24268584
   0.24157982  0.49545032  0.24524939
   0.50108938  0.50042234  0.00042956
   0.50722105  0.24044778  0.74277390
   0.00059782  0.49805660  0.50251323
   0.49249823  0.76212413  0.75617899
   0.98637676  0.22917156  0.26737547
   0.76235841  0.73959348  0.01130187
   0.00391276  0.25380290  0.73748203
   0.75640330  0.25462516  0.50168365
   0.00102332  0.74116916  0.75241286
   0.25078173  0.49148059  0.75056737
   0.24437763  0.24913160  0.99152706
   0.51435179  0.25105925  0.25402249
   0.73979341  0.99696881  0.26974110
   0.75851617  0.25528975  0.99558348
   0.24243815  0.74803744  0.99639091
   0.25275397  0.24691820  0.50308975
   0.24597251  0.75256875  0.50388760
   0.25140675  0.24811657  0.24947408
   0.25989689  0.00120648  0.98750413
   0.00196432  0.25405360 -0.00046945
   0.75330928  0.24307405  0.25462313
   0.73966850  0.99815163  0.00184108
   0.51418307  0.99962664  0.25029568
   0.99092917  0.48241746  0.24055126
   0.50396811  0.76311862  0.00991052
   0.99043069  0.00329788  0.74288960
   0.76389296  0.24510589  0.74973068
   0.74152808  0.00286110  0.50413794
   0.50331180  0.23768641  0.48918887
   0.50560536  0.00141540  0.74398792
   0.99237962  0.00640577  0.25433259
   0.50528369  0.23966672  0.00606037
   0.25501509  0.74928621  0.24861395
   0.23887014  0.50120237  0.98666330
   0.99794432  0.73712007 -0.00161626
   0.74595539  0.75053452  0.24426742
   0.76509374  0.50352192  0.00189683
   0.49976270  0.50048331  0.25382654
   0.24094645  0.25189484  0.74768769
   0.25887670  0.99897924  0.51279450
   0.99894795  0.24590344  0.50286819
   0.23375533  0.75283918  0.75084305
   0.25548284  0.50048655  0.50830635
   0.00206023  0.75649444  0.50944905
   0.00197671  0.49964659  0.76043117
   0.75675672  0.76054250  0.75570629
   0.74551531  0.48895958  0.50295682
   0.49501864  0.76268858  0.48941148
   0.49241140  0.50179522  0.74475274
   0.52337058  0.01350690  0.98100450
   0.99758637  0.51189602  0.97918156
   0.50268396  0.73601795  0.25463301
   0.23073009  0.01463140  0.74743493
   0.47922283  0.98647963  0.49698693
   0.73935553  0.97558258  0.76862077
   0.00300310  0.77217993  0.25291631
   0.74179160  0.50661027  0.25389022
   0.01635398  0.00497401  0.50610065
   0.50162216  0.51973036  0.49550506
   0.75017052  0.51769684  0.75225529
   0.75179422  0.74465739  0.49504986
HECN                                    
           1
     8.627135    0.010092   -0.011648
     0.015819    8.716307   -0.011852
     0.019330   -0.026786    8.636177
   Zr   V    Ti   N    C    Cr   Mo
   7   6   7  13  19   6   6
Direct configuration=     5
   0.99417535  0.99843585  0.98961998
   0.26389330  0.00187251  0.24324240
   0.24278948  0.49622489  0.24573240
   0.50129761  0.50046354  0.00018443
   0.50685816  0.24059898  0.74316294
   0.00024820  0.49830035  0.50144987
   0.49288540  0.76240286  0.75575867
   0.98799984  0.23004769  0.26673802
   0.76121044  0.74005087  0.01144295
   0.00382214  0.25431604  0.73759322
   0.75554760  0.25591304  0.50240380
   0.00000062  0.74211115  0.75095652
   0.25186476  0.49215847  0.74963270
   0.24499234  0.24915795  0.99253947
   0.51330791  0.25127687  0.25416524
   0.74052157  0.99563311  0.26992784
   0.75845925  0.25533535  0.99562912
   0.24375045  0.74817933  0.99680650
   0.25293614  0.24736441  0.50265035
   0.24584235  0.75205741  0.50343888
   0.25124690  0.24852834  0.24931804
   0.26029104  0.00092717  0.98842047
   0.00209339  0.25327580 -0.00024142
   0.75321423  0.24365761  0.25478569
   0.74056341  0.99786454  0.00378529
   0.51330171  0.99945758  0.24987876
   0.99086260  0.48183595  0.24050838
   0.50436610  0.76271233  0.00957670
   0.99010285  0.00289125  0.74229097
   0.76296114  0.24474060  0.74959198
   0.74006080  0.00319234  0.50505708
   0.50367007  0.23628730  0.48996049
   0.50443522  0.00112555  0.74210337
   0.99251133  0.00665478  0.25468759
   0.50520116  0.24070607  0.00587233
   0.25450169  0.74915892  0.24878491
   0.23949654  0.50120980  0.98775161
   0.99795134  0.73737373 -0.00079152
   0.74758907  0.74933293  0.24524926
   0.76446910  0.50357262  0.00196761
   0.49998750  0.50090735  0.25405635
   0.24177917  0.25222922  0.74783626
   0.25805478  0.99847175  0.51131624
   0.99854378  0.24555083  0.50264868
   0.23483125  0.75280639  0.75056990
   0.25560767  0.50062375  0.50765788
   0.00064950  0.75732616  0.50824609
   0.00002599  0.49991016  0.75955729
   0.75630982  0.75992890  0.75461944
   0.74523225  0.48993964  0.50288267
   0.49630104  0.76177026  0.49024132
   0.49380952  0.50157470  0.74436357
   0.52201150  0.01371037  0.98130727
   0.99785238  0.51174738  0.98028941
   0.50324780  0.73727508  0.25526750
   0.23260184  0.01392077  0.74732524
   0.47874473  0.98596949  0.49706264
   0.74032580  0.97565617  0.76770105
   0.00257712  0.77124943  0.25397114
   0.74156326  0.50688568  0.25554585
   0.01624499  0.00422559  0.50487200
   0.50143813  0.51992847  0.49636120
   0.74870810  0.51823104  0.74975381
   0.75225988  0.74375526  0.49491445
HECN                                    
           1
     8.648542    0.009998   -0.007985
     0.015755    8.717463   -0.013205
     0.023063   -0.028119    8.648911
   Zr   V    Ti   N    C    Cr   Mo
   7   6   7  13  19   6   6
Direct configuration=     6
   0.99362279  0.99879492  0.98993601
   0.26352844  0.00154865  0.24320019
   0.24099941  0.49541781  0.24554659
   0.50142532  0.49966486  0.00044203
   0.50752837  0.24255795  0.74271168
  -0.00060380  0.49947701  0.50307267
   0.49309575  0.75997377  0.75506432
   0.98537727  0.22960684  0.26753498
   0.76344492  0.73936702  0.01054648
   0.00330323  0.25277418  0.73792573
   0.75727780  0.25349971  0.50098288
   0.00131890  0.74026179  0.75365069
   0.25011157  0.49079774  0.75065871
   0.24398486  0.24854283  0.99106947
   0.51457408  0.25233549  0.25370886
   0.74135945  0.99707858  0.26919718
   0.75828070  0.25526105  0.99561427
   0.24135757  0.74840547  0.99643601
   0.25257895  0.24670271  0.50284031
   0.24593002  0.75284015  0.50355346
   0.25115599  0.24771721  0.24945777
   0.25927805  0.00138663  0.98705422
   0.00188806  0.25505717 -0.00034220
   0.75350188  0.24282618  0.25413661
   0.74097909  0.99850548  0.00089726
   0.51334855  0.99999373  0.25010655
   0.99077058  0.48323041  0.24096386
   0.50336045  0.76351671  0.01039921
   0.99060717  0.00388519  0.74221515
   0.76399359  0.24560253  0.74980299
   0.74327977  0.00294172  0.50432970
   0.50328746  0.23955222  0.48944744
   0.50683650  0.00127026  0.74549579
   0.99332127  0.00438738  0.25476779
   0.50507903  0.23946774  0.00531072
   0.25491843  0.74930473  0.24843753
   0.23890094  0.50094657  0.98714840
   0.99802526  0.73864386 -0.00128823
   0.74562052  0.75020213  0.24578611
   0.76441156  0.50318645  0.00226307
   0.50030116  0.50007785  0.25426954
   0.24191075  0.25150718  0.74763339
   0.25752938  0.99982307  0.51325829
   0.99965426  0.24579336  0.50272210
   0.23414429  0.75314509  0.75123303
   0.25608347  0.50031727  0.50760629
   0.00128634  0.75678773  0.50845354
   0.00333285  0.49920674  0.75900411
   0.75609139  0.75872399  0.75590352
   0.74488856  0.49000830  0.50297839
   0.49551911  0.76139055  0.48963462
   0.49324124  0.50218799  0.74389379
   0.52353567  0.01285387  0.98000619
   0.99726252  0.51098470  0.97952792
   0.50153246  0.73440584  0.25433699
   0.22808105  0.01520392  0.74742969
   0.48092756  0.98717489  0.49713596
   0.73801965  0.97663757  0.76929322
   0.00236109  0.77325528  0.25322026
   0.74101497  0.50792681  0.25398067
   0.01735733  0.00384581  0.50575731
   0.50280651  0.52052768  0.49481263
   0.75050340  0.51859314  0.75364560
   0.75155562  0.74308830  0.49418082
HECN                                    
           1
     8.657608    0.009958   -0.006433
     0.015728    8.717953   -0.013779
     0.024645   -0.028684    8.654304
   Zr   V    Ti   N    C    Cr   Mo
   7   6   7  13  19   6   6
Direct configuration=     7
   0.99338929  0.99894699  0.99006980
   0.26337430  0.00141149  0.24318239
   0.24024314  0.49507601  0.24546828
   0.50147922  0.49932664  0.00055089
   0.50781162  0.24338752  0.74252084
  -0.00096406  0.49997540  0.50375921
   0.49318474  0.75894505  0.75477048
   0.98426910  0.22942018  0.26787247
   0.76438914  0.73907737  0.01016690
   0.00308392  0.25212125  0.73806635
   0.75800905  0.25247761  0.50038147
   0.00187537  0.73947878  0.75478974
   0.24937066  0.49022154  0.75109285
   0.24355946  0.24828224  0.99044792
   0.51510912  0.25278378  0.25351569
   0.74171358  0.99769068  0.26888812
   0.75820527  0.25522958  0.99560802
   0.24034666  0.74850120  0.99627976
   0.25242801  0.24642250  0.50292068
   0.24596703  0.75317164  0.50360196
   0.25111755  0.24737371  0.24951682
   0.25885031  0.00158112  0.98647661
   0.00180133  0.25581155 -0.00038466
   0.75362352  0.24247404  0.25386200
   0.74115523  0.99877673 -0.00032417
   0.51336830  0.00022080  0.25020291
   0.99073163  0.48382097  0.24115659
   0.50293542  0.76385740  0.01074730
   0.99082027  0.00430611  0.74218306
   0.76442976  0.24596756  0.74989210
   0.74463990  0.00283556  0.50402148
   0.50312592  0.24093484  0.48923075
   0.50785042  0.00133176  0.74693009
   0.99366344  0.00342718  0.25480141
   0.50502752  0.23894328  0.00507314
   0.25509456  0.74936647  0.24829055
   0.23864942  0.50083505  0.98689338
   0.99805659  0.73918171 -0.00149822
   0.74478872  0.75057025  0.24601357
   0.76438719  0.50302293  0.00238801
   0.50043363  0.49972658  0.25435958
   0.24196637  0.25120140  0.74754752
   0.25730706  0.00039545  0.51407980
   0.00012342  0.24589609  0.50275296
   0.23385394  0.75328856  0.75151362
   0.25628450  0.50018747  0.50758437
   0.00155537  0.75655973  0.50854112
   0.00473008  0.49890884  0.75876951
   0.75599887  0.75821380  0.75644654
   0.74474334  0.49003738  0.50301894
   0.49518886  0.76122971  0.48937815
   0.49300123  0.50244767  0.74369525
   0.52417986  0.01249109  0.97945561
   0.99701345  0.51066167  0.97920592
   0.50080790  0.73319069  0.25394358
   0.22617103  0.01574730  0.74747476
   0.48184979  0.98768538  0.49716666
   0.73704502  0.97705326  0.76996706
   0.00226997  0.77410468  0.25290287
   0.74078361  0.50836762  0.25331889
   0.01782712  0.00368504  0.50613151
   0.50338492  0.52078134  0.49415751
   0.75126120  0.51874674  0.75529122
   0.75125821  0.74280580  0.49387063
HECN                                    
           1
     8.670556    0.009444   -0.003904
     0.015213    8.734280   -0.010081
     0.027211   -0.025066    8.658874
   Zr   V    Ti   N    C    Cr   Mo
   7   6   7  13  19   6   6
Direct configuration=     8
   0.99353352  0.00023205  0.99048469
   0.26483232  0.00216674  0.24370168
   0.23992994  0.49437726  0.24570062
   0.50060573  0.49940948  0.00071128
   0.50875466  0.24459915  0.74136617
  -0.00155727  0.50025605  0.50329791
   0.49307624  0.75937765  0.75469248
   0.98384088  0.22862591  0.26815570
   0.76585271  0.73932322  0.00953449
   0.00278094  0.25073226  0.73807731
   0.75921351  0.25119591  0.49911494
   0.00183306  0.73844326  0.75600283
   0.24856330  0.48891185  0.75071538
   0.24304404  0.24739755  0.99035608
   0.51523949  0.25340075  0.25383286
   0.74197908  0.99722983  0.26875816
   0.75815725  0.25501411  0.99550155
   0.24004977  0.74867372  0.99619873
   0.25266462  0.24695834  0.50240810
   0.24617445  0.75321620  0.50334023
   0.25074717  0.24735340  0.24955802
   0.25756257  0.00179826  0.98634756
   0.00142958  0.25681426 -0.00029892
   0.75354436  0.24270537  0.25320758
   0.74260588  0.99906343 -0.00083727
   0.51286807  0.00100103  0.25046903
   0.98998692  0.48470072  0.24205867
   0.50210493  0.76382038  0.01078979
   0.99070495  0.00502681  0.74219255
   0.76433785  0.24637044  0.74993517
   0.74639788  0.00358567  0.50384531
   0.50330621  0.24305840  0.48930739
   0.51004276  0.00102456  0.74834125
   0.99396991  0.00507177  0.25527225
   0.50493482  0.23848912  0.00415396
   0.25437291  0.74872741  0.24825999
   0.23882867  0.50042888  0.98761454
   0.99783118  0.73993397 -0.00063375
   0.74446486  0.75068564  0.24616594
   0.76397492  0.50269861  0.00335912
   0.49907511  0.49888649  0.25336602
   0.24290714  0.25074447  0.74739865
   0.25919077  0.00055624  0.51464743
   0.00048753  0.24604700  0.50254001
   0.23440558  0.75359042  0.75169758
   0.25619244  0.50025525  0.50714960
   0.00056606  0.75763674  0.50788596
   0.00510453  0.49858448  0.75828426
   0.75594907  0.75840382  0.75686363
   0.74469223  0.49019266  0.50384202
   0.49576608  0.76155087  0.48880641
   0.49425811  0.50234472  0.74325377
   0.52460097  0.01194717  0.97796994
   0.99676517  0.50983080  0.97930827
   0.49942802  0.73198457  0.25363836
   0.22228511  0.01732079  0.74734880
   0.48262765  0.98839204  0.49817615
   0.73563695  0.97598067  0.77077570
   0.00154029  0.77141558  0.25333516
   0.74115692  0.50940307  0.25376260
   0.01689470  0.00271602  0.50574044
   0.50403888  0.51973908  0.49351447
   0.75298915  0.51828269  0.75651856
   0.75085731  0.74229473  0.49311699
HECN                                    
           1
     8.673888    0.009311   -0.003253
     0.015080    8.738482   -0.009129
     0.027871   -0.024135    8.660050
   Zr   V    Ti   N    C    Cr   Mo
   7   6   7  13  19   6   6
Direct configuration=     9
   0.99357057  0.00056211  0.99059126
   0.26520698  0.00236072  0.24383507
   0.23984943  0.49419773  0.24576049
   0.50038125  0.49943073  0.00075259
   0.50899712  0.24491053  0.74106895
  -0.00170967  0.50032819  0.50317927
   0.49304837  0.75948878  0.75467238
   0.98373080  0.22842183  0.26822867
   0.76622887  0.73938646  0.00937167
   0.00270306  0.25037545  0.73808031
   0.75952311  0.25086682  0.49878921
   0.00182207  0.73817712  0.75631499
   0.24835583  0.48857544  0.75061849
   0.24291158  0.24717029  0.99033259
   0.51527298  0.25355920  0.25391437
   0.74204731  0.99711146  0.26872476
   0.75814492  0.25495877  0.99547418
   0.23997348  0.74871804  0.99617789
   0.25272547  0.24709604  0.50227617
   0.24622777  0.75322768  0.50327289
   0.25065199  0.24734817  0.24956865
   0.25723165  0.00185404  0.98631444
   0.00133406  0.25707183 -0.00027695
   0.75352407  0.24276486  0.25303923
   0.74297871  0.99913715 -0.00096940
   0.51273951  0.00120143  0.25053743
   0.98979549  0.48492661  0.24229067
   0.50189150  0.76381085  0.01080078
   0.99067532  0.00521195  0.74219492
   0.76431423  0.24647393  0.74994621
   0.74684967  0.00377841  0.50379977
   0.50335257  0.24360390  0.48932686
   0.51060604  0.00094553  0.74870412
   0.99404865  0.00549419  0.25539316
   0.50491105  0.23837256  0.00391757
   0.25418744  0.74856323  0.24825225
   0.23887467  0.50032446  0.98780007
   0.99777320  0.74012712 -0.00041145
   0.74438162  0.75071526  0.24620515
   0.76386890  0.50261518  0.00360898
   0.49872605  0.49867077  0.25311064
   0.24314890  0.25062712  0.74736033
   0.25967480  0.00059751  0.51479328
   0.00058112  0.24608579  0.50248519
   0.23454734  0.75366795  0.75174482
   0.25616882  0.50027270  0.50703777
   0.00031189  0.75791346  0.50771739
   0.00520079  0.49850122  0.75815945
   0.75593625  0.75845258  0.75697090
   0.74467903  0.49023246  0.50405373
   0.49591446  0.76163344  0.48865927
   0.49458113  0.50231834  0.74314012
   0.52470929  0.01180762  0.97758780
   0.99670135  0.50961734  0.97933471
   0.49907342  0.73167475  0.25356008
   0.22128654  0.01772495  0.74731652
   0.48282748  0.98857347  0.49843568
   0.73527502  0.97570503  0.77098393
   0.00135271  0.77072474  0.25344671
   0.74125283  0.50966901  0.25387659
   0.01665510  0.00246712  0.50564002
   0.50420697  0.51947141  0.49334913
   0.75343310  0.51816337  0.75683419
   0.75075434  0.74216352  0.49292322
HECN                                    
           1
     8.657897    0.008580   -0.002830
     0.014346    8.710393   -0.006699
     0.028235   -0.021671    8.641794
   Zr   V    Ti   N    C    Cr   Mo
   7   6   7  13  19   6   6
Direct configuration=    10
   0.99431314  0.00136564  0.99172198
   0.26602229  0.00195231  0.24465686
   0.23960379  0.49397530  0.24596358
   0.49965829  0.49978823 -0.00004111
   0.51022263  0.24521133  0.74002471
  -0.00195562  0.50060028  0.50263052
   0.49269748  0.75921716  0.75455721
   0.98376360  0.22817572  0.26850907
   0.76723446  0.73967018  0.00880163
   0.00261114  0.24930429  0.73750904
   0.76065437  0.24970434  0.49706398
   0.00151661  0.73732111  0.75679098
   0.24756163  0.48711012  0.75009149
   0.24307137  0.24667947  0.99056668
   0.51541275  0.25406163  0.25432607
   0.74178855  0.99586239  0.26863755
   0.75786753  0.25491824  0.99555655
   0.24025908  0.74860460  0.99633439
   0.25285819  0.24771019  0.50190947
   0.24657625  0.75294128  0.50319706
   0.25013145  0.24735087  0.24959976
   0.25604615  0.00217362  0.98661840
   0.00089307  0.25765643 -0.00014536
   0.75341178  0.24342721  0.25256225
   0.74355531  0.99922264 -0.00061460
   0.51304140  0.00235228  0.25109156
   0.98893930  0.48625443  0.24296023
   0.50089455  0.76364065  0.01055553
   0.98968054  0.00597540  0.74240481
   0.76422340  0.24706916  0.74985174
   0.74820023  0.00526762  0.50385064
   0.50377703  0.24550616  0.48907425
   0.51306598  0.00163882  0.74846047
   0.99430280  0.00503608  0.25548250
   0.50489991  0.23798018  0.00313404
   0.25333150  0.74833380  0.24847529
   0.23889129  0.49982008  0.98812533
   0.99784881  0.74031681  0.00046988
   0.74396017  0.75082410  0.24563304
   0.76350346  0.50263763  0.00470637
   0.49799042  0.49827427  0.25251877
   0.24381851  0.25025872  0.74708487
   0.26103952  0.00062556  0.51554247
   0.00064618  0.24591773  0.50216148
   0.23476597  0.75389371  0.75162023
   0.25567119  0.50042519  0.50703990
  -0.00067085  0.75838765  0.50774490
   0.00485992  0.49834739  0.75807494
   0.75632822  0.75862414  0.75687428
   0.74485202  0.49041004  0.50523455
   0.49682809  0.76232218  0.48779788
   0.49628396  0.50239046  0.74293540
   0.52532681  0.01151848  0.97637114
   0.99674306  0.50887981  0.97970713
   0.49739839  0.73029289  0.25359795
   0.21810722  0.01961794  0.74645803
   0.48333200  0.98866846  0.50052211
   0.73532031  0.97369607  0.77215342
   0.00097185  0.77037803  0.25380956
   0.74045231  0.51023026  0.25487541
   0.01627068  0.00238325  0.50432836
   0.50451437  0.51827865  0.49249691
   0.75491071  0.51789846  0.75735253
   0.74990383  0.74162267  0.49259410
HECN                                    
           1
     8.660089    0.008680   -0.002888
     0.014447    8.714243   -0.007032
     0.028185   -0.022009    8.644296
   Zr   V    Ti   N    C    Cr   Mo
   7   6   7  13  19   6   6
Direct configuration=    11
   0.99421118  0.00125520  0.99156672
   0.26591036  0.00200848  0.24454398
   0.23963752  0.49400589  0.24593568
   0.49975755  0.49973905  0.00006791
   0.51005435  0.24516992  0.74016814
  -0.00192185  0.50056285  0.50270589
   0.49274566  0.75925450  0.75457301
   0.98375910  0.22820957  0.26847055
   0.76709638  0.73963114  0.00887994
   0.00262377  0.24945154  0.73758745
   0.76049904  0.24986410  0.49730089
   0.00155856  0.73743883  0.75672557
   0.24767069  0.48731158  0.75016381
   0.24304944  0.24674696  0.99053451
   0.51539356  0.25399257  0.25426955
   0.74182409  0.99603412  0.26864948
   0.75790562  0.25492382  0.99554524
   0.24021987  0.74862020  0.99631290
   0.25283995  0.24762573  0.50195986
   0.24652841  0.75298065  0.50320747
   0.25020292  0.24735050  0.24959549
   0.25620893  0.00212970  0.98657666
   0.00095362  0.25757606 -0.00016341
   0.75342719  0.24333613  0.25262778
   0.74347615  0.99921089 -0.00066332
   0.51299994  0.00219406  0.25101550
   0.98905684  0.48607190  0.24286831
   0.50103143  0.76366405  0.01058920
   0.98981712  0.00587045  0.74237601
   0.76423587  0.24698732  0.74986474
   0.74801478  0.00506285  0.50384372
   0.50371873  0.24524459  0.48910902
   0.51272821  0.00154346  0.74849398
   0.99426791  0.00509907  0.25547021
   0.50490144  0.23803410  0.00324164
   0.25344903  0.74836536  0.24844465
   0.23888901  0.49988944  0.98808064
   0.99783843  0.74029076  0.00034884
   0.74401803  0.75080912  0.24571162
   0.76355365  0.50263459  0.00455565
   0.49809143  0.49832877  0.25260004
   0.24372657  0.25030936  0.74712270
   0.26085214  0.00062171  0.51543958
   0.00063724  0.24594082  0.50220593
   0.23473595  0.75386266  0.75163735
   0.25573952  0.50040423  0.50703961
  -0.00053592  0.75832246  0.50774113
   0.00490672  0.49836854  0.75808654
   0.75627440  0.75860055  0.75688756
   0.74482828  0.49038567  0.50507238
   0.49670263  0.76222744  0.48791621
   0.49605015  0.50238052  0.74296353
   0.52524202  0.01155818  0.97653823
   0.99673734  0.50898123  0.97965596
   0.49762840  0.73048290  0.25359269
   0.21854373  0.01935767  0.74657599
   0.48326274  0.98865548  0.50023557
   0.73531412  0.97397233  0.77199272
   0.00102415  0.77042572  0.25375971
   0.74056223  0.51015314  0.25473825
   0.01632345  0.00239473  0.50450850
   0.50447217  0.51844261  0.49261391
   0.75470783  0.51793489  0.75728134
   0.75002061  0.74169703  0.49263927
HECN                                    
           1
     8.672808    0.008965   -0.003876
     0.014756    8.713714   -0.007430
     0.027244   -0.022390    8.657031
   Zr   V    Ti   N    C    Cr   Mo
   7   6   7  13  19   6   6
Direct configuration=    12
   0.99499341  0.00152666  0.99277765
   0.26621151  0.00123304  0.24551263
   0.23931200  0.49406512  0.24592946