<?xml version="1.0" encoding="ISO-8859-1"?>
<modeling>
 <generator>
  <i name="program" type="string">vasp </i>
  <i name="version" type="string">5.4.4.18Apr17-6-g9f103f2a35  </i>
  <i name="subversion" type="string">(build Oct 18 2021 20:38:43) complex            parallel </i>
  <i name="platform" type="string">LinuxIFC </i>
  <i name="date" type="string">2024 06 08 </i>
  <i name="time" type="string">16:03:24 </i>
 </generator>
 <incar>
  <i type="string" name="SYSTEM">HECN</i>
  <i type="int" name="ISTART">     0</i>
  <i type="string" name="PREC">normal</i>
  <i type="string" name="ALGO">Fast</i>
  <i type="int" name="ICHARG">     2</i>
  <i type="int" name="NELM">    60</i>
  <i type="int" name="IBRION">     2</i>
  <i name="EDIFF">      0.00001000</i>
  <i name="EDIFFG">     -0.01000000</i>
  <i type="int" name="NSW">   100</i>
  <i type="int" name="ISIF">     3</i>
  <i name="ENCUT">    400.00000000</i>
  <i name="POTIM">      0.50000000</i>
  <i type="logical" name="LREAL"> F  </i>
  <i type="int" name="ISMEAR">     0</i>
  <i name="SIGMA">      0.10000000</i>
  <i type="logical" name="LWAVE"> F  </i>
  <i type="logical" name="LCHARG"> F  </i>
  <v type="int" name="KPOINT_BSE">    -1     0     0     0</v>
  <i type="int" name="NELM">    60</i>
 </incar>
 <structure name="primitive_cell" >
  <crystal>
   <varray name="basis" >
    <v>       8.93249989       0.00000000       0.00000000 </v>
    <v>       0.00575300       9.05559834       0.00000000 </v>
    <v>       0.03210180      -0.01574346       8.93712807 </v>
   </varray>
   <i name="volume">    722.91652451 </i>
   <varray name="rec_basis" >
    <v>       0.11195074      -0.00007112      -0.00040225 </v>
    <v>       0.00000000       0.11042893       0.00019453 </v>
    <v>       0.00000000       0.00000000       0.11189277 </v>
   </varray>
  </crystal>
  <varray name="positions" >
   <v>      -0.00311999      -0.00795003      -0.00075998 </v>
   <v>      -0.25232999      -0.00252000       0.01202000 </v>
   <v>      -0.00162995      -0.25686004       0.00460000 </v>
   <v>      -0.00280000      -0.00228008       0.25899999 </v>
   <v>       0.00281000       0.25024000       0.00130000 </v>
   <v>      -0.01103011       0.00202000      -0.26291001 </v>
   <v>       0.26146999      -0.00015998      -0.00704004 </v>
   <v>      -0.00135002      -0.22426001       0.26102000 </v>
   <v>      -0.25720997      -0.02130006      -0.23549005 </v>
   <v>       0.23780002       0.01082000      -0.25392002 </v>
   <v>      -0.24282000      -0.25897003       0.01100000 </v>
   <v>       0.24762001      -0.25026001      -0.00025994 </v>
   <v>      -0.00485996      -0.25507996      -0.25488003 </v>
   <v>      -0.24281000       0.25603001      -0.00408003 </v>
   <v>       0.25398003      -0.00285005       0.24912000 </v>
   <v>       0.24788999       0.24839000      -0.00342003 </v>
   <v>      -0.00562996       0.23617001       0.26379999 </v>
   <v>      -0.25120996      -0.01212001       0.26967001 </v>
   <v>       0.00201000       0.25541000      -0.26105999 </v>
   <v>       0.24177002      -0.24659003      -0.24981998 </v>
   <v>      -0.24963995      -0.25112000      -0.25243996 </v>
   <v>      -0.24255004       0.24437997      -0.25103001 </v>
   <v>       0.25133999      -0.25041998       0.24910999 </v>
   <v>      -0.24367000      -0.26108997       0.25767000 </v>
   <v>      -0.24686002       0.24616999       0.25492002 </v>
   <v>       0.24982001       0.24942998       0.24825000 </v>
   <v>       0.24900999       0.25315000      -0.25146000 </v>
   <v>      -0.48411003       0.01358000      -0.01924992 </v>
   <v>      -0.00158006      -0.49023002      -0.01386996 </v>
   <v>       0.02362000      -0.00216999       0.49557002 </v>
   <v>      -0.49480995      -0.23869001       0.00855000 </v>
   <v>      -0.49285006      -0.00023001       0.24673000 </v>
   <v>      -0.24160996      -0.49684002       0.00288000 </v>
   <v>      -0.00999997      -0.23784997       0.49746000 </v>
   <v>      -0.00948001       0.48088003       0.24100999 </v>
   <v>       0.24446000      -0.00176004      -0.49712002 </v>
   <v>      -0.26367999       0.00417000      -0.48937000 </v>
   <v>       0.24328000      -0.49927003      -0.00489006 </v>
   <v>      -0.49572003       0.24673000       0.00262000 </v>
   <v>      -0.00796004      -0.49944001      -0.24861998 </v>
   <v>      -0.00195991       0.24229999      -0.49871997 </v>
   <v>      -0.49991002       0.00061000      -0.26528002 </v>
   <v>      -0.26123997      -0.47171998      -0.26185001 </v>
   <v>       0.49950005      -0.24518001      -0.25182996 </v>
   <v>       0.24457999      -0.24951001       0.49983999 </v>
   <v>      -0.24599997      -0.27062001       0.49116997 </v>
   <v>      -0.49520997       0.24631001      -0.25289998 </v>
   <v>       0.24803003      -0.49835000       0.24955001 </v>
   <v>      -0.26448999      -0.48531996       0.26666001 </v>
   <v>      -0.49167000       0.25676999       0.25376001 </v>
   <v>      -0.49620997      -0.26073003       0.25905001 </v>
   <v>      -0.24692999       0.26163001      -0.49466998 </v>
   <v>       0.25272001       0.24823001      -0.49984997 </v>
   <v>       0.25679999       0.49462002      -0.25454998 </v>
   <v>       0.47957999      -0.01691999       0.49717999 </v>
   <v>      -0.49498994       0.49745998      -0.00165997 </v>
   <v>      -0.00572008      -0.49550001       0.49779000 </v>
   <v>      -0.49436004       0.23264998       0.49544997 </v>
   <v>      -0.49424994      -0.25041998       0.49720000 </v>
   <v>      -0.49299998      -0.49666998       0.25878999 </v>
   <v>      -0.49498997      -0.49782002      -0.26087997 </v>
   <v>      -0.25963999      -0.49803000      -0.49932997 </v>
   <v>       0.25841001      -0.49937998      -0.49870999 </v>
   <v>      -0.49461000      -0.47166995       0.49917999 </v>
  </varray>
 </structure>
 <varray name="primitive_index" >
  <v type="int" >        1 </v>
  <v type="int" >       25 </v>
  <v type="int" >       38 </v>
  <v type="int" >       34 </v>
  <v type="int" >       23 </v>
  <v type="int" >       29 </v>
  <v type="int" >       22 </v>
  <v type="int" >       59 </v>
  <v type="int" >       58 </v>
  <v type="int" >       56 </v>
  <v type="int" >        9 </v>
  <v type="int" >       18 </v>
  <v type="int" >       12 </v>
  <v type="int" >       17 </v>
  <v type="int" >        2 </v>
  <v type="int" >       14 </v>
  <v type="int" >        8 </v>
  <v type="int" >       16 </v>
  <v type="int" >       10 </v>
  <v type="int" >       45 </v>
  <v type="int" >       49 </v>
  <v type="int" >       30 </v>
  <v type="int" >       36 </v>
  <v type="int" >       39 </v>
  <v type="int" >       24 </v>
  <v type="int" >       21 </v>
  <v type="int" >       42 </v>
  <v type="int" >       53 </v>
  <v type="int" >       54 </v>
  <v type="int" >       61 </v>
  <v type="int" >       28 </v>
  <v type="int" >       26 </v>
  <v type="int" >       40 </v>
  <v type="int" >       47 </v>
  <v type="int" >       27 </v>
  <v type="int" >       43 </v>
  <v type="int" >       31 </v>
  <v type="int" >       37 </v>
  <v type="int" >       35 </v>
  <v type="int" >       48 </v>
  <v type="int" >       44 </v>
  <v type="int" >       33 </v>
  <v type="int" >       63 </v>
  <v type="int" >        7 </v>
  <v type="int" >       20 </v>
  <v type="int" >       64 </v>
  <v type="int" >        5 </v>
  <v type="int" >        3 </v>
  <v type="int" >       60 </v>
  <v type="int" >       15 </v>
  <v type="int" >       55 </v>
  <v type="int" >       11 </v>
  <v type="int" >       19 </v>
  <v type="int" >       13 </v>
  <v type="int" >       57 </v>
  <v type="int" >        4 </v>
  <v type="int" >        6 </v>
  <v type="int" >       32 </v>
  <v type="int" >       51 </v>
  <v type="int" >       41 </v>
  <v type="int" >       52 </v>
  <v type="int" >       50 </v>
  <v type="int" >       46 </v>
  <v type="int" >       62 </v>
 </varray>
 <kpoints>
  <generation param="Gamma">
   <v type="int" name="divisions">       3        3        3 </v>
   <v name="usershift">      0.00000000       0.00000000       0.00000000 </v>
   <v name="genvec1">      0.33333333      -0.00000000      -0.00000000 </v>
   <v name="genvec2">      0.00000000       0.33333333       0.00000000 </v>
   <v name="genvec3">      0.00000000       0.00000000       0.33333333 </v>
   <v name="shift">      0.00000000       0.00000000       0.00000000 </v>
  </generation>
  <varray name="kpointlist" >
   <v>       0.00000000       0.00000000       0.00000000 </v>
   <v>       0.33333333       0.00000000       0.00000000 </v>
   <v>       0.00000000       0.33333333       0.00000000 </v>
   <v>       0.33333333       0.33333333       0.00000000 </v>
   <v>      -0.33333333       0.33333333       0.00000000 </v>
   <v>       0.00000000       0.00000000       0.33333333 </v>
   <v>       0.33333333       0.00000000       0.33333333 </v>
   <v>      -0.33333333       0.00000000       0.33333333 </v>
   <v>       0.00000000       0.33333333       0.33333333 </v>
   <v>       0.33333333       0.33333333       0.33333333 </v>
   <v>      -0.33333333       0.33333333       0.33333333 </v>
   <v>       0.00000000      -0.33333333       0.33333333 </v>
   <v>       0.33333333      -0.33333333       0.33333333 </v>
   <v>      -0.33333333      -0.33333333       0.33333333 </v>
  </varray>
  <varray name="weights" >
   <v>       0.03703704 </v>
   <v>       0.07407407 </v>
   <v>       0.07407407 </v>
   <v>       0.07407407 </v>
   <v>       0.07407407 </v>
   <v>       0.07407407 </v>
   <v>       0.07407407 </v>
   <v>       0.07407407 </v>
   <v>       0.07407407 </v>
   <v>       0.07407407 </v>
   <v>       0.07407407 </v>
   <v>       0.07407407 </v>
   <v>       0.07407407 </v>
   <v>       0.07407407 </v>
  </varray>
 </kpoints>
 <parameters>
  <separator name="general" >
   <i type="string" name="SYSTEM">HECN</i>
   <i type="logical" name="LCOMPAT"> F  </i>
  </separator>
  <separator name="electronic" >
   <i type="string" name="PREC">normal</i>
   <i name="ENMAX">    400.00000000</i>
   <i name="ENAUG">    644.87300000</i>
   <i name="EDIFF">      0.00001000</i>
   <i type="int" name="IALGO">    68</i>
   <i type="int" name="IWAVPR">    11</i>
   <i type="int" name="NBANDS">   336</i>
   <i name="NELECT">    526.00000000</i>
   <i type="int" name="TURBO">     0</i>
   <i type="int" name="IRESTART">     0</i>
   <i type="int" name="NREBOOT">     0</i>
   <i type="int" name="NMIN">     0</i>
   <i name="EREF">      0.00000000</i>
   <separator name="electronic smearing" >
    <i type="int" name="ISMEAR">     0</i>
    <i name="SIGMA">      0.10000000</i>
    <i name="KSPACING">      0.50000000</i>
    <i type="logical" name="KGAMMA"> T  </i>
   </separator>
   <separator name="electronic projectors" >
    <i type="logical" name="LREAL"> F  </i>
    <v name="ROPT">      0.00000000      0.00000000      0.00000000      0.00000000      0.00000000      0.00000000      0.00000000</v>
    <i type="int" name="LMAXPAW">  -100</i>
    <i type="int" name="LMAXMIX">     2</i>
    <i type="logical" name="NLSPLINE"> F  </i>
   </separator>
   <separator name="electronic startup" >
    <i type="int" name="ISTART">     0</i>
    <i type="int" name="ICHARG">     2</i>
    <i type="int" name="INIWAV">     1</i>
   </separator>
   <separator name="electronic spin" >
    <i type="int" name="ISPIN">     1</i>
    <i type="logical" name="LNONCOLLINEAR"> F  </i>
    <v name="MAGMOM">      1.00000000      1.00000000      1.00000000      1.00000000      1.00000000      1.00000000      1.00000000      1.00000000      1.00000000      1.00000000      1.00000000      1.00000000      1.00000000      1.00000000      1.00000000      1.00000000      1.00000000      1.00000000      1.00000000      1.00000000
      1.00000000      1.00000000      1.00000000      1.00000000      1.00000000      1.00000000      1.00000000      1.00000000      1.00000000      1.00000000      1.00000000      1.00000000      1.00000000      1.00000000      1.00000000      1.00000000      1.00000000      1.00000000      1.00000000      1.00000000
      1.00000000      1.00000000      1.00000000      1.00000000      1.00000000      1.00000000      1.00000000      1.00000000      1.00000000      1.00000000      1.00000000      1.00000000      1.00000000      1.00000000      1.00000000      1.00000000      1.00000000      1.00000000      1.00000000      1.00000000
      1.00000000      1.00000000      1.00000000      1.00000000</v>
    <i name="NUPDOWN">     -1.00000000</i>
    <i type="logical" name="LSORBIT"> F  </i>
    <v name="SAXIS">      0.00000000      0.00000000      1.00000000</v>
    <i type="logical" name="LSPIRAL"> F  </i>
    <v name="QSPIRAL">      0.00000000      0.00000000      0.00000000</v>
    <i type="logical" name="LZEROZ"> F  </i>
   </separator>
   <separator name="electronic exchange-correlation" >
    <i type="logical" name="LASPH"> F  </i>
    <i type="logical" name="LMETAGGA"> F  </i>
   </separator>
   <separator name="electronic convergence" >
    <i type="int" name="NELM">    60</i>
    <i type="int" name="NELMDL">    -5</i>
    <i type="int" name="NELMIN">     2</i>
    <i name="ENINI">    400.00000000</i>
    <separator name="electronic convergence detail" >
     <i type="logical" name="LDIAG"> T  </i>
     <i type="logical" name="LSUBROT"> F  </i>
     <i name="WEIMIN">      0.00100000</i>
     <i name="EBREAK">      0.00000001</i>
     <i name="DEPER">      0.30000000</i>
     <i type="int" name="NRMM">     4</i>
     <i name="TIME">      0.40000000</i>
    </separator>
   </separator>
   <separator name="electronic mixer" >
    <i name="AMIX">      0.40000000</i>
    <i name="BMIX">      1.00000000</i>
    <i name="AMIN">      0.10000000</i>
    <i name="AMIX_MAG">      1.60000000</i>
    <i name="BMIX_MAG">      1.00000000</i>
    <separator name="electronic mixer details" >
     <i type="int" name="IMIX">     4</i>
     <i type="logical" name="MIXFIRST"> F  </i>
     <i type="int" name="MAXMIX">   -45</i>
     <i name="WC">    100.00000000</i>
     <i type="int" name="INIMIX">     1</i>
     <i type="int" name="MIXPRE">     1</i>
     <i type="int" name="MREMOVE">     5</i>
    </separator>
   </separator>
   <separator name="electronic dipolcorrection" >
    <i type="logical" name="LDIPOL"> F  </i>
    <i type="logical" name="LMONO"> F  </i>
    <i type="int" name="IDIPOL">     0</i>
    <i name="EPSILON">      1.00000000</i>
    <v name="DIPOL">   -100.00000000   -100.00000000   -100.00000000</v>
    <i name="EFIELD">      0.00000000</i>
   </separator>
  </separator>
  <separator name="grids" >
   <i type="int" name="NGX">    48</i>
   <i type="int" name="NGY">    48</i>
   <i type="int" name="NGZ">    48</i>
   <i type="int" name="NGXF">    96</i>
   <i type="int" name="NGYF">    96</i>
   <i type="int" name="NGZF">    96</i>
   <i type="logical" name="ADDGRID"> F  </i>
  </separator>
  <separator name="ionic" >
   <i type="int" name="NSW">   100</i>
   <i type="int" name="IBRION">     2</i>
   <i type="int" name="MDALGO">     0</i>
   <i type="int" name="ISIF">     3</i>
   <i name="PSTRESS">      0.00000000</i>
   <i name="EDIFFG">     -0.01000000</i>
   <i type="int" name="NFREE">     1</i>
   <i name="POTIM">      0.50000000</i>
   <i name="SMASS">     -3.00000000</i>
   <i name="SCALEE">      1.00000000</i>
  </separator>
  <separator name="ionic md" >
   <i name="TEBEG">      0.00010000</i>
   <i name="TEEND">      0.00010000</i>
   <i type="int" name="NBLOCK">     1</i>
   <i type="int" name="KBLOCK">   100</i>
   <i type="int" name="NPACO">   256</i>
   <i name="APACO">     16.00000000</i>
  </separator>
  <separator name="symmetry" >
   <i type="int" name="ISYM">     2</i>
   <i name="SYMPREC">      0.00001000</i>
  </separator>
  <separator name="dos" >
   <i type="int" name="LORBIT">     0</i>
   <v name="RWIGS">     -1.00000000     -1.00000000     -1.00000000     -1.00000000     -1.00000000     -1.00000000     -1.00000000</v>
   <i type="int" name="NEDOS">   301</i>
   <i name="EMIN">     10.00000000</i>
   <i name="EMAX">    -10.00000000</i>
   <i name="EFERMI">      0.00000000</i>
  </separator>
  <separator name="writing" >
   <i type="int" name="NWRITE">     2</i>
   <i type="logical" name="LWAVE"> F  </i>
   <i type="logical" name="LDOWNSAMPLE"> F  </i>
   <i type="logical" name="LCHARG"> F  </i>
   <i type="logical" name="LPARD"> F  </i>
   <i type="logical" name="LVTOT"> F  </i>
   <i type="logical" name="LVHAR"> F  </i>
   <i type="logical" name="LELF"> F  </i>
   <i type="logical" name="LOPTICS"> F  </i>
   <v name="STM">      0.00000000      0.00000000      0.00000000      0.00000000      0.00000000      0.00000000      0.00000000</v>
  </separator>
  <separator name="performance" >
   <i type="int" name="NPAR">    24</i>
   <i type="int" name="NSIM">     4</i>
   <i type="int" name="NBLK">    -1</i>
   <i type="logical" name="LPLANE"> T  </i>
   <i type="logical" name="LSCALAPACK"> T  </i>
   <i type="logical" name="LSCAAWARE"> F  </i>
   <i type="logical" name="LSCALU"> F  </i>
   <i type="logical" name="LASYNC"> F  </i>
   <i type="logical" name="LORBITALREAL"> F  </i>
  </separator>
  <separator name="miscellaneous" >
   <i type="int" name="IDIOT">     3</i>
   <i type="int" name="ISPECIAL">     0</i>
   <i type="logical" name="LMUSIC"> F  </i>
   <v name="POMASS">     50.94100000    180.94800000     47.88000000     14.00100000     12.01100000     51.99600000    183.85000000</v>
   <v name="DARWINR">      0.00000000      0.00000000      0.00000000      0.00000000      0.00000000      0.00000000      0.00000000</v>
   <v name="DARWINV">      1.00000000      1.00000000      1.00000000      1.00000000      1.00000000      1.00000000      1.00000000</v>
   <i type="logical" name="LCORR"> T  </i>
  </separator>
  <i type="logical" name="GGA_COMPAT"> T  </i>
  <i type="logical" name="LBERRY"> F  </i>
  <i type="int" name="ICORELEVEL">     0</i>
  <i type="logical" name="LDAU"> F  </i>
  <i type="int" name="I_CONSTRAINED_M">     0</i>
  <separator name="electronic exchange-correlation" >
   <i type="string" name="GGA">--</i>
   <i type="int" name="VOSKOWN">     0</i>
   <i type="logical" name="LHFCALC"> F  </i>
   <i type="string" name="PRECFOCK"></i>
   <i type="logical" name="LSYMGRAD"> F  </i>
   <i type="logical" name="LHFONE"> F  </i>
   <i type="logical" name="LRHFCALC"> F  </i>
   <i type="logical" name="LTHOMAS"> F  </i>
   <i type="logical" name="LMODELHF"> F  </i>
   <i name="ENCUT4O">     -1.00000000</i>
   <i type="int" name="EXXOEP">     0</i>
   <i type="int" name="FOURORBIT">     0</i>
   <i name="AEXX">      0.00000000</i>
   <i name="HFALPHA">      0.00000000</i>
   <i name="MCALPHA">      0.00000000</i>
   <i name="ALDAX">      1.00000000</i>
   <i name="AGGAX">      1.00000000</i>
   <i name="ALDAC">      1.00000000</i>
   <i name="AGGAC">      1.00000000</i>
   <i type="int" name="NKREDX">     1</i>
   <i type="int" name="NKREDY">     1</i>
   <i type="int" name="NKREDZ">     1</i>
   <i type="logical" name="SHIFTRED"> F  </i>
   <i type="logical" name="ODDONLY"> F  </i>
   <i type="logical" name="EVENONLY"> F  </i>
   <i type="int" name="LMAXFOCK">     0</i>
   <i type="int" name="NMAXFOCKAE">     0</i>
   <i type="logical" name="LFOCKAEDFT"> F  </i>
   <i name="HFSCREEN">      0.00000000</i>
   <i name="HFSCREENC">      0.00000000</i>
   <i type="int" name="NBANDSGWLOW">     0</i>
  </separator>
  <separator name="vdW DFT" >
   <i type="logical" name="LUSE_VDW"> F  </i>
   <i name="Zab_VDW">     -0.84910000</i>
   <i name="PARAM1">      0.12340000</i>
   <i name="PARAM2">      1.00000000</i>
   <i name="PARAM3">      0.00000000</i>
  </separator>
  <separator name="model GW" >
   <i type="int" name="MODEL_GW">     0</i>
   <i name="MODEL_EPS0">      6.77734242</i>
   <i name="MODEL_ALPHA">      1.00000000</i>
  </separator>
  <separator name="linear response parameters" >
   <i type="logical" name="LEPSILON"> F  </i>
   <i type="logical" name="LRPA"> F  </i>
   <i type="logical" name="LNABLA"> F  </i>
   <i type="logical" name="LVEL"> F  </i>
   <i type="int" name="KINTER">     0</i>
   <i name="CSHIFT">      0.10000000</i>
   <i name="OMEGAMAX">     -1.00000000</i>
   <i name="DEG_THRESHOLD">      0.00200000</i>
   <i name="RTIME">     -0.10000000</i>
   <i name="WPLASMAI">      0.00000000</i>
   <v name="DFIELD">      0.00000000      0.00000000      0.00000000</v>
   <v name="WPLASMA">      0.00000000      0.00000000      0.00000000      0.00000000      0.00000000      0.00000000      0.00000000      0.00000000      0.00000000</v>
  </separator>
  <separator name="orbital magnetization" >
   <i type="logical" name="NUCIND"> F  </i>
   <v name="MAGPOS">      0.00000000      0.00000000      0.00000000</v>
   <i type="logical" name="LNICSALL"> T  </i>
   <i type="logical" name="ORBITALMAG"> F  </i>
   <i type="logical" name="LMAGBLOCH"> F  </i>
   <i type="logical" name="LCHIMAG"> F  </i>
   <i type="logical" name="LGAUGE"> T  </i>
   <i type="int" name="MAGATOM">     0</i>
   <v name="MAGDIPOL">      0.00000000      0.00000000      0.00000000</v>
   <v name="AVECCONST">      0.00000000      0.00000000      0.00000000</v>
  </separator>
  <separator name="response functions" >
   <i type="logical" name="LADDER"> F  </i>
   <i type="logical" name="LRPAFORCE"> F  </i>
   <i type="logical" name="LFXC"> F  </i>
   <i type="logical" name="LHARTREE"> T  </i>
   <i type="int" name="IBSE">     0</i>
   <v type="int" name="KPOINT">    -1     0     0     0</v>
   <i type="logical" name="LTCTE"> F  </i>
   <i type="logical" name="LTETE"> F  </i>
   <i type="logical" name="LTRIPLET"> F  </i>
   <i type="logical" name="LFXCEPS"> F  </i>
   <i type="logical" name="LFXHEG"> F  </i>
   <i type="int" name="NATURALO">     2</i>
   <i type="logical" name="L2ORDER"> F  </i>
   <i type="logical" name="LMP2LT"> F  </i>
   <i type="logical" name="LUSEW"> F  </i>
   <i name="ENCUTGW">     -2.00000000</i>
   <i name="ENCUTGWSOFT">     -2.00000000</i>
   <i name="ENCUTLF">     -1.00000000</i>
   <i type="int" name="LMAXMP2">    -1</i>
   <i name="SCISSOR">      0.00000000</i>
   <i type="int" name="NOMEGA">     0</i>
   <i type="int" name="NOMEGAR">     0</i>
   <i type="int" name="NBANDSGW">    -1</i>
   <i type="int" name="NBANDSO">    -1</i>
   <i type="int" name="NBANDSV">    -1</i>
   <i type="int" name="NELM">    60</i>
   <i type="int" name="NELMHF">     1</i>
   <i type="int" name="DIM">     3</i>
   <i type="int" name="ANTIRES">     0</i>
   <i name="OMEGAMAX">    -30.00000000</i>
   <i name="OMEGAMIN">    -30.00000000</i>
   <i name="OMEGATL">   -200.00000000</i>
   <i type="int" name="OMEGAGRID">   140</i>
   <i name="CSHIFT">     -0.10000000</i>
   <i type="logical" name="SELFENERGY"> F  </i>
   <i type="logical" name="LSPECTRAL"> F  </i>
   <i type="logical" name="LSPECTRALGW"> F  </i>
   <i type="logical" name="LSINGLES"> F  </i>
   <i type="logical" name="LFERMIGW"> F  </i>
   <i type="logical" name="ODDONLYGW"> F  </i>
   <i type="logical" name="EVENONLYGW"> F  </i>
   <i type="int" name="NKREDLFX">     1</i>
   <i type="int" name="NKREDLFY">     1</i>
   <i type="int" name="NKREDLFZ">     1</i>
   <i type="int" name="MAXMEM">  2800</i>
   <i type="int" name="TELESCOPE">     0</i>
   <i type="int" name="TAUPAR">     1</i>
   <i type="int" name="OMEGAPAR">    -1</i>
   <i name="LAMBDA">      1.00000000</i>
  </separator>
  <separator name="External order field" >
   <i name="OFIELD_KAPPA">      0.00000000</i>
   <v name="OFIELD_K">      0.00000000      0.00000000      0.00000000</v>
   <i name="OFIELD_Q6_NEAR">      0.00000000</i>
   <i name="OFIELD_Q6_FAR">      0.00000000</i>
   <i name="OFIELD_A">      0.00000000</i>
  </separator>
 </parameters>
 <atominfo>
  <atoms>      64 </atoms>
  <types>       7 </types>
  <array name="atoms" >
   <dimension dim="1">ion</dimension>
   <field type="string">element</field>
   <field type="int">atomtype</field>
   <set>
    <rc><c>V </c><c>   1</c></rc>
    <rc><c>V </c><c>   1</c></rc>
    <rc><c>V </c><c>   1</c></rc>
    <rc><c>V </c><c>   1</c></rc>
    <rc><c>V </c><c>   1</c></rc>
    <rc><c>V </c><c>   1</c></rc>
    <rc><c>V </c><c>   1</c></rc>
    <rc><c>Ta</c><c>   2</c></rc>
    <rc><c>Ta</c><c>   2</c></rc>
    <rc><c>Ta</c><c>   2</c></rc>
    <rc><c>Ta</c><c>   2</c></rc>
    <rc><c>Ta</c><c>   2</c></rc>
    <rc><c>Ta</c><c>   2</c></rc>
    <rc><c>Ti</c><c>   3</c></rc>
    <rc><c>Ti</c><c>   3</c></rc>
    <rc><c>Ti</c><c>   3</c></rc>
    <rc><c>Ti</c><c>   3</c></rc>
    <rc><c>Ti</c><c>   3</c></rc>
    <rc><c>Ti</c><c>   3</c></rc>
    <rc><c>Ti</c><c>   3</c></rc>
    <rc><c>N </c><c>   4</c></rc>
    <rc><c>N </c><c>   4</c></rc>
    <rc><c>N </c><c>   4</c></rc>
    <rc><c>N </c><c>   4</c></rc>
    <rc><c>N </c><c>   4</c></rc>
    <rc><c>N </c><c>   4</c></rc>
    <rc><c>N </c><c>   4</c></rc>
    <rc><c>N </c><c>   4</c></rc>
    <rc><c>N </c><c>   4</c></rc>
    <rc><c>N </c><c>   4</c></rc>
    <rc><c>N </c><c>   4</c></rc>
    <rc><c>N </c><c>   4</c></rc>
    <rc><c>N </c><c>   4</c></rc>
    <rc><c>C </c><c>   5</c></rc>
    <rc><c>C </c><c>   5</c></rc>
    <rc><c>C </c><c>   5</c></rc>
    <rc><c>C </c><c>   5</c></rc>
    <rc><c>C </c><c>   5</c></rc>
    <rc><c>C </c><c>   5</c></rc>
    <rc><c>C </c><c>   5</c></rc>
    <rc><c>C </c><c>   5</c></rc>
    <rc><c>C </c><c>   5</c></rc>
    <rc><c>C </c><c>   5</c></rc>
    <rc><c>C </c><c>   5</c></rc>
    <rc><c>C </c><c>   5</c></rc>
    <rc><c>C </c><c>   5</c></rc>
    <rc><c>C </c><c>   5</c></rc>
    <rc><c>C </c><c>   5</c></rc>
    <rc><c>C </c><c>   5</c></rc>
    <rc><c>C </c><c>   5</c></rc>
    <rc><c>C </c><c>   5</c></rc>
    <rc><c>C </c><c>   5</c></rc>
    <rc><c>Cr</c><c>   6</c></rc>
    <rc><c>Cr</c><c>   6</c></rc>
    <rc><c>Cr</c><c>   6</c></rc>
    <rc><c>Cr</c><c>   6</c></rc>
    <rc><c>Cr</c><c>   6</c></rc>
    <rc><c>Cr</c><c>   6</c></rc>
    <rc><c>W </c><c>   7</c></rc>
    <rc><c>W </c><c>   7</c></rc>
    <rc><c>W </c><c>   7</c></rc>
    <rc><c>W </c><c>   7</c></rc>
    <rc><c>W </c><c>   7</c></rc>
    <rc><c>W </c><c>   7</c></rc>
   </set>
  </array>
  <array name="atomtypes" >
   <dimension dim="1">type</dimension>
   <field type="int">atomspertype</field>
   <field type="string">element</field>
   <field>mass</field>
   <field>valence</field>
   <field type="string">pseudopotential</field>
   <set>
    <rc><c>   7</c><c>V </c><c>     50.94100000</c><c>     13.00000000</c><c> PAW_PBE V_sv 07Sep2000                 </c></rc>
    <rc><c>   6</c><c>Ta</c><c>    180.94800000</c><c>     11.00000000</c><c> PAW_PBE Ta_pv 07Sep2000                </c></rc>
    <rc><c>   7</c><c>Ti</c><c>     47.88000000</c><c>     12.00000000</c><c> PAW_PBE Ti_sv 07Sep2000                </c></rc>
    <rc><c>  13</c><c>N </c><c>     14.00100000</c><c>      5.00000000</c><c> PAW_PBE N 08Apr2002                    </c></rc>
    <rc><c>  19</c><c>C </c><c>     12.01100000</c><c>      4.00000000</c><c> PAW_PBE C 08Apr2002                    </c></rc>
    <rc><c>   6</c><c>Cr</c><c>     51.99600000</c><c>     12.00000000</c><c> PAW_PBE Cr_pv 07Sep2000                </c></rc>
    <rc><c>   6</c><c>W </c><c>    183.85000000</c><c>     12.00000000</c><c> PAW_PBE W_pv 06Sep2000                 </c></rc>
   </set>
  </array>
 </atominfo>
 <structure name="initialpos" >
  <crystal>
   <varray name="basis" >
    <v>       8.93249989       0.00000000       0.00000000 </v>
    <v>       0.00575300       9.05559834       0.00000000 </v>
    <v>       0.03210180      -0.01574346       8.93712807 </v>
   </varray>
   <i name="volume">    722.91652451 </i>
   <varray name="rec_basis" >
    <v>       0.11195074      -0.00007112      -0.00040225 </v>
    <v>       0.00000000       0.11042893       0.00019453 </v>
    <v>       0.00000000       0.00000000       0.11189277 </v>
   </varray>
  </crystal>
  <varray name="positions" >
   <v>       0.99688001       0.99204997       0.99924002 </v>
   <v>       0.25398003       0.99714995       0.24912000 </v>
   <v>       0.24803003       0.50165000       0.24955001 </v>
   <v>       0.50501006       0.49745998       0.99834003 </v>
   <v>       0.50479003       0.24631001       0.74710002 </v>
   <v>       0.99427992       0.50449999       0.49779000 </v>
   <v>       0.49950005       0.75481999       0.74817004 </v>
   <v>       0.99437004       0.23617001       0.26379999 </v>
   <v>       0.75718000       0.74102998       0.01100000 </v>
   <v>       0.00201000       0.25541000       0.73894001 </v>
   <v>       0.75307001       0.26163001       0.50533002 </v>
   <v>       0.99514004       0.74492004       0.74511997 </v>
   <v>       0.25679999       0.49462002       0.74545002 </v>
   <v>       0.24788999       0.24839000       0.99657997 </v>
   <v>       0.50833000       0.25676999       0.25376001 </v>
   <v>       0.74879004       0.98787999       0.26967001 </v>
   <v>       0.75719000       0.25603001       0.99591997 </v>
   <v>       0.24762001       0.74973999       0.99974006 </v>
   <v>       0.25272001       0.24823001       0.50015003 </v>
   <v>       0.24457999       0.75048999       0.49983999 </v>
   <v>       0.24982001       0.24942998       0.24825000 </v>
   <v>       0.26146999       0.99984002       0.99295996 </v>
   <v>       0.00281000       0.25024000       0.00130000 </v>
   <v>       0.75313998       0.24617000       0.25492002 </v>
   <v>       0.74767001       0.99748000       0.01202000 </v>
   <v>       0.50714994       0.99977000       0.24673000 </v>
   <v>       0.99051999       0.48088002       0.24100998 </v>
   <v>       0.50519005       0.76130999       0.00855000 </v>
   <v>       0.98896989       0.00202000       0.73708999 </v>
   <v>       0.75744996       0.24437997       0.74896999 </v>
   <v>       0.73632001       0.00417000       0.51063000 </v>
   <v>       0.50563996       0.23264999       0.49544997 </v>
   <v>       0.50008998       0.00061000       0.73471998 </v>
   <v>       0.99720000       0.99771992       0.25899999 </v>
   <v>       0.50427997       0.24673000       0.00262000 </v>
   <v>       0.25133999       0.74958002       0.24910999 </v>
   <v>       0.24328000       0.50072997       0.99510994 </v>
   <v>       0.99837005       0.74313996       0.00460000 </v>
   <v>       0.75633000       0.73891003       0.25767000 </v>
   <v>       0.75839004       0.50315998       0.00288000 </v>
   <v>       0.50700002       0.50333002       0.25878999 </v>
   <v>       0.24900999       0.25315000       0.74854000 </v>
   <v>       0.24446000       0.99823996       0.50287998 </v>
   <v>       0.99804009       0.24229999       0.50128003 </v>
   <v>       0.24177002       0.75340997       0.75018002 </v>
   <v>       0.25841001       0.50062002       0.50129001 </v>
   <v>       0.99000004       0.76215003       0.49746000 </v>
   <v>       0.99203996       0.50055999       0.75138002 </v>
   <v>       0.75036005       0.74888000       0.74756004 </v>
   <v>       0.74036002       0.50197000       0.50067003 </v>
   <v>       0.50575006       0.74958002       0.49720000 </v>
   <v>       0.50501003       0.50217998       0.73912003 </v>
   <v>       0.51588997       0.01358000       0.98075008 </v>
   <v>       0.99841994       0.50976998       0.98613004 </v>
   <v>       0.50379003       0.73926997       0.25905001 </v>
   <v>       0.23780002       0.01082000       0.74607998 </v>
   <v>       0.47957999       0.98308000       0.49717999 </v>
   <v>       0.74279003       0.97869994       0.76450995 </v>
   <v>       0.99864998       0.77573999       0.26102000 </v>
   <v>       0.73551001       0.51468004       0.26666001 </v>
   <v>       0.02362000       0.99783001       0.49557002 </v>
   <v>       0.50539000       0.52833005       0.49917999 </v>
   <v>       0.73876003       0.52828003       0.73814999 </v>
   <v>       0.75400003       0.72937999       0.49116997 </v>
  </varray>
 </structure>
 <calculation>
  <scstep>
   <time name="dav">   22.83   22.93</time>
   <time name="total">   22.87   22.97</time>
   <energy>
    <i name="alphaZ">   4316.23881570 </i>
    <i name="ewald"> -44473.01171042 </i>
    <i name="hartreedc"> -10821.46353298 </i>
    <i name="XCdc">   2132.27110499 </i>
    <i name="pawpsdc">  35567.28004923 </i>
    <i name="pawaedc"> -35690.79470567 </i>
    <i name="eentropy">     -0.09667341 </i>
    <i name="bandstr">   1325.45902116 </i>
    <i name="atom">  54725.77911737 </i>
    <i name="e_fr_energy">   7081.66148596 </i>
    <i name="e_wo_entrp">   7081.75815937 </i>
    <i name="e_0_energy">   7081.70982267 </i>
   </energy>
  </scstep>
  <scstep>
   <time name="dav">   23.52   23.78</time>
   <time name="total">   23.52   23.78</time>
   <energy>
    <i name="e_fr_energy">    330.10384559 </i>
    <i name="e_wo_entrp">    330.27799082 </i>
    <i name="e_0_energy">    330.19091821 </i>
   </energy>
  </scstep>
  <scstep>
   <time name="dav">   32.72   33.09</time>
   <time name="total">   32.72   33.09</time>
   <energy>
    <i name="e_fr_energy">   -656.84375979 </i>
    <i name="e_wo_entrp">   -656.68908340 </i>
    <i name="e_0_energy">   -656.76642160 </i>
   </energy>
  </scstep>
  <scstep>
   <time name="dav">   37.42   37.91</time>
   <time name="total">   37.42   37.91</time>
   <energy>
    <i name="e_fr_energy">   -783.70692702 </i>
    <i name="e_wo_entrp">   -783.58321232 </i>
    <i name="e_0_energy">   -783.64506967 </i>
   </energy>
  </scstep>
  <scstep>
   <time name="dav">   38.85   38.90</time>
   <time name="total">   39.13   39.17</time>
   <energy>
    <i name="e_fr_energy">   -795.08261030 </i>
    <i name="e_wo_entrp">   -794.95371153 </i>
    <i name="e_0_energy">   -795.01816092 </i>
   </energy>
  </scstep>
  <scstep>
   <time name="diag">    2.05    2.06</time>
   <time name="diis">   19.81   19.82</time>
   <time name="orth">    0.50    0.50</time>
   <time name="total">   22.66   22.68</time>
   <energy>
    <i name="e_fr_energy">   -901.20324100 </i>
    <i name="e_wo_entrp">   -901.02239050 </i>
    <i name="e_0_energy">   -901.11281575 </i>
   </energy>
  </scstep>
  <scstep>
   <time name="diag">    1.98    1.98</time>
   <time name="diis">   22.78   22.80</time>
   <time name="orth">    0.50    0.50</time>
   <time name="total">   25.57   25.59</time>
   <energy>
    <i name="e_fr_energy">   -661.89706151 </i>
    <i name="e_wo_entrp">   -661.69545512 </i>
    <i name="e_0_energy">   -661.79625831 </i>
   </energy>
  </scstep>
  <scstep>
   <time name="diag">    1.98    1.98</time>
   <time name="diis">   23.40   23.41</time>
   <time name="orth">    0.50    0.50</time>
   <time name="total">   26.19   26.20</time>
   <energy>
    <i name="e_fr_energy">   -649.95040131 </i>
    <i name="e_wo_entrp">   -649.75794304 </i>
    <i name="e_0_energy">   -649.85417218 </i>
   </energy>
  </scstep>
  <scstep>
   <time name="diag">    1.97    2.01</time>
   <time name="diis">   22.81   23.25</time>
   <time name="orth">    0.50    0.50</time>
   <time name="total">   25.58   26.06</time>
   <energy>
    <i name="e_fr_energy">   -641.93850259 </i>
    <i name="e_wo_entrp">   -641.71145119 </i>
    <i name="e_0_energy">   -641.82497689 </i>
   </energy>
  </scstep>
  <scstep>
   <time name="diag">    1.94    1.98</time>
   <time name="diis">   23.19   23.95</time>
   <time name="orth">    0.49    0.50</time>
   <time name="total">   25.94   26.75</time>
   <energy>
    <i name="e_fr_energy">   -633.04525252 </i>
    <i name="e_wo_entrp">   -632.78622777 </i>
    <i name="e_0_energy">   -632.91574015 </i>
   </energy>
  </scstep>
  <scstep>
   <time name="diag">    1.98    1.98</time>
   <time name="diis">   23.55   23.56</time>
   <time name="orth">    0.50    0.50</time>
   <time name="total">   26.34   26.35</time>
   <energy>
    <i name="e_fr_energy">   -633.12883924 </i>
    <i name="e_wo_entrp">   -632.87088408 </i>
    <i name="e_0_energy">   -632.99986166 </i>
   </energy>
  </scstep>
  <scstep>
   <time name="diag">    1.94    1.98</time>
   <time name="diis">   22.67   23.14</time>
   <time name="orth">    0.50    0.50</time>
   <time name="total">   25.42   25.94</time>
   <energy>
    <i name="e_fr_energy">   -632.50070514 </i>
    <i name="e_wo_entrp">   -632.23771590 </i>
    <i name="e_0_energy">   -632.36921052 </i>
   </energy>
  </scstep>
  <scstep>
   <time name="diag">    1.95    1.99</time>
   <time name="diis">   23.45   23.87</time>
   <time name="orth">    0.50    0.50</time>
   <time name="total">   26.20   26.66</time>
   <energy>
    <i name="e_fr_energy">   -631.20591023 </i>
    <i name="e_wo_entrp">   -630.92808659 </i>
    <i name="e_0_energy">   -631.06699841 </i>
   </energy>
  </scstep>
  <scstep>
   <time name="diag">    1.97    1.97</time>
   <time name="diis">   23.17   23.20</time>
   <time name="orth">    0.50    0.50</time>
   <time name="total">   25.93   25.97</time>
   <energy>
    <i name="e_fr_energy">   -632.18816389 </i>
    <i name="e_wo_entrp">   -631.92022424 </i>
    <i name="e_0_energy">   -632.05419406 </i>
   </energy>
  </scstep>
  <scstep>
   <time name="diag">    1.97    1.97</time>
   <time name="diis">   23.39   23.46</time>
   <time name="orth">    0.53    0.53</time>
   <time name="total">   26.19   26.26</time>
   <energy>
    <i name="e_fr_energy">   -631.64036544 </i>
    <i name="e_wo_entrp">   -631.36800446 </i>
    <i name="e_0_energy">   -631.50418495 </i>
   </energy>
  </scstep>
  <scstep>
   <time name="diag">    1.97    1.97</time>
   <time name="diis">   23.39   23.45</time>
   <time name="orth">    0.51    0.51</time>
   <time name="total">   26.17   26.26</time>
   <energy>
    <i name="e_fr_energy">   -631.14412810 </i>
    <i name="e_wo_entrp">   -630.87454916 </i>
    <i name="e_0_energy">   -631.00933863 </i>
   </energy>
  </scstep>
  <scstep>
   <time name="diag">    1.96    1.96</time>
   <time name="diis">   22.79   22.86</time>
   <time name="orth">    0.50    0.50</time>
   <time name="total">   25.55   25.62</time>
   <energy>
    <i name="e_fr_energy">   -631.01788090 </i>
    <i name="e_wo_entrp">   -630.74221833 </i>
    <i name="e_0_energy">   -630.88004961 </i>
   </energy>
  </scstep>
  <scstep>
   <time name="diag">    1.97    1.98</time>
   <time name="diis">   22.67   22.70</time>
   <time name="orth">    0.50    0.50</time>
   <time name="total">   25.44   25.48</time>
   <energy>
    <i name="e_fr_energy">   -630.83799148 </i>
    <i name="e_wo_entrp">   -630.56069178 </i>
    <i name="e_0_energy">   -630.69934163 </i>
   </energy>
  </scstep>
  <scstep>
   <time name="diag">    1.94    1.98</time>
   <time name="diis">   22.67   22.91</time>
   <time name="orth">    0.53    0.53</time>
   <time name="total">   25.47   25.75</time>
   <energy>
    <i name="e_fr_energy">   -630.72845706 </i>
    <i name="e_wo_entrp">   -630.44204206 </i>
    <i name="e_0_energy">   -630.58524956 </i>
   </energy>
  </scstep>
  <scstep>
   <time name="diag">    2.01    2.02</time>
   <time name="diis">   23.36   23.37</time>
   <time name="orth">    0.50    0.50</time>
   <time name="total">   26.17   26.20</time>
   <energy>
    <i name="e_fr_energy">   -630.66278804 </i>
    <i name="e_wo_entrp">   -630.38477019 </i>
    <i name="e_0_energy">   -630.52377912 </i>
   </energy>
  </scstep>
  <scstep>
   <time name="diag">    1.97    1.99</time>
   <time name="diis">   23.52   23.60</time>
   <time name="orth">    0.50    0.50</time>
   <time name="total">   26.30   26.40</time>
   <energy>
    <i name="e_fr_energy">   -630.69189175 </i>
    <i name="e_wo_entrp">   -630.40803872 </i>
    <i name="e_0_energy">   -630.54996524 </i>
   </energy>
  </scstep>
  <scstep>
   <time name="diag">    1.98    1.98</time>
   <time name="diis">   23.35   23.42</time>
   <time name="orth">    0.50    0.50</time>
   <time name="total">   26.14   26.21</time>
   <energy>
    <i name="e_fr_energy">   -630.67683481 </i>
    <i name="e_wo_entrp">   -630.39695812 </i>
    <i name="e_0_energy">   -630.53689647 </i>
   </energy>
  </scstep>
  <scstep>
   <time name="diag">    1.96    1.97</time>
   <time name="diis">   22.92   23.02</time>
   <time name="orth">    0.50    0.50</time>
   <time name="total">   25.68   25.79</time>
   <energy>
    <i name="e_fr_energy">   -630.65738241 </i>
    <i name="e_wo_entrp">   -630.37735722 </i>
    <i name="e_0_energy">   -630.51736982 </i>
   </energy>
  </scstep>
  <scstep>
   <time name="diag">    1.98    1.98</time>
   <time name="diis">   22.83   22.93</time>
   <time name="orth">    0.52    0.53</time>
   <time name="total">   25.66   25.78</time>
   <energy>
    <i name="e_fr_energy">   -630.64963473 </i>
    <i name="e_wo_entrp">   -630.36780727 </i>
    <i name="e_0_energy">   -630.50872100 </i>
   </energy>
  </scstep>
  <scstep>
   <time name="diag">    1.94    1.98</time>
   <time name="diis">   23.20   23.91</time>
   <time name="orth">    0.49    0.50</time>
   <time name="total">   25.93   26.70</time>
   <energy>
    <i name="e_fr_energy">   -630.65283721 </i>
    <i name="e_wo_entrp">   -630.37104828 </i>
    <i name="e_0_energy">   -630.51194274 </i>
   </energy>
  </scstep>
  <scstep>
   <time name="diag">    1.94    1.98</time>
   <time name="diis">   23.51   24.24</time>
   <time name="orth">    0.49    0.50</time>
   <time name="total">   26.25   27.03</time>
   <energy>
    <i name="e_fr_energy">   -630.64938201 </i>
    <i name="e_wo_entrp">   -630.36746389 </i>
    <i name="e_0_energy">   -630.50842295 </i>
   </energy>
  </scstep>
  <scstep>
   <time name="diag">    1.94    1.98</time>
   <time name="diis">   21.77   22.44</time>
   <time name="orth">    0.49    0.50</time>
   <time name="total">   24.50   25.23</time>
   <energy>
    <i name="e_fr_energy">   -630.64936127 </i>
    <i name="e_wo_entrp">   -630.36768515 </i>
    <i name="e_0_energy">   -630.50852321 </i>
   </energy>
  </scstep>
  <scstep>
   <time name="diag">    1.94    1.98</time>
   <time name="diis">   20.75   21.40</time>
   <time name="orth">    0.49    0.50</time>
   <time name="total">   23.49   24.19</time>
   <energy>
    <i name="e_fr_energy">   -630.64963603 </i>
    <i name="e_wo_entrp">   -630.36833295 </i>
    <i name="e_0_energy">   -630.50898449 </i>
   </energy>
  </scstep>
  <scstep>
   <time name="diag">    1.94    1.98</time>
   <time name="diis">   20.63   20.68</time>
   <time name="orth">    0.50    0.50</time>
   <time name="total">   23.36   23.46</time>
   <energy>
    <i name="e_fr_energy">   -630.64960191 </i>
    <i name="e_wo_entrp">   -630.36800170 </i>
    <i name="e_0_energy">   -630.50880181 </i>
   </energy>
  </scstep>
  <scstep>
   <time name="diag">    1.94    1.98</time>
   <time name="diis">   20.03   20.06</time>
   <time name="orth">    0.50    0.50</time>
   <time name="total">   22.77   22.84</time>
   <energy>
    <i name="e_fr_energy">   -630.64966823 </i>
    <i name="e_wo_entrp">   -630.36805697 </i>
    <i name="e_0_energy">   -630.50886260 </i>
   </energy>
  </scstep>
  <scstep>
   <time name="diag">    1.94    1.98</time>
   <time name="diis">   18.45   19.11</time>
   <time name="orth">    0.49    0.50</time>
   <time name="total">   21.19   21.91</time>
   <energy>
    <i name="e_fr_energy">   -630.64971600 </i>
    <i name="e_wo_entrp">   -630.36812404 </i>
    <i name="e_0_energy">   -630.50892002 </i>
   </energy>
  </scstep>
  <scstep>
   <time name="diag">    1.94    1.98</time>
   <time name="diis">   16.80   17.32</time>
   <time name="orth">    0.49    0.50</time>
   <time name="total">   19.54   20.12</time>
   <energy>
    <i name="e_fr_energy">   -630.64974878 </i>
    <i name="e_wo_entrp">   -630.36817772 </i>
    <i name="e_0_energy">   -630.50896325 </i>
   </energy>
  </scstep>
  <scstep>
   <time name="diag">    1.94    1.98</time>
   <time name="diis">   16.87   17.14</time>
   <time name="orth">    0.49    0.50</time>
   <time name="total">   19.61   19.94</time>
   <energy>
    <i name="e_fr_energy">   -630.64977016 </i>
    <i name="e_wo_entrp">   -630.36818443 </i>
    <i name="e_0_energy">   -630.50897729 </i>
   </energy>
  </scstep>
  <scstep>
   <time name="diag">    1.98    2.02</time>
   <time name="diis">   14.74   15.24</time>
   <time name="orth">    0.50    0.51</time>
   <time name="total">   17.53   18.08</time>
   <energy>
    <i name="e_fr_energy">   -630.64978687 </i>
    <i name="e_wo_entrp">   -630.36820155 </i>
    <i name="e_0_energy">   -630.50899421 </i>
   </energy>
  </scstep>
  <scstep>
   <time name="diag">    1.97    1.97</time>
   <time name="diis">   14.53   14.54</time>
   <time name="orth">    0.50    0.50</time>
   <time name="total">   17.31   17.32</time>
   <energy>
    <i name="e_fr_energy">   -630.64979742 </i>
    <i name="e_wo_entrp">   -630.36821429 </i>
    <i name="e_0_energy">   -630.50900586 </i>
   </energy>
  </scstep>
  <scstep>
   <time name="diag">    1.97    1.97</time>
   <time name="diis">   13.98   13.99</time>
   <time name="orth">    0.50    0.50</time>
   <time name="total">   16.48   16.50</time>
   <energy>
    <i name="alphaZ">   4316.23881570 </i>
    <i name="ewald"> -44473.01171042 </i>
    <i name="hartreedc"> -10001.42820215 </i>
    <i name="XCdc">   2107.45695420 </i>
    <i name="pawpsdc">  35816.25346095 </i>
    <i name="pawaedc"> -36012.69849555 </i>
    <i name="eentropy">     -0.28158483 </i>
    <i name="bandstr">  -7108.95815938 </i>
    <i name="atom">  54725.77911737 </i>
    <i name="e_fr_energy">   -630.64980412 </i>
    <i name="e_wo_entrp">   -630.36821929 </i>
    <i name="e_0_energy">   -630.50901171 </i>
   </energy>
  </scstep>
  <structure>
   <crystal>
    <varray name="basis" >
     <v>       8.93249989       0.00000000       0.00000000 </v>
     <v>       0.00575300       9.05559834       0.00000000 </v>
     <v>       0.03210180      -0.01574346       8.93712807 </v>
    </varray>
    <i name="volume">    722.91652451 </i>
    <varray name="rec_basis" >
     <v>       0.11195074      -0.00007112      -0.00040225 </v>
     <v>       0.00000000       0.11042893       0.00019453 </v>
     <v>       0.00000000       0.00000000       0.11189277 </v>
    </varray>
   </crystal>
   <varray name="positions" >
    <v>       0.99688001       0.99204997       0.99924002 </v>
    <v>       0.25398003       0.99714995       0.24912000 </v>
    <v>       0.24803003       0.50165000       0.24955001 </v>
    <v>       0.50501006       0.49745998       0.99834003 </v>
    <v>       0.50479003       0.24631001       0.74710002 </v>
    <v>       0.99427992       0.50449999       0.49779000 </v>
    <v>       0.49950005       0.75481999       0.74817004 </v>
    <v>       0.99437004       0.23617001       0.26379999 </v>
    <v>       0.75718000       0.74102998       0.01100000 </v>
    <v>       0.00201000       0.25541000       0.73894001 </v>
    <v>       0.75307001       0.26163001       0.50533002 </v>
    <v>       0.99514004       0.74492004       0.74511997 </v>
    <v>       0.25679999       0.49462002       0.74545002 </v>
    <v>       0.24788999       0.24839000       0.99657997 </v>
    <v>       0.50833000       0.25676999       0.25376001 </v>
    <v>       0.74879004       0.98787999       0.26967001 </v>
    <v>       0.75719000       0.25603001       0.99591997 </v>
    <v>       0.24762001       0.74973999       0.99974006 </v>
    <v>       0.25272001       0.24823001       0.50015003 </v>
    <v>       0.24457999       0.75048999       0.49983999 </v>
    <v>       0.24982001       0.24942998       0.24825000 </v>
    <v>       0.26146999       0.99984002       0.99295996 </v>
    <v>       0.00281000       0.25024000       0.00130000 </v>
    <v>       0.75313998       0.24617000       0.25492002 </v>
    <v>       0.74767001       0.99748000       0.01202000 </v>
    <v>       0.50714994       0.99977000       0.24673000 </v>
    <v>       0.99051999       0.48088002       0.24100998 </v>
    <v>       0.50519005       0.76130999       0.00855000 </v>
    <v>       0.98896989       0.00202000       0.73708999 </v>
    <v>       0.75744996       0.24437997       0.74896999 </v>
    <v>       0.73632001       0.00417000       0.51063000 </v>
    <v>       0.50563996       0.23264999       0.49544997 </v>
    <v>       0.50008998       0.00061000       0.73471998 </v>
    <v>       0.99720000       0.99771992       0.25899999 </v>
    <v>       0.50427997       0.24673000       0.00262000 </v>
    <v>       0.25133999       0.74958002       0.24910999 </v>
    <v>       0.24328000       0.50072997       0.99510994 </v>
    <v>       0.99837005       0.74313996       0.00460000 </v>
    <v>       0.75633000       0.73891003       0.25767000 </v>
    <v>       0.75839004       0.50315998       0.00288000 </v>
    <v>       0.50700002       0.50333002       0.25878999 </v>
    <v>       0.24900999       0.25315000       0.74854000 </v>
    <v>       0.24446000       0.99823996       0.50287998 </v>
    <v>       0.99804009       0.24229999       0.50128003 </v>
    <v>       0.24177002       0.75340997       0.75018002 </v>
    <v>       0.25841001       0.50062002       0.50129001 </v>
    <v>       0.99000004       0.76215003       0.49746000 </v>
    <v>       0.99203996       0.50055999       0.75138002 </v>
    <v>       0.75036005       0.74888000       0.74756004 </v>
    <v>       0.74036002       0.50197000       0.50067003 </v>
    <v>       0.50575006       0.74958002       0.49720000 </v>
    <v>       0.50501003       0.50217998       0.73912003 </v>
    <v>       0.51588997       0.01358000       0.98075008 </v>
    <v>       0.99841994       0.50976998       0.98613004 </v>
    <v>       0.50379003       0.73926997       0.25905001 </v>
    <v>       0.23780002       0.01082000       0.74607998 </v>
    <v>       0.47957999       0.98308000       0.49717999 </v>
    <v>       0.74279003       0.97869994       0.76450995 </v>
    <v>       0.99864998       0.77573999       0.26102000 </v>
    <v>       0.73551001       0.51468004       0.26666001 </v>
    <v>       0.02362000       0.99783001       0.49557002 </v>
    <v>       0.50539000       0.52833005       0.49917999 </v>
    <v>       0.73876003       0.52828003       0.73814999 </v>
    <v>       0.75400003       0.72937999       0.49116997 </v>
   </varray>
  </structure>
  <varray name="forces" >
   <v>       0.06898832      -0.32933354       0.15959893 </v>
   <v>       0.09012795      -0.62891086      -0.14840954 </v>
   <v>       0.79094778       0.52317510      -0.18203177 </v>
   <v>      -0.29173392      -0.93424989       0.00271896 </v>
   <v>      -0.77574755      -0.57014319       0.87555994 </v>
   <v>       0.21707326      -0.32962418       0.58587016 </v>
   <v>      -0.26588922       0.68947199       0.01622222 </v>
   <v>       0.90940022       0.33881588      -1.08155783 </v>
   <v>      -1.08732315       1.04603809      -0.13640701 </v>
   <v>       0.30543364      -0.43660895       0.81573226 </v>
   <v>      -1.12370942      -1.03439231       0.33289793 </v>
   <v>       1.36980522       0.64181205       0.44789224 </v>
   <v>       0.12709659       0.39237309       0.65321600 </v>
   <v>       0.37466178      -0.20658496       0.14718303 </v>
   <v>      -0.52454260      -0.60136041      -0.49236367 </v>
   <v>      -1.25509576       0.20941247      -0.35713156 </v>
   <v>      -0.62649822      -0.12387710      -0.43589460 </v>
   <v>       0.39069160       0.23457918       0.11078694 </v>
   <v>       0.47867572      -0.03391354      -0.10071479 </v>
   <v>       0.44333116      -0.06545811      -0.16192903 </v>
   <v>       0.00079809       0.09643246       0.12275877 </v>
   <v>      -0.48315528       0.14262558       0.27329039 </v>
   <v>      -0.10544266      -0.49996984      -0.04161074 </v>
   <v>      -0.29022474       0.00848015      -0.09530983 </v>
   <v>       0.18951097      -0.04532486      -0.80001662 </v>
   <v>      -0.46663547       0.03990765       0.52172450 </v>
   <v>       0.53139288       0.03487217       0.66838730 </v>
   <v>      -0.11463303      -0.50858923      -0.56282352 </v>
   <v>      -0.00666736       0.09256709       0.82309714 </v>
   <v>      -0.64677910       0.12615706       0.31582870 </v>
   <v>       0.28719971      -0.03374043      -0.76432449 </v>
   <v>      -0.28904298       0.19214471       0.21234293 </v>
   <v>       0.56177730      -0.07781160       0.64027206 </v>
   <v>       0.26209205       0.47285058      -1.48955484 </v>
   <v>       0.11418819       0.22164984      -0.58339657 </v>
   <v>      -0.04140288      -0.09967935       0.04552584 </v>
   <v>       0.56299798      -0.01642388       0.81516353 </v>
   <v>       0.71241021       0.44799499      -0.02633856 </v>
   <v>      -0.51469140       1.42626380      -1.00940422 </v>
   <v>      -0.65377680      -0.66301567      -0.07160177 </v>
   <v>      -1.58063332      -0.12598547      -1.34631151 </v>
   <v>       0.65837389      -0.62855862      -0.01321764 </v>
   <v>       1.59749141      -0.19241153      -0.16062635 </v>
   <v>       0.47668108       0.94124124      -0.11396126 </v>
   <v>       0.79736291      -0.02481137       0.02773220 </v>
   <v>      -0.75319055       0.04445480      -0.99514915 </v>
   <v>       1.23136423      -1.12940783       0.50462680 </v>
   <v>       0.31900514       0.03021831      -0.32790143 </v>
   <v>      -1.18015688       1.61980418       0.45066476 </v>
   <v>       1.88445763      -1.07077727       0.41456013 </v>
   <v>      -0.93724890       1.30594145       0.28530624 </v>
   <v>      -0.55368869      -0.22648260       1.37765432 </v>
   <v>       0.26211321       0.83031483      -0.72270434 </v>
   <v>       0.45177617       0.58155463      -0.47332750 </v>
   <v>      -0.28241938      -0.11722657      -0.31724476 </v>
   <v>       0.11432834       0.18203862       0.58573915 </v>
   <v>      -0.66114120      -0.19911485       0.10605359 </v>
   <v>      -0.94863853      -0.79132692       0.69707696 </v>
   <v>       1.15544495      -0.13014310      -0.95937779 </v>
   <v>       0.41803448      -1.07729843      -1.44799532 </v>
   <v>       0.19943931       0.45894682       0.72360552 </v>
   <v>      -1.82014768      -0.42182499      -0.06721899 </v>
   <v>       0.01734148      -1.62309138       1.27172296 </v>
   <v>      -0.09155817       1.62533408       0.45504462 </v>
  </varray>
  <varray name="stress" >
   <v>    -284.41839465       5.48542045      -1.65378778 </v>
   <v>       5.48542150    -284.17062160       0.84591812 </v>
   <v>      -1.65378720       0.84591622    -275.15683193 </v>
  </varray>
  <energy>
   <i name="e_fr_energy">   -630.64980412 </i>
   <i name="e_wo_entrp">   -630.50901171 </i>
   <i name="e_0_energy">     -0.28158483 </i>
  </energy>
  <time name="totalsc">  950.64  960.80</time>
 </calculation>
 <calculation>
  <scstep>
   <time name="dav">   30.19   31.05</time>
   <time name="total">   30.50   31.36</time>
   <energy>
    <i name="alphaZ">   5835.93526807 </i>
    <i name="ewald"> -49193.25791311 </i>
    <i name="hartreedc"> -11049.46871081 </i>
    <i name="XCdc">   2338.03935522 </i>
    <i name="pawpsdc">  35816.19363425 </i>
    <i name="pawaedc"> -36012.64147692 </i>
    <i name="eentropy">     -0.07849636 </i>
    <i name="bandstr">  -3440.20095315 </i>
    <i name="atom">  54725.77911737 </i>
    <i name="e_fr_energy">   -979.70017544 </i>
    <i name="e_wo_entrp">   -979.62167908 </i>
    <i name="e_0_energy">   -979.66092726 </i>
   </energy>
  </scstep>
  <scstep>
   <time name="diag">    1.94    1.98</time>
   <time name="diis">   17.93   18.50</time>
   <time name="orth">    0.50    0.50</time>
   <time name="total">   20.67   21.28</time>
   <energy>
    <i name="e_fr_energy">   -832.88470310 </i>
    <i name="e_wo_entrp">   -832.73617768 </i>
    <i name="e_0_energy">   -832.81044039 </i>
   </energy>
  </scstep>
  <scstep>
   <time name="diag">    2.07    2.11</time>
   <time name="diis">   22.82   22.83</time>
   <time name="orth">    0.50    0.50</time>
   <time name="total">   25.69   25.74</time>
   <energy>
    <i name="e_fr_energy">   -731.39322647 </i>
    <i name="e_wo_entrp">   -731.28340576 </i>
    <i name="e_0_energy">   -731.33831612 </i>
   </energy>
  </scstep>
  <scstep>
   <time name="diag">    1.94    1.98</time>
   <time name="diis">   20.40   20.80</time>
   <time name="orth">    0.50    0.50</time>
   <time name="total">   23.14   23.58</time>
   <energy>
    <i name="e_fr_energy">   -662.94636680 </i>
    <i name="e_wo_entrp">   -662.82662351 </i>
    <i name="e_0_energy">   -662.88649515 </i>
   </energy>
  </scstep>
  <scstep>
   <time name="diag">    1.94    1.97</time>
   <time name="diis">   18.95   19.53</time>
   <time name="orth">    0.49    0.50</time>
   <time name="total">   21.68   22.32</time>
   <energy>
    <i name="e_fr_energy">   -637.04527403 </i>
    <i name="e_wo_entrp">   -636.89296860 </i>
    <i name="e_0_energy">   -636.96912132 </i>
   </energy>
  </scstep>
  <scstep>
   <time name="diag">    1.98    2.01</time>
   <time name="diis">   19.45   19.47</time>
   <time name="orth">    0.50    0.50</time>
   <time name="total">   22.23   22.28</time>
   <energy>
    <i name="e_fr_energy">   -624.21582337 </i>
    <i name="e_wo_entrp">   -624.07875819 </i>
    <i name="e_0_energy">   -624.14729078 </i>
   </energy>
  </scstep>
  <scstep>
   <time name="diag">    1.99    1.99</time>
   <time name="diis">   23.59   23.65</time>
   <time name="orth">    0.50    0.50</time>
   <time name="total">   26.38   26.45</time>
   <energy>
    <i name="e_fr_energy">   -622.95001754 </i>
    <i name="e_wo_entrp">   -622.78738828 </i>
    <i name="e_0_energy">   -622.86870291 </i>
   </energy>
  </scstep>
  <scstep>
   <time name="diag">    1.94    1.98</time>
   <time name="diis">   22.56   23.30</time>
   <time name="orth">    0.49    0.50</time>
   <time name="total">   25.30   26.09</time>
   <energy>
    <i name="e_fr_energy">   -620.83117422 </i>
    <i name="e_wo_entrp">   -620.66831491 </i>
    <i name="e_0_energy">   -620.74974457 </i>
   </energy>
  </scstep>
  <scstep>
   <time name="diag">    1.97    2.02</time>
   <time name="diis">   21.67   22.16</time>
   <time name="orth">    0.50    0.50</time>
   <time name="total">   24.44   24.99</time>
   <energy>
    <i name="e_fr_energy">   -620.56553564 </i>
    <i name="e_wo_entrp">   -620.41580407 </i>
    <i name="e_0_energy">   -620.49066985 </i>
   </energy>
  </scstep>
  <scstep>
   <time name="diag">    1.95    1.99</time>
   <time name="diis">   22.03   22.34</time>
   <time name="orth">    0.49    0.49</time>
   <time name="total">   24.78   25.14</time>
   <energy>
    <i name="e_fr_energy">   -620.12766672 </i>
    <i name="e_wo_entrp">   -619.95597538 </i>
    <i name="e_0_energy">   -620.04182105 </i>
   </energy>
  </scstep>
  <scstep>
   <time name="diag">    1.97    1.97</time>
   <time name="diis">   24.67   24.72</time>
   <time name="orth">    0.49    0.50</time>
   <time name="total">   27.44   27.50</time>
   <energy>
    <i name="e_fr_energy">   -620.27738841 </i>
    <i name="e_wo_entrp">   -620.11576743 </i>
    <i name="e_0_energy">   -620.19657792 </i>
   </energy>
  </scstep>
  <scstep>
   <time name="diag">    1.95    1.99</time>
   <time name="diis">   23.66   24.29</time>
   <time name="orth">    0.49    0.50</time>
   <time name="total">   26.41   27.08</time>
   <energy>
    <i name="e_fr_energy">   -620.34193496 </i>
    <i name="e_wo_entrp">   -620.17726683 </i>
    <i name="e_0_energy">   -620.25960090 </i>
   </energy>
  </scstep>
  <scstep>
   <time name="diag">    1.96    2.00</time>
   <time name="diis">   22.63   22.64</time>
   <time name="orth">    0.51    0.51</time>
   <time name="total">   25.41   25.46</time>
   <energy>
    <i name="e_fr_energy">   -620.44580439 </i>
    <i name="e_wo_entrp">   -620.27948075 </i>
    <i name="e_0_energy">   -620.36264257 </i>
   </energy>
  </scstep>
  <scstep>
   <time name="diag">    2.01    2.02</time>
   <time name="diis">   23.16   23.18</time>
   <time name="orth">    0.49    0.49</time>
   <time name="total">   25.97   26.00</time>
   <energy>
    <i name="e_fr_energy">   -620.33385781 </i>
    <i name="e_wo_entrp">   -620.16801662 </i>
    <i name="e_0_energy">   -620.25093721 </i>
   </energy>
  </scstep>
  <scstep>
   <time name="diag">    1.96    1.97</time>
   <time name="diis">   23.19   23.25</time>
   <time name="orth">    0.53    0.54</time>
   <time name="total">   25.99   26.06</time>
   <energy>
    <i name="e_fr_energy">   -620.34126610 </i>
    <i name="e_wo_entrp">   -620.17436099 </i>
    <i name="e_0_energy">   -620.25781354 </i>
   </energy>
  </scstep>
  <scstep>
   <time name="diag">    1.93    1.97</time>
   <time name="diis">   23.71   24.52</time>
   <time name="orth">    0.49    0.50</time>
   <time name="total">   26.44   27.31</time>
   <energy>
    <i name="e_fr_energy">   -620.33738574 </i>
    <i name="e_wo_entrp">   -620.17050062 </i>
    <i name="e_0_energy">   -620.25394318 </i>
   </energy>
  </scstep>
  <scstep>
   <time name="diag">    1.95    1.99</time>
   <time name="diis">   23.45   24.15</time>
   <time name="orth">    0.50    0.50</time>
   <time name="total">   26.20   26.94</time>
   <energy>
    <i name="e_fr_energy">   -620.34250872 </i>
    <i name="e_wo_entrp">   -620.17688505 </i>
    <i name="e_0_energy">   -620.25969688 </i>
   </energy>
  </scstep>
  <scstep>
   <time name="diag">    1.97    1.97</time>
   <time name="diis">   22.92   22.99</time>
   <time name="orth">    0.50    0.50</time>
   <time name="total">   25.69   25.77</time>
   <energy>
    <i name="e_fr_energy">   -620.34302855 </i>
    <i name="e_wo_entrp">   -620.17707931 </i>
    <i name="e_0_energy">   -620.26005393 </i>
   </energy>
  </scstep>
  <scstep>
   <time name="diag">    1.93    1.97</time>
   <time name="diis">   22.93   23.00</time>
   <time name="orth">    0.49    0.50</time>
   <time name="total">   25.66   25.78</time>
   <energy>
    <i name="e_fr_energy">   -620.34344541 </i>
    <i name="e_wo_entrp">   -620.17789850 </i>
    <i name="e_0_energy">   -620.26067195 </i>
   </energy>
  </scstep>
  <scstep>
   <time name="diag">    1.97    1.98</time>
   <time name="diis">   23.00   23.10</time>
   <time name="orth">    0.51    0.51</time>
   <time name="total">   25.81   25.92</time>
   <energy>
    <i name="e_fr_energy">   -620.34228895 </i>
    <i name="e_wo_entrp">   -620.17601581 </i>
    <i name="e_0_energy">   -620.25915238 </i>
   </energy>
  </scstep>
  <scstep>
   <time name="diag">    1.97    2.02</time>
   <time name="diis">   22.05   22.48</time>
   <time name="orth">    0.50    0.50</time>
   <time name="total">   24.82   25.32</time>
   <energy>
    <i name="e_fr_energy">   -620.34221577 </i>
    <i name="e_wo_entrp">   -620.17608806 </i>
    <i name="e_0_energy">   -620.25915191 </i>
   </energy>
  </scstep>
  <scstep>
   <time name="diag">    1.96    1.97</time>
   <time name="diis">   21.90   21.98</time>
   <time name="orth">    0.49    0.50</time>
   <time name="total">   24.65   24.75</time>
   <energy>
    <i name="e_fr_energy">   -620.34238079 </i>
    <i name="e_wo_entrp">   -620.17624194 </i>
    <i name="e_0_energy">   -620.25931137 </i>
   </energy>
  </scstep>
  <scstep>
   <time name="diag">    1.98    1.99</time>
   <time name="diis">   20.44   20.53</time>
   <time name="orth">    0.49    0.50</time>
   <time name="total">   23.23   23.32</time>
   <energy>
    <i name="e_fr_energy">   -620.34244043 </i>
    <i name="e_wo_entrp">   -620.17643644 </i>
    <i name="e_0_energy">   -620.25943843 </i>
   </energy>
  </scstep>
  <scstep>
   <time name="diag">    1.95    1.96</time>
   <time name="diis">   20.05   20.13</time>
   <time name="orth">    0.49    0.50</time>
   <time name="total">   22.80   22.89</time>
   <energy>
    <i name="e_fr_energy">   -620.34247118 </i>
    <i name="e_wo_entrp">   -620.17634140 </i>
    <i name="e_0_energy">   -620.25940629 </i>
   </energy>
  </scstep>
  <scstep>
   <time name="diag">    1.97    1.98</time>
   <time name="diis">   19.45   19.52</time>
   <time name="orth">    0.50    0.50</time>
   <time name="total">   22.23   22.31</time>
   <energy>
    <i name="e_fr_energy">   -620.34250115 </i>
    <i name="e_wo_entrp">   -620.17637842 </i>
    <i name="e_0_energy">   -620.25943979 </i>
   </energy>
  </scstep>
  <scstep>
   <time name="diag">    1.97    1.97</time>
   <time name="diis">   19.37   19.44</time>
   <time name="orth">    0.50    0.50</time>
   <time name="total">   22.14   22.21</time>
   <energy>
    <i name="e_fr_energy">   -620.34251732 </i>
    <i name="e_wo_entrp">   -620.17641211 </i>
    <i name="e_0_energy">   -620.25946472 </i>
   </energy>
  </scstep>
  <scstep>
   <time name="diag">    1.98    1.99</time>
   <time name="diis">   17.23   17.27</time>
   <time name="orth">    0.49    0.49</time>
   <time name="total">   20.00   20.07</time>
   <energy>
    <i name="e_fr_energy">   -620.34252879 </i>
    <i name="e_wo_entrp">   -620.17643000 </i>
    <i name="e_0_energy">   -620.25947940 </i>
   </energy>
  </scstep>
  <scstep>
   <time name="diag">    1.94    1.97</time>
   <time name="diis">   17.11   17.18</time>
   <time name="orth">    0.50    0.50</time>
   <time name="total">   19.58   19.68</time>
   <energy>
    <i name="alphaZ">   5835.93526807 </i>
    <i name="ewald"> -49193.25791311 </i>
    <i name="hartreedc">  -8361.04047121 </i>
    <i name="XCdc">   2189.48389714 </i>
    <i name="pawpsdc">  39591.61864862 </i>
    <i name="pawaedc"> -39785.06192071 </i>
    <i name="eentropy">     -0.16609671 </i>
    <i name="bandstr">  -5623.63306441 </i>
    <i name="atom">  54725.77911737 </i>
    <i name="e_fr_energy">   -620.34253495 </i>
    <i name="e_wo_entrp">   -620.17643824 </i>
    <i name="e_0_energy">   -620.25948660 </i>
   </energy>
  </scstep>
  <structure>
   <crystal>
    <varray name="basis" >
     <v>       8.06840887       0.01666525      -0.00502437 </v>
     <v>       0.02209139       8.18037318       0.00260216 </v>
     <v>       0.02394007      -0.01159064       8.10071888 </v>
    </varray>
    <i name="volume">    534.66671926 </i>
    <varray name="rec_basis" >
     <v>       0.12394064      -0.00033459      -0.00036676 </v>
     <v>      -0.00025239       0.12224444       0.00017566 </v>
     <v>       0.00007695      -0.00003948       0.12344555 </v>
    </varray>
   </crystal>
   <varray name="positions" >
    <v>       0.99725064       0.99029698       0.00010153 </v>
    <v>       0.25447183       0.99379811       0.24831888 </v>
    <v>       0.25230351       0.50443545       0.24856740 </v>
    <v>       0.50343762       0.49248290       0.99835471 </v>
    <v>       0.50058534       0.24328086       0.75182629 </v>
    <v>       0.99544205       0.50274945       0.50095253 </v>
    <v>       0.49806136       0.75849323       0.74825761 </v>
    <v>       0.99930135       0.23796487       0.25796173 </v>
    <v>       0.75130664       0.74660134       0.01026367 </v>
    <v>       0.00364525       0.25309167       0.74334334 </v>
    <v>       0.74699817       0.25612253       0.50712701 </v>
    <v>       0.00252720       0.74834342       0.74753770 </v>
    <v>       0.25747240       0.49671647       0.74897609 </v>
    <v>       0.24991132       0.24729082       0.99737446 </v>
    <v>       0.50550867       0.25356169       0.25110223 </v>
    <v>       0.74201773       0.98899226       0.26774221 </v>
    <v>       0.75381529       0.25536598       0.99356701 </v>
    <v>       0.24972710       0.75099073       0.00033808 </v>
    <v>       0.25530731       0.24804839       0.49960637 </v>
    <v>       0.24697770       0.75013975       0.49896590 </v>
    <v>       0.24982161       0.24994487       0.24891265 </v>
    <v>       0.25885477       0.00060241       0.99443519 </v>
    <v>       0.00224305       0.24757608       0.00107539 </v>
    <v>       0.75157436       0.24621428       0.25440553 </v>
    <v>       0.74870920       0.99723103       0.00770151 </v>
    <v>       0.50461947       0.99998749       0.24954627 </v>
    <v>       0.99337685       0.48107207       0.24461794 </v>
    <v>       0.50458361       0.75859526       0.00551188 </v>
    <v>       0.98891759       0.00252086       0.74153307 </v>
    <v>       0.75395027       0.24505503       0.75067483 </v>
    <v>       0.73788607       0.00398308       0.50650418 </v>
    <v>       0.50407411       0.23367561       0.49659620 </v>
    <v>       0.50311187       0.00020148       0.73817617 </v>
    <v>       0.99864279       0.00022500       0.25095937 </v>
    <v>       0.50490724       0.24790533      -0.00052918 </v>
    <v>       0.25111584       0.74904941       0.24935574 </v>
    <v>       0.24630488       0.50065013       0.99951020 </v>
    <v>       0.00221661       0.74552636       0.00445782 </v>
    <v>       0.75356495       0.74649881       0.25222123 </v>
    <v>       0.75486279       0.49962716       0.00249349 </v>
    <v>       0.49848989       0.50264621       0.25152259 </v>
    <v>       0.25256815       0.24980130       0.74846865 </v>
    <v>       0.25309151       0.99721340       0.50201291 </v>
    <v>       0.00061353       0.24731328       0.50066487 </v>
    <v>       0.24607596       0.75327805       0.75032972 </v>
    <v>       0.25436133       0.50084751       0.49591819 </v>
    <v>       0.99664447       0.75613797       0.50018398 </v>
    <v>       0.99376910       0.50071790       0.74961000 </v>
    <v>       0.74397196       0.75751355       0.74999273 </v>
    <v>       0.75053322       0.49626945       0.50290782 </v>
    <v>       0.50067814       0.75653995       0.49874009 </v>
    <v>       0.50199371       0.50098635       0.74655661 </v>
    <v>       0.51731676       0.01799662       0.97684891 </v>
    <v>       0.00086708       0.51286371       0.98357501 </v>
    <v>       0.50227130       0.73864248       0.25733752 </v>
    <v>       0.23840549       0.01179529       0.74924180 </v>
    <v>       0.47600793       0.98202024       0.49775247 </v>
    <v>       0.73765581       0.97449078       0.76827278 </v>
    <v>       0.00490937       0.77503767       0.25584127 </v>
    <v>       0.73779953       0.50892727       0.25884373 </v>
    <v>       0.02468151       0.00028179       0.49947604 </v>
    <v>       0.49556249       0.52608220       0.49881714 </v>
    <v>       0.73883458       0.51964513       0.74501476 </v>
    <v>       0.75349114       0.73804304       0.49362630 </v>
   </varray>
  </structure>
  <varray name="forces" >
   <v>       0.95412494       0.53883561      -0.54917819 </v>
   <v>       0.43693046       0.10816002      -0.76357814 </v>
   <v>       0.51106465       0.13406627      -0.58311091 </v>
   <v>      -0.95872392      -0.45931353       0.29635441 </v>
   <v>      -0.80210932      -0.31672181       0.66642688 </v>
   <v>       1.66452855      -0.74788895       0.34227761 </v>
   <v>      -0.98400483       0.61023292       0.58988642 </v>
   <v>       1.23489653       0.95074392      -2.49038640 </v>
   <v>      -1.09389165       1.24568333      -1.65126999 </v>
   <v>       0.44757488      -0.86887252       2.40250675 </v>
   <v>      -0.19114125      -1.94027188      -0.24497231 </v>
   <v>      -0.52524611       1.35703920       1.41444119 </v>
   <v>      -1.47911982       0.46994907       0.62226320 </v>
   <v>       0.77991958      -0.24606150       0.55671732 </v>
   <v>      -1.45752027      -0.73820286      -1.00323745 </v>
   <v>      -0.34881522       1.42130489      -1.76221270 </v>
   <v>      -0.48250904      -1.08418418       0.48781492 </v>
   <v>       1.69267998       0.49476484       0.22751627 </v>
   <v>       0.67350872       0.28569779      -0.44794556 </v>
   <v>       0.57872689      -0.15735654      -0.13939580 </v>
   <v>       1.47554542       0.13004760      -0.13670831 </v>
   <v>      -0.02090722      -0.03749023       0.47335156 </v>
   <v>      -0.04768737       0.04144088       0.08979732 </v>
   <v>      -1.51175643      -0.40883892      -1.67097256 </v>
   <v>       0.60754455       1.48078923      -0.22826600 </v>
   <v>      -1.31599149      -0.30239050      -0.43413401 </v>
   <v>       1.32590903       2.73442110      -0.01954389 </v>
   <v>      -2.04550263      -0.12841265      -0.50415504 </v>
   <v>      -0.65564000      -0.08106998       2.33353654 </v>
   <v>      -1.91115683      -0.20660437       1.64293637 </v>
   <v>       0.44788595      -1.04138367       0.98777042 </v>
   <v>      -2.03473534       0.48861784       0.61553610 </v>
   <v>      -0.44726680       0.27920809       0.34149497 </v>
   <v>       0.07281301       1.05266528      -1.87839818 </v>
   <v>      -0.47610737       0.69910287      -0.22384733 </v>
   <v>       1.97523435      -0.28921987      -0.21592898 </v>
   <v>       0.50067417      -0.18314388       1.88273304 </v>
   <v>       1.34064077       0.41403878       0.06730356 </v>
   <v>      -1.30125256       1.69464556       0.06662071 </v>
   <v>      -0.19631813      -1.51259033       0.06357288 </v>
   <v>      -2.88959921      -0.46334158      -2.20191716 </v>
   <v>       1.98658308      -1.25477388       0.19171099 </v>
   <v>       2.57035008       0.12207486       0.07648423 </v>
   <v>       1.15067017       1.99139993      -0.15848297 </v>
   <v>       2.72616161       1.32550495       0.19705837 </v>
   <v>      -2.73698431      -0.39447508      -1.32407490 </v>
   <v>       1.89397584      -2.07436035       0.02526878 </v>
   <v>       0.71169270       0.00010297      -0.44835745 </v>
   <v>      -0.70844300       0.24198706       0.05360096 </v>
   <v>       0.78980671       0.42816577      -0.30541437 </v>
   <v>      -1.50243780       2.34983853       0.31694216 </v>
   <v>      -0.68628865      -0.60280569       1.83277572 </v>
   <v>      -1.06867649      -0.36797704       0.19103919 </v>
   <v>       0.61210507      -0.63264346       0.56418009 </v>
   <v>      -0.94259260       0.94903434      -1.15134825 </v>
   <v>       0.73985063      -0.94667513       1.19085920 </v>
   <v>       1.33902408       1.08322671      -0.37387673 </v>
   <v>      -0.54365490       2.38100066       0.37637881 </v>
   <v>       0.61078409      -4.61153557      -1.75057286 </v>
   <v>       1.46342212      -2.52989595      -2.42769109 </v>
   <v>      -3.21087277       1.07980339      -0.00292778 </v>
   <v>       0.37136638      -3.99442493      -0.47305556 </v>
   <v>       1.58296004      -2.61984228       2.98791477 </v>
   <v>      -0.69200171       2.65917483       1.38988916 </v>
  </varray>
  <varray name="stress" >
   <v>     836.80852531      -3.05335994       2.44165107 </v>
   <v>      -3.05335969     758.70102634       0.37387405 </v>
   <v>       2.44164818       0.37387447     807.12959268 </v>
  </varray>
  <energy>
   <i name="e_fr_energy">   -620.34253495 </i>
   <i name="e_wo_entrp">   -620.25948660 </i>
   <i name="e_0_energy">     -0.16609671 </i>
  </energy>
  <time name="totalsc">  733.85  742.42</time>
 </calculation>
 <calculation>
  <scstep>
   <time name="dav">   28.84   29.15</time>
   <time name="total">   29.15   29.47</time>
   <energy>
    <i name="alphaZ">   4897.53021977 </i>
    <i name="ewald"> -46408.84329716 </i>
    <i name="hartreedc">  -7871.15319100 </i>
    <i name="XCdc">   2062.16064526 </i>
    <i name="pawpsdc">  39591.79394400 </i>
    <i name="pawaedc"> -39785.16352099 </i>
    <i name="eentropy">     -0.22326605 </i>
    <i name="bandstr">  -8034.35768410 </i>
    <i name="atom">  54725.77911737 </i>
    <i name="e_fr_energy">   -822.47703291 </i>
    <i name="e_wo_entrp">   -822.25376686 </i>
    <i name="e_0_energy">   -822.36539989 </i>
   </energy>
  </scstep>
  <scstep>
   <time name="diag">    1.96    1.96</time>
   <time name="diis">   22.30   22.37</time>
   <time name="orth">    0.50    0.50</time>
   <time name="total">   25.06   25.13</time>
   <energy>
    <i name="e_fr_energy">  -1261.89058438 </i>
    <i name="e_wo_entrp">  -1261.72159683 </i>
    <i name="e_0_energy">  -1261.80609060 </i>
   </energy>
  </scstep>
  <scstep>
   <time name="diag">    1.93    1.97</time>
   <time name="diis">   21.55   21.86</time>
   <time name="orth">    0.49    0.50</time>
   <time name="total">   24.27   24.62</time>
   <energy>
    <i name="e_fr_energy">   -752.91110434 </i>
    <i name="e_wo_entrp">   -752.80094256 </i>
    <i name="e_0_energy">   -752.85602345 </i>
   </energy>
  </scstep>
  <scstep>
   <time name="diag">    1.95    1.99</time>
   <time name="diis">   21.29   21.57</time>
   <time name="orth">    0.52    0.52</time>
   <time name="total">   24.06   24.39</time>
   <energy>
    <i name="e_fr_energy">   -671.32006279 </i>
    <i name="e_wo_entrp">   -671.16294639 </i>
    <i name="e_0_energy">   -671.24150459 </i>
   </energy>
  </scstep>
  <scstep>
   <time name="diag">    1.97    1.98</time>
   <time name="diis">   20.93   20.99</time>
   <time name="orth">    0.55    0.59</time>
   <time name="total">   23.77   23.87</time>
   <energy>
    <i name="e_fr_energy">   -657.97340421 </i>
    <i name="e_wo_entrp">   -657.78831811 </i>
    <i name="e_0_energy">   -657.88086116 </i>
   </energy>
  </scstep>
  <scstep>
   <time name="diag">    2.03    2.04</time>
   <time name="diis">   21.38   21.62</time>
   <time name="orth">    0.49    0.50</time>
   <time name="total">   24.20   24.47</time>
   <energy>
    <i name="e_fr_energy">   -650.83143079 </i>
    <i name="e_wo_entrp">   -650.65530575 </i>
    <i name="e_0_energy">   -650.74336827 </i>
   </energy>
  </scstep>
  <scstep>
   <time name="diag">    1.95    1.99</time>
   <time name="diis">   21.49   21.74</time>
   <time name="orth">    0.50    0.50</time>
   <time name="total">   24.24   24.53</time>
   <energy>
    <i name="e_fr_energy">   -644.61957121 </i>
    <i name="e_wo_entrp">   -644.39706785 </i>
    <i name="e_0_energy">   -644.50831953 </i>
   </energy>
  </scstep>
  <scstep>
   <time name="diag">    1.98    2.03</time>
   <time name="diis">   20.88   21.59</time>
   <time name="orth">    0.49    0.50</time>
   <time name="total">   23.65   24.42</time>
   <energy>
    <i name="e_fr_energy">   -647.96165164 </i>
    <i name="e_wo_entrp">   -647.77211838 </i>
    <i name="e_0_energy">   -647.86688501 </i>
   </energy>
  </scstep>
  <scstep>
   <time name="diag">    1.94    1.98</time>
   <time name="diis">   20.46   21.13</time>
   <time name="orth">    0.49    0.50</time>
   <time name="total">   23.19   23.91</time>
   <energy>
    <i name="e_fr_energy">   -641.01294531 </i>
    <i name="e_wo_entrp">   -640.79234812 </i>
    <i name="e_0_energy">   -640.90264671 </i>
   </energy>
  </scstep>
  <scstep>
   <time name="diag">    1.97    1.98</time>
   <time name="diis">   23.54   23.62</time>
   <time name="orth">    0.50    0.50</time>
   <time name="total">   26.31   26.41</time>
   <energy>
    <i name="e_fr_energy">   -640.77108934 </i>
    <i name="e_wo_entrp">   -640.53865924 </i>
    <i name="e_0_energy">   -640.65487429 </i>
   </energy>
  </scstep>
  <scstep>
   <time name="diag">    1.95    1.99</time>
   <time name="diis">   22.11   22.71</time>
   <time name="orth">    0.50    0.50</time>
   <time name="total">   24.86   25.50</time>
   <energy>
    <i name="e_fr_energy">   -640.45945285 </i>
    <i name="e_wo_entrp">   -640.23378233 </i>
    <i name="e_0_energy">   -640.34661759 </i>
   </energy>
  </scstep>
  <scstep>
   <time name="diag">    1.98    1.99</time>
   <time name="diis">   22.95   23.03</time>
   <time name="orth">    0.50    0.50</time>
[...]
      </set>
     </set>
    </set>
   </array>
  </eigenvalues>
  <separator name="orbital magnetization" >
   <v name="MAGDIPOLOUT">      0.00000000      0.00000000      0.00000000</v>
  </separator>
  <dos>
   <i name="efermi">      8.40408069 </i>
   <total>
    <array>
     <dimension dim="1">gridpoints</dimension>
     <dimension dim="2">spin</dimension>
     <field>energy</field>
     <field>total</field>
     <field>integrated</field>
     <set>
      <set comment="spin 1">
       <r>   -60.0177     0.0000     0.0000 </r>
       <r>   -59.7689     0.0000     0.0000 </r>
       <r>   -59.5201     0.0000     0.0000 </r>
       <r>   -59.2712     0.0000     0.0000 </r>
       <r>   -59.0224     0.0000     0.0000 </r>
       <r>   -58.7736     0.0000     0.0000 </r>
       <r>   -58.5248     0.0000     0.0000 </r>
       <r>   -58.2760     0.0000     0.0000 </r>
       <r>   -58.0272     0.0000     0.0000 </r>
       <r>   -57.7784     0.0000     0.0000 </r>
       <r>   -57.5296     0.0000     0.0000 </r>
       <r>   -57.2807     0.0000     0.0000 </r>
       <r>   -57.0319     0.0000     0.0000 </r>
       <r>   -56.7831     0.1044     0.0260 </r>
       <r>   -56.5343    20.5313     5.1344 </r>
       <r>   -56.2855    35.2117    13.8955 </r>
       <r>   -56.0367     0.4200    14.0000 </r>
       <r>   -55.7879     0.0000    14.0000 </r>
       <r>   -55.5391     0.0000    14.0000 </r>
       <r>   -55.2902     0.0000    14.0000 </r>
       <r>   -55.0414     0.0000    14.0000 </r>
       <r>   -54.7926     0.0000    14.0000 </r>
       <r>   -54.5438     0.0000    14.0000 </r>
       <r>   -54.2950     0.0000    14.0000 </r>
       <r>   -54.0462     0.0000    14.0000 </r>
       <r>   -53.7974     0.0000    14.0000 </r>
       <r>   -53.5486     0.0000    14.0000 </r>
       <r>   -53.2997     0.0000    14.0000 </r>
       <r>   -53.0509     0.0000    14.0000 </r>
       <r>   -52.8021     0.0000    14.0000 </r>
       <r>   -52.5533     0.0000    14.0000 </r>
       <r>   -52.3045     0.0000    14.0000 </r>
       <r>   -52.0557     0.0000    14.0000 </r>
       <r>   -51.8069     0.0000    14.0000 </r>
       <r>   -51.5581     0.0000    14.0000 </r>
       <r>   -51.3092     0.0000    14.0000 </r>
       <r>   -51.0604     0.0000    14.0000 </r>
       <r>   -50.8116     0.0000    14.0000 </r>
       <r>   -50.5628     0.0000    14.0000 </r>
       <r>   -50.3140     0.0000    14.0000 </r>
       <r>   -50.0652     0.0000    14.0000 </r>
       <r>   -49.8164     0.0000    14.0000 </r>
       <r>   -49.5676     0.1270    14.0316 </r>
       <r>   -49.3188    12.5730    17.1599 </r>
       <r>   -49.0699    14.0197    20.6482 </r>
       <r>   -48.8211    19.9171    25.6038 </r>
       <r>   -48.5723     8.7563    27.7824 </r>
       <r>   -48.3235     0.8744    28.0000 </r>
       <r>   -48.0747     0.0000    28.0000 </r>
       <r>   -47.8259     0.0000    28.0000 </r>
       <r>   -47.5771     0.0000    28.0000 </r>
       <r>   -47.3283     0.0000    28.0000 </r>
       <r>   -47.0794     0.0000    28.0000 </r>
       <r>   -46.8306     0.0000    28.0000 </r>
       <r>   -46.5818     0.0000    28.0000 </r>
       <r>   -46.3330     0.0000    28.0000 </r>
       <r>   -46.0842     0.0000    28.0000 </r>
       <r>   -45.8354     0.0000    28.0000 </r>
       <r>   -45.5866     0.0000    28.0000 </r>
       <r>   -45.3378     0.0000    28.0000 </r>
       <r>   -45.0889     0.0000    28.0000 </r>
       <r>   -44.8401     0.0000    28.0000 </r>
       <r>   -44.5913     0.0000    28.0000 </r>
       <r>   -44.3425     0.0000    28.0000 </r>
       <r>   -44.0937     0.0000    28.0000 </r>
       <r>   -43.8449     0.0000    28.0000 </r>
       <r>   -43.5961     0.0000    28.0000 </r>
       <r>   -43.3473     0.0000    28.0000 </r>
       <r>   -43.0984     0.0000    28.0000 </r>
       <r>   -42.8496     0.0000    28.0000 </r>
       <r>   -42.6008     0.0000    28.0000 </r>
       <r>   -42.3520     0.0000    28.0000 </r>
       <r>   -42.1032     0.0000    28.0000 </r>
       <r>   -41.8544     0.0000    28.0000 </r>
       <r>   -41.6056     0.0000    28.0000 </r>
       <r>   -41.3568     0.0000    28.0000 </r>
       <r>   -41.1079     0.0000    28.0000 </r>
       <r>   -40.8591     0.0000    28.0000 </r>
       <r>   -40.6103     0.0000    28.0000 </r>
       <r>   -40.3615     0.0000    28.0000 </r>
       <r>   -40.1127     0.0000    28.0000 </r>
       <r>   -39.8639     0.0000    28.0000 </r>
       <r>   -39.6151     0.0000    28.0000 </r>
       <r>   -39.3663     0.0000    28.0000 </r>
       <r>   -39.1174     0.0000    28.0000 </r>
       <r>   -38.8686     0.0000    28.0000 </r>
       <r>   -38.6198     0.0000    28.0000 </r>
       <r>   -38.3710     0.0000    28.0000 </r>
       <r>   -38.1222     0.0000    28.0000 </r>
       <r>   -37.8734     0.0000    28.0000 </r>
       <r>   -37.6246     0.0000    28.0000 </r>
       <r>   -37.3758     0.0000    28.0000 </r>
       <r>   -37.1270     0.0000    28.0000 </r>
       <r>   -36.8781     0.0000    28.0000 </r>
       <r>   -36.6293     0.0000    28.0000 </r>
       <r>   -36.3805     0.0000    28.0000 </r>
       <r>   -36.1317     0.0000    28.0000 </r>
       <r>   -35.8829     0.0000    28.0000 </r>
       <r>   -35.6341     0.1226    28.0305 </r>
       <r>   -35.3853    25.2204    34.3057 </r>
       <r>   -35.1365    95.5864    58.0887 </r>
       <r>   -34.8876    23.5948    63.9594 </r>
       <r>   -34.6388     0.1631    64.0000 </r>
       <r>   -34.3900     0.0000    64.0000 </r>
       <r>   -34.1412     0.0000    64.0000 </r>
       <r>   -33.8924     0.0000    64.0000 </r>
       <r>   -33.6436     0.0000    64.0000 </r>
       <r>   -33.3948     0.0000    64.0000 </r>
       <r>   -33.1460     0.0000    64.0000 </r>
       <r>   -32.8971     0.0000    64.0000 </r>
       <r>   -32.6483     0.0000    64.0000 </r>
       <r>   -32.3995     0.0000    64.0000 </r>
       <r>   -32.1507     0.0000    64.0000 </r>
       <r>   -31.9019     0.0000    64.0000 </r>
       <r>   -31.6531     0.0000    64.0000 </r>
       <r>   -31.4043     0.0001    64.0000 </r>
       <r>   -31.1555     4.3745    65.0885 </r>
       <r>   -30.9066    65.8342    81.4688 </r>
       <r>   -30.6578    75.2930   100.2026 </r>
       <r>   -30.4090   115.8669   129.0317 </r>
       <r>   -30.1602    51.5258   141.8520 </r>
       <r>   -29.9114     0.5949   142.0000 </r>
       <r>   -29.6626     0.0000   142.0000 </r>
       <r>   -29.4138     0.0000   142.0000 </r>
       <r>   -29.1650     0.0000   142.0000 </r>
       <r>   -28.9161     0.0000   142.0000 </r>
       <r>   -28.6673     0.0000   142.0000 </r>
       <r>   -28.4185     0.0000   142.0000 </r>
       <r>   -28.1697     0.0000   142.0000 </r>
       <r>   -27.9209     0.0000   142.0000 </r>
       <r>   -27.6721     0.0013   142.0003 </r>
       <r>   -27.4233     6.0351   143.5019 </r>
       <r>   -27.1745    38.2859   153.0279 </r>
       <r>   -26.9256    40.3751   163.0738 </r>
       <r>   -26.6768    34.6940   171.7060 </r>
       <r>   -26.4280    21.8545   177.1437 </r>
       <r>   -26.1792     3.4415   178.0000 </r>
       <r>   -25.9304     2.4169   178.6014 </r>
       <r>   -25.6816    39.9643   188.5450 </r>
       <r>   -25.4328    41.9367   198.9793 </r>
       <r>   -25.1840    57.9031   213.3863 </r>
       <r>   -24.9352    25.8294   219.8130 </r>
       <r>   -24.6863     0.7515   220.0000 </r>
       <r>   -24.4375     0.0000   220.0000 </r>
       <r>   -24.1887     0.0000   220.0000 </r>
       <r>   -23.9399     0.0000   220.0000 </r>
       <r>   -23.6911     0.0000   220.0000 </r>
       <r>   -23.4423     0.0000   220.0000 </r>
       <r>   -23.1935     0.0000   220.0000 </r>
       <r>   -22.9447     0.0000   220.0000 </r>
       <r>   -22.6958     0.0000   220.0000 </r>
       <r>   -22.4470     0.0000   220.0000 </r>
       <r>   -22.1982     0.0000   220.0000 </r>
       <r>   -21.9494     0.0000   220.0000 </r>
       <r>   -21.7006     0.0000   220.0000 </r>
       <r>   -21.4518     0.0000   220.0000 </r>
       <r>   -21.2030     0.0000   220.0000 </r>
       <r>   -20.9542     0.0000   220.0000 </r>
       <r>   -20.7053     0.0000   220.0000 </r>
       <r>   -20.4565     0.0000   220.0000 </r>
       <r>   -20.2077     0.0000   220.0000 </r>
       <r>   -19.9589     0.0000   220.0000 </r>
       <r>   -19.7101     0.0000   220.0000 </r>
       <r>   -19.4613     0.0000   220.0000 </r>
       <r>   -19.2125     0.0000   220.0000 </r>
       <r>   -18.9637     0.0000   220.0000 </r>
       <r>   -18.7148     0.0000   220.0000 </r>
       <r>   -18.4660     0.0000   220.0000 </r>
       <r>   -18.2172     0.0000   220.0000 </r>
       <r>   -17.9684     0.0000   220.0000 </r>
       <r>   -17.7196     0.0000   220.0000 </r>
       <r>   -17.4708     0.0000   220.0000 </r>
       <r>   -17.2220     0.0000   220.0000 </r>
       <r>   -16.9732     0.0000   220.0000 </r>
       <r>   -16.7243     0.0000   220.0000 </r>
       <r>   -16.4755     0.0000   220.0000 </r>
       <r>   -16.2267     0.0000   220.0000 </r>
       <r>   -15.9779     0.0000   220.0000 </r>
       <r>   -15.7291     0.0000   220.0000 </r>
       <r>   -15.4803     0.0000   220.0000 </r>
       <r>   -15.2315     0.0000   220.0000 </r>
       <r>   -14.9827     0.0000   220.0000 </r>
       <r>   -14.7338     0.0000   220.0000 </r>
       <r>   -14.4850     0.0000   220.0000 </r>
       <r>   -14.2362     0.0000   220.0000 </r>
       <r>   -13.9874     0.0000   220.0000 </r>
       <r>   -13.7386     0.0000   220.0000 </r>
       <r>   -13.4898     0.0000   220.0000 </r>
       <r>   -13.2410     0.0000   220.0000 </r>
       <r>   -12.9922     0.0000   220.0000 </r>
       <r>   -12.7434     0.0000   220.0000 </r>
       <r>   -12.4945     0.0000   220.0000 </r>
       <r>   -12.2457     0.0000   220.0000 </r>
       <r>   -11.9969     0.0000   220.0000 </r>
       <r>   -11.7481     0.0000   220.0000 </r>
       <r>   -11.4993     0.0000   220.0000 </r>
       <r>   -11.2505     0.0000   220.0000 </r>
       <r>   -11.0017     0.0000   220.0000 </r>
       <r>   -10.7529     0.0000   220.0000 </r>
       <r>   -10.5040     0.0000   220.0000 </r>
       <r>   -10.2552     0.0000   220.0000 </r>
       <r>   -10.0064     0.0000   220.0000 </r>
       <r>    -9.7576     0.0000   220.0000 </r>
       <r>    -9.5088     0.0000   220.0000 </r>
       <r>    -9.2600     0.0000   220.0000 </r>
       <r>    -9.0112     0.0000   220.0000 </r>
       <r>    -8.7624     0.0000   220.0000 </r>
       <r>    -8.5135     0.0008   220.0002 </r>
       <r>    -8.2647     0.8724   220.2173 </r>
       <r>    -8.0159     6.3817   221.8051 </r>
       <r>    -7.7671     5.9878   223.2950 </r>
       <r>    -7.5183     8.2504   225.3478 </r>
       <r>    -7.2695    11.7357   228.2678 </r>
       <r>    -7.0207    17.6170   232.6511 </r>
       <r>    -6.7719    22.1112   238.1526 </r>
       <r>    -6.5230    18.4080   242.7328 </r>
       <r>    -6.2742     8.3308   244.8056 </r>
       <r>    -6.0254     4.7960   245.9989 </r>
       <r>    -5.7766     0.0045   246.0000 </r>
       <r>    -5.5278     0.0000   246.0000 </r>
       <r>    -5.2790     0.0456   246.0113 </r>
       <r>    -5.0302     3.3369   246.8416 </r>
       <r>    -4.7814     4.5041   247.9623 </r>
       <r>    -4.5325     4.0634   248.9733 </r>
       <r>    -4.2837     8.6468   251.1247 </r>
       <r>    -4.0349    10.8066   253.8136 </r>
       <r>    -3.7861    15.3891   257.6426 </r>
       <r>    -3.5373    19.8989   262.5937 </r>
       <r>    -3.2885    19.3157   267.3996 </r>
       <r>    -3.0397    18.9921   272.1251 </r>
       <r>    -2.7909    23.5199   277.9771 </r>
       <r>    -2.5421    12.5426   281.0979 </r>
       <r>    -2.2932    10.2319   283.6437 </r>
       <r>    -2.0444     1.4308   283.9997 </r>
       <r>    -1.7956     0.0011   284.0000 </r>
       <r>    -1.5468     0.0000   284.0000 </r>
       <r>    -1.2980     0.0000   284.0000 </r>
       <r>    -1.0492     0.0000   284.0000 </r>
       <r>    -0.8004     0.0000   284.0000 </r>
       <r>    -0.5516     0.0000   284.0000 </r>
       <r>    -0.3027     0.0013   284.0003 </r>
       <r>    -0.0539     0.5500   284.1372 </r>
       <r>     0.1949     1.5742   284.5289 </r>
       <r>     0.4437     9.1031   286.7938 </r>
       <r>     0.6925     7.8786   288.7541 </r>
       <r>     0.9413    13.2246   292.0446 </r>
       <r>     1.1901    19.0990   296.7966 </r>
       <r>     1.4389    28.7107   303.9402 </r>
       <r>     1.6878    26.6202   310.5636 </r>
       <r>     1.9366    27.4989   317.4057 </r>
       <r>     2.1854    30.9889   325.1161 </r>
       <r>     2.4342    30.9024   332.8050 </r>
       <r>     2.6830    39.4656   342.6245 </r>
       <r>     2.9318    48.6717   354.7346 </r>
       <r>     3.1806    55.3139   368.4974 </r>
       <r>     3.4294    58.6556   383.0916 </r>
       <r>     3.6783    56.5108   397.1522 </r>
       <r>     3.9271    57.6532   411.4970 </r>
       <r>     4.1759    56.2111   425.4830 </r>
       <r>     4.4247    46.3623   437.0186 </r>
       <r>     4.6735    36.5021   446.1007 </r>
       <r>     4.9223    32.6749   454.2307 </r>
       <r>     5.1711    30.8064   461.8957 </r>
       <r>     5.4199    23.8729   467.8355 </r>
       <r>     5.6688    16.7230   471.9964 </r>
       <r>     5.9176    11.8267   474.9390 </r>
       <r>     6.1664     6.7108   476.6088 </r>
       <r>     6.4152    12.5159   479.7229 </r>
       <r>     6.6640    20.3616   484.7891 </r>
       <r>     6.9128    18.2840   489.3384 </r>
       <r>     7.1616    18.5090   493.9436 </r>
       <r>     7.4104    20.3046   498.9957 </r>
       <r>     7.6593    22.2824   504.5398 </r>
       <r>     7.9081    30.4404   512.1138 </r>
       <r>     8.1569    27.8700   519.0482 </r>
       <r>     8.4057    28.1244   526.0459 </r>
       <r>     8.6545    34.5367   534.6390 </r>
       <r>     8.9033    46.7580   546.2730 </r>
       <r>     9.1521    56.3069   560.2828 </r>
       <r>     9.4009    58.6328   574.8714 </r>
       <r>     9.6497    58.5175   589.4312 </r>
       <r>     9.8986    53.9065   602.8438 </r>
       <r>    10.1474    59.2137   617.5769 </r>
       <r>    10.3962    60.1647   632.5467 </r>
       <r>    10.6450    56.4985   646.6042 </r>
       <r>    10.8938    50.6469   659.2057 </r>
       <r>    11.1426    42.1312   669.6885 </r>
       <r>    11.3914     9.2612   671.9928 </r>
       <r>    11.6402     0.0290   672.0000 </r>
       <r>    11.8891     0.0000   672.0000 </r>
       <r>    12.1379     0.0000   672.0000 </r>
       <r>    12.3867     0.0000   672.0000 </r>
       <r>    12.6355     0.0000   672.0000 </r>
       <r>    12.8843     0.0000   672.0000 </r>
       <r>    13.1331     0.0000   672.0000 </r>
       <r>    13.3819     0.0000   672.0000 </r>
       <r>    13.6307     0.0000   672.0000 </r>
       <r>    13.8796     0.0000   672.0000 </r>
       <r>    14.1284     0.0000   672.0000 </r>
       <r>    14.3772     0.0000   672.0000 </r>
       <r>    14.6260     0.0000   672.0000 </r>
      </set>
     </set>
    </array>
   </total>
  </dos>
 </calculation>
 <structure name="finalpos" >
  <crystal>
   <varray name="basis" >
    <v>       8.57785355      -0.00821858      -0.00216925 </v>
    <v>      -0.00242897       8.57638073       0.01554515 </v>
    <v>       0.02863962       0.00040679       8.62634450 </v>
   </varray>
   <i name="volume">    634.61405245 </i>
   <varray name="rec_basis" >
    <v>       0.11657922       0.00003372      -0.00038705 </v>
    <v>       0.00011171       0.11659934      -0.00000587 </v>
    <v>       0.00002911      -0.00021011       0.11592387 </v>
   </varray>
  </crystal>
  <varray name="positions" >
   <v>       0.01377264       0.98512887       0.02140640 </v>
   <v>       0.23933453       0.98583625       0.24502933 </v>
   <v>       0.26767191       0.51205213       0.24551098 </v>
   <v>       0.49617181       0.47900934      -0.00358009 </v>
   <v>       0.48260730       0.23844171       0.75914912 </v>
   <v>       0.00553714       0.49579025       0.52364760 </v>
   <v>       0.50293305       0.75720875       0.73374310 </v>
   <v>       0.00472027       0.25734553       0.24823516 </v>
   <v>       0.73946982       0.75144215       0.00049248 </v>
   <v>       0.00886716       0.24091557       0.75239316 </v>
   <v>       0.74733418       0.25042519       0.50739282 </v>
   <v>       0.00330060       0.75807274       0.74965049 </v>
   <v>       0.25545597       0.50210121       0.75323607 </v>
   <v>       0.25100518       0.24449542      -0.00039235 </v>
   <v>       0.49122797       0.23946773       0.24302855 </v>
   <v>       0.73790089       0.99316643       0.24865589 </v>
   <v>       0.74603809       0.24614677       0.99491350 </v>
   <v>       0.26415591       0.75460116       0.00052654 </v>
   <v>       0.25208322       0.25045876       0.49952796 </v>
   <v>       0.25180119       0.75129557       0.49681730 </v>
   <v>       0.25064485       0.25105900       0.24801098 </v>
   <v>       0.25345453       0.00026129      -0.00230793 </v>
   <v>      -0.00003862       0.24403705       0.00111391 </v>
   <v>       0.74496887       0.24538634       0.24878409 </v>
   <v>       0.75320082       0.00170276       0.00319236 </v>
   <v>       0.49844085       0.00160454       0.23337837 </v>
   <v>       0.99867863       0.50067834       0.24515012 </v>
   <v>       0.50070060       0.75493898      -0.00498382 </v>
   <v>       0.00361003       0.00123868       0.75174703 </v>
   <v>       0.74663668       0.24030057       0.75132422 </v>
   <v>       0.75141948       0.00217728       0.49630968 </v>
   <v>       0.49924102       0.24641028       0.49986935 </v>
   <v>       0.50106319       0.00088390       0.75271779 </v>
   <v>      -0.00368633       0.00270005       0.24691666 </v>
   <v>       0.49840446       0.24879022      -0.00351420 </v>
   <v>       0.26202158       0.75113161       0.24811755 </v>
   <v>       0.24905544       0.50049823       0.00579867 </v>
   <v>       0.00638383       0.75001145       0.00140497 </v>
   <v>       0.74469226       0.74966996       0.24903975 </v>
   <v>       0.75540134       0.49590572       0.00239514 </v>
   <v>       0.49126314       0.49905720       0.24234714 </v>
   <v>       0.25483210       0.24475678       0.75079488 </v>
   <v>       0.25460661       0.00095378       0.49651783 </v>
   <v>       0.00294202       0.25407253       0.50020974 </v>
   <v>       0.25836455       0.75864397       0.74880239 </v>
   <v>       0.24686523       0.50111773       0.49364147 </v>
   <v>       0.00217688       0.74803710       0.49794239 </v>
   <v>       0.99971254       0.50048929       0.75290243 </v>
   <v>       0.74514476       0.76221884       0.74527080 </v>
   <v>       0.75692134       0.49725588       0.49819111 </v>
   <v>       0.49883755       0.76908514       0.49437698 </v>
   <v>       0.50336822       0.49790845       0.75091012 </v>
   <v>       0.50931578       0.02108306      -0.00210041 </v>
   <v>       0.00935822       0.52116458       0.97618490 </v>
   <v>       0.49718160       0.73212499       0.27151597 </v>
   <v>       0.26134499       0.00341078       0.74344543 </v>
   <v>       0.47147134      -0.00383526       0.53060034 </v>
   <v>       0.71916720       0.98547042       0.78422334 </v>
   <v>       0.00912856       0.75595925       0.24953622 </v>
   <v>       0.72718739       0.50429367       0.24508633 </v>
   <v>       0.01425770       0.00462333       0.48461256 </v>
   <v>       0.49753670       0.51077162       0.49666913 </v>
   <v>       0.74476177       0.51066216       0.75707004 </v>
   <v>       0.74857185       0.73788670       0.49740030 </v>
  </varray>
 </structure>
</modeling>
