  64  64   0   0
  0.1063425E+02  0.8778487E-09  0.8816070E-09  0.8794200E-09  0.5000000E-15
  1.000000000000000E-004
  CAR 
 HECN                                    
     13.02890738    -60.93934587  301      7.31519352      1.00000000
    -60.939  0.0000E+00  0.0000E+00
    -60.693  0.0000E+00  0.0000E+00
    -60.446  0.0000E+00  0.0000E+00
    -60.200  0.0000E+00  0.0000E+00
    -59.953  0.0000E+00  0.0000E+00
    -59.707  0.0000E+00  0.0000E+00
    -59.460  0.0000E+00  0.0000E+00
    -59.213  0.0000E+00  0.0000E+00
    -58.967  0.0000E+00  0.0000E+00
    -58.720  0.0000E+00  0.0000E+00
    -58.474  0.0000E+00  0.0000E+00
    -58.227  0.0000E+00  0.0000E+00
    -57.981  0.7359E-09  0.1814E-09
    -57.734  0.2310E-02  0.5696E-03
    -57.487  0.3029E+00  0.7525E-01
    -57.241  0.1811E+00  0.1199E+00
    -56.994  0.4081E-03  0.1200E+00
    -56.748  0.2774E-10  0.1200E+00
    -56.501  0.0000E+00  0.1200E+00
    -56.255  0.0000E+00  0.1200E+00
    -56.008  0.0000E+00  0.1200E+00
    -55.762  0.0000E+00  0.1200E+00
    -55.515  0.0000E+00  0.1200E+00
    -55.268  0.0000E+00  0.1200E+00
    -55.022  0.0000E+00  0.1200E+00
    -54.775  0.0000E+00  0.1200E+00
    -54.529  0.0000E+00  0.1200E+00
    -54.282  0.0000E+00  0.1200E+00
    -54.036  0.0000E+00  0.1200E+00
    -53.789  0.0000E+00  0.1200E+00
    -53.543  0.0000E+00  0.1200E+00
    -53.296  0.0000E+00  0.1200E+00
    -53.049  0.0000E+00  0.1200E+00
    -52.803  0.0000E+00  0.1200E+00
    -52.556  0.0000E+00  0.1200E+00
    -52.310  0.0000E+00  0.1200E+00
    -52.063  0.0000E+00  0.1200E+00
    -51.817  0.0000E+00  0.1200E+00
    -51.570  0.0000E+00  0.1200E+00
    -51.323  0.0000E+00  0.1200E+00
    -51.077  0.0000E+00  0.1200E+00
    -50.830  0.0000E+00  0.1200E+00
    -50.584  0.3033E-08  0.1200E+00
    -50.337  0.3521E-02  0.1209E+00
    -50.091  0.2251E+00  0.1764E+00
    -49.844  0.2168E+00  0.2298E+00
    -49.598  0.1099E+00  0.2569E+00
    -49.351  0.1248E-01  0.2600E+00
    -49.104  0.2661E-06  0.2600E+00
    -48.858  0.0000E+00  0.2600E+00
    -48.611  0.0000E+00  0.2600E+00
    -48.365  0.0000E+00  0.2600E+00
    -48.118  0.0000E+00  0.2600E+00
    -47.872  0.0000E+00  0.2600E+00
    -47.625  0.0000E+00  0.2600E+00
    -47.378  0.0000E+00  0.2600E+00
    -47.132  0.0000E+00  0.2600E+00
    -46.885  0.0000E+00  0.2600E+00
    -46.639  0.0000E+00  0.2600E+00
    -46.392  0.0000E+00  0.2600E+00
    -46.146  0.0000E+00  0.2600E+00
    -45.899  0.0000E+00  0.2600E+00
    -45.653  0.0000E+00  0.2600E+00
    -45.406  0.0000E+00  0.2600E+00
    -45.159  0.0000E+00  0.2600E+00
    -44.913  0.0000E+00  0.2600E+00
    -44.666  0.0000E+00  0.2600E+00
    -44.420  0.0000E+00  0.2600E+00
    -44.173  0.0000E+00  0.2600E+00
    -43.927  0.0000E+00  0.2600E+00
    -43.680  0.0000E+00  0.2600E+00
    -43.434  0.0000E+00  0.2600E+00
    -43.187  0.0000E+00  0.2600E+00
    -42.940  0.0000E+00  0.2600E+00
    -42.694  0.0000E+00  0.2600E+00
    -42.447  0.0000E+00  0.2600E+00
    -42.201  0.0000E+00  0.2600E+00
    -41.954  0.2396E-07  0.2600E+00
    -41.708  0.5343E-02  0.2613E+00
    -41.461  0.8456E-01  0.2822E+00
    -41.214  0.8458E-01  0.3030E+00
    -40.968  0.3216E+00  0.3823E+00
    -40.721  0.7171E-01  0.4000E+00
    -40.475  0.9185E-05  0.4000E+00
    -40.228  0.1660E-13  0.4000E+00
    -39.982  0.0000E+00  0.4000E+00
    -39.735  0.0000E+00  0.4000E+00
    -39.489  0.0000E+00  0.4000E+00
    -39.242  0.0000E+00  0.4000E+00
    -38.995  0.0000E+00  0.4000E+00
    -38.749  0.0000E+00  0.4000E+00
    -38.502  0.0000E+00  0.4000E+00
    -38.256  0.0000E+00  0.4000E+00
    -38.009  0.0000E+00  0.4000E+00
    -37.763  0.0000E+00  0.4000E+00
    -37.516  0.0000E+00  0.4000E+00
    -37.270  0.0000E+00  0.4000E+00
    -37.023  0.8155E-12  0.4000E+00
    -36.776  0.5231E-04  0.4000E+00
    -36.530  0.5757E-01  0.4142E+00
    -36.283  0.6833E+00  0.5827E+00
    -36.037  0.7064E+00  0.7568E+00
    -35.790  0.1278E-01  0.7600E+00
    -35.544  0.8106E-07  0.7600E+00
    -35.297  0.0000E+00  0.7600E+00
    -35.050  0.0000E+00  0.7600E+00
    -34.804  0.0000E+00  0.7600E+00
    -34.557  0.0000E+00  0.7600E+00
    -34.311  0.0000E+00  0.7600E+00
    -34.064  0.0000E+00  0.7600E+00
    -33.818  0.0000E+00  0.7600E+00
    -33.571  0.0000E+00  0.7600E+00
    -33.325  0.0000E+00  0.7600E+00
    -33.078  0.0000E+00  0.7600E+00
    -32.831  0.0000E+00  0.7600E+00
    -32.585  0.0000E+00  0.7600E+00
    -32.338  0.0000E+00  0.7600E+00
    -32.092  0.1582E-11  0.7600E+00
    -31.845  0.9702E-04  0.7600E+00
    -31.599  0.1863E+00  0.8060E+00
    -31.352  0.1005E+01  0.1054E+01
    -31.105  0.2680E+00  0.1120E+01
    -30.859  0.6642E-03  0.1120E+01
    -30.612  0.9841E-10  0.1120E+01
    -30.366  0.0000E+00  0.1120E+01
    -30.119  0.0000E+00  0.1120E+01
    -29.873  0.0000E+00  0.1120E+01
    -29.626  0.0000E+00  0.1120E+01
    -29.380  0.0000E+00  0.1120E+01
    -29.133  0.0000E+00  0.1120E+01
    -28.886  0.0000E+00  0.1120E+01
    -28.640  0.0000E+00  0.1120E+01
    -28.393  0.0000E+00  0.1120E+01
    -28.147  0.0000E+00  0.1120E+01
    -27.900  0.0000E+00  0.1120E+01
    -27.654  0.0000E+00  0.1120E+01
    -27.407  0.0000E+00  0.1120E+01
    -27.161  0.2872E-13  0.1120E+01
    -26.914  0.1032E-04  0.1120E+01
    -26.667  0.7897E-01  0.1139E+01
    -26.421  0.6876E+00  0.1309E+01
    -26.174  0.6365E+00  0.1466E+01
    -25.928  0.2902E+00  0.1538E+01
    -25.681  0.1013E-01  0.1540E+01
    -25.435  0.3600E-07  0.1540E+01
    -25.188  0.0000E+00  0.1540E+01
    -24.941  0.0000E+00  0.1540E+01
    -24.695  0.0000E+00  0.1540E+01
    -24.448  0.0000E+00  0.1540E+01
    -24.202  0.0000E+00  0.1540E+01
    -23.955  0.9395E-09  0.1540E+01
    -23.709  0.1469E-02  0.1540E+01
    -23.462  0.1483E+00  0.1577E+01
    -23.216  0.2956E+00  0.1650E+01
    -22.969  0.3038E+00  0.1725E+01
    -22.722  0.3287E+00  0.1806E+01
    -22.476  0.3115E+00  0.1883E+01
    -22.229  0.7081E-01  0.1900E+01
    -21.983  0.1638E-04  0.1900E+01
    -21.736  0.7557E-13  0.1900E+01
    -21.490  0.0000E+00  0.1900E+01
    -21.243  0.0000E+00  0.1900E+01
    -20.996  0.0000E+00  0.1900E+01
    -20.750  0.0000E+00  0.1900E+01
    -20.503  0.1819E-11  0.1900E+01
    -20.257  0.7848E-04  0.1900E+01
    -20.010  0.6209E-01  0.1915E+01
    -19.764  0.2456E+00  0.1976E+01
    -19.517  0.4817E+00  0.2095E+01
    -19.271  0.7005E+00  0.2267E+01
    -19.024  0.2001E+00  0.2317E+01
    -18.777  0.1340E-01  0.2320E+01
    -18.531  0.3257E-06  0.2320E+01
    -18.284  0.0000E+00  0.2320E+01
    -18.038  0.0000E+00  0.2320E+01
    -17.791  0.0000E+00  0.2320E+01
    -17.545  0.0000E+00  0.2320E+01
    -17.298  0.0000E+00  0.2320E+01
    -17.052  0.0000E+00  0.2320E+01
    -16.805  0.0000E+00  0.2320E+01
    -16.558  0.0000E+00  0.2320E+01
    -16.312  0.0000E+00  0.2320E+01
    -16.065  0.0000E+00  0.2320E+01
    -15.819  0.0000E+00  0.2320E+01
    -15.572  0.0000E+00  0.2320E+01
    -15.326  0.0000E+00  0.2320E+01
    -15.079  0.0000E+00  0.2320E+01
    -14.832  0.0000E+00  0.2320E+01
    -14.586  0.0000E+00  0.2320E+01
    -14.339  0.0000E+00  0.2320E+01
    -14.093  0.0000E+00  0.2320E+01
    -13.846  0.0000E+00  0.2320E+01
    -13.600  0.0000E+00  0.2320E+01
    -13.353  0.0000E+00  0.2320E+01
    -13.107  0.0000E+00  0.2320E+01
    -12.860  0.0000E+00  0.2320E+01
    -12.613  0.0000E+00  0.2320E+01
    -12.367  0.0000E+00  0.2320E+01
    -12.120  0.0000E+00  0.2320E+01
    -11.874  0.0000E+00  0.2320E+01
    -11.627  0.0000E+00  0.2320E+01
    -11.381  0.0000E+00  0.2320E+01
    -11.134  0.0000E+00  0.2320E+01
    -10.887  0.0000E+00  0.2320E+01
    -10.641  0.0000E+00  0.2320E+01
    -10.394  0.0000E+00  0.2320E+01
    -10.148  0.0000E+00  0.2320E+01
     -9.901  0.0000E+00  0.2320E+01
     -9.655  0.0000E+00  0.2320E+01
     -9.408  0.0000E+00  0.2320E+01
     -9.162  0.5003E-18  0.2320E+01
     -8.915  0.5208E-08  0.2320E+01
     -8.668  0.8982E-03  0.2320E+01
     -8.422  0.5723E-01  0.2334E+01
     -8.175  0.4340E-01  0.2345E+01
     -7.929  0.8032E-01  0.2365E+01
     -7.682  0.1345E+00  0.2398E+01
     -7.436  0.1422E+00  0.2433E+01
     -7.189  0.3004E+00  0.2507E+01
     -6.943  0.2268E+00  0.2563E+01
     -6.696  0.6852E-01  0.2580E+01
     -6.449  0.2911E-03  0.2580E+01
     -6.203  0.3170E-10  0.2580E+01
     -5.956  0.0000E+00  0.2580E+01
     -5.710  0.0000E+00  0.2580E+01
     -5.463  0.5070E-16  0.2580E+01
     -5.217  0.8618E-07  0.2580E+01
     -4.970  0.1930E-02  0.2580E+01
     -4.723  0.4470E-01  0.2591E+01
     -4.477  0.4236E-01  0.2602E+01
     -4.230  0.8280E-01  0.2622E+01
     -3.984  0.8407E-01  0.2643E+01
     -3.737  0.1186E+00  0.2672E+01
     -3.491  0.1946E+00  0.2720E+01
     -3.244  0.3006E+00  0.2794E+01
     -2.998  0.2651E+00  0.2860E+01
     -2.751  0.2376E+00  0.2918E+01
     -2.504  0.1215E+00  0.2948E+01
     -2.258  0.4084E-01  0.2958E+01
     -2.011  0.6532E-02  0.2960E+01
     -1.765  0.3544E-05  0.2960E+01
     -1.518  0.8301E-13  0.2960E+01
     -1.272  0.0000E+00  0.2960E+01
     -1.025  0.0000E+00  0.2960E+01
     -0.778  0.0000E+00  0.2960E+01
     -0.532  0.2668E-16  0.2960E+01
     -0.285  0.4408E-07  0.2960E+01
     -0.039  0.8588E-03  0.2960E+01
      0.208  0.1457E-01  0.2964E+01
      0.454  0.8290E-01  0.2984E+01
      0.701  0.1102E+00  0.3011E+01
      0.947  0.1022E+00  0.3037E+01
      1.194  0.2019E+00  0.3086E+01
      1.441  0.2782E+00  0.3155E+01
      1.687  0.3146E+00  0.3233E+01
      1.934  0.3152E+00  0.3310E+01
      2.180  0.3754E+00  0.3403E+01
      2.427  0.3381E+00  0.3486E+01
      2.673  0.3928E+00  0.3583E+01
      2.920  0.5098E+00  0.3709E+01
      3.166  0.5572E+00  0.3846E+01
      3.413  0.5842E+00  0.3990E+01
      3.660  0.6148E+00  0.4142E+01
      3.906  0.6054E+00  0.4291E+01
      4.153  0.5960E+00  0.4438E+01
      4.399  0.4497E+00  0.4549E+01
      4.646  0.3484E+00  0.4635E+01
      4.892  0.3175E+00  0.4713E+01
      5.139  0.2795E+00  0.4782E+01
      5.386  0.1895E+00  0.4829E+01
      5.632  0.1453E+00  0.4865E+01
      5.879  0.8933E-01  0.4887E+01
      6.125  0.1469E+00  0.4923E+01
      6.372  0.1569E+00  0.4961E+01
      6.618  0.2427E+00  0.5021E+01
      6.865  0.2206E+00  0.5076E+01
      7.111  0.2182E+00  0.5130E+01
      7.358  0.3027E+00  0.5204E+01
      7.605  0.3456E+00  0.5289E+01
      7.851  0.3780E+00  0.5383E+01
      8.098  0.4731E+00  0.5499E+01
      8.344  0.5303E+00  0.5630E+01
      8.591  0.4966E+00  0.5752E+01
      8.837  0.4654E+00  0.5867E+01
      9.084  0.4753E+00  0.5984E+01
      9.330  0.5010E+00  0.6108E+01
      9.577  0.4236E+00  0.6212E+01
      9.824  0.1119E+00  0.6240E+01
     10.070  0.4122E-03  0.6240E+01
     10.317  0.1190E-09  0.6240E+01
     10.563  0.0000E+00  0.6240E+01
     10.810  0.0000E+00  0.6240E+01
     11.056  0.0000E+00  0.6240E+01
     11.303  0.0000E+00  0.6240E+01
     11.550  0.0000E+00  0.6240E+01
     11.796  0.0000E+00  0.6240E+01
     12.043  0.0000E+00  0.6240E+01
     12.289  0.0000E+00  0.6240E+01
     12.536  0.0000E+00  0.6240E+01
     12.782  0.0000E+00  0.6240E+01
     13.029  0.0000E+00  0.6240E+01
