       N       E                     dE             d eps       ncg     rms          rms(c)
DAV:   1     0.697994073519E+04    0.69799E+04   -0.21620E+05  8784   0.160E+03
DAV:   2     0.504173825850E+03   -0.64758E+04   -0.63063E+04  8736   0.618E+02
DAV:   3    -0.618416537392E+03   -0.11226E+04   -0.10518E+04 12816   0.211E+02
DAV:   4    -0.779617664185E+03   -0.16120E+03   -0.15747E+03 16176   0.981E+01
DAV:   5    -0.792738767977E+03   -0.13121E+02   -0.12908E+02 17040   0.258E+01    0.825E+01
RMM:   6    -0.886289002861E+03   -0.93550E+02   -0.29488E+03 12122   0.142E+02    0.116E+02
RMM:   7    -0.647684288120E+03    0.23860E+03   -0.29713E+02 13692   0.494E+01    0.551E+01
RMM:   8    -0.635922935804E+03    0.11761E+02   -0.82068E+01 13905   0.202E+01    0.308E+01
RMM:   9    -0.624040999466E+03    0.11882E+02   -0.22048E+01 14197   0.125E+01    0.165E+01
RMM:  10    -0.624655204304E+03   -0.61420E+00   -0.97037E+00 14367   0.728E+00    0.187E+01
RMM:  11    -0.623215772198E+03    0.14394E+01   -0.66246E+00 14040   0.568E+00    0.120E+01
RMM:  12    -0.623081943777E+03    0.13383E+00   -0.35782E+00 13737   0.457E+00    0.115E+01
RMM:  13    -0.622894797520E+03    0.18715E+00   -0.30534E+00 14343   0.381E+00    0.889E+00
RMM:  14    -0.622821068019E+03    0.73730E-01   -0.21895E+00 14099   0.367E+00    0.767E+00
RMM:  15    -0.622803497989E+03    0.17570E-01   -0.11302E+00 13589   0.287E+00    0.635E+00
RMM:  16    -0.622703131676E+03    0.10037E+00   -0.66980E-01 13970   0.204E+00    0.485E+00
RMM:  17    -0.622640253220E+03    0.62878E-01   -0.40296E-01 13818   0.159E+00    0.348E+00
RMM:  18    -0.622616849743E+03    0.23403E-01   -0.40371E-01 14249   0.117E+00    0.221E+00
RMM:  19    -0.622600413275E+03    0.16436E-01   -0.32355E-01 14022   0.993E-01    0.112E+00
RMM:  20    -0.622617026261E+03   -0.16613E-01   -0.12499E-01 14081   0.816E-01    0.196E+00
RMM:  21    -0.622609223318E+03    0.78029E-02   -0.71674E-02 14195   0.514E-01    0.108E+00
RMM:  22    -0.622603664491E+03    0.55588E-02   -0.44927E-02 14125   0.368E-01    0.776E-01
RMM:  23    -0.622597638884E+03    0.60256E-02   -0.65366E-02 14258   0.402E-01    0.248E-01
RMM:  24    -0.622598288408E+03   -0.64952E-03   -0.18105E-02 13567   0.364E-01    0.166E-01
RMM:  25    -0.622598764531E+03   -0.47612E-03   -0.10607E-02 13324   0.141E-01    0.131E-01
RMM:  26    -0.622598687160E+03    0.77370E-04   -0.60786E-03 13426   0.138E-01    0.885E-02
RMM:  27    -0.622598923457E+03   -0.23630E-03   -0.31548E-03 12684   0.985E-02    0.907E-02
RMM:  28    -0.622598998838E+03   -0.75381E-04   -0.16550E-03 11438   0.642E-02    0.658E-02
RMM:  29    -0.622599014250E+03   -0.15413E-04   -0.11318E-03 11479   0.523E-02    0.275E-02
RMM:  30    -0.622599079333E+03   -0.65083E-04   -0.84783E-04 11186   0.433E-02    0.187E-02
RMM:  31    -0.622599107154E+03   -0.27821E-04   -0.40753E-04 10860   0.366E-02    0.157E-02
RMM:  32    -0.622599119957E+03   -0.12803E-04   -0.26667E-04 10088   0.248E-02    0.475E-03
RMM:  33    -0.622599137401E+03   -0.17444E-04   -0.20331E-04 10267   0.228E-02    0.519E-03
RMM:  34    -0.622599145852E+03   -0.84516E-05   -0.10653E-04  8898   0.177E-02    0.247E-03
RMM:  35    -0.622599151633E+03   -0.57804E-05   -0.70835E-05  8687   0.155E-02
   1 F= -.62259915E+03 E0= -.62251724E+03  d E =-.622599E+03
       N       E                     dE             d eps       ncg     rms          rms(c)
DAV:   1    -0.622850018319E+03   -0.25087E+00   -0.54978E+00 12432   0.946E+00    0.433E+00
RMM:   2    -0.623785834348E+03   -0.93582E+00   -0.33882E+00 10966   0.687E+00    0.123E+01
RMM:   3    -0.623070766679E+03    0.71507E+00   -0.10186E+00 11175   0.432E+00    0.861E+00
RMM:   4    -0.622708522911E+03    0.36224E+00   -0.31194E-01 11806   0.208E+00    0.422E+00
RMM:   5    -0.622650209157E+03    0.58314E-01   -0.13747E-01 12253   0.127E+00    0.282E+00
RMM:   6    -0.622625735727E+03    0.24473E-01   -0.68514E-02 12379   0.857E-01    0.238E+00
RMM:   7    -0.622605404249E+03    0.20331E-01   -0.32008E-02 11708   0.637E-01    0.160E+00
RMM:   8    -0.622600316692E+03    0.50876E-02   -0.32696E-02 12763   0.514E-01    0.111E+00
RMM:   9    -0.622597705036E+03    0.26117E-02   -0.15214E-02 11911   0.422E-01    0.110E+00
RMM:  10    -0.622591564943E+03    0.61401E-02   -0.72662E-03 12322   0.302E-01    0.357E-01
RMM:  11    -0.622592561367E+03   -0.99642E-03   -0.38342E-03 12925   0.168E-01    0.562E-01
RMM:  12    -0.622591175567E+03    0.13858E-02   -0.15808E-03 11394   0.133E-01    0.185E-01
RMM:  13    -0.622591162039E+03    0.13527E-04   -0.10840E-03 12402   0.749E-02    0.163E-01
RMM:  14    -0.622591178051E+03   -0.16011E-04   -0.53387E-04 11646   0.626E-02    0.137E-01
RMM:  15    -0.622591157093E+03    0.20958E-04   -0.36240E-04 11833   0.445E-02    0.690E-02
RMM:  16    -0.622591266644E+03   -0.10955E-03   -0.35969E-04 12177   0.434E-02    0.594E-02
RMM:  17    -0.622591311141E+03   -0.44498E-04   -0.27079E-04 11546   0.383E-02    0.422E-02
RMM:  18    -0.622591344060E+03   -0.32918E-04   -0.20040E-04 11198   0.296E-02    0.183E-02
RMM:  19    -0.622591356334E+03   -0.12275E-04   -0.11750E-04 10349   0.246E-02    0.185E-02
RMM:  20    -0.622591361810E+03   -0.54757E-05   -0.75418E-05  9821   0.206E-02
   2 F= -.62259136E+03 E0= -.62251041E+03  d E =0.778982E-02
       N       E                     dE             d eps       ncg     rms          rms(c)
DAV:   1    -0.622710132901E+03   -0.11878E+00   -0.22310E+00 12192   0.600E+00    0.284E+00
RMM:   2    -0.623127188330E+03   -0.41706E+00   -0.13560E+00 11342   0.424E+00    0.798E+00
RMM:   3    -0.622793423773E+03    0.33376E+00   -0.47230E-01 11066   0.295E+00    0.560E+00
RMM:   4    -0.622676510006E+03    0.11691E+00   -0.13795E-01 11730   0.135E+00    0.355E+00
RMM:   5    -0.622624137557E+03    0.52372E-01   -0.61558E-02 12153   0.881E-01    0.149E+00
RMM:   6    -0.622617344542E+03    0.67930E-02   -0.28690E-02 12435   0.534E-01    0.153E+00
RMM:   7    -0.622608957973E+03    0.83866E-02   -0.13303E-02 11780   0.430E-01    0.972E-01
RMM:   8    -0.622608927590E+03    0.30383E-04   -0.14713E-02 12693   0.329E-01    0.921E-01
RMM:   9    -0.622606247041E+03    0.26805E-02   -0.66383E-03 11612   0.294E-01    0.728E-01
RMM:  10    -0.622603620940E+03    0.26261E-02   -0.36617E-03 12254   0.202E-01    0.261E-01
RMM:  11    -0.622603986383E+03   -0.36544E-03   -0.17143E-03 11821   0.126E-01    0.382E-01
RMM:  12    -0.622603228389E+03    0.75799E-03   -0.75094E-04 10844   0.955E-02    0.952E-02
RMM:  13    -0.622603235532E+03   -0.71426E-05   -0.53369E-04 11930   0.487E-02    0.101E-01
RMM:  14    -0.622603232885E+03    0.26470E-05   -0.21214E-04 10667   0.425E-02    0.101E-01
RMM:  15    -0.622603204474E+03    0.28410E-04   -0.14586E-04 10575   0.299E-02    0.463E-02
RMM:  16    -0.622603218234E+03   -0.13760E-04   -0.13126E-04 10821   0.281E-02    0.353E-02
RMM:  17    -0.622603228484E+03   -0.10250E-04   -0.10390E-04 10393   0.258E-02    0.294E-02
RMM:  18    -0.622603232979E+03   -0.44952E-05   -0.92608E-05 10528   0.221E-02
   3 F= -.62260323E+03 E0= -.62252167E+03  d E =-.408135E-02
       N       E                     dE             d eps       ncg     rms          rms(c)
DAV:   1    -0.622603267675E+03   -0.39191E-04   -0.71442E-04 12600   0.108E-01    0.545E-02
RMM:   2    -0.622603447131E+03   -0.17946E-03   -0.57107E-04  8606   0.849E-02    0.167E-01
RMM:   3    -0.622603320037E+03    0.12709E-03   -0.18121E-04  7455   0.615E-02    0.126E-01
RMM:   4    -0.622603255436E+03    0.64601E-04   -0.53993E-05  6457   0.304E-02    0.620E-02
RMM:   5    -0.622603239231E+03    0.16205E-04   -0.20430E-05  5365   0.240E-02    0.292E-02
RMM:   6    -0.622603237154E+03    0.20774E-05   -0.10204E-05  4909   0.152E-02
   4 F= -.62260324E+03 E0= -.62252164E+03  d E =-.408552E-02
       N       E                     dE             d eps       ncg     rms          rms(c)
DAV:   1    -0.622603238634E+03    0.59684E-06   -0.82778E-05 10128   0.377E-02    0.196E-02
RMM:   2    -0.622603338490E+03   -0.99856E-04   -0.85623E-05  7122   0.324E-02    0.148E-01
RMM:   3    -0.622603240469E+03    0.98021E-04   -0.30983E-05  5558   0.266E-02    0.219E-02
RMM:   4    -0.622603237201E+03    0.32686E-05   -0.64305E-06  4555   0.981E-03
   5 F= -.62260324E+03 E0= -.62252167E+03  d E =-.408557E-02
       N       E                     dE             d eps       ncg     rms          rms(c)
DAV:   1    -0.622603246578E+03   -0.61086E-05   -0.13772E-04 11328   0.499E-02    0.262E-02
RMM:   2    -0.622603332776E+03   -0.86199E-04   -0.12424E-04  7606   0.393E-02    0.131E-01
RMM:   3    -0.622603256599E+03    0.76177E-04   -0.39537E-05  5961   0.309E-02    0.540E-02
RMM:   4    -0.622603242713E+03    0.13886E-04   -0.12795E-05  5282   0.174E-02    0.268E-02
RMM:   5    -0.622603239644E+03    0.30691E-05   -0.50459E-06  4479   0.124E-02
   6 F= -.62260324E+03 E0= -.62252169E+03  d E =-.408801E-02
       N       E                     dE             d eps       ncg     rms          rms(c)
DAV:   1    -0.622603242979E+03   -0.26591E-06   -0.46742E-05  7680   0.302E-02    0.218E-02
RMM:   2    -0.622603355086E+03   -0.11211E-03   -0.86022E-05  6809   0.345E-02    0.150E-01
RMM:   3    -0.622603245642E+03    0.10944E-03   -0.34474E-05  5855   0.297E-02    0.273E-02
RMM:   4    -0.622603241710E+03    0.39318E-05   -0.58369E-06  4478   0.982E-03
   7 F= -.62260324E+03 E0= -.62252169E+03  d E =-.409008E-02
       N       E                     dE             d eps       ncg     rms          rms(c)
DAV:   1    -0.622601794413E+03    0.14512E-02   -0.78158E-02  9384   0.180E+00    0.107E-01
RMM:   2    -0.622603787822E+03   -0.19934E-02   -0.19111E-02 14204   0.382E-01    0.264E-01
RMM:   3    -0.622603694982E+03    0.92839E-04   -0.20312E-03 12230   0.168E-01    0.180E-01
RMM:   4    -0.622603635519E+03    0.59463E-04   -0.49878E-04 11774   0.822E-02    0.127E-01
RMM:   5    -0.622603603610E+03    0.31909E-04   -0.24143E-04 10514   0.512E-02    0.116E-01
RMM:   6    -0.622603538873E+03    0.64737E-04   -0.10759E-04  9851   0.371E-02    0.552E-02
RMM:   7    -0.622603553359E+03   -0.14486E-04   -0.91594E-05  9714   0.298E-02    0.794E-02
RMM:   8    -0.622603543464E+03    0.98946E-05   -0.75671E-05  9086   0.308E-02
   8 F= -.62260354E+03 E0= -.62252196E+03  d E =-.301754E-03
       N       E                     dE             d eps       ncg     rms          rms(c)
DAV:   1    -0.622600835897E+03    0.27175E-02   -0.12203E-01  9312   0.225E+00    0.136E-01
RMM:   2    -0.622604192422E+03   -0.33565E-02   -0.29956E-02 14221   0.483E-01    0.389E-01
RMM:   3    -0.622603723085E+03    0.46934E-03   -0.33306E-03 12489   0.216E-01    0.179E-01
RMM:   4    -0.622603774379E+03   -0.51294E-04   -0.89737E-04 12349   0.101E-01    0.201E-01
RMM:   5    -0.622603675600E+03    0.98779E-04   -0.41900E-04 11151   0.656E-02    0.151E-01
RMM:   6    -0.622603565776E+03    0.10982E-03   -0.20337E-04 11030   0.438E-02    0.614E-02
RMM:   7    -0.622603582644E+03   -0.16867E-04   -0.16006E-04 10508   0.376E-02    0.838E-02
RMM:   8    -0.622603565081E+03    0.17562E-04   -0.13289E-04 10440   0.351E-02    0.634E-02
RMM:   9    -0.622603540988E+03    0.24093E-04   -0.72261E-05  9890   0.261E-02    0.366E-02
RMM:  10    -0.622603539847E+03    0.11416E-05   -0.47217E-05  8410   0.188E-02
   9 F= -.62260354E+03 E0= -.62252187E+03  d E =-.298137E-03
       N       E                     dE             d eps       ncg     rms          rms(c)
DAV:   1    -0.622603178849E+03    0.36214E-03   -0.16335E-02  9264   0.829E-01    0.548E-02
RMM:   2    -0.622603806167E+03   -0.62732E-03   -0.45528E-03 13925   0.192E-01    0.217E-01
RMM:   3    -0.622603610579E+03    0.19559E-03   -0.46995E-04  9280   0.749E-02    0.685E-02
RMM:   4    -0.622603617967E+03   -0.73881E-05   -0.97968E-05  8115   0.405E-02
  10 F= -.62260362E+03 E0= -.62252193E+03  d E =-.376257E-03
       N       E                     dE             d eps       ncg     rms          rms(c)
DAV:   1    -0.622602894429E+03    0.71615E-03   -0.27343E-02  9120   0.114E+00    0.104E-01
RMM:   2    -0.622604892625E+03   -0.19982E-02   -0.10457E-02 13411   0.293E-01    0.483E-01
RMM:   3    -0.622603868025E+03    0.10246E-02   -0.12997E-03  9805   0.127E-01    0.216E-01
RMM:   4    -0.622603677332E+03    0.19069E-03   -0.38518E-04  9948   0.690E-02    0.111E-01
RMM:   5    -0.622603642353E+03    0.34979E-04   -0.14346E-04  8610   0.406E-02    0.800E-02
RMM:   6    -0.622603616528E+03    0.25825E-04   -0.57076E-05  6867   0.275E-02    0.512E-02
RMM:   7    -0.622603602969E+03    0.13560E-04   -0.23939E-05  5584   0.210E-02    0.322E-02
RMM:   8    -0.622603600125E+03    0.28441E-05   -0.21570E-05  5578   0.209E-02
  11 F= -.62260360E+03 E0= -.62252192E+03  d E =0.178422E-04
       N       E                     dE             d eps       ncg     rms          rms(c)
DAV:   1    -0.622603599404E+03    0.35642E-05   -0.43126E-04 12120   0.134E-01    0.433E-02
RMM:   2    -0.622604229687E+03   -0.63028E-03   -0.49797E-04  8438   0.788E-02    0.355E-01
RMM:   3    -0.622603618687E+03    0.61100E-03   -0.18042E-04  7215   0.610E-02    0.564E-02
RMM:   4    -0.622603598592E+03    0.20095E-04   -0.20465E-05  5435   0.211E-02    0.170E-02
RMM:   5    -0.622603597659E+03    0.93303E-06   -0.63064E-06  4646   0.131E-02
  12 F= -.62260360E+03 E0= -.62252194E+03  d E =0.203081E-04
       N       E                     dE             d eps       ncg     rms          rms(c)
DAV:   1    -0.622603385176E+03    0.21342E-03   -0.14155E-02 11304   0.785E-01    0.751E-02
RMM:   2    -0.622604058411E+03   -0.67324E-03   -0.44036E-03 13768   0.201E-01    0.252E-01
RMM:   3    -0.622603846248E+03    0.21216E-03   -0.62840E-04 10106   0.868E-02    0.179E-01
RMM:   4    -0.622603704815E+03    0.14143E-03   -0.17015E-04  9161   0.531E-02    0.701E-02
RMM:   5    -0.622603689804E+03    0.15011E-04   -0.77944E-05  8720   0.298E-02    0.500E-02
RMM:   6    -0.622603674034E+03    0.15771E-04   -0.27003E-05  6283   0.199E-02    0.356E-02
RMM:   7    -0.622603672599E+03    0.14348E-05   -0.21171E-05  5467   0.222E-02
  13 F= -.62260367E+03 E0= -.62252199E+03  d E =-.749402E-04
       N       E                     dE             d eps       ncg     rms          rms(c)
DAV:   1    -0.622601244320E+03    0.24297E-02   -0.12881E-01 11040   0.235E+00    0.223E-01
RMM:   2    -0.622606645426E+03   -0.54011E-02   -0.37879E-02 13783   0.589E-01    0.652E-01
RMM:   3    -0.622605020668E+03    0.16248E-02   -0.55166E-03 11582   0.274E-01    0.500E-01
RMM:   4    -0.622604063146E+03    0.95752E-03   -0.15314E-03 11601   0.142E-01    0.241E-01
RMM:   5    -0.622603888918E+03    0.17423E-03   -0.70507E-04 11590   0.814E-02    0.171E-01
RMM:   6    -0.622603813572E+03    0.75346E-04   -0.31195E-04 10867   0.568E-02    0.166E-01
RMM:   7    -0.622603710920E+03    0.10265E-03   -0.18174E-04 10507   0.462E-02    0.964E-02
RMM:   8    -0.622603693514E+03    0.17406E-04   -0.19450E-04 10819   0.425E-02    0.719E-02
RMM:   9    -0.622603676440E+03    0.17074E-04   -0.12986E-04 10723   0.372E-02    0.754E-02
RMM:  10    -0.622603659085E+03    0.17355E-04   -0.55913E-05  8201   0.307E-02    0.430E-02
RMM:  11    -0.622603657666E+03    0.14194E-05   -0.37380E-05  7728   0.217E-02
  14 F= -.62260366E+03 E0= -.62252207E+03  d E =-.600071E-04
       N       E                     dE             d eps       ncg     rms          rms(c)
DAV:   1    -0.622603327588E+03    0.33150E-03   -0.20007E-02 11040   0.926E-01    0.884E-02
RMM:   2    -0.622604232269E+03   -0.90468E-03   -0.60930E-03 13526   0.237E-01    0.286E-01
RMM:   3    -0.622603907945E+03    0.32432E-03   -0.84472E-04 10038   0.104E-01    0.190E-01
RMM:   4    -0.622603767369E+03    0.14058E-03   -0.23222E-04  9736   0.602E-02    0.976E-02
RMM:   5    -0.622603740285E+03    0.27084E-04   -0.10159E-04  8747   0.358E-02    0.694E-02
RMM:   6    -0.622603731066E+03    0.92187E-05   -0.40852E-05  6231   0.263E-02
  15 F= -.62260373E+03 E0= -.62252213E+03  d E =-.133407E-03
       N       E                     dE             d eps       ncg     rms          rms(c)
DAV:   1    -0.622603609457E+03    0.13083E-03   -0.72585E-03 12168   0.558E-01    0.693E-02
RMM:   2    -0.622604279626E+03   -0.67017E-03   -0.21889E-03 12013   0.155E-01    0.327E-01
RMM:   3    -0.622603790207E+03    0.48942E-03   -0.44726E-04  9091   0.833E-02    0.117E-01
RMM:   4    -0.622603749290E+03    0.40917E-04   -0.12576E-04  8008   0.455E-02    0.862E-02
RMM:   5    -0.622603718024E+03    0.31266E-04   -0.58260E-05  7484   0.285E-02    0.425E-02
RMM:   6    -0.622603725894E+03   -0.78698E-05   -0.26854E-05  5543   0.222E-02
  16 F= -.62260373E+03 E0= -.62252207E+03  d E =-.128235E-03
       N       E                     dE             d eps       ncg     rms          rms(c)
DAV:   1    -0.622603559827E+03    0.15820E-03   -0.66449E-03 10128   0.524E-01    0.326E-02
RMM:   2    -0.622603783532E+03   -0.22371E-03   -0.19973E-03 13664   0.117E-01    0.936E-02
RMM:   3    -0.622603761570E+03    0.21962E-04   -0.22785E-04  7728   0.432E-02    0.549E-02
RMM:   4    -0.622603753960E+03    0.76100E-05   -0.40655E-05  6896   0.268E-02
  17 F= -.62260375E+03 E0= -.62252216E+03  d E =-.280656E-04
       N       E                     dE             d eps       ncg     rms          rms(c)
DAV:   1    -0.622603588756E+03    0.17281E-03   -0.68714E-03 10248   0.527E-01    0.458E-02
RMM:   2    -0.622604094647E+03   -0.50589E-03   -0.23217E-03 13296   0.139E-01    0.246E-01
RMM:   3    -0.622603803287E+03    0.29136E-03   -0.36519E-04  8622   0.671E-02    0.669E-02
RMM:   4    -0.622603794064E+03    0.92230E-05   -0.71783E-05  8282   0.319E-02
  18 F= -.62260379E+03 E0= -.62252217E+03  d E =-.681699E-04
       N       E                     dE             d eps       ncg     rms          rms(c)
DAV:   1    -0.622603010360E+03    0.79293E-03   -0.27107E-02  9024   0.105E+00    0.644E-02
RMM:   2    -0.622603899544E+03   -0.88918E-03   -0.83825E-03 14347   0.246E-01    0.150E-01
RMM:   3    -0.622603880780E+03    0.18764E-04   -0.10126E-03 11622   0.823E-02    0.130E-01
RMM:   4    -0.622603836912E+03    0.43868E-04   -0.18517E-04 10787   0.492E-02    0.797E-02
RMM:   5    -0.622603824031E+03    0.12881E-04   -0.87961E-05  9757   0.308E-02    0.626E-02
RMM:   6    -0.622603806643E+03    0.17388E-04   -0.42535E-05  8214   0.233E-02    0.439E-02
RMM:   7    -0.622603804376E+03    0.22674E-05   -0.27498E-05  6575   0.196E-02
  19 F= -.62260380E+03 E0= -.62252229E+03  d E =-.784819E-04
       N       E                     dE             d eps       ncg     rms          rms(c)
DAV:   1    -0.622603615920E+03    0.19072E-03   -0.11884E-02 11520   0.659E-01    0.870E-02
RMM:   2    -0.622604652675E+03   -0.10368E-02   -0.40552E-03 12643   0.206E-01    0.353E-01
RMM:   3    -0.622603946366E+03    0.70631E-03   -0.77339E-04  9405   0.969E-02    0.144E-01
RMM:   4    -0.622603871282E+03    0.75084E-04   -0.19264E-04  9626   0.506E-02    0.978E-02
RMM:   5    -0.622603844571E+03    0.26711E-04   -0.80891E-05  8282   0.325E-02    0.640E-02
RMM:   6    -0.622603829828E+03    0.14743E-04   -0.36757E-05  6374   0.239E-02    0.525E-02
RMM:   7    -0.622603822248E+03    0.75799E-05   -0.22063E-05  5413   0.209E-02
  20 F= -.62260382E+03 E0= -.62252233E+03  d E =-.178724E-04
