 vasp.5.4.4.18Apr17-6-g9f103f2a35 (build Oct 18 2021 20:38:43) complex          
  
 executed on             LinuxIFC date 2024.06.22  10:22:17
 running on   24 total cores
 distrk:  each k-point on   24 cores,    1 groups
 distr:  one band on NCORES_PER_BAND=   1 cores,   24 groups


--------------------------------------------------------------------------------------------------------


 INCAR:
 POTCAR:   PAW_PBE Zr_sv 07Sep2000                
 POTCAR:   PAW_PBE Hf_pv 06Sep2000                
 POTCAR:   PAW_PBE Ti_sv 07Sep2000                
 POTCAR:   PAW_PBE N 08Apr2002                    
 POTCAR:   PAW_PBE C 08Apr2002                    
 POTCAR:   PAW_PBE Cr_pv 07Sep2000                
 POTCAR:   PAW_PBE V_sv 07Sep2000                 

 ----------------------------------------------------------------------------- 
|                                                                             |
|           W    W    AA    RRRRR   N    N  II  N    N   GGGG   !!!           |
|           W    W   A  A   R    R  NN   N  II  NN   N  G    G  !!!           |
|           W    W  A    A  R    R  N N  N  II  N N  N  G       !!!           |
|           W WW W  AAAAAA  RRRRR   N  N N  II  N  N N  G  GGG   !            |
|           WW  WW  A    A  R   R   N   NN  II  N   NN  G    G                |
|           W    W  A    A  R    R  N    N  II  N    N   GGGG   !!!           |
|                                                                             |
|      For optimal performance we recommend to set                            |
|        NCORE= 4 - approx SQRT( number of cores)                             |
|      NCORE specifies how many cores store one orbital (NPAR=cpu/NCORE).     |
|      This setting can  greatly improve the performance of VASP for DFT.     |
|      The default,   NCORE=1            might be grossly inefficient         |
|      on modern multi-core architectures or massively parallel machines.     |
|      Do your own testing !!!!                                               |
|      Unfortunately you need to use the default for GW and RPA calculations. |
|      (for HF NCORE is supported but not extensively tested yet)             |
|                                                                             |
 ----------------------------------------------------------------------------- 

 POTCAR:   PAW_PBE Zr_sv 07Sep2000                
   VRHFIN =Zr: 4s4p5s4d                                                         
   LEXCH  = PE                                                                  
   EATOM  =  1283.3934 eV,   94.3268 Ry                                         
                                                                                
   TITEL  = PAW_PBE Zr_sv 07Sep2000                                             
   LULTRA =        F    use ultrasoft PP ?                                      
   IUNSCR =        1    unscreen: 0-lin 1-nonlin 2-no                           
   RPACOR =    2.200    partial core radius                                     
   POMASS =   91.224; ZVAL   =   12.000    mass and valenz                      
   RCORE  =    2.500    outmost cutoff radius                                   
   RWIGS  =    3.070; RWIGS  =    1.625    wigner-seitz radius (au A)           
   ENMAX  =  229.839; ENMIN  =  172.379 eV                                      
   RCLOC  =    2.213    cutoff for local pot                                    
   LCOR   =        T    correct aug charges                                     
   LPAW   =        T    paw PP                                                  
   EAUG   =  357.078                                                            
   DEXC   =     .000                                                            
   RMAX   =    3.041    core radius for proj-oper                               
   RAUG   =    1.300    factor for augmentation sphere                          
   RDEP   =    2.597    radius for radial grids                                 
   QCUT   =   -4.110; QGAM   =    8.220    optimization parameters              
                                                                                
   Description                                                                  
     l     E      TYP  RCUT    TYP  RCUT                                        
     0   .000     23  2.500                                                     
     0   .000     23  2.500                                                     
     1   .000     23  2.500                                                     
     1   .000     23  2.500                                                     
     2   .000     23  2.500                                                     
     2   .000     23  2.500                                                     
     3   .000      7   .000                                                     
  local pseudopotential read in
  partial core-charges read in
  atomic valenz-charges read in
  non local Contribution for L=           0  read in
    real space projection operators read in
  non local Contribution for L=           0  read in
    real space projection operators read in
  non local Contribution for L=           1  read in
    real space projection operators read in
  non local Contribution for L=           1  read in
    real space projection operators read in
  non local Contribution for L=           2  read in
    real space projection operators read in
  non local Contribution for L=           2  read in
    real space projection operators read in
    PAW grid and wavefunctions read in
 
   number of l-projection  operators is LMAX  =           6
   number of lm-projection operators is LMMAX =          18
 
 POTCAR:   PAW_PBE Hf_pv 06Sep2000                
   VRHFIN =Hf: 5p6s5d                                                           
   LEXCH  = PE                                                                  
   EATOM  =   859.6195 eV,   63.1803 Ry                                         
                                                                                
   TITEL  = PAW_PBE Hf_pv 06Sep2000                                             
   LULTRA =        F    use ultrasoft PP ?                                      
   IUNSCR =        1    unscreen: 0-lin 1-nonlin 2-no                           
   RPACOR =    2.500    partial core radius                                     
   POMASS =  178.490; ZVAL   =   10.000    mass and valenz                      
   RCORE  =    2.600    outmost cutoff radius                                   
   RWIGS  =    3.050; RWIGS  =    1.614    wigner-seitz radius (au A)           
   ENMAX  =  220.342; ENMIN  =  165.256 eV                                      
   RCLOC  =    2.212    cutoff for local pot                                    
   LCOR   =        T    correct aug charges                                     
   LPAW   =        T    paw PP                                                  
   EAUG   =  380.878                                                            
   DEXC   =    -.057                                                            
   RMAX   =    3.106    core radius for proj-oper                               
   RAUG   =    1.300    factor for augmentation sphere                          
   RDEP   =    2.681    radius for radial grids                                 
   QCUT   =   -4.024; QGAM   =    8.049    optimization parameters              
                                                                                
   Description                                                                  
     l     E      TYP  RCUT    TYP  RCUT                                        
     1   .000     23  2.500                                                     
     1   .000     23  2.500                                                     
     2   .000     23  2.500                                                     
     2   .000     23  2.500                                                     
     0   .000     23  2.600                                                     
     0   .000     23  2.600                                                     
     3   .000      7   .000                                                     
  local pseudopotential read in
  partial core-charges read in
  atomic valenz-charges read in
  non local Contribution for L=           1  read in
    real space projection operators read in
  non local Contribution for L=           1  read in
    real space projection operators read in
  non local Contribution for L=           2  read in
    real space projection operators read in
  non local Contribution for L=           2  read in
    real space projection operators read in
  non local Contribution for L=           0  read in
    real space projection operators read in
  non local Contribution for L=           0  read in
    real space projection operators read in
    PAW grid and wavefunctions read in
 
   number of l-projection  operators is LMAX  =           6
   number of lm-projection operators is LMMAX =          18
 
 POTCAR:   PAW_PBE Ti_sv 07Sep2000                
   VRHFIN =Ti: 3p4s3d                                                           
   LEXCH  = PE                                                                  
   EATOM  =  1587.5048 eV,  116.6783 Ry                                         
                                                                                
   TITEL  = PAW_PBE Ti_sv 07Sep2000                                             
   LULTRA =        F    use ultrasoft PP ?                                      
   IUNSCR =        1    unscreen: 0-lin 1-nonlin 2-no                           
   RPACOR =    2.000    partial core radius                                     
   POMASS =   47.880; ZVAL   =   12.000    mass and valenz                      
   RCORE  =    2.300    outmost cutoff radius                                   
   RWIGS  =    2.300; RWIGS  =    1.217    wigner-seitz radius (au A)           
   ENMAX  =  274.574; ENMIN  =  205.930 eV                                      
   RCLOC  =    1.701    cutoff for local pot                                    
   LCOR   =        T    correct aug charges                                     
   LPAW   =        T    paw PP                                                  
   EAUG   =  482.848                                                            
   DEXC   =     .000                                                            
   RMAX   =    2.783    core radius for proj-oper                               
   RAUG   =    1.300    factor for augmentation sphere                          
   RDEP   =    2.381    radius for radial grids                                 
   QCUT   =   -4.492; QGAM   =    8.985    optimization parameters              
                                                                                
   Description                                                                  
     l     E      TYP  RCUT    TYP  RCUT                                        
     0   .000     23  1.800                                                     
     0   .000     23  2.300                                                     
     0   .000     23  1.800                                                     
     0   .000     23  2.300                                                     
     1   .000     23  2.300                                                     
     1  -.100     23  2.300                                                     
     2   .000     23  2.300                                                     
     2   .000     23  2.300                                                     
     3   .000      7   .000                                                     
  local pseudopotential read in
  partial core-charges read in
  atomic valenz-charges read in
  non local Contribution for L=           0  read in
    real space projection operators read in
  non local Contribution for L=           0  read in
    real space projection operators read in
  non local Contribution for L=           1  read in
    real space projection operators read in
  non local Contribution for L=           1  read in
    real space projection operators read in
  non local Contribution for L=           2  read in
    real space projection operators read in
  non local Contribution for L=           2  read in
    real space projection operators read in
    PAW grid and wavefunctions read in
 
   number of l-projection  operators is LMAX  =           6
   number of lm-projection operators is LMMAX =          18
 
 POTCAR:   PAW_PBE N 08Apr2002                    
   VRHFIN =N: s2p3                                                              
   LEXCH  = PE                                                                  
   EATOM  =   264.5486 eV,   19.4438 Ry                                         
                                                                                
   TITEL  = PAW_PBE N 08Apr2002                                                 
   LULTRA =        F    use ultrasoft PP ?                                      
   IUNSCR =        0    unscreen: 0-lin 1-nonlin 2-no                           
   RPACOR =     .000    partial core radius                                     
   POMASS =   14.001; ZVAL   =    5.000    mass and valenz                      
   RCORE  =    1.500    outmost cutoff radius                                   
   RWIGS  =    1.400; RWIGS  =     .741    wigner-seitz radius (au A)           
   ENMAX  =  400.000; ENMIN  =  300.000 eV                                      
   ICORE  =        2    local potential                                         
   LCOR   =        T    correct aug charges                                     
   LPAW   =        T    paw PP                                                  
   EAUG   =  627.112                                                            
   DEXC   =     .000                                                            
   RMAX   =    2.247    core radius for proj-oper                               
   RAUG   =    1.300    factor for augmentation sphere                          
   RDEP   =    1.514    radius for radial grids                                 
   QCUT   =   -5.562; QGAM   =   11.124    optimization parameters              
                                                                                
   Description                                                                  
     l     E      TYP  RCUT    TYP  RCUT                                        
     0   .000     23  1.200                                                     
     0   .000     23  1.200                                                     
     1   .000     23  1.500                                                     
     1   .700     23  1.500                                                     
     2   .000      7  1.500                                                     
  local pseudopotential read in
  atomic valenz-charges read in
  non local Contribution for L=           0  read in
    real space projection operators read in
  non local Contribution for L=           0  read in
    real space projection operators read in
  non local Contribution for L=           1  read in
    real space projection operators read in
  non local Contribution for L=           1  read in
    real space projection operators read in
    PAW grid and wavefunctions read in
 
   number of l-projection  operators is LMAX  =           4
   number of lm-projection operators is LMMAX =           8
 
 POTCAR:   PAW_PBE C 08Apr2002                    
   VRHFIN =C: s2p2                                                              
   LEXCH  = PE                                                                  
   EATOM  =   147.1560 eV,   10.8157 Ry                                         
                                                                                
   TITEL  = PAW_PBE C 08Apr2002                                                 
   LULTRA =        F    use ultrasoft PP ?                                      
   IUNSCR =        0    unscreen: 0-lin 1-nonlin 2-no                           
   RPACOR =     .000    partial core radius                                     
   POMASS =   12.011; ZVAL   =    4.000    mass and valenz                      
   RCORE  =    1.500    outmost cutoff radius                                   
   RWIGS  =    1.630; RWIGS  =     .863    wigner-seitz radius (au A)           
   ENMAX  =  400.000; ENMIN  =  300.000 eV                                      
   ICORE  =        2    local potential                                         
   LCOR   =        T    correct aug charges                                     
   LPAW   =        T    paw PP                                                  
   EAUG   =  644.873                                                            
   DEXC   =     .000                                                            
   RMAX   =    2.266    core radius for proj-oper                               
   RAUG   =    1.300    factor for augmentation sphere                          
   RDEP   =    1.501    radius for radial grids                                 
   RDEPT  =    1.300    core radius for aug-charge                              
   QCUT   =   -5.516; QGAM   =   11.032    optimization parameters              
                                                                                
   Description                                                                  
     l     E      TYP  RCUT    TYP  RCUT                                        
     0   .000     23  1.200                                                     
     0   .000     23  1.200                                                     
     1   .000     23  1.500                                                     
     1  2.500     23  1.500                                                     
     2   .000      7  1.500                                                     
  local pseudopotential read in
  atomic valenz-charges read in
  non local Contribution for L=           0  read in
    real space projection operators read in
  non local Contribution for L=           0  read in
    real space projection operators read in
  non local Contribution for L=           1  read in
    real space projection operators read in
  non local Contribution for L=           1  read in
    real space projection operators read in
    PAW grid and wavefunctions read in
 
   number of l-projection  operators is LMAX  =           4
   number of lm-projection operators is LMMAX =           8
 
 POTCAR:   PAW_PBE Cr_pv 07Sep2000                
   VRHFIN =Cr : p6d5s1                                                          
   LEXCH  = PE                                                                  
   EATOM  =  1647.5667 eV,  121.0927 Ry                                         
                                                                                
   TITEL  = PAW_PBE Cr_pv 07Sep2000                                             
   LULTRA =        F    use ultrasoft PP ?                                      
   IUNSCR =        1    unscreen: 0-lin 1-nonlin 2-no                           
   RPACOR =    2.080    partial core radius                                     
   POMASS =   51.996; ZVAL   =   12.000    mass and valenz                      
   RCORE  =    2.300    outmost cutoff radius                                   
   RWIGS  =    2.500; RWIGS  =    1.323    wigner-seitz radius (au A)           
   ENMAX  =  265.683; ENMIN  =  199.262 eV                                      
   RCLOC  =    1.721    cutoff for local pot                                    
   LCOR   =        T    correct aug charges                                     
   LPAW   =        T    paw PP                                                  
   EAUG   =  519.424                                                            
   DEXC   =    -.003                                                            
   RMAX   =    2.829    core radius for proj-oper                               
   RAUG   =    1.300    factor for augmentation sphere                          
   RDEP   =    2.447    radius for radial grids                                 
   QCUT   =   -4.419; QGAM   =    8.838    optimization parameters              
                                                                                
   Description                                                                  
     l     E      TYP  RCUT    TYP  RCUT                                        
     1   .000     23  2.000                                                     
     1   .100     23  2.000                                                     
     2   .000     23  2.300                                                     
     2   .000     23  2.300                                                     
     0   .000     23  2.300                                                     
     0   .000     23  2.300                                                     
     3   .000      7   .000                                                     
  local pseudopotential read in
  partial core-charges read in
  atomic valenz-charges read in
  non local Contribution for L=           1  read in
    real space projection operators read in
  non local Contribution for L=           1  read in
    real space projection operators read in
  non local Contribution for L=           2  read in
    real space projection operators read in
  non local Contribution for L=           2  read in
    real space projection operators read in
  non local Contribution for L=           0  read in
    real space projection operators read in
  non local Contribution for L=           0  read in
    real space projection operators read in
    PAW grid and wavefunctions read in
 
   number of l-projection  operators is LMAX  =           6
   number of lm-projection operators is LMMAX =          18
 
 POTCAR:   PAW_PBE V_sv 07Sep2000                 
   VRHFIN =V: p6 d4 s1                                                          
   LEXCH  = PE                                                                  
   EATOM  =  1951.3925 eV,  143.4233 Ry                                         
                                                                                
   TITEL  = PAW_PBE V_sv 07Sep2000                                              
   LULTRA =        F    use ultrasoft PP ?                                      
   IUNSCR =        1    unscreen: 0-lin 1-nonlin 2-no                           
   RPACOR =    2.000    partial core radius                                     
   POMASS =   50.941; ZVAL   =   13.000    mass and valenz                      
   RCORE  =    2.300    outmost cutoff radius                                   
   RWIGS  =    2.300; RWIGS  =    1.217    wigner-seitz radius (au A)           
   ENMAX  =  263.675; ENMIN  =  197.756 eV                                      
   RCLOC  =    1.779    cutoff for local pot                                    
   LCOR   =        T    correct aug charges                                     
   LPAW   =        T    paw PP                                                  
   EAUG   =  526.568                                                            
   DEXC   =     .000                                                            
   RMAX   =    2.839    core radius for proj-oper                               
   RAUG   =    1.300    factor for augmentation sphere                          
   RDEP   =    2.430    radius for radial grids                                 
   QCUT   =   -4.402; QGAM   =    8.804    optimization parameters              
                                                                                
   Description                                                                  
     l     E      TYP  RCUT    TYP  RCUT                                        
     0   .000     23  1.800                                                     
     0   .000     23  2.300                                                     
     0   .000     23  1.800                                                     
     0   .000     23  2.300                                                     
     1   .000     23  2.000                                                     
     1   .400     23  2.000                                                     
     2   .000     23  2.300                                                     
     2   .000     23  2.300                                                     
     3   .000      7   .000                                                     
  local pseudopotential read in
  partial core-charges read in
  atomic valenz-charges read in
  non local Contribution for L=           0  read in
    real space projection operators read in
  non local Contribution for L=           0  read in
    real space projection operators read in
  non local Contribution for L=           1  read in
    real space projection operators read in
  non local Contribution for L=           1  read in
    real space projection operators read in
  non local Contribution for L=           2  read in
    real space projection operators read in
  non local Contribution for L=           2  read in
    real space projection operators read in
    PAW grid and wavefunctions read in
 
   number of l-projection  operators is LMAX  =           6
   number of lm-projection operators is LMMAX =          18
 

 ----------------------------------------------------------------------------- 
|                                                                             |
|  ADVICE TO THIS USER RUNNING 'VASP/VAMP'   (HEAR YOUR MASTER'S VOICE ...):  |
|                                                                             |
|      You have a (more or less) 'large supercell' and for larger cells       |
|      it might be more efficient to use real space projection operators      |
|      So try LREAL= Auto  in the INCAR   file.                               |
|      Mind: If you want to do a very accurate calculations keep the          |
|      reciprocal projection scheme          (i.e. LREAL=.FALSE.)             |
|                                                                             |
 ----------------------------------------------------------------------------- 

 PAW_PBE Zr_sv 07Sep2000                :
 energy of atom  1       EATOM=-1283.3934
 kinetic energy error for atom=    0.0044 (will be added to EATOM!!)
 PAW_PBE Hf_pv 06Sep2000                :
 energy of atom  2       EATOM= -859.6195
 kinetic energy error for atom=    0.0038 (will be added to EATOM!!)
 PAW_PBE Ti_sv 07Sep2000                :
 energy of atom  3       EATOM=-1587.5048
 kinetic energy error for atom=    0.0139 (will be added to EATOM!!)
 PAW_PBE N 08Apr2002                    :
 energy of atom  4       EATOM= -264.5486
 kinetic energy error for atom=    0.0736 (will be added to EATOM!!)
 PAW_PBE C 08Apr2002                    :
 energy of atom  5       EATOM= -147.1560
 kinetic energy error for atom=    0.0288 (will be added to EATOM!!)
 PAW_PBE Cr_pv 07Sep2000                :
 energy of atom  6       EATOM=-1647.5667
 kinetic energy error for atom=    0.0284 (will be added to EATOM!!)
 PAW_PBE V_sv 07Sep2000                 :
 energy of atom  7       EATOM=-1951.3925
 kinetic energy error for atom=    0.0321 (will be added to EATOM!!)
 
 
 POSCAR: 97-TiZrHfVCr                            
  positions in direct lattice
  velocities in cartesian coordinates
 exchange correlation table for  LEXCH =        8
   RHO(1)=    0.500       N(1)  =     2000
   RHO(2)=  100.500       N(2)  =     4000
 


--------------------------------------------------------------------------------------------------------


 ion  position               nearest neighbor table
   1  0.001  0.991  0.003-  38 2.23  34 2.25  23 2.27  25 2.28  22 2.28  29 2.32  59 3.05  12 3.06
                            18 3.07  58 3.08   9 3.10   8 3.11  10 3.13  56 3.15  14 3.17  17 3.18
   2  0.270  1.000  0.249-  26 2.13  21 2.19  36 2.21  22 2.25  43 2.28  34 2.38  57 3.03  55 3.06
                            61 3.06  59 3.09  15 3.09  20 3.10  18 3.11  14 3.12  19 3.12   1 3.20
   3  0.248  0.498  0.248-  21 2.20  37 2.21  46 2.21  36 2.22  27 2.28  41 2.29  55 2.97  59 3.05
                            15 3.11  18 3.11   6 3.13   8 3.13  62 3.14   4 3.14  20 3.15  19 3.15
   4  0.506  0.499  0.002-  40 2.26  41 2.28  35 2.29  52 2.30  37 2.33  28 2.33  17 3.05  55 3.05
                             9 3.06  15 3.07  18 3.12  63 3.13  60 3.14   3 3.14  14 3.14  13 3.16
   5  0.504  0.247  0.744-  33 2.16  30 2.18  32 2.23  42 2.24  52 2.27  35 2.29  53 2.89  57 3.02
                            11 3.02  19 3.05  14 3.07  17 3.09  58 3.13  13 3.15   4 3.17  56 3.18
   6  0.995  0.504  0.500-  27 2.25  50 2.25  48 2.29  47 2.29  46 2.32  44 2.32  60 3.02  63 3.04
                            59 3.10  12 3.11  64 3.13   3 3.13  13 3.13  20 3.16   8 3.17  10 3.19
   7  0.497  0.759  0.749-  33 2.15  45 2.20  49 2.21  52 2.25  28 2.28  51 2.30  57 2.85  58 2.88
                            53 2.98  63 3.00  62 3.04  20 3.07  18 3.08  64 3.12  56 3.12  13 3.15
   8  0.994  0.248  0.246-  23 2.17  24 2.18  44 2.22  27 2.25  34 2.26  21 2.28  17 3.08   1 3.11
                            11 3.13  61 3.13   3 3.13   6 3.17  14 3.22  19 3.22  60 3.25   2 3.26
   9  0.747  0.749  0.011-  28 2.20  39 2.21  25 2.23  40 2.24  38 2.26  49 2.32  58 2.92  54 3.00
                            16 3.01  60 3.06   4 3.06  53 3.08  63 3.09   1 3.10  55 3.14   7 3.18
  10  0.995  0.244  0.753-  30 2.14  29 2.14  23 2.16  42 2.23  44 2.24  48 2.28  56 3.02  17 3.08
                            54 3.11  11 3.12  14 3.12   1 3.13  61 3.15  19 3.16  13 3.19   6 3.19
  11  0.746  0.235  0.500-  31 2.14  32 2.18  24 2.22  30 2.23  44 2.25  50 2.42   5 3.02  15 3.02
                            16 3.06  10 3.12   8 3.13  57 3.20  61 3.20  60 3.22   6 3.23  58 3.29
  12  0.998  0.759  0.744-  29 2.14  45 2.18  49 2.19  47 2.24  48 2.27  38 2.31  58 3.01  56 3.02
                            54 3.02  63 3.03  61 3.05   1 3.06   6 3.11  20 3.11  13 3.17  64 3.17
  13  0.251  0.501  0.749-  37 2.19  46 2.19  52 2.27  45 2.29  42 2.29  48 2.29  54 3.07  18 3.11
                            19 3.11  14 3.13  20 3.13  62 3.13   6 3.13   7 3.15   5 3.15   4 3.16
  14  0.258  0.243  0.992-  22 2.13  42 2.15  35 2.16  21 2.23  37 2.27  23 2.29  53 3.04   5 3.07
                             2 3.12  10 3.12  13 3.13   4 3.14   1 3.17   3 3.18   8 3.22
  15  0.507  0.258  0.254-  24 2.09  32 2.09  41 2.14  35 2.20  21 2.23  26 2.24  11 3.02   4 3.07
                             2 3.09   3 3.11
  16  0.735  0.983  0.261-  26 1.97  39 2.09  31 2.10  25 2.28  34 2.31  24 2.32  64 2.85   9 3.01
                            11 3.06   1 3.26   8 3.27
  17  0.745  0.247  0.999-  35 2.12  25 2.16  30 2.16  24 2.19  40 2.20  23 2.22  53 2.90   4 3.05
                             8 3.08  10 3.08   5 3.09   1 3.18
  18  0.253  0.748  0.000-  28 2.14  38 2.19  36 2.19  37 2.20  45 2.20  22 2.23   1 3.07   7 3.08
                            13 3.11   3 3.11   2 3.11   4 3.12  12 3.17
  19  0.255  0.247  0.503-  32 2.14  42 2.16  43 2.18  44 2.21  46 2.23  21 2.26  56 2.97  57 3.03
                             5 3.05  13 3.11   2 3.12   3 3.15  10 3.16   6 3.21   8 3.22
  20  0.253  0.753  0.499-  51 2.16  43 2.18  36 2.19  45 2.22  46 2.23  47 2.25  57 2.89  55 2.97
                            56 3.02   7 3.07   2 3.10  12 3.11  13 3.13   3 3.15   6 3.16
  21  0.254  0.248  0.246-   2 2.19   3 2.20  15 2.23  14 2.23  19 2.26   8 2.28
  22  0.261  0.001  0.993-  14 2.13  18 2.23   2 2.25  53 2.25   1 2.28  56 2.29
  23  0.998  0.248  0.999-  10 2.16   8 2.17  17 2.22   1 2.27  14 2.29  54 2.33
  24  0.745  0.246  0.249-  15 2.09   8 2.18  17 2.19  11 2.22  16 2.32
  25  0.742  0.002  0.003-  53 2.00  58 2.03  17 2.16   9 2.23   1 2.28  16 2.28
  26  0.512  0.003  0.255-  16 1.97   2 2.13  15 2.24  57 2.36  55 2.41
  27  0.988  0.503  0.245-  60 2.19   8 2.25   6 2.25  59 2.26   3 2.28  54 2.31
  28  0.496  0.763  0.008-  18 2.14   9 2.20  53 2.22  55 2.23   7 2.28   4 2.33
  29  1.000  0.002  0.739-  56 2.10  12 2.14  10 2.14  61 2.15   1 2.32  58 2.34
  30  0.752  0.242  0.753-  10 2.14  17 2.16   5 2.18  11 2.23  58 2.33
  31  0.743  0.992  0.499-  64 2.08  16 2.10  11 2.14  57 2.30  58 2.41
  32  0.498  0.242  0.491-  15 2.09  19 2.14  11 2.18   5 2.23  57 2.26
  33  0.516  0.002  0.744-  58 1.97  57 1.99  53 2.01   7 2.15   5 2.16  56 2.43
  34  0.999  0.993  0.258-  59 2.08  61 2.10   1 2.25   8 2.26  16 2.31   2 2.38
  35  0.504  0.239  0.004-  53 2.02  17 2.12  14 2.16  15 2.20   5 2.29   4 2.29
  36  0.251  0.749  0.249-  59 2.06  55 2.11  18 2.19  20 2.19   2 2.21   3 2.22
  37  0.241  0.499  0.998-  13 2.19  54 2.20  18 2.20   3 2.21  14 2.27   4 2.33
  38  0.004  0.739  0.006-  54 2.01  18 2.19  59 2.22   1 2.23   9 2.26  12 2.31
  39  0.745  0.746  0.262-  64 2.01  60 2.01  16 2.09   9 2.21  55 2.24  59 2.38
  40  0.764  0.496  0.004-  54 2.01  17 2.20   9 2.24   4 2.26  63 2.34  60 2.36
  41  0.508  0.501  0.261-  55 2.03  60 2.05  62 2.09  15 2.14   4 2.28   3 2.29
  42  0.249  0.241  0.748-  56 2.11  14 2.15  19 2.16  10 2.23   5 2.24  13 2.29
  43  0.254  0.000  0.508-  56 1.99  57 2.00  61 2.03  19 2.18  20 2.18   2 2.28
  44  0.003  0.241  0.498-  61 2.15  19 2.21   8 2.22  10 2.24  11 2.25   6 2.32
  45  0.246  0.761  0.751-  56 2.14  12 2.18  18 2.20   7 2.20  20 2.22  13 2.29
  46  0.260  0.500  0.500-  62 2.14  13 2.19   3 2.21  20 2.23  19 2.23   6 2.32
  47  0.997  0.764  0.490-  59 2.05  61 2.08  12 2.24  64 2.25  20 2.25   6 2.29
  48  0.989  0.503  0.760-  54 1.96  63 2.15  12 2.27  10 2.28   6 2.29  13 2.29
  49  0.749  0.753  0.748-  58 2.00  63 2.01  12 2.19   7 2.21  64 2.26   9 2.32
  50  0.739  0.509  0.502-  60 2.04  62 2.08  63 2.10  64 2.18   6 2.25  11 2.42
  51  0.499  0.759  0.487-  55 2.02  57 2.04  62 2.09  64 2.13  20 2.16   7 2.30
  52  0.509  0.504  0.740-  63 2.10  62 2.14   7 2.25   5 2.27  13 2.27   4 2.30
  53  0.516  0.012  0.973-  25 2.00  33 2.01  35 2.02  28 2.22  22 2.25  58 2.63   5 2.89  17 2.90
                             7 2.98  14 3.04   9 3.08   2 3.26
  54  0.991  0.513  0.983-  48 1.96  38 2.01  40 2.01  37 2.20  27 2.31  23 2.33   9 3.00  12 3.02
                            63 3.03  13 3.07  10 3.11   3 3.25   8 3.29
  55  0.491  0.731  0.260-  51 2.02  41 2.03  36 2.11  28 2.23  39 2.24  26 2.41  62 2.79  60 2.88
                            20 2.97   3 2.97  64 3.01   4 3.05   2 3.06   9 3.14
  56  0.239  0.002  0.734-  43 1.99  29 2.10  42 2.11  45 2.14  22 2.29  33 2.43  61 2.82  57 2.84
                            19 2.97  12 3.02  20 3.02  10 3.02   7 3.12   1 3.15   5 3.18
  57  0.481  0.988  0.521-  33 1.99  43 2.00  51 2.04  32 2.26  31 2.30  26 2.36  56 2.84   7 2.85
                            20 2.89   5 3.02  19 3.03   2 3.03  58 3.16  11 3.20
  58  0.737  0.979  0.773-  33 1.97  49 2.00  25 2.03  30 2.33  29 2.34  31 2.41  53 2.63   7 2.88
                             9 2.92  12 3.01   1 3.08   5 3.13  57 3.16  10 3.27  11 3.29
  59  0.016  0.757  0.257-  47 2.05  36 2.06  34 2.08  38 2.22  27 2.26  39 2.38   1 3.05   3 3.05
                             2 3.09   6 3.10   9 3.21
  60  0.741  0.518  0.270-  39 2.01  50 2.04  41 2.05  27 2.19  40 2.36  64 2.85  55 2.88  62 2.90
                             6 3.02   9 3.06   4 3.14  11 3.22   8 3.25
  61  0.023  0.998  0.496-  43 2.03  47 2.08  34 2.10  44 2.15  29 2.15  56 2.82  12 3.05   2 3.06
                             8 3.13  10 3.15  11 3.20
  62  0.502  0.522  0.498-  50 2.08  51 2.09  41 2.09  52 2.14  46 2.14  55 2.79  60 2.90   7 3.04
                            13 3.13   3 3.14   5 3.26  11 3.31
  63  0.747  0.525  0.740-  49 2.01  52 2.10  50 2.10  48 2.15  40 2.34   7 3.00  54 3.03  12 3.03
                             6 3.04   9 3.09   4 3.13   5 3.26  10 3.30  11 3.32
  64  0.742  0.755  0.491-  39 2.01  31 2.08  51 2.13  50 2.18  47 2.25  49 2.26  16 2.85  60 2.85
                            55 3.01   7 3.12   6 3.13  12 3.17
 
  LATTYP: Found a triclinic cell.
 ALAT       =    15.2536307032
 B/A-ratio  =     0.5755014569
 C/A-ratio  =     0.5765315846
 COS(alpha) =     0.0004992436
 COS(beta)  =     0.5761644917
 COS(gamma) =     0.5782121425
  
  Lattice vectors:
  
 A1 = (  -8.8179325526,  -8.8188117166,  -8.7832724559)
 A2 = (  -8.7784627028,  -0.0154131025,   0.0135504833)
 A3 = (  -0.0179873948,   0.0126451696,  -8.7941723936)


Analysis of symmetry for initial positions (statically):
=====================================================================
 Subroutine PRICEL returns:
 Original cell was already a primitive cell.
 

 Routine SETGRP: Setting up the symmetry group for a 
 triclinic supercell.


 Subroutine GETGRP returns: Found  1 space group operations
 (whereof  1 operations were pure point group operations)
 out of a pool of  2 trial point group operations.


The static configuration has the point symmetry C_1 .


Analysis of symmetry for dynamics (positions and initial velocities):
=====================================================================
 Subroutine PRICEL returns:
 Original cell was already a primitive cell.
 

 Routine SETGRP: Setting up the symmetry group for a 
 triclinic supercell.


 Subroutine GETGRP returns: Found  1 space group operations
 (whereof  1 operations were pure point group operations)
 out of a pool of  2 trial point group operations.


The dynamic configuration has the point symmetry C_1 .


 Subroutine INISYM returns: Found  1 space group operations
 (whereof  1 operations are pure point group operations),
 and found     1 'primitive' translations

 
 
 KPOINTS: HECN                                    

Automatic generation of k-mesh.
Space group operators:
 irot       det(A)        alpha          n_x          n_y          n_z        tau_x        tau_y        tau_z
    1     1.000000     0.000001     1.000000     0.000000     0.000000     0.000000     0.000000     0.000000
 
 Subroutine IBZKPT returns following result:
 ===========================================
 
 Found     14 irreducible k-points:
 
 Following reciprocal coordinates:
            Coordinates               Weight
  0.000000  0.000000  0.000000      1.000000
  0.333333  0.000000 -0.000000      2.000000
  0.000000  0.333333  0.000000      2.000000
  0.333333  0.333333  0.000000      2.000000
 -0.333333  0.333333  0.000000      2.000000
  0.000000 -0.000000  0.333333      2.000000
  0.333333  0.000000  0.333333      2.000000
 -0.333333 -0.000000  0.333333      2.000000
  0.000000  0.333333  0.333333      2.000000
  0.333333  0.333333  0.333333      2.000000
 -0.333333  0.333333  0.333333      2.000000
  0.000000 -0.333333  0.333333      2.000000
  0.333333 -0.333333  0.333333      2.000000
 -0.333333 -0.333333  0.333333      2.000000
 
 Following cartesian coordinates:
            Coordinates               Weight
  0.000000  0.000000  0.000000      1.000000
  0.037972 -0.000093 -0.000078      2.000000
 -0.000066  0.037810  0.000055      2.000000
  0.037905  0.037717 -0.000023      2.000000
 -0.038038  0.037903  0.000132      2.000000
  0.000059 -0.000012  0.037904      2.000000
  0.038030 -0.000104  0.037826      2.000000
 -0.037913  0.000081  0.037982      2.000000
 -0.000008  0.037798  0.037958      2.000000
  0.037964  0.037706  0.037880      2.000000
 -0.037980  0.037891  0.038036      2.000000
  0.000125 -0.037822  0.037849      2.000000
  0.038097 -0.037914  0.037771      2.000000
 -0.037847 -0.037729  0.037927      2.000000
 


--------------------------------------------------------------------------------------------------------




 Dimension of arrays:
   k-points           NKPTS =     14   k-points in BZ     NKDIM =     14   number of bands    NBANDS=    312
   number of dos      NEDOS =    301   number of ions     NIONS =     64
   non local maximal  LDIM  =      6   non local SUM 2l+1 LMDIM =     18
   total plane-waves  NPLWV = 110592
   max r-space proj   IRMAX =      1   max aug-charges    IRDMAX=  10118
   dimension x,y,z NGX =    48 NGY =   48 NGZ =   48
   dimension x,y,z NGXF=    96 NGYF=   96 NGZF=   96
   support grid    NGXF=    96 NGYF=   96 NGZF=   96
   ions per type =               7   6   7  13  19   6   6
   NGX,Y,Z   is equivalent  to a cutoff of   9.09,  9.05,  9.07 a.u.
   NGXF,Y,Z  is equivalent  to a cutoff of  18.18, 18.10, 18.15 a.u.

 SYSTEM =  HECN                                    
 POSCAR =  97-TiZrHfVCr                            

 Startparameter for this run:
   NWRITE =      2    write-flag & timer
   PREC   = normal    normal or accurate (medium, high low for compatibility)
   ISTART =      0    job   : 0-new  1-cont  2-samecut
   ICHARG =      2    charge: 1-file 2-atom 10-const
   ISPIN  =      1    spin polarized calculation?
   LNONCOLLINEAR =      F non collinear calculations
   LSORBIT =      F    spin-orbit coupling
   INIWAV =      1    electr: 0-lowe 1-rand  2-diag
   LASPH  =      F    aspherical Exc in radial PAW
   METAGGA=      F    non-selfconsistent MetaGGA calc.

 Electronic Relaxation 1
   ENCUT  =  400.0 eV  29.40 Ry    5.42 a.u.  14.32 14.38 14.34*2*pi/ulx,y,z
   ENINI  =  400.0     initial cutoff
   ENAUG  =  644.9 eV  augmentation charge cutoff
   NELM   =     60;   NELMIN=  2; NELMDL= -5     # of ELM steps 
   EDIFF  = 0.1E-04   stopping-criterion for ELM
   LREAL  =      F    real-space projection
   NLSPLINE    = F    spline interpolate recip. space projectors
   LCOMPAT=      F    compatible to vasp.4.4
   GGA_COMPAT  = T    GGA compatible to vasp.4.4-vasp.4.6
   LMAXPAW     = -100 max onsite density
   LMAXMIX     =    2 max onsite mixed and CHGCAR
   VOSKOWN=      0    Vosko Wilk Nusair interpolation
   ROPT   =    0.00000   0.00000   0.00000   0.00000
   ROPT   =    0.00000   0.00000   0.00000
 Ionic relaxation
   EDIFFG = -.1E-01   stopping-criterion for IOM
   NSW    =    100    number of steps for IOM
   NBLOCK =      1;   KBLOCK =    100    inner block; outer block 
   IBRION =      2    ionic relax: 0-MD 1-quasi-New 2-CG
   NFREE  =      1    steps in history (QN), initial steepest desc. (CG)
   ISIF   =      3    stress and relaxation
   IWAVPR =     11    prediction:  0-non 1-charg 2-wave 3-comb
   ISYM   =      2    0-nonsym 1-usesym 2-fastsym
   LCORR  =      T    Harris-Foulkes like correction to forces

   POTIM  = 0.5000    time-step for ionic-motion
   TEIN   =    0.0    initial temperature
   TEBEG  =    0.0;   TEEND  =   0.0 temperature during run
   SMASS  =  -3.00    Nose mass-parameter (am)
   estimated Nose-frequenzy (Omega)   =  0.10E-29 period in steps =****** mass=  -0.176E-26a.u.
   SCALEE = 1.0000    scale energy and forces
   NPACO  =    256;   APACO  = 16.0  distance and # of slots for P.C.
   PSTRESS=    0.0 pullay stress

  Mass of Ions in am
   POMASS =  91.22178.49 47.88 14.00 12.01 52.00 50.94
  Ionic Valenz
   ZVAL   =  12.00 10.00 12.00  5.00  4.00 12.00 13.00
  Atomic Wigner-Seitz radii
   RWIGS  =  -1.00 -1.00 -1.00 -1.00 -1.00 -1.00 -1.00
  virtual crystal weights 
   VCA    =   1.00  1.00  1.00  1.00  1.00  1.00  1.00
   NELECT =     519.0000    total number of electrons
   NUPDOWN=      -1.0000    fix difference up-down

 DOS related values:
   EMIN   =  10.00;   EMAX   =-10.00  energy-range for DOS
   EFERMI =   0.00
   ISMEAR =     0;   SIGMA  =   0.10  broadening in eV -4-tet -1-fermi 0-gaus

 Electronic relaxation 2 (details)
   IALGO  =     68    algorithm
   LDIAG  =      T    sub-space diagonalisation (order eigenvalues)
   LSUBROT=      F    optimize rotation matrix (better conditioning)
   TURBO    =      0    0=normal 1=particle mesh
   IRESTART =      0    0=no restart 2=restart with 2 vectors
   NREBOOT  =      0    no. of reboots
   NMIN     =      0    reboot dimension
   EREF     =   0.00    reference energy to select bands
   IMIX   =      4    mixing-type and parameters
     AMIX     =   0.40;   BMIX     =  1.00
     AMIX_MAG =   1.60;   BMIX_MAG =  1.00
     AMIN     =   0.10
     WC   =   100.;   INIMIX=   1;  MIXPRE=   1;  MAXMIX= -45

 Intra band minimization:
   WEIMIN = 0.0010     energy-eigenvalue tresh-hold
   EBREAK =  0.80E-08  absolut break condition
   DEPER  =   0.30     relativ break condition  

   TIME   =   0.40     timestep for ELM

  volume/ion in A,a.u.               =      10.63        71.76
  Fermi-wavevector in a.u.,A,eV,Ry     =   1.495667  2.826401 30.436513  2.237021
  Thomas-Fermi vector in A             =   2.607783
 
 Write flags
   LWAVE        =      F    write WAVECAR
   LDOWNSAMPLE  =      F    k-point downsampling of WAVECAR
   LCHARG       =      F    write CHGCAR
   LVTOT        =      F    write LOCPOT, total local potential
   LVHAR        =      F    write LOCPOT, Hartree potential only
   LELF         =      F    write electronic localiz. function (ELF)
   LORBIT       =      0    0 simple, 1 ext, 2 COOP (PROOUT), +10 PAW based schemes


 Dipole corrections
   LMONO  =      F    monopole corrections only (constant potential shift)
   LDIPOL =      F    correct potential (dipole corrections)
   IDIPOL =      0    1-x, 2-y, 3-z, 4-all directions 
   EPSILON=  1.0000000 bulk dielectric constant

 Exchange correlation treatment:
   GGA     =    --    GGA type
   LEXCH   =     8    internal setting for exchange type
   VOSKOWN=      0    Vosko Wilk Nusair interpolation
   LHFCALC =     F    Hartree Fock is set to
   LHFONE  =     F    Hartree Fock one center treatment
   AEXX    =    0.0000 exact exchange contribution

 Linear response parameters
   LEPSILON=     F    determine dielectric tensor
   LRPA    =     F    only Hartree local field effects (RPA)
   LNABLA  =     F    use nabla operator in PAW spheres
   LVEL    =     F    velocity operator in full k-point grid
   LINTERFAST=   F  fast interpolation
   KINTER  =     0    interpolate to denser k-point grid
   CSHIFT  =0.1000    complex shift for real part using Kramers Kronig
   OMEGAMAX=  -1.0    maximum frequency
   DEG_THRESHOLD= 0.2000000E-02 threshold for treating states as degnerate
   RTIME   =   -0.100 relaxation time in fs
  (WPLASMAI=    0.000 imaginary part of plasma frequency in eV, 0.658/RTIME)
   DFIELD  = 0.0000000 0.0000000 0.0000000 field for delta impulse in time
 
 Orbital magnetization related:
   ORBITALMAG=     F  switch on orbital magnetization
   LCHIMAG   =     F  perturbation theory with respect to B field
   DQ        =  0.001000  dq finite difference perturbation B field
   LLRAUG    =     F  two centre corrections for induced B field



--------------------------------------------------------------------------------------------------------


 conjugate gradient relaxation of ions
 charge density and potential will be updated during run
 non-spin polarized calculation
 RMM-DIIS sequential band-by-band and
  variant of blocked Davidson during initial phase
 perform sub-space diagonalisation
    before iterative eigenvector-optimisation
 modified Broyden-mixing scheme, WC =      100.0
 initial mixing is a Kerker type mixing with AMIX =  0.4000 and BMIX =      1.0000
 Hartree-type preconditioning will be used
 using additional bands           52
 reciprocal scheme for non local part
 use partial core corrections
 calculate Harris-corrections to forces 
   (improved forces if not selfconsistent)
 use gradient corrections 
 use of overlap-Matrix (Vanderbilt PP)
 Gauss-broadening in eV      SIGMA  =   0.10


--------------------------------------------------------------------------------------------------------


  energy-cutoff  :      400.00
  volume of cell :      680.59
      direct lattice vectors                 reciprocal lattice vectors
     8.778462703  0.015413102 -0.013550483     0.113915289 -0.000277512 -0.000233399
     0.021482455  8.816043784  0.002650546    -0.000198906  0.113429999  0.000163508
     0.017987395 -0.012645170  8.794172394     0.000175586 -0.000034615  0.113711258

  length of vectors
     8.778486692  8.816070356  8.794199880     0.113915866  0.113430291  0.113711399


 
 k-points in units of 2pi/SCALE and weight: HECN                                    
   0.00000000  0.00000000  0.00000000       0.037
   0.03797176 -0.00009250 -0.00007780       0.074
  -0.00006630  0.03781000  0.00005450       0.074
   0.03790546  0.03771750 -0.00002330       0.074
  -0.03803807  0.03790250  0.00013230       0.074
   0.00005853 -0.00001154  0.03790375       0.074
   0.03803029 -0.00010404  0.03782595       0.074
  -0.03791323  0.00008097  0.03798155       0.074
  -0.00000777  0.03779846  0.03795826       0.074
   0.03796399  0.03770596  0.03788046       0.074
  -0.03797954  0.03789097  0.03803605       0.074
   0.00012483 -0.03782154  0.03784925       0.074
   0.03809659 -0.03791404  0.03777145       0.074
  -0.03784693 -0.03772903  0.03792705       0.074
 
 k-points in reciprocal lattice and weights: HECN                                    
   0.00000000  0.00000000  0.00000000       0.037
   0.33333333  0.00000000 -0.00000000       0.074
   0.00000000  0.33333333  0.00000000       0.074
   0.33333333  0.33333333  0.00000000       0.074
  -0.33333333  0.33333333  0.00000000       0.074
   0.00000000 -0.00000000  0.33333333       0.074
   0.33333333  0.00000000  0.33333333       0.074
  -0.33333333 -0.00000000  0.33333333       0.074
   0.00000000  0.33333333  0.33333333       0.074
   0.33333333  0.33333333  0.33333333       0.074
  -0.33333333  0.33333333  0.33333333       0.074
   0.00000000 -0.33333333  0.33333333       0.074
   0.33333333 -0.33333333  0.33333333       0.074
  -0.33333333 -0.33333333  0.33333333       0.074
 
 position of ions in fractional coordinates (direct lattice) 
   0.00149727  0.99126026  0.00271654
   0.26950109  0.99956487  0.24894124
   0.24765955  0.49769497  0.24844758
   0.50620319  0.49854549  0.00187447
   0.50383567  0.24699430  0.74416320
   0.99506473  0.50412517  0.50020688
   0.49735909  0.75854420  0.74895421
   0.99416819  0.24843722  0.24579335
   0.74674486  0.74931913  0.01116240
   0.99548717  0.24447535  0.75300154
   0.74616540  0.23488278  0.50046942
   0.99836123  0.75896737  0.74441871
   0.25056065  0.50076540  0.74890323
   0.25849143  0.24261565  0.99226104
   0.50743394  0.25754496  0.25363302
   0.73546360  0.98339844  0.26101116
   0.74530556  0.24676210  0.99931684
   0.25252950  0.74821743  0.00045789
   0.25464890  0.24692685  0.50306576
   0.25313092  0.75276040  0.49879325
   0.25372754  0.24797238  0.24617136
   0.26065383  0.00100617  0.99284123
   0.99800737  0.24849292  0.99878029
   0.74549270  0.24570838  0.24876859
   0.74227014  0.00206973  0.00261762
   0.51242584  0.00337176  0.25463813
   0.98832207  0.50306172  0.24487941
   0.49600580  0.76316530  0.00815682
   0.99961581  0.00175033  0.73861559
   0.75203257  0.24189954  0.75339131
   0.74278010  0.99161834  0.49901214
   0.49826823  0.24212911  0.49092810
   0.51572109  0.00173201  0.74433524
   0.99874707  0.99279604  0.25811206
   0.50372277  0.23874773  0.00447410
   0.25086898  0.74916194  0.24947368
   0.24062877  0.49933787  0.99756693
   0.00371365  0.73861016  0.00569747
   0.74532959  0.74625410  0.26245626
   0.76357576  0.49554614  0.00378104
   0.50801215  0.50050053  0.26075333
   0.24907011  0.24092062  0.74810567
   0.25435272  0.00004143  0.50810603
   0.00292462  0.24062973  0.49835596
   0.24638249  0.76058429  0.75092415
   0.25957874  0.50013877  0.49962994
   0.99746671  0.76373274  0.48988038
   0.98943827  0.50252168  0.76028639
   0.74857404  0.75346249  0.74795513
   0.73859115  0.50879930  0.50204726
   0.49876588  0.75873083  0.48747277
   0.50877647  0.50383444  0.74003895
   0.51646564  0.01159247  0.97262969
   0.99112884  0.51263904  0.98264111
   0.49056356  0.73052782  0.25967076
   0.23868504  0.00226254  0.73363919
   0.48144711  0.98774289  0.52062489
   0.73691556  0.97917658  0.77324492
   0.01645219  0.75714584  0.25719048
   0.74082117  0.51789840  0.26994452
   0.02349487  0.99786578  0.49560999
   0.50219916  0.52230842  0.49758537
   0.74654242  0.52540494  0.74036891
   0.74182982  0.75530414  0.49100523
 
 position of ions in cartesian coordinates  (Angst):
   0.03448730  8.73898255  0.02649683
   2.39175619  8.81321357  2.18822968
   2.18923077  4.38837616  2.18285407
   4.45442948  4.40297730  0.01094652
   4.44159425  2.17586817  6.53812695
   8.75496588  4.45340142  4.38675816
   4.39581533  6.68555411  6.58170352
   8.73702664  2.20244854  2.14873609
   6.57156988  6.61739879  0.09003138
   8.75764349  2.16112713  6.60918405
   6.56423315  2.07590907  4.39172598
   8.79377144  6.69706415  6.53502986
   2.22376582  4.40916160  6.58391618
   2.29221757  2.13034706  8.72325502
   4.46458482  2.27514151  2.22429915
   6.48206050  8.67771892  2.28801778
   6.56591326  2.17431642  8.77871938
   2.23290262  6.60020412  0.00258808
   2.24977934  2.17448154  4.42125092
   2.24724351  6.63396289  4.38503905
   2.23709276  2.18693321  2.16209250
   2.30602019  0.00033330  8.72768762
   8.78427421  2.19347713  8.77058118
   6.55403298  2.17452047  2.17826334
   6.51608233  0.02965441  0.01296720
   4.50296386  0.03440372  2.23239694
   8.69116019  4.44715068  2.14145287
   4.37070977  6.73564056  0.06703419
   8.78841351  0.02149825  6.48197224
   6.62043799  2.13466130  6.61590384
   6.55074576  8.74728919  4.38096208
   4.38806113  2.13609280  4.31119638
   4.54066423  0.01380608  6.53882877
   8.79343433  8.76466330  2.25897991
   4.42712089  2.11251783  0.03315311
   2.22282524  6.60535645  2.19250086
   2.14102132  4.39327898  8.77083847
   0.04856979  6.51160470  0.05201195
   6.56360028  6.58717783  2.29996404
   6.71373486  4.38047775  0.02421773
   4.47500799  4.41696733  2.28755257
   2.20508469  2.11834573  6.57623375
   2.24196623 -0.00213944  4.46492551
   0.03980710  2.11514549  4.38322637
   2.19270590  6.69964637  6.60243381
   2.29843357  4.40692833  4.39164007
   8.78144279  6.74228072  4.29660066
   8.71021792  4.43588953  6.67401418
   6.60096932  6.64463812  6.56949992
   6.50365562  4.49063241  4.40643051
   4.40346540  6.69052757  4.28217210
   4.49041027  4.44031040  6.50247139
   4.55151851  0.09786100  8.54650554
   8.72927545  4.52229896  8.62944384
   4.32675823  6.44464278  2.27887831
   2.10853254  0.01434858  6.44852119
   4.25694931  8.70882175  4.57455928
   6.50392954  8.63404393  6.79265888
   0.16531648  6.67203222  2.26356136
   6.51925232  4.57381986  2.36527291
   0.23660017  8.79132346  4.36080619
   4.42870729  4.60614234  4.37043087
   6.57809906  4.63413736  6.50220841
   6.53718313  6.66401947  4.30993446
 


--------------------------------------------------------------------------------------------------------


 k-point  1 :   0.0000 0.0000 0.0000  plane waves:   12361
 k-point  2 :   0.3333 0.0000-0.0000  plane waves:   12396
 k-point  3 :   0.0000 0.3333 0.0000  plane waves:   12381
 k-point  4 :   0.3333 0.3333 0.0000  plane waves:   12356
 k-point  5 :  -0.3333 0.3333 0.0000  plane waves:   12354
 k-point  6 :   0.0000-0.0000 0.3333  plane waves:   12386
 k-point  7 :   0.3333 0.0000 0.3333  plane waves:   12350
 k-point  8 :  -0.3333-0.0000 0.3333  plane waves:   12350
 k-point  9 :   0.0000 0.3333 0.3333  plane waves:   12360
 k-point 10 :   0.3333 0.3333 0.3333  plane waves:   12334
 k-point 11 :  -0.3333 0.3333 0.3333  plane waves:   12349
 k-point 12 :   0.0000-0.3333 0.3333  plane waves:   12365
 k-point 13 :   0.3333-0.3333 0.3333  plane waves:   12352
 k-point 14 :  -0.3333-0.3333 0.3333  plane waves:   12335

 maximum and minimum number of plane-waves per node :     12396    12334

 maximum number of plane-waves:     12396
 maximum index in each direction: 
   IXMAX=   14   IYMAX=   14   IZMAX=   14
   IXMIN=  -14   IYMIN=  -14   IZMIN=  -14


 serial   3D FFT for wavefunctions
 parallel 3D FFT for charge:
    minimum data exchange during FFTs selected (reduces bandwidth)


 total amount of memory used by VASP MPI-rank0   267166. kBytes
=======================================================================

   base      :      30000. kBytes
   nonl-proj :     187807. kBytes
   fftplans  :       1726. kBytes
   grid      :       8060. kBytes
   one-center:        995. kBytes
   wavefun   :      38578. kBytes
 
     INWAV:  cpu time    0.0001: real time    0.0002
 Broyden mixing: mesh for mixing (old mesh)
   NGX = 29   NGY = 29   NGZ = 29
  (NGX  = 96   NGY  = 96   NGZ  = 96)
  gives a total of  24389 points

 initial charge density was supplied:
 charge density of overlapping atoms calculated
 number of electron     519.0000000 magnetization 
 keeping initial charge density in first step


--------------------------------------------------------------------------------------------------------


 Maximum index for augmentation-charges          547 (set IRDMAX)


--------------------------------------------------------------------------------------------------------


 First call to EWALD:  gamma=   0.202
 Maximum number of real-space cells 3x 3x 3
 Maximum number of reciprocal cells 3x 3x 3

    FEWALD:  cpu time    0.0031: real time    0.0037


--------------------------------------- Iteration      1(   1)  ---------------------------------------


    POTLOK:  cpu time    0.0313: real time    0.0408
    SETDIJ:  cpu time    0.0093: real time    0.0123
     EDDAV:  cpu time   19.1772: real time   19.2441
       DOS:  cpu time    0.0016: real time    0.0027
    --------------------------------------------
      LOOP:  cpu time   19.2194: real time   19.2997

 eigenvalue-minimisations  :  8784
 total energy-change (2. order) : 0.6979941E+04  (-0.2161970E+05)
 number of electron     519.0000000 magnetization 
 augmentation part      519.0000000 magnetization 

 Free energy of the ion-electron system (eV)
  ---------------------------------------------------
  alpha Z        PSCENC =      4507.85283341
  Ewald energy   TEWEN  =    -43821.35511633
  -Hartree energ DENC   =    -10479.90456711
  -exchange      EXHF   =         0.00000000
  -V(xc)+E(xc)   XCENC  =      2206.87442502
  PAW double counting   =     34412.92025963   -34493.22405904
  entropy T*S    EENTRO =        -0.08843605
  eigenvalues    EBANDS =      1566.02755992
  atomic energy  EATOM  =     53080.83783574
  Solvation  Ediel_sol  =         0.00000000
  ---------------------------------------------------
  free energy    TOTEN  =      6979.94073519 eV

  energy without entropy =     6980.02917124  energy(sigma->0) =     6979.98495322


--------------------------------------------------------------------------------------------------------




--------------------------------------- Iteration      1(   2)  ---------------------------------------


     EDDAV:  cpu time   19.7072: real time   19.7576
       DOS:  cpu time    0.0012: real time    0.0012
    --------------------------------------------
      LOOP:  cpu time   19.7084: real time   19.7588

 eigenvalue-minimisations  :  8736
 total energy-change (2. order) :-0.6475767E+04  (-0.6306344E+04)
 number of electron     519.0000000 magnetization 
 augmentation part      519.0000000 magnetization 

 Free energy of the ion-electron system (eV)
  ---------------------------------------------------
  alpha Z        PSCENC =      4507.85283341
  Ewald energy   TEWEN  =    -43821.35511633
  -Hartree energ DENC   =    -10479.90456711
  -exchange      EXHF   =         0.00000000
  -V(xc)+E(xc)   XCENC  =      2206.87442502
  PAW double counting   =     34412.92025963   -34493.22405904
  entropy T*S    EENTRO =        -0.11539698
  eigenvalues    EBANDS =     -4909.71238850
  atomic energy  EATOM  =     53080.83783574
  Solvation  Ediel_sol  =         0.00000000
  ---------------------------------------------------
  free energy    TOTEN  =       504.17382585 eV

  energy without entropy =      504.28922283  energy(sigma->0) =      504.23152434


--------------------------------------------------------------------------------------------------------




--------------------------------------- Iteration      1(   3)  ---------------------------------------


     EDDAV:  cpu time   27.3187: real time   27.3748
       DOS:  cpu time    0.0011: real time    0.0011
    --------------------------------------------
      LOOP:  cpu time   27.3198: real time   27.3758

 eigenvalue-minimisations  : 12816
 total energy-change (2. order) :-0.1122590E+04  (-0.1051770E+04)
 number of electron     519.0000000 magnetization 
 augmentation part      519.0000000 magnetization 

 Free energy of the ion-electron system (eV)
  ---------------------------------------------------
  alpha Z        PSCENC =      4507.85283341
  Ewald energy   TEWEN  =    -43821.35511633
  -Hartree energ DENC   =    -10479.90456711
  -exchange      EXHF   =         0.00000000
  -V(xc)+E(xc)   XCENC  =      2206.87442502
  PAW double counting   =     34412.92025963   -34493.22405904
  entropy T*S    EENTRO =        -0.09589830
  eigenvalues    EBANDS =     -6032.32225041
  atomic energy  EATOM  =     53080.83783574
  Solvation  Ediel_sol  =         0.00000000
  ---------------------------------------------------
  free energy    TOTEN  =      -618.41653739 eV

  energy without entropy =     -618.32063909  energy(sigma->0) =     -618.36858824


--------------------------------------------------------------------------------------------------------




--------------------------------------- Iteration      1(   4)  ---------------------------------------


     EDDAV:  cpu time   33.3681: real time   33.4430
       DOS:  cpu time    0.0011: real time    0.0011
    --------------------------------------------
      LOOP:  cpu time   33.3692: real time   33.4441

 eigenvalue-minimisations  : 16176
 total energy-change (2. order) :-0.1612011E+03  (-0.1574666E+03)
 number of electron     519.0000000 magnetization 
 augmentation part      519.0000000 magnetization 

 Free energy of the ion-electron system (eV)
  ---------------------------------------------------
  alpha Z        PSCENC =      4507.85283341
  Ewald energy   TEWEN  =    -43821.35511633
  -Hartree energ DENC   =    -10479.90456711
  -exchange      EXHF   =         0.00000000
  -V(xc)+E(xc)   XCENC  =      2206.87442502
  PAW double counting   =     34412.92025963   -34493.22405904
  entropy T*S    EENTRO =        -0.09149782
  eigenvalues    EBANDS =     -6193.52777769
  atomic energy  EATOM  =     53080.83783574
  Solvation  Ediel_sol  =         0.00000000
  ---------------------------------------------------
  free energy    TOTEN  =      -779.61766418 eV

  energy without entropy =     -779.52616636  energy(sigma->0) =     -779.57191527


--------------------------------------------------------------------------------------------------------




--------------------------------------- Iteration      1(   5)  ---------------------------------------


     EDDAV:  cpu time   34.8601: real time   34.9012
       DOS:  cpu time    0.0011: real time    0.0011
    CHARGE:  cpu time    0.2531: real time    0.2556
    MIXING:  cpu time    0.0021: real time    0.0031
    --------------------------------------------
      LOOP:  cpu time   35.1165: real time   35.1610

 eigenvalue-minimisations  : 17040
 total energy-change (2. order) :-0.1312110E+02  (-0.1290754E+02)
 number of electron     518.9999871 magnetization 
 augmentation part      113.8028243 magnetization 

 Broyden mixing:
  rms(total) = 0.82539E+01    rms(broyden)= 0.82528E+01
  rms(prec ) = 0.12996E+02
  weight for this iteration     100.00

 Free energy of the ion-electron system (eV)
  ---------------------------------------------------
  alpha Z        PSCENC =      4507.85283341
  Ewald energy   TEWEN  =    -43821.35511633
  -Hartree energ DENC   =    -10479.90456711
  -exchange      EXHF   =         0.00000000
  -V(xc)+E(xc)   XCENC  =      2206.87442502
  PAW double counting   =     34412.92025963   -34493.22405904
  entropy T*S    EENTRO =        -0.09268282
  eigenvalues    EBANDS =     -6206.64769649
  atomic energy  EATOM  =     53080.83783574
  Solvation  Ediel_sol  =         0.00000000
  ---------------------------------------------------
  free energy    TOTEN  =      -792.73876798 eV

  energy without entropy =     -792.64608516  energy(sigma->0) =     -792.69242657


--------------------------------------------------------------------------------------------------------




--------------------------------------- Iteration      1(   6)  ---------------------------------------


    POTLOK:  cpu time    0.0243: real time    0.0279
    SETDIJ:  cpu time    0.0076: real time    0.0076
    EDDIAG:  cpu time    1.7851: real time    1.7870
  RMM-DIIS:  cpu time   18.8913: real time   18.8991
    ORTHCH:  cpu time    0.4296: real time    0.4300
       DOS:  cpu time    0.0012: real time    0.0012
    CHARGE:  cpu time    0.2754: real time    0.2753
    MIXING:  cpu time    0.0014: real time    0.0024
    --------------------------------------------
      LOOP:  cpu time   21.4159: real time   21.4306

 eigenvalue-minimisations  : 12122
 total energy-change (2. order) :-0.9355023E+02  (-0.2948827E+03)
 number of electron     518.9999880 magnetization 
 augmentation part      157.1739699 magnetization 

 Broyden mixing:
  rms(total) = 0.11594E+02    rms(broyden)= 0.11592E+02
  rms(prec ) = 0.18691E+02
  weight for this iteration     100.00

 eigenvalues of (default mixing * dielectric matrix)
  average eigenvalue GAMMA=   0.4012
  0.4012

 Free energy of the ion-electron system (eV)
  ---------------------------------------------------
  alpha Z        PSCENC =      4507.85283341
  Ewald energy   TEWEN  =    -43821.35511633
  -Hartree energ DENC   =     -9370.72780042
  -exchange      EXHF   =         0.00000000
  -V(xc)+E(xc)   XCENC  =      2178.14195113
  PAW double counting   =     32836.23597792   -32937.55288860
  entropy T*S    EENTRO =        -0.22692780
  eigenvalues    EBANDS =     -7359.49486793
  atomic energy  EATOM  =     53080.83783574
  Solvation  Ediel_sol  =         0.00000000
  ---------------------------------------------------
  free energy    TOTEN  =      -886.28900286 eV

  energy without entropy =     -886.06207506  energy(sigma->0) =     -886.17553896


--------------------------------------------------------------------------------------------------------




--------------------------------------- Iteration      1(   7)  ---------------------------------------


    POTLOK:  cpu time    0.0267: real time    0.0269
    SETDIJ:  cpu time    0.0076: real time    0.0076
    EDDIAG:  cpu time    1.8862: real time    1.9045
  RMM-DIIS:  cpu time   20.4006: real time   20.4125
    ORTHCH:  cpu time    0.4105: real time    0.4105
       DOS:  cpu time    0.0011: real time    0.0011
    CHARGE:  cpu time    0.2660: real time    0.2660
    MIXING:  cpu time    0.0010: real time    0.0014
    --------------------------------------------
      LOOP:  cpu time   22.9997: real time   23.0304

 eigenvalue-minimisations  : 13692
 total energy-change (2. order) : 0.2386047E+03  (-0.2971330E+02)
 number of electron     518.9999904 magnetization 
 augmentation part      127.0182587 magnetization 

 Broyden mixing:
  rms(total) = 0.55077E+01    rms(broyden)= 0.55058E+01
  rms(prec ) = 0.95533E+01
  weight for this iteration     100.00

 eigenvalues of (default mixing * dielectric matrix)
  average eigenvalue GAMMA=   0.4444
  0.6170  0.2718

 Free energy of the ion-electron system (eV)
  ---------------------------------------------------
  alpha Z        PSCENC =      4507.85283341
  Ewald energy   TEWEN  =    -43821.35511633
  -Hartree energ DENC   =     -9856.95739894
  -exchange      EXHF   =         0.00000000
  -V(xc)+E(xc)   XCENC  =      2194.93892690
  PAW double counting   =     34127.45987806   -34299.31126044
  entropy T*S    EENTRO =        -0.13373000
  eigenvalues    EBANDS =     -6581.01625653
  atomic energy  EATOM  =     53080.83783574
  Solvation  Ediel_sol  =         0.00000000
  ---------------------------------------------------
  free energy    TOTEN  =      -647.68428812 eV

  energy without entropy =     -647.55055812  energy(sigma->0) =     -647.61742312


--------------------------------------------------------------------------------------------------------




--------------------------------------- Iteration      1(   8)  ---------------------------------------


    POTLOK:  cpu time    0.0252: real time    0.0274
    SETDIJ:  cpu time    0.0075: real time    0.0075
    EDDIAG:  cpu time    1.7930: real time    1.7935
  RMM-DIIS:  cpu time   20.7455: real time   20.7757
    ORTHCH:  cpu time    0.4080: real time    0.4081
       DOS:  cpu time    0.0010: real time    0.0010
    CHARGE:  cpu time    0.2517: real time    0.2517
    MIXING:  cpu time    0.0010: real time    0.0010
    --------------------------------------------
      LOOP:  cpu time   23.2330: real time   23.2660

 eigenvalue-minimisations  : 13905
 total energy-change (2. order) : 0.1176135E+02  (-0.8206842E+01)
 number of electron     518.9999897 magnetization 
 augmentation part      128.9938715 magnetization 

 Broyden mixing:
  rms(total) = 0.30751E+01    rms(broyden)= 0.30693E+01
  rms(prec ) = 0.55497E+01
  weight for this iteration     100.00

 eigenvalues of (default mixing * dielectric matrix)
  average eigenvalue GAMMA=   0.4487
  0.7239  0.4169  0.2052

 Free energy of the ion-electron system (eV)
  ---------------------------------------------------
  alpha Z        PSCENC =      4507.85283341
  Ewald energy   TEWEN  =    -43821.35511633
  -Hartree energ DENC   =     -9889.12996189
  -exchange      EXHF   =         0.00000000
  -V(xc)+E(xc)   XCENC  =      2195.51958169
  PAW double counting   =     34539.87367231   -34710.82975099
  entropy T*S    EENTRO =        -0.12533919
  eigenvalues    EBANDS =     -6538.56669056
  atomic energy  EATOM  =     53080.83783574
  Solvation  Ediel_sol  =         0.00000000
  ---------------------------------------------------
  free energy    TOTEN  =      -635.92293580 eV

  energy without entropy =     -635.79759662  energy(sigma->0) =     -635.86026621


--------------------------------------------------------------------------------------------------------




--------------------------------------- Iteration      1(   9)  ---------------------------------------


    POTLOK:  cpu time    0.0239: real time    0.0268
    SETDIJ:  cpu time    0.0075: real time    0.0074
    EDDIAG:  cpu time    1.8027: real time    1.8030
  RMM-DIIS:  cpu time   21.4395: real time   21.4747
    ORTHCH:  cpu time    0.4084: real time    0.4085
       DOS:  cpu time    0.0010: real time    0.0010
    CHARGE:  cpu time    0.2627: real time    0.2627
    MIXING:  cpu time    0.0010: real time    0.0009
    --------------------------------------------
      LOOP:  cpu time   23.9467: real time   23.9852

 eigenvalue-minimisations  : 14197
 total energy-change (2. order) : 0.1188194E+02  (-0.2204838E+01)
 number of electron     518.9999904 magnetization 
 augmentation part      127.7375793 magnetization 

 Broyden mixing:
  rms(total) = 0.16526E+01    rms(broyden)= 0.16518E+01
  rms(prec ) = 0.26239E+01
  weight for this iteration     100.00

 eigenvalues of (default mixing * dielectric matrix)
  average eigenvalue GAMMA=   0.3992
  0.6660  0.3540  0.3540  0.2227

 Free energy of the ion-electron system (eV)
  ---------------------------------------------------
  alpha Z        PSCENC =      4507.85283341
  Ewald energy   TEWEN  =    -43821.35511633
  -Hartree energ DENC   =     -9832.26175432
  -exchange      EXHF   =         0.00000000
  -V(xc)+E(xc)   XCENC  =      2192.58464750
  PAW double counting   =     34764.82032517   -34934.34401181
  entropy T*S    EENTRO =        -0.13578453
  eigenvalues    EBANDS =     -6582.03997429
  atomic energy  EATOM  =     53080.83783574
  Solvation  Ediel_sol  =         0.00000000
  ---------------------------------------------------
  free energy    TOTEN  =      -624.04099947 eV

  energy without entropy =     -623.90521494  energy(sigma->0) =     -623.97310720


--------------------------------------------------------------------------------------------------------




--------------------------------------- Iteration      1(  10)  ---------------------------------------


    POTLOK:  cpu time    0.0238: real time    0.0270
    SETDIJ:  cpu time    0.0074: real time    0.0074
    EDDIAG:  cpu time    1.7870: real time    1.7874
  RMM-DIIS:  cpu time   21.5395: real time   21.5633
    ORTHCH:  cpu time    0.4060: real time    0.4062
       DOS:  cpu time    0.0011: real time    0.0011
    CHARGE:  cpu time    0.2588: real time    0.2589
    MIXING:  cpu time    0.0011: real time    0.0011
    --------------------------------------------
      LOOP:  cpu time   24.0247: real time   24.0523

 eigenvalue-minimisations  : 14367
 total energy-change (2. order) :-0.6142048E+00  (-0.9703718E+00)
 number of electron     518.9999907 magnetization 
 augmentation part      127.8012347 magnetization 

 Broyden mixing:
  rms(total) = 0.18711E+01    rms(broyden)= 0.18692E+01
  rms(prec ) = 0.31741E+01
  weight for this iteration     100.00

 eigenvalues of (default mixing * dielectric matrix)
  average eigenvalue GAMMA=   0.4968
  0.8440  0.8440  0.4683  0.2147  0.1129

 Free energy of the ion-electron system (eV)
  ---------------------------------------------------
  alpha Z        PSCENC =      4507.85283341
  Ewald energy   TEWEN  =    -43821.35511633
  -Hartree energ DENC   =     -9817.61117380
  -exchange      EXHF   =         0.00000000
  -V(xc)+E(xc)   XCENC  =      2191.66217363
  PAW double counting   =     34849.37622997   -35016.31536662
  entropy T*S    EENTRO =        -0.12123027
  eigenvalues    EBANDS =     -6598.98139004
  atomic energy  EATOM  =     53080.83783574
  Solvation  Ediel_sol  =         0.00000000
  ---------------------------------------------------
  free energy    TOTEN  =      -624.65520430 eV

  energy without entropy =     -624.53397403  energy(sigma->0) =     -624.59458917


--------------------------------------------------------------------------------------------------------




--------------------------------------- Iteration      1(  11)  ---------------------------------------


    POTLOK:  cpu time    0.0243: real time    0.0276
    SETDIJ:  cpu time    0.0076: real time    0.0076
    EDDIAG:  cpu time    1.7972: real time    1.7974
  RMM-DIIS:  cpu time   21.8682: real time   21.8723
    ORTHCH:  cpu time    0.4073: real time    0.4073
       DOS:  cpu time    0.0010: real time    0.0010
    CHARGE:  cpu time    0.2668: real time    0.2668
    MIXING:  cpu time    0.0011: real time    0.0011
    --------------------------------------------
      LOOP:  cpu time   24.3736: real time   24.3811

 eigenvalue-minimisations  : 14040
 total energy-change (2. order) : 0.1439432E+01  (-0.6624629E+00)
 number of electron     518.9999908 magnetization 
 augmentation part      127.8824536 magnetization 

 Broyden mixing:
  rms(total) = 0.12012E+01    rms(broyden)= 0.11997E+01
  rms(prec ) = 0.19074E+01
  weight for this iteration     100.00

 eigenvalues of (default mixing * dielectric matrix)
  average eigenvalue GAMMA=   0.4968
  0.9952  0.9952  0.4530  0.2133  0.2133  0.1110

 Free energy of the ion-electron system (eV)
  ---------------------------------------------------
  alpha Z        PSCENC =      4507.85283341
  Ewald energy   TEWEN  =    -43821.35511633
  -Hartree energ DENC   =     -9783.36427939
  -exchange      EXHF   =         0.00000000
  -V(xc)+E(xc)   XCENC  =      2189.27193593
  PAW double counting   =     35086.64993107   -35244.63291190
  entropy T*S    EENTRO =        -0.15855270
  eigenvalues    EBANDS =     -6638.31744803
  atomic energy  EATOM  =     53080.83783574
  Solvation  Ediel_sol  =         0.00000000
  ---------------------------------------------------
  free energy    TOTEN  =      -623.21577220 eV

  energy without entropy =     -623.05721949  energy(sigma->0) =     -623.13649585


--------------------------------------------------------------------------------------------------------




--------------------------------------- Iteration      1(  12)  ---------------------------------------


    POTLOK:  cpu time    0.0239: real time    0.0269
    SETDIJ:  cpu time    0.0074: real time    0.0074
    EDDIAG:  cpu time    1.8549: real time    1.8688
  RMM-DIIS:  cpu time   20.4335: real time   20.4569
    ORTHCH:  cpu time    0.4063: real time    0.4063
       DOS:  cpu time    0.0010: real time    0.0010
    CHARGE:  cpu time    0.2743: real time    0.2745
    MIXING:  cpu time    0.0013: real time    0.0013
    --------------------------------------------
      LOOP:  cpu time   23.0026: real time   23.0431

 eigenvalue-minimisations  : 13737
 total energy-change (2. order) : 0.1338284E+00  (-0.3578176E+00)
 number of electron     518.9999910 magnetization 
 augmentation part      127.9318563 magnetization 

 Broyden mixing:
  rms(total) = 0.11531E+01    rms(broyden)= 0.11515E+01
  rms(prec ) = 0.18503E+01
  weight for this iteration     100.00

 eigenvalues of (default mixing * dielectric matrix)
  average eigenvalue GAMMA=   0.5315
  1.1824  1.1824  0.4549  0.4549  0.2166  0.1287  0.1006

 Free energy of the ion-electron system (eV)
  ---------------------------------------------------
  alpha Z        PSCENC =      4507.85283341
  Ewald energy   TEWEN  =    -43821.35511633
  -Hartree energ DENC   =     -9773.73399370
  -exchange      EXHF   =         0.00000000
  -V(xc)+E(xc)   XCENC  =      2188.45064596
  PAW double counting   =     35212.99781621   -35365.75252969
  entropy T*S    EENTRO =        -0.15647468
  eigenvalues    EBANDS =     -6652.22296070
  atomic energy  EATOM  =     53080.83783574
  Solvation  Ediel_sol  =         0.00000000
  ---------------------------------------------------
  free energy    TOTEN  =      -623.08194378 eV

  energy without entropy =     -622.92546910  energy(sigma->0) =     -623.00370644


--------------------------------------------------------------------------------------------------------




--------------------------------------- Iteration      1(  13)  ---------------------------------------


    POTLOK:  cpu time    0.0244: real time    0.0272
    SETDIJ:  cpu time    0.0075: real time    0.0075
    EDDIAG:  cpu time    1.8114: real time    1.8115
  RMM-DIIS:  cpu time   21.6593: real time   21.6898
    ORTHCH:  cpu time    0.4066: real time    0.4066
       DOS:  cpu time    0.0010: real time    0.0010
    CHARGE:  cpu time    0.2662: real time    0.2664
    MIXING:  cpu time    0.0013: real time    0.0013
    --------------------------------------------
      LOOP:  cpu time   24.1778: real time   24.2113

 eigenvalue-minimisations  : 14343
 total energy-change (2. order) : 0.1871463E+00  (-0.3053438E+00)
 number of electron     518.9999909 magnetization 
 augmentation part      127.5540053 magnetization 

 Broyden mixing:
  rms(total) = 0.88925E+00    rms(broyden)= 0.88769E+00
  rms(prec ) = 0.14502E+01
  weight for this iteration     100.00

 eigenvalues of (default mixing * dielectric matrix)
  average eigenvalue GAMMA=   0.5781
  1.4194  1.4194  0.6064  0.5177  0.2343  0.2055  0.1233  0.0987

 Free energy of the ion-electron system (eV)
  ---------------------------------------------------
  alpha Z        PSCENC =      4507.85283341
  Ewald energy   TEWEN  =    -43821.35511633
  -Hartree energ DENC   =     -9768.63849545
[...]
  0.010  -0.026  -0.003   0.006  -0.000   0.004  -0.009   0.003  -0.006  -0.672  -0.011  -0.005   0.010   0.011   1.092  -0.003
 -0.002  -0.001  -0.001   0.003   0.002  -0.067  -0.146  -0.008   0.007  -0.011  -1.128  -0.015  -0.051  -0.003  -0.003   2.691
  0.012  -0.025  -0.000  -0.000  -0.007   0.003   0.001   0.006  -0.004  -0.005  -0.015  -0.550  -0.001   0.004   0.012   0.025
 -0.064   0.146  -0.002   0.000  -0.001  -0.099  -0.006  -0.002  -0.004   0.009  -0.051  -0.002  -1.123   0.020   0.007   0.062


------------------------ aborting loop because EDIFF is reached ----------------------------------------


    CHARGE:  cpu time    0.2550: real time    0.2552
    FORLOC:  cpu time    0.0136: real time    0.0136
    FORNL :  cpu time   13.0845: real time   13.1097
    STRESS:  cpu time   24.7621: real time   24.8427
    FORCOR:  cpu time    0.0293: real time    0.0293
    FORHAR:  cpu time    0.0177: real time    0.0177
    MIXING:  cpu time    0.0011: real time    0.0011
    OFIELD:  cpu time    0.0000: real time    0.0000

  FORCE on cell =-STRESS in cart. coord.  units (eV):
  Direction    XX          YY          ZZ          XY          YZ          ZX
  --------------------------------------------------------------------------------------
  Alpha Z  4521.51470  4521.51470  4521.51470
  Ewald  -14528.75558-14828.78768-14513.63265    -8.39862   128.86592    58.58096
  Hartree  3319.55488  3094.91331  3359.73638    15.32664   109.86412    37.26434
  E(xc)   -2433.43695 -2433.57630 -2433.50482    -0.11245     0.05679     0.10605
  Local    3075.66676  3586.84377  3011.74867    -4.92080  -237.81039   -96.74180
  n-local -2576.84912 -2581.19336 -2576.03197     2.13058    -1.48033    -0.75221
  augment  1045.92332  1051.15136  1048.29207    -0.82614    -0.35578     0.53501
  Kinetic  7576.16495  7589.02430  7581.62358    -3.19141     0.86944     0.96610
  Fock        0.00000     0.00000     0.00000     0.00000     0.00000     0.00000
  -------------------------------------------------------------------------------------
  Total      -0.21705    -0.10989    -0.25405     0.00780     0.00976    -0.04155
  in kB      -0.51251    -0.25948    -0.59988     0.01842     0.02304    -0.09810
  external pressure =       -0.46 kB  Pullay stress =        0.00 kB


 VOLUME and BASIS-vectors are now :
 -----------------------------------------------------------------------------
  energy-cutoff  :      400.00
  volume of cell :      678.54
      direct lattice vectors                 reciprocal lattice vectors
     8.771620325  0.016045431 -0.014007765     0.114004183 -0.000286432 -0.000227486
     0.022123720  8.803250622  0.002905447    -0.000207537  0.113594872  0.000160297
     0.017503022 -0.012367914  8.787193435     0.000181804 -0.000038016  0.113801563

  length of vectors
     8.771646185  8.803278902  8.787219570     0.114004770  0.113595174  0.113801715


 FORCES acting on ions
    electron-ion (+dipol)            ewald-force                    non-local-force                 convergence-correction
 -----------------------------------------------------------------------------------------------
   -.129E+02 -.287E+02 -.140E+02   0.133E+02 0.273E+02 0.157E+02   -.416E+00 0.130E+01 -.173E+01   0.495E-01 0.185E-01 -.397E-01
   0.838E+02 -.582E+02 0.700E+02   -.833E+02 0.577E+02 -.696E+02   -.603E+00 0.510E+00 -.345E+00   0.502E-01 0.134E-01 -.146E-01
   0.823E+02 0.821E+02 0.457E+02   -.815E+02 -.814E+02 -.459E+02   -.850E+00 -.732E+00 0.183E+00   0.368E-01 -.130E-01 0.346E-02
   0.469E+02 0.255E+02 0.782E+02   -.466E+02 -.269E+02 -.785E+02   -.309E+00 0.140E+01 0.358E+00   -.664E-02 -.135E-01 -.148E-01
   0.371E+02 -.186E+03 -.130E+02   -.377E+02 0.188E+03 0.138E+02   0.671E+00 -.130E+01 -.869E+00   -.507E-01 -.672E-01 0.325E-01
   -.762E+02 0.128E+03 -.886E+02   0.765E+02 -.128E+03 0.894E+02   -.240E+00 -.672E-01 -.913E+00   0.157E-01 -.272E-01 0.264E-01
   0.817E+02 0.163E+03 -.966E+02   -.825E+02 -.165E+03 0.958E+02   0.900E+00 0.146E+01 0.705E+00   -.639E-01 0.707E-01 0.318E-01
   -.159E+02 -.197E+02 -.146E+02   0.153E+02 0.189E+02 0.154E+02   0.524E+00 0.806E+00 -.800E+00   0.102E-01 -.215E-01 0.503E-02
   -.645E+02 0.626E+02 0.152E+02   0.651E+02 -.639E+02 -.146E+02   -.579E+00 0.122E+01 -.584E+00   -.468E-01 0.232E-01 -.123E-01
   -.166E+02 -.109E+03 0.310E+02   0.168E+02 0.110E+03 -.320E+02   -.263E+00 -.477E+00 0.105E+01   0.400E-01 -.379E-01 -.708E-02
   -.118E+03 -.693E+02 -.268E+02   0.119E+03 0.686E+02 0.268E+02   -.853E+00 0.670E+00 -.492E-02   -.203E-01 -.317E-02 0.880E-02
   -.340E+02 0.922E+02 -.464E+02   0.347E+02 -.929E+02 0.460E+02   -.708E+00 0.626E+00 0.338E+00   0.525E-01 0.321E-01 0.630E-02
   0.596E+02 0.318E+02 -.238E+02   -.594E+02 -.317E+02 0.238E+02   -.234E+00 -.105E+00 0.455E-01   0.226E-01 -.852E-02 -.328E-02
   0.903E+02 -.124E+03 0.117E+02   -.890E+02 0.125E+03 -.131E+02   -.132E+01 -.865E+00 0.138E+01   0.566E-01 -.821E-01 -.520E-01
   0.326E+02 -.263E+02 0.441E+02   -.319E+02 0.266E+02 -.442E+02   -.686E+00 -.341E+00 0.142E+00   -.141E-01 -.334E-01 -.178E-01
   -.136E+03 -.971E+02 0.743E+02   0.135E+03 0.957E+02 -.731E+02   0.122E+01 0.126E+01 -.117E+01   -.552E-01 0.384E-01 -.369E-01
   -.102E+03 -.115E+03 -.114E+02   0.101E+03 0.116E+03 0.114E+02   0.117E+01 -.164E+01 0.738E-01   -.605E-01 -.474E-01 -.144E-01
   0.561E+02 0.722E+02 0.672E+02   -.562E+02 -.730E+02 -.678E+02   0.825E-01 0.719E+00 0.588E+00   0.615E-01 0.663E-01 -.485E-01
   0.122E+03 -.152E+03 -.753E+01   -.123E+03 0.153E+03 0.884E+01   0.539E+00 -.918E+00 -.135E+01   0.208E-01 -.595E-01 0.435E-01
   0.106E+03 0.135E+03 -.722E+02   -.106E+03 -.136E+03 0.725E+02   0.170E+00 0.805E+00 -.434E+00   0.324E-01 0.562E-01 0.446E-01
   0.627E+02 -.205E+02 0.126E+02   -.623E+02 0.207E+02 -.126E+02   -.349E+00 -.234E+00 -.473E-01   0.129E-01 -.153E-01 -.315E-02
   0.319E+02 0.438E+01 -.547E+01   -.313E+02 -.538E+01 0.506E+01   -.628E+00 0.987E+00 0.468E+00   0.471E-01 0.803E-02 -.530E-01
   -.249E+02 -.275E+02 -.720E+01   0.256E+02 0.289E+02 0.730E+01   -.680E+00 -.136E+01 -.974E-01   0.887E-02 -.261E-01 -.948E-02
   -.775E+02 -.128E+02 -.175E+02   0.771E+02 0.132E+02 0.162E+02   0.360E+00 -.413E+00 0.130E+01   -.128E-01 -.928E-02 -.282E-02
   -.905E+02 0.127E+02 -.660E+02   0.924E+02 -.116E+02 0.693E+02   -.182E+01 -.113E+01 -.329E+01   -.581E-01 0.970E-02 0.298E-02
   0.314E+02 -.102E+02 0.323E+02   -.309E+02 0.981E+01 -.329E+02   -.515E+00 0.343E+00 0.648E+00   -.175E-01 0.485E-02 -.166E-01
   -.255E+02 0.656E+02 0.243E+02   0.250E+02 -.648E+02 -.257E+02   0.443E+00 -.758E+00 0.143E+01   -.822E-03 -.154E-01 0.100E-01
   -.717E+01 0.347E+02 0.208E+01   0.619E+01 -.339E+02 -.881E+00   0.998E+00 -.873E+00 -.119E+01   -.119E-01 0.470E-01 -.116E-01
   0.476E+02 -.234E+02 -.417E+02   -.503E+02 0.239E+02 0.408E+02   0.256E+01 -.486E+00 0.926E+00   0.715E-01 0.104E-01 0.289E-02
   -.558E+02 -.496E+02 0.412E+02   0.559E+02 0.506E+02 -.409E+02   -.102E+00 -.968E+00 -.294E+00   -.131E-01 -.102E-02 0.321E-02
   -.568E+02 -.871E+02 -.405E+02   0.581E+02 0.875E+02 0.422E+02   -.129E+01 -.382E+00 -.175E+01   -.206E-01 0.271E-01 0.285E-02
   -.257E+02 -.403E+02 -.182E+02   0.249E+02 0.409E+02 0.172E+02   0.809E+00 -.625E+00 0.103E+01   -.966E-02 -.199E-01 0.943E-02
   0.512E+02 -.308E+02 0.191E+01   -.526E+02 0.317E+02 -.299E+01   0.143E+01 -.820E+00 0.105E+01   -.722E-01 0.757E-02 0.332E-01
   0.801E+01 -.704E+02 0.406E+02   -.830E+01 0.707E+02 -.408E+02   0.276E+00 -.371E+00 0.190E+00   0.972E-02 0.160E-01 -.151E-02
   0.246E+02 -.609E+02 -.276E+01   -.247E+02 0.619E+02 0.320E+01   0.137E+00 -.922E+00 -.420E+00   -.797E-02 -.437E-01 -.134E-01
   0.485E+01 0.106E+02 0.266E+02   -.519E+01 -.106E+02 -.267E+02   0.318E+00 -.118E-01 0.221E-01   0.231E-01 0.110E-01 -.217E-02
   0.409E+01 0.244E+02 0.288E+02   -.370E+01 -.245E+02 -.289E+02   -.402E+00 0.605E-01 0.963E-01   0.196E-01 -.356E-02 -.758E-02
   0.135E+02 -.989E+01 0.308E+02   -.134E+02 0.104E+02 -.309E+02   -.660E-01 -.480E+00 0.546E-01   0.682E-02 0.194E-01 -.152E-01
   -.390E+02 -.166E+02 0.844E+02   0.395E+02 0.172E+02 -.848E+02   -.561E+00 -.526E+00 0.469E+00   -.187E-01 0.282E-02 -.217E-01
   0.861E+01 0.537E+01 0.239E+01   -.895E+01 -.600E+01 -.204E+01   0.368E+00 0.624E+00 -.345E+00   -.209E-01 -.185E-02 -.818E-02
   0.424E+02 0.515E+02 0.565E+02   -.429E+02 -.527E+02 -.568E+02   0.464E+00 0.111E+01 0.376E+00   -.469E-02 -.335E-02 -.164E-02
   0.360E+02 -.764E+02 -.144E+02   -.360E+02 0.772E+02 0.144E+02   -.901E-01 -.754E+00 0.218E-01   0.120E-01 -.477E-01 0.375E-02
   0.152E+02 -.239E+02 0.436E+02   -.154E+02 0.239E+02 -.443E+02   0.236E+00 0.456E-01 0.737E+00   0.172E-01 0.450E-02 0.444E-01
   0.280E+02 -.552E+02 -.197E+01   -.278E+02 0.556E+02 0.213E+01   -.211E+00 -.439E+00 -.161E+00   0.918E-02 -.873E-02 0.830E-02
   0.351E+02 0.664E+02 -.245E+02   -.351E+02 -.672E+02 0.246E+02   -.344E-01 0.749E+00 -.136E+00   0.125E-01 0.456E-01 0.252E-02
   0.575E+02 0.300E+02 -.366E+02   -.579E+02 -.301E+02 0.367E+02   0.335E+00 0.314E-01 -.706E-01   0.841E-02 -.395E-02 0.653E-02
   -.103E+01 0.506E+02 -.567E+02   0.122E+01 -.509E+02 0.570E+02   -.219E+00 0.276E+00 -.323E+00   0.240E-01 0.796E-02 0.177E-01
   -.514E+02 0.277E+02 0.397E+02   0.518E+02 -.278E+02 -.406E+02   -.428E+00 0.135E+00 0.949E+00   -.944E-03 -.316E-02 -.133E-01
   -.503E+02 0.163E+02 -.370E+02   0.504E+02 -.168E+02 0.369E+02   -.125E+00 0.580E+00 0.725E-01   -.111E-01 -.110E-01 0.152E-01
   -.624E+02 0.960E+02 -.342E+02   0.628E+02 -.966E+02 0.344E+02   -.383E+00 0.570E+00 -.202E+00   -.737E-02 -.189E-01 0.106E-01
   0.206E+02 -.199E+01 -.280E+02   -.211E+02 0.220E+01 0.281E+02   0.457E+00 -.226E+00 -.111E+00   -.267E-01 0.177E-01 0.647E-02
   0.534E+02 0.327E+02 -.474E+02   -.540E+02 -.328E+02 0.479E+02   0.572E+00 0.126E+00 -.522E+00   -.110E-02 -.464E-02 0.198E-02
   0.119E+03 0.123E+02 -.142E+03   -.119E+03 -.108E+02 0.142E+03   0.327E+00 -.153E+01 -.291E+00   -.700E-01 0.130E-01 -.254E-01
   -.655E+02 0.763E+02 0.548E+01   0.650E+02 -.739E+02 -.658E+01   0.525E+00 -.233E+01 0.113E+01   0.133E-02 -.449E-02 -.277E-01
   0.425E+02 -.489E+02 0.159E+03   -.438E+02 0.474E+02 -.158E+03   0.139E+01 0.145E+01 -.735E+00   -.307E-01 0.349E-01 -.275E-01
   0.494E+02 -.245E+02 -.143E+03   -.507E+02 0.244E+02 0.142E+03   0.127E+01 0.868E-01 0.967E+00   0.674E-01 0.141E-01 0.306E-01
   -.392E+02 -.984E+02 0.861E+02   0.376E+02 0.966E+02 -.862E+02   0.170E+01 0.182E+01 0.969E-01   -.782E-01 0.259E-01 0.474E-01
   -.228E+03 -.553E+02 0.755E+02   0.228E+03 0.528E+02 -.753E+02   0.370E+00 0.246E+01 -.259E+00   -.761E-01 0.324E-01 0.414E-01
   0.309E+02 0.452E+02 0.103E+03   -.300E+02 -.439E+02 -.103E+03   -.947E+00 -.126E+01 0.152E+00   0.364E-01 0.270E-01 -.613E-02
   -.138E+03 0.171E+03 0.134E+03   0.138E+03 -.169E+03 -.135E+03   0.338E-01 -.170E+01 0.262E+00   -.346E-01 -.310E-01 -.111E-01
   0.126E+03 -.130E+03 0.209E+02   -.125E+03 0.130E+03 -.222E+02   -.688E+00 -.444E+00 0.118E+01   0.835E-01 0.339E-01 0.532E-01
   0.102E+03 0.187E+03 -.121E+03   -.103E+03 -.186E+03 0.122E+03   0.126E+01 -.136E+01 -.717E+00   -.252E-01 -.210E-01 0.170E-01
   -.860E+02 0.149E+03 -.885E+02   0.857E+02 -.147E+03 0.880E+02   0.344E+00 -.171E+01 0.507E+00   -.266E-01 -.220E-01 0.107E-01
   -.148E+03 0.493E+01 -.100E+03   0.149E+03 -.436E+01 0.100E+03   -.599E+00 -.580E+00 0.311E-01   -.367E-01 0.507E-02 0.194E-01
 -----------------------------------------------------------------------------------------------
   -.497E+01 0.693E+01 0.598E-01   0.313E-12 -.540E-12 -.256E-12   0.506E+01 -.693E+01 -.131E+00   -.922E-01 0.146E-01 0.637E-01
 
 
 POSITION                                       TOTAL-FORCE (eV/Angst)
 -----------------------------------------------------------------------------------
      0.03581      8.72673      0.02609        -0.000738      0.003346      0.000850
      2.38990      8.79991      2.18768         0.002754      0.002302      0.000773
      2.18814      4.38266      2.18136         0.000699     -0.003356      0.001157
      4.45044      4.39729      0.01131        -0.003130      0.004264     -0.000527
      4.43744      2.17310      6.53353         0.002002      0.001812     -0.005818
      8.74822      4.44784      4.38257         0.000592     -0.003348      0.001738
      4.39259      6.67650      6.57717        -0.001566     -0.005137      0.000272
      8.73078      2.20039      2.14689         0.000855      0.002626      0.000175
      6.56816      6.60765      0.08965         0.000176     -0.000255      0.002865
      8.75060      2.16042      6.60313        -0.003692      0.002171     -0.001481
      6.55870      2.07536      4.38766         0.000742     -0.000881      0.000025
      8.78602      6.68733      6.52999         0.000115     -0.001003     -0.000140
      2.22151      4.40327      6.57865         0.000574     -0.000432     -0.003120
      2.28944      2.12827      8.71681        -0.000902     -0.000216      0.001664
      4.46042      2.27130      2.22126         0.001251     -0.002117      0.001469
      6.47999      8.66734      2.28337        -0.003359     -0.002264      0.003062
      6.56090      2.17327      8.77192         0.003006      0.002890      0.001209
      2.23106      6.59166      0.00325         0.000746      0.000600      0.000627
      2.24786      2.17131      4.41711         0.001259      0.003032      0.001003
      2.24589      6.62483      4.38168         0.000828     -0.001382      0.000085
      2.23561      2.18379      2.16019         0.001328      0.000070      0.000885
      2.30498      0.00005      8.72012        -0.002184      0.000286      0.002896
      8.77801      2.19380      8.76327        -0.000318      0.001805     -0.001339
      6.54909      2.17302      2.17568        -0.003588      0.001490     -0.001944
      6.51178      0.03052      0.01375        -0.001485      0.002047     -0.000215
      4.50032      0.03308      2.22627         0.001586      0.001206     -0.008939
      8.68394      4.44290      2.13786         0.002258     -0.000230      0.000302
      4.36808      6.72807      0.06865         0.000062     -0.000114     -0.001951
      8.77821      0.02233      6.47499        -0.002498     -0.003115     -0.001251
      6.61489      2.13383      6.61068        -0.002402      0.005073      0.001603
      6.54648      8.73501      4.37871        -0.001278     -0.004952     -0.007162
      4.38428      2.13376      4.30690        -0.004168     -0.001078     -0.000029
      4.53924      0.01502      6.53413         0.008806      0.000436      0.002279
      8.78644      8.75266      2.25654         0.001229     -0.003092      0.003575
      4.42368      2.10977      0.03329         0.001057     -0.001246      0.002348
      2.22114      6.59598      2.19080        -0.000190      0.000122     -0.000157
      2.13853      4.38642      8.76426        -0.000844      0.000724      0.000967
      0.04949      6.50151      0.05256         0.003409     -0.003489      0.001366
      6.55973      6.57769      2.29806         0.000012      0.001636     -0.001529
      6.70878      4.37352      0.02473         0.002083     -0.002588      0.000662
      4.47153      4.41105      2.28556         0.001034     -0.003227      0.003124
      2.20276      2.11459      6.57099        -0.002897     -0.004814     -0.001014
      2.24028     -0.00176      4.46200         0.003126     -0.000338     -0.000238
      0.03960      2.11216      4.37950         0.001285     -0.002537      0.001106
      2.19050      6.69129      6.59738        -0.000380      0.004779     -0.000746
      2.29703      4.40078      4.38824         0.001137      0.000153      0.001637
      8.77371      6.73343      4.29272        -0.001271      0.004225     -0.001857
      8.70328      4.42987      6.66809        -0.001149     -0.000867      0.002133
      6.59571      6.63492      6.56420         0.000698      0.002926      0.000336
      6.49855      4.48381      4.40273        -0.005226      0.003995      0.000295
      4.40066      6.68145      4.27864         0.000610      0.001845     -0.000633
      4.48658      4.43433      6.49733         0.002142      0.001671     -0.002330
      4.54699      0.09734      8.54244         0.007775     -0.000292      0.000795
      8.72461      4.51279      8.62387        -0.002690      0.001533     -0.002699
      4.32501      6.43725      2.27574         0.000593      0.001371      0.000974
      2.10243      0.01424      6.44207        -0.008815     -0.003127     -0.003000
      4.25689      8.69767      4.57113         0.003569     -0.000022      0.001609
      6.50193      8.62361      6.78809         0.004979     -0.001244      0.002002
      0.16410      6.66152      2.26143         0.000084      0.001700      0.000554
      6.51374      4.56502      2.36218        -0.000886     -0.000975      0.000419
      0.23516      8.77931      4.35803        -0.005679      0.000394     -0.000066
      4.42513      4.59827      4.36681        -0.000278     -0.000866      0.001541
      6.57300      4.62506      6.49764        -0.001918     -0.004038     -0.000774
      6.53151      6.65503      4.30638        -0.000935      0.000116     -0.001422
 -----------------------------------------------------------------------------------
    total drift:                                0.000169      0.015280     -0.007544


--------------------------------------------------------------------------------------------------------



  FREE ENERGIE OF THE ION-ELECTRON SYSTEM (eV)
  ---------------------------------------------------
  free  energy   TOTEN  =      -622.60382225 eV

  energy  without entropy=     -622.44084567  energy(sigma->0) =     -622.52233396
 
 d Force = 0.4013510E-04[ 0.304E-04, 0.498E-04]  d Energy = 0.1787241E-04 0.223E-04
 d Force =-0.1069568E-01[-0.112E-01,-0.102E-01]  d Ewald  = 0.1858919E+01-0.187E+01


--------------------------------------------------------------------------------------------------------


    POTLOK:  cpu time    0.0320: real time    0.0320


--------------------------------------------------------------------------------------------------------


 Conjugate gradient step on ions:
 trial-energy change:   -0.000018  1 .order   -0.000058   -0.000067   -0.000049
  (g-gl).g = 0.113E-03      g.g   = 0.133E-03  gl.gl    = 0.218E-03
 g(Force)  = 0.105E-03   g(Stress)= 0.281E-04 ortho     = 0.149E-04
 gamma     =   0.51987
 trial     =   0.47541
 opt step  =   1.80439  (harmonic =   1.80439) maximal distance =0.00171925
 next E    =  -622.603931   (d E  =  -0.00013)


--------------------------------------------------------------------------------------------------------


  
 reached required accuracy - stopping structural energy minimisation
     LOOP+:  cpu time  157.9281: real time  158.5458
    4ORBIT:  cpu time    0.0000: real time    0.0000

 total amount of memory used by VASP MPI-rank0   267166. kBytes
=======================================================================

   base      :      30000. kBytes
   nonl-proj :     187807. kBytes
   fftplans  :       1726. kBytes
   grid      :       8060. kBytes
   one-center:        995. kBytes
   wavefun   :      38578. kBytes
 
  
  
 General timing and accounting informations for this job:
 ========================================================
  
                  Total CPU time used (sec):     4259.308
                            User time (sec):     4224.202
                          System time (sec):       35.105
                         Elapsed time (sec):     4270.634
  
                   Maximum memory used (kb):      356864.
                   Average memory used (kb):           0.
  
                          Minor page faults:      1024587
                          Major page faults:            0
                 Voluntary context switches:         3485
