<?xml version="1.0" encoding="ISO-8859-1"?>
<modeling>
 <generator>
  <i name="program" type="string">vasp </i>
  <i name="version" type="string">5.4.4.18Apr17-6-g9f103f2a35  </i>
  <i name="subversion" type="string">(build Oct 18 2021 20:38:43) complex            parallel </i>
  <i name="platform" type="string">LinuxIFC </i>
  <i name="date" type="string">2024 06 22 </i>
  <i name="time" type="string">10:22:17 </i>
 </generator>
 <incar>
  <i type="string" name="SYSTEM">HECN</i>
  <i type="int" name="ISTART">     0</i>
  <i type="string" name="PREC">normal</i>
  <i type="string" name="ALGO">Fast</i>
  <i type="int" name="ICHARG">     2</i>
  <i type="int" name="NELM">    60</i>
  <i type="int" name="IBRION">     2</i>
  <i name="EDIFF">      0.00001000</i>
  <i name="EDIFFG">     -0.01000000</i>
  <i type="int" name="NSW">   100</i>
  <i type="int" name="ISIF">     3</i>
  <i name="ENCUT">    400.00000000</i>
  <i name="POTIM">      0.50000000</i>
  <i type="logical" name="LREAL"> F  </i>
  <i type="int" name="ISMEAR">     0</i>
  <i name="SIGMA">      0.10000000</i>
  <i type="logical" name="LWAVE"> F  </i>
  <i type="logical" name="LCHARG"> F  </i>
  <v type="int" name="KPOINT_BSE">    -1     0     0     0</v>
  <i type="int" name="NELM">    60</i>
 </incar>
 <structure name="primitive_cell" >
  <crystal>
   <varray name="basis" >
    <v>       8.77846270       0.01541310      -0.01355048 </v>
    <v>       0.02148246       8.81604378       0.00265055 </v>
    <v>       0.01798739      -0.01264517       8.79417239 </v>
   </varray>
   <i name="volume">    680.59207107 </i>
   <varray name="rec_basis" >
    <v>       0.11391529      -0.00027751      -0.00023340 </v>
    <v>      -0.00019891       0.11343000       0.00016351 </v>
    <v>       0.00017559      -0.00003462       0.11371126 </v>
   </varray>
  </crystal>
  <varray name="positions" >
   <v>       0.00149727      -0.00873974       0.00271654 </v>
   <v>       0.00371365      -0.26138984       0.00569747 </v>
   <v>      -0.00125293      -0.00720396       0.25811206 </v>
   <v>      -0.00199263       0.24849292      -0.00121971 </v>
   <v>      -0.25772986       0.00206973       0.00261762 </v>
   <v>       0.26065383       0.00100617      -0.00715877 </v>
   <v>      -0.00038419       0.00175033      -0.26138441 </v>
   <v>       0.01645219      -0.24285416       0.25719048 </v>
   <v>      -0.00163877      -0.24103263      -0.25558129 </v>
   <v>       0.25252950      -0.25178257       0.00045789 </v>
   <v>      -0.26308444      -0.02082342      -0.22675508 </v>
   <v>      -0.25325514      -0.25068087       0.01116240 </v>
   <v>      -0.00583181       0.24843722       0.24579335 </v>
   <v>      -0.00451283       0.24447535      -0.24699846 </v>
   <v>       0.23868504       0.00226254      -0.26636081 </v>
   <v>       0.25849143       0.24261565      -0.00773896 </v>
   <v>      -0.25469444       0.24676210      -0.00068316 </v>
   <v>       0.26950109      -0.00043513       0.24894124 </v>
   <v>      -0.26453640      -0.01660156       0.26101116 </v>
   <v>       0.24638249      -0.23941571      -0.24907585 </v>
   <v>       0.25086898      -0.25083806       0.24947368 </v>
   <v>      -0.25142596      -0.24653751      -0.25204487 </v>
   <v>      -0.24796743       0.24189954      -0.24660869 </v>
   <v>       0.24907011       0.24092062      -0.25189433 </v>
   <v>       0.25372754       0.24797238       0.24617136 </v>
   <v>      -0.25450730       0.24570838       0.24876859 </v>
   <v>      -0.25467041      -0.25374590       0.26245626 </v>
   <v>      -0.00887116      -0.48736096      -0.01735889 </v>
   <v>      -0.48353436       0.01159247      -0.02737031 </v>
   <v>       0.02349487      -0.00213422       0.49560999 </v>
   <v>      -0.00253329      -0.23626726       0.48988038 </v>
   <v>       0.49600580      -0.23683470       0.00815682 </v>
   <v>      -0.01167793      -0.49693828       0.24487941 </v>
   <v>      -0.01056173      -0.49747832      -0.23971361 </v>
   <v>       0.24062877       0.49933787      -0.00243307 </v>
   <v>      -0.48757416       0.00337176       0.25463813 </v>
   <v>      -0.48427891       0.00173201      -0.25566476 </v>
   <v>      -0.23642424       0.49554614       0.00378104 </v>
   <v>      -0.49627723       0.23874773       0.00447410 </v>
   <v>       0.00292462       0.24062973       0.49835596 </v>
   <v>       0.25435272       0.00004143      -0.49189397 </v>
   <v>      -0.25721990      -0.00838166       0.49901214 </v>
   <v>      -0.25345758      -0.47459506      -0.25963109 </v>
   <v>      -0.25817018      -0.24469586       0.49100523 </v>
   <v>       0.49735909      -0.24145580      -0.25104579 </v>
   <v>       0.24765955       0.49769497       0.24844758 </v>
   <v>      -0.25917883      -0.48210160       0.26994452 </v>
   <v>       0.25313092      -0.24723960       0.49879325 </v>
   <v>       0.25056065      -0.49923460      -0.25109677 </v>
   <v>      -0.25383460       0.23488278      -0.49953058 </v>
   <v>       0.49056356      -0.26947218       0.25967076 </v>
   <v>      -0.49256606       0.25754496       0.25363302 </v>
   <v>      -0.49616433       0.24699430      -0.25583680 </v>
   <v>       0.25464890       0.24692685      -0.49693424 </v>
   <v>       0.48144711      -0.01225711      -0.47937511 </v>
   <v>      -0.00493527      -0.49587483      -0.49979312 </v>
   <v>      -0.49379681       0.49854549       0.00187447 </v>
   <v>       0.49876588      -0.24126917       0.48747277 </v>
   <v>       0.49826823       0.24212911       0.49092810 </v>
   <v>      -0.49122353      -0.49616556      -0.25996105 </v>
   <v>      -0.49198785      -0.49949947       0.26075333 </v>
   <v>      -0.26140885      -0.49120070      -0.49795274 </v>
   <v>       0.25957874      -0.49986123       0.49962994 </v>
   <v>      -0.49780084      -0.47769158       0.49758537 </v>
  </varray>
 </structure>
 <varray name="primitive_index" >
  <v type="int" >        1 </v>
  <v type="int" >       38 </v>
  <v type="int" >       34 </v>
  <v type="int" >       23 </v>
  <v type="int" >       25 </v>
  <v type="int" >       22 </v>
  <v type="int" >       29 </v>
  <v type="int" >       59 </v>
  <v type="int" >       12 </v>
  <v type="int" >       18 </v>
  <v type="int" >       58 </v>
  <v type="int" >        9 </v>
  <v type="int" >        8 </v>
  <v type="int" >       10 </v>
  <v type="int" >       56 </v>
  <v type="int" >       14 </v>
  <v type="int" >       17 </v>
  <v type="int" >        2 </v>
  <v type="int" >       16 </v>
  <v type="int" >       45 </v>
  <v type="int" >       36 </v>
  <v type="int" >       49 </v>
  <v type="int" >       30 </v>
  <v type="int" >       42 </v>
  <v type="int" >       21 </v>
  <v type="int" >       24 </v>
  <v type="int" >       39 </v>
  <v type="int" >       54 </v>
  <v type="int" >       53 </v>
  <v type="int" >       61 </v>
  <v type="int" >       47 </v>
  <v type="int" >       28 </v>
  <v type="int" >       27 </v>
  <v type="int" >       48 </v>
  <v type="int" >       37 </v>
  <v type="int" >       26 </v>
  <v type="int" >       33 </v>
  <v type="int" >       40 </v>
  <v type="int" >       35 </v>
  <v type="int" >       44 </v>
  <v type="int" >       43 </v>
  <v type="int" >       31 </v>
  <v type="int" >       63 </v>
  <v type="int" >       64 </v>
  <v type="int" >        7 </v>
  <v type="int" >        3 </v>
  <v type="int" >       60 </v>
  <v type="int" >       20 </v>
  <v type="int" >       13 </v>
  <v type="int" >       11 </v>
  <v type="int" >       55 </v>
  <v type="int" >       15 </v>
  <v type="int" >        5 </v>
  <v type="int" >       19 </v>
  <v type="int" >       57 </v>
  <v type="int" >        6 </v>
  <v type="int" >        4 </v>
  <v type="int" >       51 </v>
  <v type="int" >       32 </v>
  <v type="int" >       52 </v>
  <v type="int" >       41 </v>
  <v type="int" >       50 </v>
  <v type="int" >       46 </v>
  <v type="int" >       62 </v>
 </varray>
 <kpoints>
  <generation param="Gamma">
   <v type="int" name="divisions">       3        3        3 </v>
   <v name="usershift">      0.00000000       0.00000000       0.00000000 </v>
   <v name="genvec1">      0.33333333      -0.00000000       0.00000000 </v>
   <v name="genvec2">      0.00000000       0.33333333       0.00000000 </v>
   <v name="genvec3">      0.00000000       0.00000000       0.33333333 </v>
   <v name="shift">      0.00000000       0.00000000       0.00000000 </v>
  </generation>
  <varray name="kpointlist" >
   <v>       0.00000000       0.00000000       0.00000000 </v>
   <v>       0.33333333       0.00000000      -0.00000000 </v>
   <v>       0.00000000       0.33333333       0.00000000 </v>
   <v>       0.33333333       0.33333333       0.00000000 </v>
   <v>      -0.33333333       0.33333333       0.00000000 </v>
   <v>       0.00000000      -0.00000000       0.33333333 </v>
   <v>       0.33333333       0.00000000       0.33333333 </v>
   <v>      -0.33333333      -0.00000000       0.33333333 </v>
   <v>       0.00000000       0.33333333       0.33333333 </v>
   <v>       0.33333333       0.33333333       0.33333333 </v>
   <v>      -0.33333333       0.33333333       0.33333333 </v>
   <v>       0.00000000      -0.33333333       0.33333333 </v>
   <v>       0.33333333      -0.33333333       0.33333333 </v>
   <v>      -0.33333333      -0.33333333       0.33333333 </v>
  </varray>
  <varray name="weights" >
   <v>       0.03703704 </v>
   <v>       0.07407407 </v>
   <v>       0.07407407 </v>
   <v>       0.07407407 </v>
   <v>       0.07407407 </v>
   <v>       0.07407407 </v>
   <v>       0.07407407 </v>
   <v>       0.07407407 </v>
   <v>       0.07407407 </v>
   <v>       0.07407407 </v>
   <v>       0.07407407 </v>
   <v>       0.07407407 </v>
   <v>       0.07407407 </v>
   <v>       0.07407407 </v>
  </varray>
 </kpoints>
 <parameters>
  <separator name="general" >
   <i type="string" name="SYSTEM">HECN</i>
   <i type="logical" name="LCOMPAT"> F  </i>
  </separator>
  <separator name="electronic" >
   <i type="string" name="PREC">normal</i>
   <i name="ENMAX">    400.00000000</i>
   <i name="ENAUG">    644.87300000</i>
   <i name="EDIFF">      0.00001000</i>
   <i type="int" name="IALGO">    68</i>
   <i type="int" name="IWAVPR">    11</i>
   <i type="int" name="NBANDS">   312</i>
   <i name="NELECT">    519.00000000</i>
   <i type="int" name="TURBO">     0</i>
   <i type="int" name="IRESTART">     0</i>
   <i type="int" name="NREBOOT">     0</i>
   <i type="int" name="NMIN">     0</i>
   <i name="EREF">      0.00000000</i>
   <separator name="electronic smearing" >
    <i type="int" name="ISMEAR">     0</i>
    <i name="SIGMA">      0.10000000</i>
    <i name="KSPACING">      0.50000000</i>
    <i type="logical" name="KGAMMA"> T  </i>
   </separator>
   <separator name="electronic projectors" >
    <i type="logical" name="LREAL"> F  </i>
    <v name="ROPT">      0.00000000      0.00000000      0.00000000      0.00000000      0.00000000      0.00000000      0.00000000</v>
    <i type="int" name="LMAXPAW">  -100</i>
    <i type="int" name="LMAXMIX">     2</i>
    <i type="logical" name="NLSPLINE"> F  </i>
   </separator>
   <separator name="electronic startup" >
    <i type="int" name="ISTART">     0</i>
    <i type="int" name="ICHARG">     2</i>
    <i type="int" name="INIWAV">     1</i>
   </separator>
   <separator name="electronic spin" >
    <i type="int" name="ISPIN">     1</i>
    <i type="logical" name="LNONCOLLINEAR"> F  </i>
    <v name="MAGMOM">      1.00000000      1.00000000      1.00000000      1.00000000      1.00000000      1.00000000      1.00000000      1.00000000      1.00000000      1.00000000      1.00000000      1.00000000      1.00000000      1.00000000      1.00000000      1.00000000      1.00000000      1.00000000      1.00000000      1.00000000
      1.00000000      1.00000000      1.00000000      1.00000000      1.00000000      1.00000000      1.00000000      1.00000000      1.00000000      1.00000000      1.00000000      1.00000000      1.00000000      1.00000000      1.00000000      1.00000000      1.00000000      1.00000000      1.00000000      1.00000000
      1.00000000      1.00000000      1.00000000      1.00000000      1.00000000      1.00000000      1.00000000      1.00000000      1.00000000      1.00000000      1.00000000      1.00000000      1.00000000      1.00000000      1.00000000      1.00000000      1.00000000      1.00000000      1.00000000      1.00000000
      1.00000000      1.00000000      1.00000000      1.00000000</v>
    <i name="NUPDOWN">     -1.00000000</i>
    <i type="logical" name="LSORBIT"> F  </i>
    <v name="SAXIS">      0.00000000      0.00000000      1.00000000</v>
    <i type="logical" name="LSPIRAL"> F  </i>
    <v name="QSPIRAL">      0.00000000      0.00000000      0.00000000</v>
    <i type="logical" name="LZEROZ"> F  </i>
   </separator>
   <separator name="electronic exchange-correlation" >
    <i type="logical" name="LASPH"> F  </i>
    <i type="logical" name="LMETAGGA"> F  </i>
   </separator>
   <separator name="electronic convergence" >
    <i type="int" name="NELM">    60</i>
    <i type="int" name="NELMDL">    -5</i>
    <i type="int" name="NELMIN">     2</i>
    <i name="ENINI">    400.00000000</i>
    <separator name="electronic convergence detail" >
     <i type="logical" name="LDIAG"> T  </i>
     <i type="logical" name="LSUBROT"> F  </i>
     <i name="WEIMIN">      0.00100000</i>
     <i name="EBREAK">      0.00000001</i>
     <i name="DEPER">      0.30000000</i>
     <i type="int" name="NRMM">     4</i>
     <i name="TIME">      0.40000000</i>
    </separator>
   </separator>
   <separator name="electronic mixer" >
    <i name="AMIX">      0.40000000</i>
    <i name="BMIX">      1.00000000</i>
    <i name="AMIN">      0.10000000</i>
    <i name="AMIX_MAG">      1.60000000</i>
    <i name="BMIX_MAG">      1.00000000</i>
    <separator name="electronic mixer details" >
     <i type="int" name="IMIX">     4</i>
     <i type="logical" name="MIXFIRST"> F  </i>
     <i type="int" name="MAXMIX">   -45</i>
     <i name="WC">    100.00000000</i>
     <i type="int" name="INIMIX">     1</i>
     <i type="int" name="MIXPRE">     1</i>
     <i type="int" name="MREMOVE">     5</i>
    </separator>
   </separator>
   <separator name="electronic dipolcorrection" >
    <i type="logical" name="LDIPOL"> F  </i>
    <i type="logical" name="LMONO"> F  </i>
    <i type="int" name="IDIPOL">     0</i>
    <i name="EPSILON">      1.00000000</i>
    <v name="DIPOL">   -100.00000000   -100.00000000   -100.00000000</v>
    <i name="EFIELD">      0.00000000</i>
   </separator>
  </separator>
  <separator name="grids" >
   <i type="int" name="NGX">    48</i>
   <i type="int" name="NGY">    48</i>
   <i type="int" name="NGZ">    48</i>
   <i type="int" name="NGXF">    96</i>
   <i type="int" name="NGYF">    96</i>
   <i type="int" name="NGZF">    96</i>
   <i type="logical" name="ADDGRID"> F  </i>
  </separator>
  <separator name="ionic" >
   <i type="int" name="NSW">   100</i>
   <i type="int" name="IBRION">     2</i>
   <i type="int" name="MDALGO">     0</i>
   <i type="int" name="ISIF">     3</i>
   <i name="PSTRESS">      0.00000000</i>
   <i name="EDIFFG">     -0.01000000</i>
   <i type="int" name="NFREE">     1</i>
   <i name="POTIM">      0.50000000</i>
   <i name="SMASS">     -3.00000000</i>
   <i name="SCALEE">      1.00000000</i>
  </separator>
  <separator name="ionic md" >
   <i name="TEBEG">      0.00010000</i>
   <i name="TEEND">      0.00010000</i>
   <i type="int" name="NBLOCK">     1</i>
   <i type="int" name="KBLOCK">   100</i>
   <i type="int" name="NPACO">   256</i>
   <i name="APACO">     16.00000000</i>
  </separator>
  <separator name="symmetry" >
   <i type="int" name="ISYM">     2</i>
   <i name="SYMPREC">      0.00001000</i>
  </separator>
  <separator name="dos" >
   <i type="int" name="LORBIT">     0</i>
   <v name="RWIGS">     -1.00000000     -1.00000000     -1.00000000     -1.00000000     -1.00000000     -1.00000000     -1.00000000</v>
   <i type="int" name="NEDOS">   301</i>
   <i name="EMIN">     10.00000000</i>
   <i name="EMAX">    -10.00000000</i>
   <i name="EFERMI">      0.00000000</i>
  </separator>
  <separator name="writing" >
   <i type="int" name="NWRITE">     2</i>
   <i type="logical" name="LWAVE"> F  </i>
   <i type="logical" name="LDOWNSAMPLE"> F  </i>
   <i type="logical" name="LCHARG"> F  </i>
   <i type="logical" name="LPARD"> F  </i>
   <i type="logical" name="LVTOT"> F  </i>
   <i type="logical" name="LVHAR"> F  </i>
   <i type="logical" name="LELF"> F  </i>
   <i type="logical" name="LOPTICS"> F  </i>
   <v name="STM">      0.00000000      0.00000000      0.00000000      0.00000000      0.00000000      0.00000000      0.00000000</v>
  </separator>
  <separator name="performance" >
   <i type="int" name="NPAR">    24</i>
   <i type="int" name="NSIM">     4</i>
   <i type="int" name="NBLK">    -1</i>
   <i type="logical" name="LPLANE"> T  </i>
   <i type="logical" name="LSCALAPACK"> T  </i>
   <i type="logical" name="LSCAAWARE"> F  </i>
   <i type="logical" name="LSCALU"> F  </i>
   <i type="logical" name="LASYNC"> F  </i>
   <i type="logical" name="LORBITALREAL"> F  </i>
  </separator>
  <separator name="miscellaneous" >
   <i type="int" name="IDIOT">     3</i>
   <i type="int" name="ISPECIAL">     0</i>
   <i type="logical" name="LMUSIC"> F  </i>
   <v name="POMASS">     91.22400000    178.49000000     47.88000000     14.00100000     12.01100000     51.99600000     50.94100000</v>
   <v name="DARWINR">      0.00000000      0.00000000      0.00000000      0.00000000      0.00000000      0.00000000      0.00000000</v>
   <v name="DARWINV">      1.00000000      1.00000000      1.00000000      1.00000000      1.00000000      1.00000000      1.00000000</v>
   <i type="logical" name="LCORR"> T  </i>
  </separator>
  <i type="logical" name="GGA_COMPAT"> T  </i>
  <i type="logical" name="LBERRY"> F  </i>
  <i type="int" name="ICORELEVEL">     0</i>
  <i type="logical" name="LDAU"> F  </i>
  <i type="int" name="I_CONSTRAINED_M">     0</i>
  <separator name="electronic exchange-correlation" >
   <i type="string" name="GGA">--</i>
   <i type="int" name="VOSKOWN">     0</i>
   <i type="logical" name="LHFCALC"> F  </i>
   <i type="string" name="PRECFOCK"></i>
   <i type="logical" name="LSYMGRAD"> F  </i>
   <i type="logical" name="LHFONE"> F  </i>
   <i type="logical" name="LRHFCALC"> F  </i>
   <i type="logical" name="LTHOMAS"> F  </i>
   <i type="logical" name="LMODELHF"> F  </i>
   <i name="ENCUT4O">     -1.00000000</i>
   <i type="int" name="EXXOEP">     0</i>
   <i type="int" name="FOURORBIT">     0</i>
   <i name="AEXX">      0.00000000</i>
   <i name="HFALPHA">      0.00000000</i>
   <i name="MCALPHA">      0.00000000</i>
   <i name="ALDAX">      1.00000000</i>
   <i name="AGGAX">      1.00000000</i>
   <i name="ALDAC">      1.00000000</i>
   <i name="AGGAC">      1.00000000</i>
   <i type="int" name="NKREDX">     1</i>
   <i type="int" name="NKREDY">     1</i>
   <i type="int" name="NKREDZ">     1</i>
   <i type="logical" name="SHIFTRED"> F  </i>
   <i type="logical" name="ODDONLY"> F  </i>
   <i type="logical" name="EVENONLY"> F  </i>
   <i type="int" name="LMAXFOCK">     0</i>
   <i type="int" name="NMAXFOCKAE">     0</i>
   <i type="logical" name="LFOCKAEDFT"> F  </i>
   <i name="HFSCREEN">      0.00000000</i>
   <i name="HFSCREENC">      0.00000000</i>
   <i type="int" name="NBANDSGWLOW">     0</i>
  </separator>
  <separator name="vdW DFT" >
   <i type="logical" name="LUSE_VDW"> F  </i>
   <i name="Zab_VDW">     -0.84910000</i>
   <i name="PARAM1">      0.12340000</i>
   <i name="PARAM2">      1.00000000</i>
   <i name="PARAM3">      0.00000000</i>
  </separator>
  <separator name="model GW" >
   <i type="int" name="MODEL_GW">     0</i>
   <i name="MODEL_EPS0">      6.38055067</i>
   <i name="MODEL_ALPHA">      1.00000000</i>
  </separator>
  <separator name="linear response parameters" >
   <i type="logical" name="LEPSILON"> F  </i>
   <i type="logical" name="LRPA"> F  </i>
   <i type="logical" name="LNABLA"> F  </i>
   <i type="logical" name="LVEL"> F  </i>
   <i type="int" name="KINTER">     0</i>
   <i name="CSHIFT">      0.10000000</i>
   <i name="OMEGAMAX">     -1.00000000</i>
   <i name="DEG_THRESHOLD">      0.00200000</i>
   <i name="RTIME">     -0.10000000</i>
   <i name="WPLASMAI">      0.00000000</i>
   <v name="DFIELD">      0.00000000      0.00000000      0.00000000</v>
   <v name="WPLASMA">      0.00000000      0.00000000      0.00000000      0.00000000      0.00000000      0.00000000      0.00000000      0.00000000      0.00000000</v>
  </separator>
  <separator name="orbital magnetization" >
   <i type="logical" name="NUCIND"> F  </i>
   <v name="MAGPOS">      0.00000000      0.00000000      0.00000000</v>
   <i type="logical" name="LNICSALL"> T  </i>
   <i type="logical" name="ORBITALMAG"> F  </i>
   <i type="logical" name="LMAGBLOCH"> F  </i>
   <i type="logical" name="LCHIMAG"> F  </i>
   <i type="logical" name="LGAUGE"> T  </i>
   <i type="int" name="MAGATOM">     0</i>
   <v name="MAGDIPOL">      0.00000000      0.00000000      0.00000000</v>
   <v name="AVECCONST">      0.00000000      0.00000000      0.00000000</v>
  </separator>
  <separator name="response functions" >
   <i type="logical" name="LADDER"> F  </i>
   <i type="logical" name="LRPAFORCE"> F  </i>
   <i type="logical" name="LFXC"> F  </i>
   <i type="logical" name="LHARTREE"> T  </i>
   <i type="int" name="IBSE">     0</i>
   <v type="int" name="KPOINT">    -1     0     0     0</v>
   <i type="logical" name="LTCTE"> F  </i>
   <i type="logical" name="LTETE"> F  </i>
   <i type="logical" name="LTRIPLET"> F  </i>
   <i type="logical" name="LFXCEPS"> F  </i>
   <i type="logical" name="LFXHEG"> F  </i>
   <i type="int" name="NATURALO">     2</i>
   <i type="logical" name="L2ORDER"> F  </i>
   <i type="logical" name="LMP2LT"> F  </i>
   <i type="logical" name="LUSEW"> F  </i>
   <i name="ENCUTGW">     -2.00000000</i>
   <i name="ENCUTGWSOFT">     -2.00000000</i>
   <i name="ENCUTLF">     -1.00000000</i>
   <i type="int" name="LMAXMP2">    -1</i>
   <i name="SCISSOR">      0.00000000</i>
   <i type="int" name="NOMEGA">     0</i>
   <i type="int" name="NOMEGAR">     0</i>
   <i type="int" name="NBANDSGW">    -1</i>
   <i type="int" name="NBANDSO">    -1</i>
   <i type="int" name="NBANDSV">    -1</i>
   <i type="int" name="NELM">    60</i>
   <i type="int" name="NELMHF">     1</i>
   <i type="int" name="DIM">     3</i>
   <i type="int" name="ANTIRES">     0</i>
   <i name="OMEGAMAX">    -30.00000000</i>
   <i name="OMEGAMIN">    -30.00000000</i>
   <i name="OMEGATL">   -200.00000000</i>
   <i type="int" name="OMEGAGRID">   140</i>
   <i name="CSHIFT">     -0.10000000</i>
   <i type="logical" name="SELFENERGY"> F  </i>
   <i type="logical" name="LSPECTRAL"> F  </i>
   <i type="logical" name="LSPECTRALGW"> F  </i>
   <i type="logical" name="LSINGLES"> F  </i>
   <i type="logical" name="LFERMIGW"> F  </i>
   <i type="logical" name="ODDONLYGW"> F  </i>
   <i type="logical" name="EVENONLYGW"> F  </i>
   <i type="int" name="NKREDLFX">     1</i>
   <i type="int" name="NKREDLFY">     1</i>
   <i type="int" name="NKREDLFZ">     1</i>
   <i type="int" name="MAXMEM">  2800</i>
   <i type="int" name="TELESCOPE">     0</i>
   <i type="int" name="TAUPAR">     1</i>
   <i type="int" name="OMEGAPAR">    -1</i>
   <i name="LAMBDA">      1.00000000</i>
  </separator>
  <separator name="External order field" >
   <i name="OFIELD_KAPPA">      0.00000000</i>
   <v name="OFIELD_K">      0.00000000      0.00000000      0.00000000</v>
   <i name="OFIELD_Q6_NEAR">      0.00000000</i>
   <i name="OFIELD_Q6_FAR">      0.00000000</i>
   <i name="OFIELD_A">      0.00000000</i>
  </separator>
 </parameters>
 <atominfo>
  <atoms>      64 </atoms>
  <types>       7 </types>
  <array name="atoms" >
   <dimension dim="1">ion</dimension>
   <field type="string">element</field>
   <field type="int">atomtype</field>
   <set>
    <rc><c>Zr</c><c>   1</c></rc>
    <rc><c>Zr</c><c>   1</c></rc>
    <rc><c>Zr</c><c>   1</c></rc>
    <rc><c>Zr</c><c>   1</c></rc>
    <rc><c>Zr</c><c>   1</c></rc>
    <rc><c>Zr</c><c>   1</c></rc>
    <rc><c>Zr</c><c>   1</c></rc>
    <rc><c>Hf</c><c>   2</c></rc>
    <rc><c>Hf</c><c>   2</c></rc>
    <rc><c>Hf</c><c>   2</c></rc>
    <rc><c>Hf</c><c>   2</c></rc>
    <rc><c>Hf</c><c>   2</c></rc>
    <rc><c>Hf</c><c>   2</c></rc>
    <rc><c>Ti</c><c>   3</c></rc>
    <rc><c>Ti</c><c>   3</c></rc>
    <rc><c>Ti</c><c>   3</c></rc>
    <rc><c>Ti</c><c>   3</c></rc>
    <rc><c>Ti</c><c>   3</c></rc>
    <rc><c>Ti</c><c>   3</c></rc>
    <rc><c>Ti</c><c>   3</c></rc>
    <rc><c>N </c><c>   4</c></rc>
    <rc><c>N </c><c>   4</c></rc>
    <rc><c>N </c><c>   4</c></rc>
    <rc><c>N </c><c>   4</c></rc>
    <rc><c>N </c><c>   4</c></rc>
    <rc><c>N </c><c>   4</c></rc>
    <rc><c>N </c><c>   4</c></rc>
    <rc><c>N </c><c>   4</c></rc>
    <rc><c>N </c><c>   4</c></rc>
    <rc><c>N </c><c>   4</c></rc>
    <rc><c>N </c><c>   4</c></rc>
    <rc><c>N </c><c>   4</c></rc>
    <rc><c>N </c><c>   4</c></rc>
    <rc><c>C </c><c>   5</c></rc>
    <rc><c>C </c><c>   5</c></rc>
    <rc><c>C </c><c>   5</c></rc>
    <rc><c>C </c><c>   5</c></rc>
    <rc><c>C </c><c>   5</c></rc>
    <rc><c>C </c><c>   5</c></rc>
    <rc><c>C </c><c>   5</c></rc>
    <rc><c>C </c><c>   5</c></rc>
    <rc><c>C </c><c>   5</c></rc>
    <rc><c>C </c><c>   5</c></rc>
    <rc><c>C </c><c>   5</c></rc>
    <rc><c>C </c><c>   5</c></rc>
    <rc><c>C </c><c>   5</c></rc>
    <rc><c>C </c><c>   5</c></rc>
    <rc><c>C </c><c>   5</c></rc>
    <rc><c>C </c><c>   5</c></rc>
    <rc><c>C </c><c>   5</c></rc>
    <rc><c>C </c><c>   5</c></rc>
    <rc><c>C </c><c>   5</c></rc>
    <rc><c>Cr</c><c>   6</c></rc>
    <rc><c>Cr</c><c>   6</c></rc>
    <rc><c>Cr</c><c>   6</c></rc>
    <rc><c>Cr</c><c>   6</c></rc>
    <rc><c>Cr</c><c>   6</c></rc>
    <rc><c>Cr</c><c>   6</c></rc>
    <rc><c>V </c><c>   7</c></rc>
    <rc><c>V </c><c>   7</c></rc>
    <rc><c>V </c><c>   7</c></rc>
    <rc><c>V </c><c>   7</c></rc>
    <rc><c>V </c><c>   7</c></rc>
    <rc><c>V </c><c>   7</c></rc>
   </set>
  </array>
  <array name="atomtypes" >
   <dimension dim="1">type</dimension>
   <field type="int">atomspertype</field>
   <field type="string">element</field>
   <field>mass</field>
   <field>valence</field>
   <field type="string">pseudopotential</field>
   <set>
    <rc><c>   7</c><c>Zr</c><c>     91.22400000</c><c>     12.00000000</c><c> PAW_PBE Zr_sv 07Sep2000                </c></rc>
    <rc><c>   6</c><c>Hf</c><c>    178.49000000</c><c>     10.00000000</c><c> PAW_PBE Hf_pv 06Sep2000                </c></rc>
    <rc><c>   7</c><c>Ti</c><c>     47.88000000</c><c>     12.00000000</c><c> PAW_PBE Ti_sv 07Sep2000                </c></rc>
    <rc><c>  13</c><c>N </c><c>     14.00100000</c><c>      5.00000000</c><c> PAW_PBE N 08Apr2002                    </c></rc>
    <rc><c>  19</c><c>C </c><c>     12.01100000</c><c>      4.00000000</c><c> PAW_PBE C 08Apr2002                    </c></rc>
    <rc><c>   6</c><c>Cr</c><c>     51.99600000</c><c>     12.00000000</c><c> PAW_PBE Cr_pv 07Sep2000                </c></rc>
    <rc><c>   6</c><c>V </c><c>     50.94100000</c><c>     13.00000000</c><c> PAW_PBE V_sv 07Sep2000                 </c></rc>
   </set>
  </array>
 </atominfo>
 <structure name="initialpos" >
  <crystal>
   <varray name="basis" >
    <v>       8.77846270       0.01541310      -0.01355048 </v>
    <v>       0.02148246       8.81604378       0.00265055 </v>
    <v>       0.01798739      -0.01264517       8.79417239 </v>
   </varray>
   <i name="volume">    680.59207107 </i>
   <varray name="rec_basis" >
    <v>       0.11391529      -0.00027751      -0.00023340 </v>
    <v>      -0.00019891       0.11343000       0.00016351 </v>
    <v>       0.00017559      -0.00003462       0.11371126 </v>
   </varray>
  </crystal>
  <varray name="positions" >
   <v>       0.00149727       0.99126026       0.00271654 </v>
   <v>       0.26950109       0.99956487       0.24894124 </v>
   <v>       0.24765955       0.49769497       0.24844758 </v>
   <v>       0.50620319       0.49854549       0.00187447 </v>
   <v>       0.50383567       0.24699430       0.74416320 </v>
   <v>       0.99506473       0.50412517       0.50020688 </v>
   <v>       0.49735909       0.75854420       0.74895421 </v>
   <v>       0.99416819       0.24843722       0.24579335 </v>
   <v>       0.74674486       0.74931913       0.01116240 </v>
   <v>       0.99548717       0.24447535       0.75300154 </v>
   <v>       0.74616540       0.23488278       0.50046942 </v>
   <v>       0.99836123       0.75896737       0.74441871 </v>
   <v>       0.25056065       0.50076540       0.74890323 </v>
   <v>       0.25849143       0.24261565       0.99226104 </v>
   <v>       0.50743394       0.25754496       0.25363302 </v>
   <v>       0.73546360       0.98339844       0.26101116 </v>
   <v>       0.74530556       0.24676210       0.99931684 </v>
   <v>       0.25252950       0.74821743       0.00045789 </v>
   <v>       0.25464890       0.24692685       0.50306576 </v>
   <v>       0.25313092       0.75276040       0.49879325 </v>
   <v>       0.25372754       0.24797238       0.24617136 </v>
   <v>       0.26065383       0.00100617       0.99284123 </v>
   <v>       0.99800737       0.24849292       0.99878029 </v>
   <v>       0.74549270       0.24570838       0.24876859 </v>
   <v>       0.74227014       0.00206973       0.00261762 </v>
   <v>       0.51242584       0.00337176       0.25463813 </v>
   <v>       0.98832207       0.50306172       0.24487941 </v>
   <v>       0.49600580       0.76316530       0.00815682 </v>
   <v>       0.99961581       0.00175033       0.73861559 </v>
   <v>       0.75203257       0.24189954       0.75339131 </v>
   <v>       0.74278010       0.99161834       0.49901214 </v>
   <v>       0.49826823       0.24212911       0.49092810 </v>
   <v>       0.51572109       0.00173201       0.74433524 </v>
   <v>       0.99874707       0.99279604       0.25811206 </v>
   <v>       0.50372277       0.23874773       0.00447410 </v>
   <v>       0.25086898       0.74916194       0.24947368 </v>
   <v>       0.24062877       0.49933787       0.99756693 </v>
   <v>       0.00371365       0.73861016       0.00569747 </v>
   <v>       0.74532959       0.74625410       0.26245626 </v>
   <v>       0.76357576       0.49554614       0.00378104 </v>
   <v>       0.50801215       0.50050053       0.26075333 </v>
   <v>       0.24907011       0.24092062       0.74810567 </v>
   <v>       0.25435272       0.00004143       0.50810603 </v>
   <v>       0.00292462       0.24062973       0.49835596 </v>
   <v>       0.24638249       0.76058429       0.75092415 </v>
   <v>       0.25957874       0.50013877       0.49962994 </v>
   <v>       0.99746671       0.76373274       0.48988038 </v>
   <v>       0.98943827       0.50252168       0.76028639 </v>
   <v>       0.74857404       0.75346249       0.74795513 </v>
   <v>       0.73859115       0.50879930       0.50204726 </v>
   <v>       0.49876588       0.75873083       0.48747277 </v>
   <v>       0.50877647       0.50383444       0.74003895 </v>
   <v>       0.51646564       0.01159247       0.97262969 </v>
   <v>       0.99112884       0.51263904       0.98264111 </v>
   <v>       0.49056356       0.73052782       0.25967076 </v>
   <v>       0.23868504       0.00226254       0.73363919 </v>
   <v>       0.48144711       0.98774289       0.52062489 </v>
   <v>       0.73691556       0.97917658       0.77324492 </v>
   <v>       0.01645219       0.75714584       0.25719048 </v>
   <v>       0.74082117       0.51789840       0.26994452 </v>
   <v>       0.02349487       0.99786578       0.49560999 </v>
   <v>       0.50219916       0.52230842       0.49758537 </v>
   <v>       0.74654242       0.52540494       0.74036891 </v>
   <v>       0.74182982       0.75530414       0.49100523 </v>
  </varray>
 </structure>
 <calculation>
  <scstep>
   <time name="dav">   19.18   19.24</time>
   <time name="total">   19.22   19.30</time>
   <energy>
    <i name="alphaZ">   4507.85283341 </i>
    <i name="ewald"> -43821.35511633 </i>
    <i name="hartreedc"> -10479.90456711 </i>
    <i name="XCdc">   2206.87442502 </i>
    <i name="pawpsdc">  34412.92025963 </i>
    <i name="pawaedc"> -34493.22405904 </i>
    <i name="eentropy">     -0.08843605 </i>
    <i name="bandstr">   1566.02755992 </i>
    <i name="atom">  53080.83783574 </i>
    <i name="e_fr_energy">   6979.94073519 </i>
    <i name="e_wo_entrp">   6980.02917124 </i>
    <i name="e_0_energy">   6979.98495322 </i>
   </energy>
  </scstep>
  <scstep>
   <time name="dav">   19.71   19.76</time>
   <time name="total">   19.71   19.76</time>
   <energy>
    <i name="e_fr_energy">    504.17382585 </i>
    <i name="e_wo_entrp">    504.28922283 </i>
    <i name="e_0_energy">    504.23152434 </i>
   </energy>
  </scstep>
  <scstep>
   <time name="dav">   27.32   27.37</time>
   <time name="total">   27.32   27.38</time>
   <energy>
    <i name="e_fr_energy">   -618.41653739 </i>
    <i name="e_wo_entrp">   -618.32063909 </i>
    <i name="e_0_energy">   -618.36858824 </i>
   </energy>
  </scstep>
  <scstep>
   <time name="dav">   33.37   33.44</time>
   <time name="total">   33.37   33.44</time>
   <energy>
    <i name="e_fr_energy">   -779.61766418 </i>
    <i name="e_wo_entrp">   -779.52616636 </i>
    <i name="e_0_energy">   -779.57191527 </i>
   </energy>
  </scstep>
  <scstep>
   <time name="dav">   34.86   34.90</time>
   <time name="total">   35.12   35.16</time>
   <energy>
    <i name="e_fr_energy">   -792.73876798 </i>
    <i name="e_wo_entrp">   -792.64608516 </i>
    <i name="e_0_energy">   -792.69242657 </i>
   </energy>
  </scstep>
  <scstep>
   <time name="diag">    1.79    1.79</time>
   <time name="diis">   18.89   18.90</time>
   <time name="orth">    0.43    0.43</time>
   <time name="total">   21.42   21.43</time>
   <energy>
    <i name="e_fr_energy">   -886.28900286 </i>
    <i name="e_wo_entrp">   -886.06207506 </i>
    <i name="e_0_energy">   -886.17553896 </i>
   </energy>
  </scstep>
  <scstep>
   <time name="diag">    1.89    1.90</time>
   <time name="diis">   20.40   20.41</time>
   <time name="orth">    0.41    0.41</time>
   <time name="total">   23.00   23.03</time>
   <energy>
    <i name="e_fr_energy">   -647.68428812 </i>
    <i name="e_wo_entrp">   -647.55055812 </i>
    <i name="e_0_energy">   -647.61742312 </i>
   </energy>
  </scstep>
  <scstep>
   <time name="diag">    1.79    1.79</time>
   <time name="diis">   20.75   20.78</time>
   <time name="orth">    0.41    0.41</time>
   <time name="total">   23.23   23.27</time>
   <energy>
    <i name="e_fr_energy">   -635.92293580 </i>
    <i name="e_wo_entrp">   -635.79759662 </i>
    <i name="e_0_energy">   -635.86026621 </i>
   </energy>
  </scstep>
  <scstep>
   <time name="diag">    1.80    1.80</time>
   <time name="diis">   21.44   21.47</time>
   <time name="orth">    0.41    0.41</time>
   <time name="total">   23.95   23.99</time>
   <energy>
    <i name="e_fr_energy">   -624.04099947 </i>
    <i name="e_wo_entrp">   -623.90521494 </i>
    <i name="e_0_energy">   -623.97310720 </i>
   </energy>
  </scstep>
  <scstep>
   <time name="diag">    1.79    1.79</time>
   <time name="diis">   21.54   21.56</time>
   <time name="orth">    0.41    0.41</time>
   <time name="total">   24.02   24.05</time>
   <energy>
    <i name="e_fr_energy">   -624.65520430 </i>
    <i name="e_wo_entrp">   -624.53397403 </i>
    <i name="e_0_energy">   -624.59458917 </i>
   </energy>
  </scstep>
  <scstep>
   <time name="diag">    1.80    1.80</time>
   <time name="diis">   21.87   21.87</time>
   <time name="orth">    0.41    0.41</time>
   <time name="total">   24.37   24.38</time>
   <energy>
    <i name="e_fr_energy">   -623.21577220 </i>
    <i name="e_wo_entrp">   -623.05721949 </i>
    <i name="e_0_energy">   -623.13649585 </i>
   </energy>
  </scstep>
  <scstep>
   <time name="diag">    1.85    1.87</time>
   <time name="diis">   20.43   20.46</time>
   <time name="orth">    0.41    0.41</time>
   <time name="total">   23.00   23.04</time>
   <energy>
    <i name="e_fr_energy">   -623.08194378 </i>
    <i name="e_wo_entrp">   -622.92546910 </i>
    <i name="e_0_energy">   -623.00370644 </i>
   </energy>
  </scstep>
  <scstep>
   <time name="diag">    1.81    1.81</time>
   <time name="diis">   21.66   21.69</time>
   <time name="orth">    0.41    0.41</time>
   <time name="total">   24.18   24.21</time>
   <energy>
    <i name="e_fr_energy">   -622.89479752 </i>
    <i name="e_wo_entrp">   -622.72955856 </i>
    <i name="e_0_energy">   -622.81217804 </i>
   </energy>
  </scstep>
  <scstep>
   <time name="diag">    1.81    1.81</time>
   <time name="diis">   20.94   20.96</time>
   <time name="orth">    0.42    0.42</time>
   <time name="total">   23.46   23.49</time>
   <energy>
    <i name="e_fr_energy">   -622.82106802 </i>
    <i name="e_wo_entrp">   -622.66174729 </i>
    <i name="e_0_energy">   -622.74140766 </i>
   </energy>
  </scstep>
  <scstep>
   <time name="diag">    1.80    1.80</time>
   <time name="diis">   20.53   20.58</time>
   <time name="orth">    0.41    0.41</time>
   <time name="total">   23.04   23.09</time>
   <energy>
    <i name="e_fr_energy">   -622.80349799 </i>
    <i name="e_wo_entrp">   -622.63422078 </i>
    <i name="e_0_energy">   -622.71885938 </i>
   </energy>
  </scstep>
  <scstep>
   <time name="diag">    1.80    1.80</time>
   <time name="diis">   20.33   20.36</time>
   <time name="orth">    0.41    0.41</time>
   <time name="total">   22.85   22.89</time>
   <energy>
    <i name="e_fr_energy">   -622.70313168 </i>
    <i name="e_wo_entrp">   -622.54635879 </i>
    <i name="e_0_energy">   -622.62474523 </i>
   </energy>
  </scstep>
  <scstep>
   <time name="diag">    1.80    1.80</time>
   <time name="diis">   20.47   20.56</time>
   <time name="orth">    0.41    0.41</time>
   <time name="total">   22.98   23.07</time>
   <energy>
    <i name="e_fr_energy">   -622.64025322 </i>
    <i name="e_wo_entrp">   -622.47013431 </i>
    <i name="e_0_energy">   -622.55519377 </i>
   </energy>
  </scstep>
  <scstep>
   <time name="diag">    1.79    1.79</time>
   <time name="diis">   21.16   21.19</time>
   <time name="orth">    0.41    0.41</time>
   <time name="total">   23.65   23.69</time>
   <energy>
    <i name="e_fr_energy">   -622.61684974 </i>
    <i name="e_wo_entrp">   -622.45250788 </i>
    <i name="e_0_energy">   -622.53467881 </i>
   </energy>
  </scstep>
  <scstep>
   <time name="diag">    1.79    1.79</time>
   <time name="diis">   21.14   21.19</time>
   <time name="orth">    0.41    0.41</time>
   <time name="total">   23.63   23.68</time>
   <energy>
    <i name="e_fr_energy">   -622.60041327 </i>
    <i name="e_wo_entrp">   -622.43584837 </i>
    <i name="e_0_energy">   -622.51813082 </i>
   </energy>
  </scstep>
  <scstep>
   <time name="diag">    1.79    1.79</time>
   <time name="diis">   20.59   20.68</time>
   <time name="orth">    0.43    0.43</time>
   <time name="total">   23.11   23.20</time>
   <energy>
    <i name="e_fr_energy">   -622.61702626 </i>
    <i name="e_wo_entrp">   -622.45709165 </i>
    <i name="e_0_energy">   -622.53705896 </i>
   </energy>
  </scstep>
  <scstep>
   <time name="diag">    1.81    1.83</time>
   <time name="diis">   21.70   21.74</time>
   <time name="orth">    0.40    0.40</time>
   <time name="total">   24.21   24.27</time>
   <energy>
    <i name="e_fr_energy">   -622.60922332 </i>
    <i name="e_wo_entrp">   -622.44537712 </i>
    <i name="e_0_energy">   -622.52730022 </i>
   </energy>
  </scstep>
  <scstep>
   <time name="diag">    1.79    1.79</time>
   <time name="diis">   21.36   21.42</time>
   <time name="orth">    0.41    0.41</time>
   <time name="total">   23.86   23.92</time>
   <energy>
    <i name="e_fr_energy">   -622.60366449 </i>
    <i name="e_wo_entrp">   -622.44138005 </i>
    <i name="e_0_energy">   -622.52252227 </i>
   </energy>
  </scstep>
  <scstep>
   <time name="diag">    1.80    1.80</time>
   <time name="diis">   21.51   21.55</time>
   <time name="orth">    0.41    0.41</time>
   <time name="total">   24.01   24.05</time>
   <energy>
    <i name="e_fr_energy">   -622.59763888 </i>
    <i name="e_wo_entrp">   -622.43372034 </i>
    <i name="e_0_energy">   -622.51567961 </i>
   </energy>
  </scstep>
  <scstep>
   <time name="diag">    1.79    1.79</time>
   <time name="diis">   19.81   19.85</time>
   <time name="orth">    0.41    0.41</time>
   <time name="total">   22.31   22.35</time>
   <energy>
    <i name="e_fr_energy">   -622.59828841 </i>
    <i name="e_wo_entrp">   -622.43455041 </i>
    <i name="e_0_energy">   -622.51641941 </i>
   </energy>
  </scstep>
  <scstep>
   <time name="diag">    1.79    1.79</time>
   <time name="diis">   19.94   20.00</time>
   <time name="orth">    0.41    0.41</time>
   <time name="total">   22.44   22.51</time>
   <energy>
    <i name="e_fr_energy">   -622.59876453 </i>
    <i name="e_wo_entrp">   -622.43461072 </i>
    <i name="e_0_energy">   -622.51668763 </i>
   </energy>
  </scstep>
  <scstep>
   <time name="diag">    1.79    1.79</time>
   <time name="diis">   19.95   20.00</time>
   <time name="orth">    0.41    0.41</time>
   <time name="total">   22.45   22.50</time>
   <energy>
    <i name="e_fr_energy">   -622.59868716 </i>
    <i name="e_wo_entrp">   -622.43489458 </i>
    <i name="e_0_energy">   -622.51679087 </i>
   </energy>
  </scstep>
  <scstep>
   <time name="diag">    1.79    1.79</time>
   <time name="diis">   18.76   18.79</time>
   <time name="orth">    0.41    0.41</time>
   <time name="total">   21.26   21.29</time>
   <energy>
    <i name="e_fr_energy">   -622.59892346 </i>
    <i name="e_wo_entrp">   -622.43495633 </i>
    <i name="e_0_energy">   -622.51693990 </i>
   </energy>
  </scstep>
  <scstep>
   <time name="diag">    1.79    1.79</time>
   <time name="diis">   17.33   17.34</time>
   <time name="orth">    0.40    0.40</time>
   <time name="total">   19.82   19.84</time>
   <energy>
    <i name="e_fr_energy">   -622.59899884 </i>
    <i name="e_wo_entrp">   -622.43515907 </i>
    <i name="e_0_energy">   -622.51707895 </i>
   </energy>
  </scstep>
  <scstep>
   <time name="diag">    1.79    1.80</time>
   <time name="diis">   17.40   17.42</time>
   <time name="orth">    0.41    0.41</time>
   <time name="total">   19.90   19.93</time>
   <energy>
    <i name="e_fr_energy">   -622.59901425 </i>
    <i name="e_wo_entrp">   -622.43524681 </i>
    <i name="e_0_energy">   -622.51713053 </i>
   </energy>
  </scstep>
  <scstep>
   <time name="diag">    1.80    1.80</time>
   <time name="diis">   16.68   16.69</time>
   <time name="orth">    0.40    0.40</time>
   <time name="total">   19.18   19.20</time>
   <energy>
    <i name="e_fr_energy">   -622.59907933 </i>
    <i name="e_wo_entrp">   -622.43522351 </i>
    <i name="e_0_energy">   -622.51715142 </i>
   </energy>
  </scstep>
  <scstep>
   <time name="diag">    1.80    1.80</time>
   <time name="diis">   16.82   16.89</time>
   <time name="orth">    0.40    0.40</time>
   <time name="total">   19.32   19.39</time>
   <energy>
    <i name="e_fr_energy">   -622.59910715 </i>
    <i name="e_wo_entrp">   -622.43526543 </i>
    <i name="e_0_energy">   -622.51718629 </i>
   </energy>
  </scstep>
  <scstep>
   <time name="diag">    1.80    1.82</time>
   <time name="diis">   15.39   15.44</time>
   <time name="orth">    0.41    0.41</time>
   <time name="total">   17.89   17.97</time>
   <energy>
    <i name="e_fr_energy">   -622.59911996 </i>
    <i name="e_wo_entrp">   -622.43529503 </i>
    <i name="e_0_energy">   -622.51720749 </i>
   </energy>
  </scstep>
  <scstep>
   <time name="diag">    1.79    1.80</time>
   <time name="diis">   15.62   15.72</time>
   <time name="orth">    0.40    0.41</time>
   <time name="total">   18.12   18.23</time>
   <energy>
    <i name="e_fr_energy">   -622.59913740 </i>
    <i name="e_wo_entrp">   -622.43532013 </i>
    <i name="e_0_energy">   -622.51722877 </i>
   </energy>
  </scstep>
  <scstep>
   <time name="diag">    1.78    1.79</time>
   <time name="diis">   13.82   13.88</time>
   <time name="orth">    0.40    0.40</time>
   <time name="total">   16.30   16.37</time>
   <energy>
    <i name="e_fr_energy">   -622.59914585 </i>
    <i name="e_wo_entrp">   -622.43532300 </i>
    <i name="e_0_energy">   -622.51723443 </i>
   </energy>
  </scstep>
  <scstep>
   <time name="diag">    1.79    1.79</time>
   <time name="diis">   13.36   13.41</time>
   <time name="orth">    0.41    0.41</time>
   <time name="total">   15.59   15.65</time>
   <energy>
    <i name="alphaZ">   4507.85283341 </i>
    <i name="ewald"> -43821.35511633 </i>
    <i name="hartreedc">  -9795.72254568 </i>
    <i name="XCdc">   2188.72837660 </i>
    <i name="pawpsdc">  36068.92764033 </i>
    <i name="pawaedc"> -36171.96755627 </i>
    <i name="eentropy">     -0.16382207 </i>
    <i name="bandstr">  -6679.73679737 </i>
    <i name="atom">  53080.83783574 </i>
    <i name="e_fr_energy">   -622.59915163 </i>
    <i name="e_wo_entrp">   -622.43532956 </i>
    <i name="e_0_energy">   -622.51724060 </i>
   </energy>
  </scstep>
  <structure>
   <crystal>
    <varray name="basis" >
     <v>       8.77846270       0.01541310      -0.01355048 </v>
     <v>       0.02148246       8.81604378       0.00265055 </v>
     <v>       0.01798739      -0.01264517       8.79417239 </v>
    </varray>
    <i name="volume">    680.59207107 </i>
    <varray name="rec_basis" >
     <v>       0.11391529      -0.00027751      -0.00023340 </v>
     <v>      -0.00019891       0.11343000       0.00016351 </v>
     <v>       0.00017559      -0.00003462       0.11371126 </v>
    </varray>
   </crystal>
   <varray name="positions" >
    <v>       0.00149727       0.99126026       0.00271654 </v>
    <v>       0.26950109       0.99956487       0.24894124 </v>
    <v>       0.24765955       0.49769497       0.24844758 </v>
    <v>       0.50620319       0.49854549       0.00187447 </v>
    <v>       0.50383567       0.24699430       0.74416320 </v>
    <v>       0.99506473       0.50412517       0.50020688 </v>
    <v>       0.49735909       0.75854420       0.74895421 </v>
    <v>       0.99416819       0.24843722       0.24579335 </v>
    <v>       0.74674486       0.74931913       0.01116240 </v>
    <v>       0.99548717       0.24447535       0.75300154 </v>
    <v>       0.74616540       0.23488278       0.50046942 </v>
    <v>       0.99836123       0.75896737       0.74441871 </v>
    <v>       0.25056065       0.50076540       0.74890323 </v>
    <v>       0.25849143       0.24261565       0.99226104 </v>
    <v>       0.50743394       0.25754496       0.25363302 </v>
    <v>       0.73546360       0.98339844       0.26101116 </v>
    <v>       0.74530556       0.24676210       0.99931684 </v>
    <v>       0.25252950       0.74821743       0.00045789 </v>
    <v>       0.25464890       0.24692685       0.50306576 </v>
    <v>       0.25313092       0.75276040       0.49879325 </v>
    <v>       0.25372754       0.24797238       0.24617136 </v>
    <v>       0.26065383       0.00100617       0.99284123 </v>
    <v>       0.99800737       0.24849292       0.99878029 </v>
    <v>       0.74549270       0.24570838       0.24876859 </v>
    <v>       0.74227014       0.00206973       0.00261762 </v>
    <v>       0.51242584       0.00337176       0.25463813 </v>
    <v>       0.98832207       0.50306172       0.24487941 </v>
    <v>       0.49600580       0.76316530       0.00815682 </v>
    <v>       0.99961581       0.00175033       0.73861559 </v>
    <v>       0.75203257       0.24189954       0.75339131 </v>
    <v>       0.74278010       0.99161834       0.49901214 </v>
    <v>       0.49826823       0.24212911       0.49092810 </v>
    <v>       0.51572109       0.00173201       0.74433524 </v>
    <v>       0.99874707       0.99279604       0.25811206 </v>
    <v>       0.50372277       0.23874773       0.00447410 </v>
    <v>       0.25086898       0.74916194       0.24947368 </v>
    <v>       0.24062877       0.49933787       0.99756693 </v>
    <v>       0.00371365       0.73861016       0.00569747 </v>
    <v>       0.74532959       0.74625410       0.26245626 </v>
    <v>       0.76357576       0.49554614       0.00378104 </v>
    <v>       0.50801215       0.50050053       0.26075333 </v>
    <v>       0.24907011       0.24092062       0.74810567 </v>
    <v>       0.25435272       0.00004143       0.50810603 </v>
    <v>       0.00292462       0.24062973       0.49835596 </v>
    <v>       0.24638249       0.76058429       0.75092415 </v>
    <v>       0.25957874       0.50013877       0.49962994 </v>
    <v>       0.99746671       0.76373274       0.48988038 </v>
    <v>       0.98943827       0.50252168       0.76028639 </v>
    <v>       0.74857404       0.75346249       0.74795513 </v>
    <v>       0.73859115       0.50879930       0.50204726 </v>
    <v>       0.49876588       0.75873083       0.48747277 </v>
    <v>       0.50877647       0.50383444       0.74003895 </v>
    <v>       0.51646564       0.01159247       0.97262969 </v>
    <v>       0.99112884       0.51263904       0.98264111 </v>
    <v>       0.49056356       0.73052782       0.25967076 </v>
    <v>       0.23868504       0.00226254       0.73363919 </v>
    <v>       0.48144711       0.98774289       0.52062489 </v>
    <v>       0.73691556       0.97917658       0.77324492 </v>
    <v>       0.01645219       0.75714584       0.25719048 </v>
    <v>       0.74082117       0.51789840       0.26994452 </v>
    <v>       0.02349487       0.99786578       0.49560999 </v>
    <v>       0.50219916       0.52230842       0.49758537 </v>
    <v>       0.74654242       0.52540494       0.74036891 </v>
    <v>       0.74182982       0.75530414       0.49100523 </v>
   </varray>
  </structure>
  <varray name="forces" >
   <v>       0.00172787      -0.00673834      -0.00024808 </v>
   <v>       0.00015917      -0.00549190       0.00458349 </v>
   <v>       0.00351442       0.00410872      -0.00096295 </v>
   <v>      -0.00168542      -0.00098591       0.00002128 </v>
   <v>      -0.00138899      -0.00279790       0.00361067 </v>
   <v>      -0.00068843      -0.00205460       0.00093120 </v>
   <v>      -0.00183913      -0.01357739       0.00278140 </v>
   <v>      -0.00033117      -0.00160031       0.00584850 </v>
   <v>       0.00283603      -0.00153341       0.00151961 </v>
   <v>       0.00174377       0.00542107      -0.00642344 </v>
   <v>       0.00352846       0.00109473      -0.00206517 </v>
   <v>      -0.00057058       0.00607535       0.00103300 </v>
   <v>      -0.00001719      -0.00001375      -0.00617158 </v>
   <v>       0.00210091       0.00104445      -0.00236526 </v>
   <v>       0.00091378       0.00236534      -0.00262443 </v>
   <v>      -0.00169781       0.00004461      -0.00577371 </v>
   <v>      -0.00321400       0.00306202       0.00007544 </v>
   <v>      -0.00177226      -0.00207659       0.00240767 </v>
   <v>      -0.00350715      -0.00057411       0.00157685 </v>
   <v>       0.00092131      -0.00022225      -0.00123919 </v>
   <v>       0.00123660      -0.00050336      -0.00044702 </v>
   <v>       0.00526183      -0.00051968      -0.00098991 </v>
   <v>       0.00010200       0.00498502      -0.00000811 </v>
   <v>      -0.00081336       0.00126488       0.00047337 </v>
   <v>      -0.00574874      -0.00156200      -0.00231732 </v>
   <v>       0.00721725      -0.00386711      -0.01142025 </v>
   <v>      -0.00444350       0.00233168      -0.00381953 </v>
   <v>       0.00130971       0.00724412       0.00459055 </v>
   <v>      -0.00486515      -0.00490076      -0.00642738 </v>
   <v>      -0.00046305       0.00023077      -0.00087483 </v>
   <v>      -0.00095846      -0.00382411       0.00066706 </v>
   <v>       0.00094399      -0.00153785      -0.00412100 </v>
   <v>       0.01158177       0.01175979      -0.00022224 </v>
   <v>      -0.00046367      -0.00290938       0.00324635 </v>
   <v>       0.00251949      -0.00563761      -0.00049591 </v>
   <v>      -0.00046690      -0.00016849       0.00049987 </v>
   <v>      -0.00425520      -0.00145555       0.00290070 </v>
   <v>       0.00002711      -0.00685232       0.00092909 </v>
   <v>       0.00022021      -0.00430951       0.00341054 </v>
   <v>       0.00653256       0.00139524       0.00113353 </v>
   <v>       0.00365416       0.00414229       0.00447485 </v>
   <v>      -0.00268014      -0.00596827       0.00035585 </v>
   <v>       0.00201961       0.00013060       0.00497962 </v>
   <v>      -0.00111266      -0.00356521      -0.00042214 </v>
   <v>      -0.00363126       0.00560891       0.00093302 </v>
   <v>       0.00358748       0.00025613       0.00455975 </v>
   <v>      -0.00317114       0.00509995      -0.00296741 </v>
   <v>      -0.00274995      -0.00157004       0.00502642 </v>
   <v>      -0.00096517       0.00118474      -0.00073964 </v>
   <v>      -0.00375742       0.00373574      -0.00122433 </v>
   <v>       0.00226941       0.00254556      -0.00474747 </v>
   <v>       0.00182369       0.00388916      -0.00185378 </v>
   <v>       0.00468809       0.00522238       0.00703072 </v>
   <v>       0.00042466       0.00281179      -0.00274011 </v>
   <v>      -0.00020546      -0.00144885       0.00205881 </v>
   <v>      -0.01386609      -0.00021382      -0.00970172 </v>
   <v>       0.00449976      -0.00299967       0.00650832 </v>
   <v>       0.00306960      -0.00358969       0.00695312 </v>
   <v>       0.00310567       0.00417273       0.00197202 </v>
   <v>      -0.00517712       0.00039057       0.00298435 </v>
   <v>       0.00023795       0.00037217      -0.00143503 </v>
   <v>       0.00043837       0.00142618       0.00089429 </v>
   <v>      -0.00269062       0.00053353      -0.00203384 </v>
   <v>      -0.00501951       0.00111955      -0.00408852 </v>
  </varray>
  <varray name="stress" >
   <v>      -6.91117637       0.28064338      -0.25073836 </v>
   <v>       0.28064633      -8.36181614       0.01201788 </v>
   <v>      -0.25074035       0.01202021      -6.76214133 </v>
  </varray>
  <energy>
   <i name="e_fr_energy">   -622.59915163 </i>
   <i name="e_wo_entrp">   -622.51724060 </i>
   <i name="e_0_energy">     -0.16382207 </i>
  </energy>
  <time name="totalsc">  832.35  834.19</time>
 </calculation>
 <calculation>
  <scstep>
   <time name="dav">   26.41   26.43</time>
   <time name="total">   26.70   26.73</time>
   <energy>
    <i name="alphaZ">   4539.80974979 </i>
    <i name="ewald"> -43924.32198394 </i>
    <i name="hartreedc">  -9819.18593553 </i>
    <i name="XCdc">   2193.91281295 </i>
    <i name="pawpsdc">  36068.99565036 </i>
    <i name="pawaedc"> -36172.00419976 </i>
    <i name="eentropy">     -0.15709601 </i>
    <i name="bandstr">  -6590.73685192 </i>
    <i name="atom">  53080.83783574 </i>
    <i name="e_fr_energy">   -622.85001832 </i>
    <i name="e_wo_entrp">   -622.69292231 </i>
    <i name="e_0_energy">   -622.77147032 </i>
   </energy>
  </scstep>
  <scstep>
   <time name="diag">    1.81    1.83</time>
   <time name="diis">   16.65   16.70</time>
   <time name="orth">    0.41    0.41</time>
   <time name="total">   19.17   19.24</time>
   <energy>
    <i name="e_fr_energy">   -623.78583435 </i>
    <i name="e_wo_entrp">   -623.65142782 </i>
    <i name="e_0_energy">   -623.71863109 </i>
   </energy>
  </scstep>
  <scstep>
   <time name="diag">    1.80    1.80</time>
   <time name="diis">   17.23   17.27</time>
   <time name="orth">    0.41    0.41</time>
   <time name="total">   19.73   19.77</time>
   <energy>
    <i name="e_fr_energy">   -623.07076668 </i>
    <i name="e_wo_entrp">   -622.91258612 </i>
    <i name="e_0_energy">   -622.99167640 </i>
   </energy>
  </scstep>
  <scstep>
   <time name="diag">    1.79    1.80</time>
   <time name="diis">   17.26   17.34</time>
   <time name="orth">    0.41    0.41</time>
   <time name="total">   19.75   19.84</time>
   <energy>
    <i name="e_fr_energy">   -622.70852291 </i>
    <i name="e_wo_entrp">   -622.54778215 </i>
    <i name="e_0_energy">   -622.62815253 </i>
   </energy>
  </scstep>
  <scstep>
   <time name="diag">    1.79    1.81</time>
   <time name="diis">   18.43   18.53</time>
   <time name="orth">    0.40    0.40</time>
   <time name="total">   20.91   21.04</time>
   <energy>
    <i name="e_fr_energy">   -622.65020916 </i>
    <i name="e_wo_entrp">   -622.49163225 </i>
    <i name="e_0_energy">   -622.57092070 </i>
   </energy>
  </scstep>
  <scstep>
   <time name="diag">    1.83    1.87</time>
   <time name="diis">   18.11   18.19</time>
   <time name="orth">    0.41    0.41</time>
   <time name="total">   20.65   20.77</time>
   <energy>
    <i name="e_fr_energy">   -622.62573573 </i>
    <i name="e_wo_entrp">   -622.46870398 </i>
    <i name="e_0_energy">   -622.54721985 </i>
   </energy>
  </scstep>
  <scstep>
   <time name="diag">    1.80    1.80</time>
   <time name="diis">   18.25   18.28</time>
   <time name="orth">    0.40    0.40</time>
   <time name="total">   20.75   20.78</time>
   <energy>
    <i name="e_fr_energy">   -622.60540425 </i>
    <i name="e_wo_entrp">   -622.43927110 </i>
    <i name="e_0_energy">   -622.52233767 </i>
   </energy>
  </scstep>
  <scstep>
   <time name="diag">    1.80    1.80</time>
   <time name="diis">   18.84   18.94</time>
   <time name="orth">    0.41    0.41</time>
   <time name="total">   21.34   21.44</time>
   <energy>
    <i name="e_fr_energy">   -622.60031669 </i>
    <i name="e_wo_entrp">   -622.44169995 </i>
    <i name="e_0_energy">   -622.52100832 </i>
   </energy>
  </scstep>
  <scstep>
   <time name="diag">    1.79    1.79</time>
   <time name="diis">   18.05   18.11</time>
   <time name="orth">    0.40    0.40</time>
   <time name="total">   20.54   20.60</time>
   <energy>
    <i name="e_fr_energy">   -622.59770504 </i>
    <i name="e_wo_entrp">   -622.43548578 </i>
    <i name="e_0_energy">   -622.51659541 </i>
   </energy>
  </scstep>
  <scstep>
   <time name="diag">    1.80    1.81</time>
   <time name="diis">   19.18   19.19</time>
   <time name="orth">    0.40    0.40</time>
   <time name="total">   21.67   21.70</time>
   <energy>
    <i name="e_fr_energy">   -622.59156494 </i>
    <i name="e_wo_entrp">   -622.43008157 </i>
    <i name="e_0_energy">   -622.51082326 </i>
   </energy>
  </scstep>
  <scstep>
   <time name="diag">    1.79    1.79</time>
   <time name="diis">   19.58   19.60</time>
   <time name="orth">    0.41    0.41</time>
   <time name="total">   22.08   22.11</time>
   <energy>
    <i name="e_fr_energy">   -622.59256137 </i>
    <i name="e_wo_entrp">   -622.42996466 </i>
    <i name="e_0_energy">   -622.51126301 </i>
   </energy>
  </scstep>
  <scstep>
   <time name="diag">    1.79    1.79</time>
   <time name="diis">   17.20   17.31</time>
   <time name="orth">    0.41    0.41</time>
   <time name="total">   19.69   19.80</time>
   <energy>
    <i name="e_fr_energy">   -622.59117557 </i>
    <i name="e_wo_entrp">   -622.42931176 </i>
    <i name="e_0_energy">   -622.51024366 </i>
   </energy>
  </scstep>
  <scstep>
   <time name="diag">    1.79    1.79</time>
   <time name="diis">   18.62   18.63</time>
   <time name="orth">    0.40    0.40</time>
   <time name="total">   21.10   21.12</time>
   <energy>
    <i name="e_fr_energy">   -622.59116204 </i>
    <i name="e_wo_entrp">   -622.42934287 </i>
    <i name="e_0_energy">   -622.51025245 </i>
   </energy>
  </scstep>
  <scstep>
   <time name="diag">    1.79    1.79</time>
   <time name="diis">   17.94   18.02</time>
   <time name="orth">    0.41    0.41</time>
   <time name="total">   20.42   20.52</time>
   <energy>
    <i name="e_fr_energy">   -622.59117805 </i>
    <i name="e_wo_entrp">   -622.42927977 </i>
    <i name="e_0_energy">   -622.51022891 </i>
   </energy>
  </scstep>
  <scstep>
   <time name="diag">    1.80    1.81</time>
   <time name="diis">   18.49   18.50</time>
   <time name="orth">    0.40    0.40</time>
   <time name="total">   20.99   21.01</time>
   <energy>
    <i name="e_fr_energy">   -622.59115709 </i>
    <i name="e_wo_entrp">   -622.42926310 </i>
    <i name="e_0_energy">   -622.51021010 </i>
   </energy>
  </scstep>
  <scstep>
   <time name="diag">    1.78    1.78</time>
   <time name="diis">   17.98   17.99</time>
   <time name="orth">    0.41    0.41</time>
   <time name="total">   20.47   20.48</time>
   <energy>
    <i name="e_fr_energy">   -622.59126664 </i>
    <i name="e_wo_entrp">   -622.42943090 </i>
    <i name="e_0_energy">   -622.51034877 </i>
   </energy>
  </scstep>
  <scstep>
   <time name="diag">    1.79    1.79</time>
   <time name="diis">   17.32   17.39</time>
   <time name="orth">    0.41    0.41</time>
   <time name="total">   19.81   19.88</time>
   <energy>
    <i name="e_fr_energy">   -622.59131114 </i>
    <i name="e_wo_entrp">   -622.42944228 </i>
    <i name="e_0_energy">   -622.51037671 </i>
   </energy>
  </scstep>
  <scstep>
   <time name="diag">    1.83    1.85</time>
   <time name="diis">   16.81   16.83</time>
   <time name="orth">    0.40    0.40</time>
   <time name="total">   19.34   19.38</time>
   <energy>
    <i name="e_fr_energy">   -622.59134406 </i>
    <i name="e_wo_entrp">   -622.42944384 </i>
    <i name="e_0_energy">   -622.51039395 </i>
   </energy>
  </scstep>
  <scstep>
   <time name="diag">    1.78    1.78</time>
   <time name="diis">   15.99   16.00</time>
   <time name="orth">    0.41    0.41</time>
   <time name="total">   18.47   18.48</time>
   <energy>
    <i name="e_fr_energy">   -622.59135633 </i>
    <i name="e_wo_entrp">   -622.42947637 </i>
    <i name="e_0_energy">   -622.51041635 </i>
   </energy>
  </scstep>
  <scstep>
   <time name="diag">    1.79    1.79</time>
   <time name="diis">   15.72   15.75</time>
   <time name="orth">    0.40    0.40</time>
   <time name="total">   17.95   17.97</time>
   <energy>
    <i name="alphaZ">   4539.80974979 </i>
    <i name="ewald"> -43924.32198394 </i>
    <i name="hartreedc">  -9759.17304453 </i>
    <i name="XCdc">   2190.54804166 </i>
    <i name="pawpsdc">  36155.24613273 </i>
    <i name="pawaedc"> -36257.48027437 </i>
    <i name="eentropy">     -0.16189449 </i>
    <i name="bandstr">  -6647.89592440 </i>
    <i name="atom">  53080.83783574 </i>
    <i name="e_fr_energy">   -622.59136181 </i>
    <i name="e_wo_entrp">   -622.42946732 </i>
    <i name="e_0_energy">   -622.51041457 </i>
   </energy>
  </scstep>
  <structure>
   <crystal>
    <varray name="basis" >
     <v>       8.75903852       0.01616064      -0.01422588 </v>
     <v>       0.02222695       8.79244084       0.00267701 </v>
     <v>       0.01724038      -0.01257585       8.77512916 </v>
    </varray>
    <i name="volume">    675.80120425 </i>
    <varray name="rec_basis" >
     <v>       0.11416795      -0.00028854      -0.00022472 </v>
     <v>      -0.00020958       0.11373454       0.00016341 </v>
     <v>       0.00018515      -0.00003516       0.11395802 </v>
    </varray>
   </crystal>
   <varray name="positions" >
    <v>       0.00150686       0.99122336       0.00271521 </v>
    <v>       0.26950199       0.99953485       0.24896639 </v>
    <v>       0.24767882       0.49771741       0.24844232 </v>
    <v>       0.50619394       0.49854011       0.00187457 </v>
    <v>       0.50382803       0.24697903       0.74418300 </v>
    <v>       0.99506096       0.50411394       0.50021199 </v>
    <v>       0.49734913       0.75846995       0.74896947 </v>
    <v>       0.99416633       0.24842851       0.24582543 </v>
    <v>       0.74676045       0.74931073       0.01117076 </v>
    <v>       0.99549676       0.24450495       0.75296631 </v>
    <v>       0.74618480       0.23488872       0.50045811 </v>
    <v>       0.99835800       0.75900063       0.74442436 </v>
    <v>       0.25056063       0.50076528       0.74886937 </v>
    <v>       0.25850299       0.24262133       0.99224808 </v>
    <v>       0.50743896       0.25755787       0.25361863 </v>
    <v>       0.73545433       0.98339865       0.26097947 </v>
    <v>       0.74528786       0.24677889       0.99931722 </v>
    <v>       0.25251977       0.74820611       0.00047109 </v>
    <v>       0.25462962       0.24692376       0.50307438 </v>
    <v>       0.25313600       0.75275917       0.49878646 </v>
    <v>       0.25373434       0.24796961       0.24616892 </v>
    <v>       0.26068277       0.00100327       0.99283584 </v>
    <v>       0.99800787       0.24852020       0.99878023 </v>
    <v>       0.74548821       0.24571531       0.24877118 </v>
    <v>       0.74223860       0.00206122       0.00260487 </v>
    <v>       0.51246569       0.00335044       0.25457555 </v>
    <v>       0.98829766       0.50307449       0.24485841 </v>
    <v>       0.49601285       0.76320497       0.00818200 </v>
    <v>       0.99958921       0.00172351       0.73858030 </v>
    <v>       0.75203003       0.24190080       0.75338651 </v>
    <v>       0.74277488       0.99159743       0.49901580 </v>
    <v>       0.49827349       0.24212065       0.49090551 </v>
    <v>       0.51578459       0.00179625       0.74433410 </v>
    <v>       0.99874452       0.99278015       0.25812987 </v>
    <v>       0.50373669       0.23871686       0.00447141 </v>
    <v>       0.25086642       0.74916102       0.24947642 </v>
    <v>       0.24060537       0.49932997       0.99758281 </v>
    <v>       0.00371388       0.73857267       0.00570258 </v>
    <v>       0.74533082       0.74623054       0.26247498 </v>
    <v>       0.76361163       0.49555372       0.00378731 </v>
    <v>       0.50803213       0.50052319       0.26077791 </v>
    <v>       0.24905545       0.24088799       0.74810761 </v>
    <v>       0.25436376       0.00004217       0.50813336 </v>
    <v>       0.00291856       0.24061022       0.49835364 </v>
    <v>       0.24636245       0.76061503       0.75092923 </v>
    <v>       0.25959840       0.50014018       0.49965499 </v>
    <v>       0.99744924       0.76376066       0.48986406 </v>
    <v>       0.98942312       0.50251316       0.76031394 </v>
    <v>       0.74856873       0.75346898       0.74795106 </v>
    <v>       0.73857046       0.50881977       0.50204051 </v>
    <v>       0.49877837       0.75874470       0.48744674 </v>
    <v>       0.50878646       0.50385569       0.74002879 </v>
    <v>       0.51649126       0.01162106       0.97266829 </v>
    <v>       0.99113117       0.51265440       0.98262608 </v>
    <v>       0.49056243       0.73051991       0.25968205 </v>
    <v>       0.23860895       0.00226143       0.73358585 </v>
    <v>       0.48147180       0.98772648       0.52066064 </v>
    <v>       0.73693240       0.97915696       0.77328309 </v>
    <v>       0.01646918       0.75716866       0.25720132 </v>
    <v>       0.74079268       0.51790061       0.26996085 </v>
    <v>       0.02349619       0.99786780       0.49560212 </v>
    <v>       0.50220154       0.52231623       0.49759028 </v>
    <v>       0.74652765       0.52540787       0.74035773 </v>
    <v>       0.74180227       0.75531029       0.49098276 </v>
   </varray>
  </structure>
  <varray name="forces" >
   <v>      -0.00066973       0.01683197      -0.00869197 </v>
   <v>      -0.01268646       0.00402285       0.00144783 </v>
   <v>      -0.00659185      -0.01088709       0.00260990 </v>
   <v>      -0.00970157       0.00832166       0.00331124 </v>
   <v>      -0.00565098       0.02133534      -0.00649459 </v>
   <v>       0.00527934      -0.00402592       0.00052068 </v>
   <v>      -0.00864425      -0.00158306       0.00765760 </v>
   <v>       0.01077114       0.00822718      -0.00423915 </v>
   <v>       0.00454324       0.00189970      -0.00153301 </v>
   <v>       0.00356074       0.01922098       0.00233009 </v>
   <v>       0.00096313       0.03036261       0.00564954 </v>
   <v>      -0.00822902      -0.01925501       0.00086126 </v>
   <v>      -0.00676563      -0.00319947       0.00207852 </v>
   <v>      -0.01983706       0.00771285       0.01474413 </v>
   <v>      -0.01511840      -0.00975675      -0.00450287 </v>
   <v>       0.04012358       0.03012581      -0.02818606 </v>
   <v>       0.02427116       0.00217041       0.00359889 </v>
   <v>       0.00163740       0.00803103       0.00077263 </v>
   <v>       0.00158265       0.00720542      -0.01787081 </v>
   <v>      -0.00686820      -0.00711519       0.00296932 </v>
   <v>       0.00937762      -0.00021648      -0.00087260 </v>
   <v>       0.02442347      -0.01129231      -0.02332635 </v>
   <v>       0.00721419       0.03607657      -0.00079710 </v>
   <v>      -0.00975784       0.00956675      -0.01872096 </v>
   <v>       0.00592725       0.01645617       0.02278165 </v>
   <v>       0.00148501      -0.01541281      -0.01721050 </v>
   <v>      -0.01783132       0.02870877      -0.03197744 </v>
   <v>      -0.01477165       0.02460759       0.02372968 </v>
   <v>      -0.02204076       0.00524682      -0.01722129 </v>
   <v>      -0.00189559       0.00813242       0.01351569 </v>
   <v>       0.00668897      -0.02467422       0.03148818 </v>
   <v>      -0.01850045       0.00553328      -0.01180791 </v>
   <v>      -0.01513864      -0.00181730      -0.00287529 </v>
   <v>      -0.01185006      -0.00766561       0.00602389 </v>
   <v>      -0.00567603      -0.00020038       0.01280787 </v>
   <v>       0.00391736      -0.00171990      -0.00096814 </v>
   <v>      -0.01589854      -0.00746525       0.00062530 </v>
   <v>       0.01011104      -0.01440074       0.01131866 </v>
   <v>       0.00914887       0.00232076      -0.00477613 </v>
   <v>       0.00436107      -0.01871823       0.00586358 </v>
   <v>      -0.00382044      -0.00880901       0.00143400 </v>
   <v>      -0.00176072      -0.01152262      -0.00038261 </v>
   <v>       0.00291539       0.00019440      -0.00757662 </v>
   <v>       0.01394720      -0.00679239       0.00215414 </v>
   <v>      -0.00093920       0.01401840       0.00288791 </v>
   <v>       0.00893609      -0.00182274      -0.00372216 </v>
   <v>      -0.01106803       0.00399756      -0.00282160 </v>
   <v>      -0.00710382      -0.00110069      -0.00547649 </v>
   <v>       0.00097221       0.00253209      -0.01136943 </v>
   <v>      -0.00311250      -0.00436953       0.01028809 </v>
   <v>       0.00145340       0.00709203       0.00148821 </v>
   <v>       0.00574973      -0.00550354      -0.00756783 </v>
   <v>      -0.02992533      -0.02620607       0.03752943 </v>
   <v>       0.02323030      -0.04715761       0.03355111 </v>
   <v>       0.01255351       0.04196213      -0.03206647 </v>
   <v>       0.00502867      -0.00128183       0.02875439 </v>
   <v>       0.03476465       0.02930075      -0.01954463 </v>
   <v>       0.04456423       0.03840857      -0.02202643 </v>
   <v>      -0.02531158      -0.02487220      -0.01341083 </v>
   <v>       0.01949441      -0.05360764      -0.02612673 </v>
   <v>      -0.03831656       0.01415281       0.00864610 </v>
   <v>      -0.00860537      -0.04289180       0.00822942 </v>
   <v>       0.00840853      -0.05731701       0.01538811 </v>
   <v>       0.00668204      -0.00111528       0.02710697 </v>
  </varray>
  <varray name="stress" >
   <v>      12.28880611      -0.05114883       0.07001737 </v>
   <v>      -0.05114934      12.77156978       0.02628155 </v>
   <v>       0.07001556       0.02628171      12.04872137 </v>
  </varray>
  <energy>
   <i name="e_fr_energy">   -622.59136181 </i>
   <i name="e_wo_entrp">   -622.51041457 </i>
   <i name="e_0_energy">     -0.16189449 </i>
  </energy>
  <time name="totalsc">  452.14  453.35</time>
 </calculation>
 <calculation>
  <scstep>
   <time name="dav">   25.96   26.02</time>
   <time name="total">   26.26   26.32</time>
   <energy>
    <i name="alphaZ">   4519.48993100 </i>
    <i name="ewald"> -43858.90818303 </i>
    <i name="hartreedc">  -9744.45230451 </i>
    <i name="XCdc">   2187.26436336 </i>
    <i name="pawpsdc">  36155.50206553 </i>
    <i name="pawaedc"> -36257.64844924 </i>
    <i name="eentropy">     -0.16597579 </i>
    <i name="bandstr">  -6704.62941597 </i>
    <i name="atom">  53080.83783574 </i>
    <i name="e_fr_energy">   -622.71013290 </i>
    <i name="e_wo_entrp">   -622.54415711 </i>
    <i name="e_0_energy">   -622.62714501 </i>
   </energy>
  </scstep>
  <scstep>
   <time name="diag">    1.79    1.79</time>
   <time name="diis">   16.87   16.88</time>
   <time name="orth">    0.41    0.41</time>
   <time name="total">   19.36   19.38</time>
   <energy>
    <i name="e_fr_energy">   -623.12718833 </i>
    <i name="e_wo_entrp">   -622.97000565 </i>
    <i name="e_0_energy">   -623.04859699 </i>
   </energy>
  </scstep>
  <scstep>
   <time name="diag">    1.79    1.80</time>
   <time name="diis">   16.69   16.71</time>
   <time name="orth">    0.40    0.40</time>
   <time name="total">   19.18   19.20</time>
   <energy>
    <i name="e_fr_energy">   -622.79342377 </i>
    <i name="e_wo_entrp">   -622.64202033 </i>
    <i name="e_0_energy">   -622.71772205 </i>
   </energy>
  </scstep>
  <scstep>
   <time name="diag">    1.78    1.78</time>
   <time name="diis">   17.46   17.50</time>
   <time name="orth">    0.41    0.41</time>
   <time name="total">   19.94   19.98</time>
   <energy>
    <i name="e_fr_energy">   -622.67651001 </i>
    <i name="e_wo_entrp">   -622.51504644 </i>
    <i name="e_0_energy">   -622.59577822 </i>
   </energy>
  </scstep>
  <scstep>
   <time name="diag">    1.80    1.80</time>
   <time name="diis">   18.44   18.47</time>
   <time name="orth">    0.40    0.40</time>
   <time name="total">   20.93   20.97</time>
   <energy>
    <i name="e_fr_energy">   -622.62413756 </i>
    <i name="e_wo_entrp">   -622.46046180 </i>
    <i name="e_0_energy">   -622.54229968 </i>
   </energy>
  </scstep>
  <scstep>
   <time name="diag">    1.80    1.80</time>
   <time name="diis">   19.25   19.30</time>
   <time name="orth">    0.41    0.41</time>
   <time name="total">   21.75   21.80</time>
   <energy>
    <i name="e_fr_energy">   -622.61734454 </i>
    <i name="e_wo_entrp">   -622.45258336 </i>
    <i name="e_0_energy">   -622.53496395 </i>
   </energy>
  </scstep>
  <scstep>
   <time name="diag">    1.81    1.84</time>
   <time name="diis">   17.55   17.64</time>
   <time name="orth">    0.40    0.40</time>
   <time name="total">   20.05   20.18</time>
   <energy>
    <i name="e_fr_energy">   -622.60895797 </i>
    <i name="e_wo_entrp">   -622.44859063 </i>
    <i name="e_0_energy">   -622.52877430 </i>
   </energy>
  </scstep>
  <scstep>
   <time name="diag">    1.79    1.79</time>
   <time name="diis">   18.94   19.01</time>
   <time name="orth">    0.41    0.41</time>
   <time name="total">   21.43   21.50</time>
   <energy>
    <i name="e_fr_energy">   -622.60892759 </i>
    <i name="e_wo_entrp">   -622.44317415 </i>
    <i name="e_0_energy">   -622.52605087 </i>
   </energy>
  </scstep>
  <scstep>
   <time name="diag">    1.80    1.80</time>
   <time name="diis">   17.30   17.32</time>
   <time name="orth">    0.42    0.43</time>
   <time name="total">   19.82   19.83</time>
   <energy>
    <i name="e_fr_energy">   -622.60624704 </i>
    <i name="e_wo_entrp">   -622.44359085 </i>
    <i name="e_0_energy">   -622.52491894 </i>
   </energy>
  </scstep>
  <scstep>
   <time name="diag">    1.86    1.88</time>
   <time name="diis">   18.87   18.89</time>
   <time name="orth">    0.40    0.40</time>
   <time name="total">   21.44   21.46</time>
   <energy>
    <i name="e_fr_energy">   -622.60362094 </i>
    <i name="e_wo_entrp">   -622.44010170 </i>
    <i name="e_0_energy">   -622.52186132 </i>
   </energy>
  </scstep>
  <scstep>
   <time name="diag">    1.80    1.80</time>
   <time name="diis">   17.61   17.64</time>
   <time name="orth">    0.40    0.40</time>
   <time name="total">   20.11   20.14</time>
   <energy>
    <i name="e_fr_energy">   -622.60398638 </i>
    <i name="e_wo_entrp">   -622.44149725 </i>
    <i name="e_0_energy">   -622.52274182 </i>
   </energy>
  </scstep>
  <scstep>
   <time name="diag">    1.79    1.79</time>
   <time name="diis">   16.71   16.75</time>
   <time name="orth">    0.41    0.41</time>
   <time name="total">   19.19   19.24</time>
   <energy>
    <i name="e_fr_energy">   -622.60322839 </i>
    <i name="e_wo_entrp">   -622.44009970 </i>
    <i name="e_0_energy">   -622.52166405 </i>
   </energy>
  </scstep>
  <scstep>
   <time name="diag">    1.80    1.82</time>
   <time name="diis">   18.02   18.07</time>
   <time name="orth">    0.40    0.40</time>
   <time name="total">   20.51   20.59</time>
   <energy>
    <i name="e_fr_energy">   -622.60323553 </i>
    <i name="e_wo_entrp">   -622.44016489 </i>
    <i name="e_0_energy">   -622.52170021 </i>
   </energy>
  </scstep>
  <scstep>
   <time name="diag">    1.80    1.80</time>
   <time name="diis">   16.00   16.03</time>
   <time name="orth">    0.40    0.40</time>
   <time name="total">   18.50   18.52</time>
   <energy>
    <i name="e_fr_energy">   -622.60323288 </i>
    <i name="e_wo_entrp">   -622.44013250 </i>
    <i name="e_0_energy">   -622.52168269 </i>
   </energy>
  </scstep>
  <scstep>
   <time name="diag">    1.78    1.78</time>
   <time name="diis">   16.44   16.46</time>
   <time name="orth">    0.40    0.40</time>
   <time name="total">   18.92   18.93</time>
   <energy>
    <i name="e_fr_energy">   -622.60320447 </i>
    <i name="e_wo_entrp">   -622.44014992 </i>
    <i name="e_0_energy">   -622.52167720 </i>
   </energy>
  </scstep>
  <scstep>
   <time name="diag">    1.82    1.82</time>
   <time name="diis">   16.40   16.43</time>
   <time name="orth">    0.40    0.40</time>
   <time name="total">   18.91   18.95</time>
   <energy>
    <i name="e_fr_energy">   -622.60321823 </i>
    <i name="e_wo_entrp">   -622.44008594 </i>
    <i name="e_0_energy">   -622.52165209 </i>
   </energy>
  </scstep>
  <scstep>
   <time name="diag">    1.79    1.79</time>
   <time name="diis">   15.84   15.85</time>
   <time name="orth">    0.40    0.40</time>
   <time name="total">   18.33   18.34</time>
   <energy>
    <i name="e_fr_energy">   -622.60322848 </i>
    <i name="e_wo_entrp">   -622.44010097 </i>
    <i name="e_0_energy">   -622.52166473 </i>
   </energy>
  </scstep>
  <scstep>
   <time name="diag">    1.78    1.79</time>
   <time name="diis">   16.44   16.47</time>
   <time name="orth">    0.40    0.40</time>
   <time name="total">   18.66   18.69</time>
   <energy>
    <i name="alphaZ">   4519.48993100 </i>
    <i name="ewald"> -43858.90818303 </i>
    <i name="hartreedc">  -9782.72860556 </i>
    <i name="XCdc">   2189.40874976 </i>
    <i name="pawpsdc">  36101.47817012 </i>
    <i name="pawaedc"> -36203.75174960 </i>
    <i name="eentropy">     -0.16311937 </i>
    <i name="bandstr">  -6668.26626203 </i>
    <i name="atom">  53080.83783574 </i>
    <i name="e_fr_energy">   -622.60323298 </i>
    <i name="e_wo_entrp">   -622.44011361 </i>
    <i name="e_0_energy">   -622.52167329 </i>
   </energy>
  </scstep>
  <structure>
   <crystal>
    <varray name="basis" >
     <v>       8.77136814       0.01568614      -0.01379717 </v>
     <v>       0.02175438       8.80742295       0.00266021 </v>
     <v>       0.01771455      -0.01261985       8.78721697 </v>
    </varray>
    <i name="volume">    678.83963518 </i>
    <varray name="rec_basis" >
     <v>       0.11400744      -0.00028153      -0.00023024 </v>
     <v>      -0.00020279       0.11354104       0.00016347 </v>
[...]
      </set>
     </set>
    </set>
   </array>
  </eigenvalues>
  <separator name="orbital magnetization" >
   <v name="MAGDIPOLOUT">      0.00000000      0.00000000      0.00000000</v>
  </separator>
  <dos>
   <i name="efermi">      7.31519352 </i>
   <total>
    <array>
     <dimension dim="1">gridpoints</dimension>
     <dimension dim="2">spin</dimension>
     <field>energy</field>
     <field>total</field>
     <field>integrated</field>
     <set>
      <set comment="spin 1">
       <r>   -60.9393     0.0000     0.0000 </r>
       <r>   -60.6928     0.0000     0.0000 </r>
       <r>   -60.4462     0.0000     0.0000 </r>
       <r>   -60.1997     0.0000     0.0000 </r>
       <r>   -59.9531     0.0000     0.0000 </r>
       <r>   -59.7065     0.0000     0.0000 </r>
       <r>   -59.4600     0.0000     0.0000 </r>
       <r>   -59.2134     0.0000     0.0000 </r>
       <r>   -58.9669     0.0000     0.0000 </r>
       <r>   -58.7203     0.0000     0.0000 </r>
       <r>   -58.4737     0.0000     0.0000 </r>
       <r>   -58.2272     0.0000     0.0000 </r>
       <r>   -57.9806     0.0000     0.0000 </r>
       <r>   -57.7341     0.2310     0.0570 </r>
       <r>   -57.4875    30.2905     7.5254 </r>
       <r>   -57.2409    18.1072    11.9899 </r>
       <r>   -56.9944     0.0408    12.0000 </r>
       <r>   -56.7478     0.0000    12.0000 </r>
       <r>   -56.5013     0.0000    12.0000 </r>
       <r>   -56.2547     0.0000    12.0000 </r>
       <r>   -56.0081     0.0000    12.0000 </r>
       <r>   -55.7616     0.0000    12.0000 </r>
       <r>   -55.5150     0.0000    12.0000 </r>
       <r>   -55.2684     0.0000    12.0000 </r>
       <r>   -55.0219     0.0000    12.0000 </r>
       <r>   -54.7753     0.0000    12.0000 </r>
       <r>   -54.5288     0.0000    12.0000 </r>
       <r>   -54.2822     0.0000    12.0000 </r>
       <r>   -54.0356     0.0000    12.0000 </r>
       <r>   -53.7891     0.0000    12.0000 </r>
       <r>   -53.5425     0.0000    12.0000 </r>
       <r>   -53.2960     0.0000    12.0000 </r>
       <r>   -53.0494     0.0000    12.0000 </r>
       <r>   -52.8028     0.0000    12.0000 </r>
       <r>   -52.5563     0.0000    12.0000 </r>
       <r>   -52.3097     0.0000    12.0000 </r>
       <r>   -52.0632     0.0000    12.0000 </r>
       <r>   -51.8166     0.0000    12.0000 </r>
       <r>   -51.5700     0.0000    12.0000 </r>
       <r>   -51.3235     0.0000    12.0000 </r>
       <r>   -51.0769     0.0000    12.0000 </r>
       <r>   -50.8304     0.0000    12.0000 </r>
       <r>   -50.5838     0.0000    12.0000 </r>
       <r>   -50.3372     0.3521    12.0868 </r>
       <r>   -50.0907    22.5055    17.6358 </r>
       <r>   -49.8441    21.6819    22.9817 </r>
       <r>   -49.5975    10.9935    25.6922 </r>
       <r>   -49.3510     1.2482    26.0000 </r>
       <r>   -49.1044     0.0000    26.0000 </r>
       <r>   -48.8579     0.0000    26.0000 </r>
       <r>   -48.6113     0.0000    26.0000 </r>
       <r>   -48.3647     0.0000    26.0000 </r>
       <r>   -48.1182     0.0000    26.0000 </r>
       <r>   -47.8716     0.0000    26.0000 </r>
       <r>   -47.6251     0.0000    26.0000 </r>
       <r>   -47.3785     0.0000    26.0000 </r>
       <r>   -47.1319     0.0000    26.0000 </r>
       <r>   -46.8854     0.0000    26.0000 </r>
       <r>   -46.6388     0.0000    26.0000 </r>
       <r>   -46.3923     0.0000    26.0000 </r>
       <r>   -46.1457     0.0000    26.0000 </r>
       <r>   -45.8991     0.0000    26.0000 </r>
       <r>   -45.6526     0.0000    26.0000 </r>
       <r>   -45.4060     0.0000    26.0000 </r>
       <r>   -45.1595     0.0000    26.0000 </r>
       <r>   -44.9129     0.0000    26.0000 </r>
       <r>   -44.6663     0.0000    26.0000 </r>
       <r>   -44.4198     0.0000    26.0000 </r>
       <r>   -44.1732     0.0000    26.0000 </r>
       <r>   -43.9266     0.0000    26.0000 </r>
       <r>   -43.6801     0.0000    26.0000 </r>
       <r>   -43.4335     0.0000    26.0000 </r>
       <r>   -43.1870     0.0000    26.0000 </r>
       <r>   -42.9404     0.0000    26.0000 </r>
       <r>   -42.6938     0.0000    26.0000 </r>
       <r>   -42.4473     0.0000    26.0000 </r>
       <r>   -42.2007     0.0000    26.0000 </r>
       <r>   -41.9542     0.0000    26.0000 </r>
       <r>   -41.7076     0.5343    26.1317 </r>
       <r>   -41.4610     8.4564    28.2168 </r>
       <r>   -41.2145     8.4578    30.3021 </r>
       <r>   -40.9679    32.1608    38.2317 </r>
       <r>   -40.7214     7.1709    39.9998 </r>
       <r>   -40.4748     0.0009    40.0000 </r>
       <r>   -40.2282     0.0000    40.0000 </r>
       <r>   -39.9817     0.0000    40.0000 </r>
       <r>   -39.7351     0.0000    40.0000 </r>
       <r>   -39.4886     0.0000    40.0000 </r>
       <r>   -39.2420     0.0000    40.0000 </r>
       <r>   -38.9954     0.0000    40.0000 </r>
       <r>   -38.7489     0.0000    40.0000 </r>
       <r>   -38.5023     0.0000    40.0000 </r>
       <r>   -38.2557     0.0000    40.0000 </r>
       <r>   -38.0092     0.0000    40.0000 </r>
       <r>   -37.7626     0.0000    40.0000 </r>
       <r>   -37.5161     0.0000    40.0000 </r>
       <r>   -37.2695     0.0000    40.0000 </r>
       <r>   -37.0229     0.0000    40.0000 </r>
       <r>   -36.7764     0.0052    40.0013 </r>
       <r>   -36.5298     5.7568    41.4207 </r>
       <r>   -36.2833    68.3301    58.2682 </r>
       <r>   -36.0367    70.6381    75.6848 </r>
       <r>   -35.7901     1.2784    76.0000 </r>
       <r>   -35.5436     0.0000    76.0000 </r>
       <r>   -35.2970     0.0000    76.0000 </r>
       <r>   -35.0505     0.0000    76.0000 </r>
       <r>   -34.8039     0.0000    76.0000 </r>
       <r>   -34.5573     0.0000    76.0000 </r>
       <r>   -34.3108     0.0000    76.0000 </r>
       <r>   -34.0642     0.0000    76.0000 </r>
       <r>   -33.8177     0.0000    76.0000 </r>
       <r>   -33.5711     0.0000    76.0000 </r>
       <r>   -33.3245     0.0000    76.0000 </r>
       <r>   -33.0780     0.0000    76.0000 </r>
       <r>   -32.8314     0.0000    76.0000 </r>
       <r>   -32.5848     0.0000    76.0000 </r>
       <r>   -32.3383     0.0000    76.0000 </r>
       <r>   -32.0917     0.0000    76.0000 </r>
       <r>   -31.8452     0.0097    76.0024 </r>
       <r>   -31.5986    18.6342    80.5969 </r>
       <r>   -31.3520   100.4960   105.3752 </r>
       <r>   -31.1055    26.8022   111.9836 </r>
       <r>   -30.8589     0.0664   112.0000 </r>
       <r>   -30.6124     0.0000   112.0000 </r>
       <r>   -30.3658     0.0000   112.0000 </r>
       <r>   -30.1192     0.0000   112.0000 </r>
       <r>   -29.8727     0.0000   112.0000 </r>
       <r>   -29.6261     0.0000   112.0000 </r>
       <r>   -29.3796     0.0000   112.0000 </r>
       <r>   -29.1330     0.0000   112.0000 </r>
       <r>   -28.8864     0.0000   112.0000 </r>
       <r>   -28.6399     0.0000   112.0000 </r>
       <r>   -28.3933     0.0000   112.0000 </r>
       <r>   -28.1468     0.0000   112.0000 </r>
       <r>   -27.9002     0.0000   112.0000 </r>
       <r>   -27.6536     0.0000   112.0000 </r>
       <r>   -27.4071     0.0000   112.0000 </r>
       <r>   -27.1605     0.0000   112.0000 </r>
       <r>   -26.9139     0.0010   112.0003 </r>
       <r>   -26.6674     7.8970   113.9474 </r>
       <r>   -26.4208    68.7590   130.9006 </r>
       <r>   -26.1743    63.6536   146.5951 </r>
       <r>   -25.9277    29.0201   153.7503 </r>
       <r>   -25.6811     1.0126   154.0000 </r>
       <r>   -25.4346     0.0000   154.0000 </r>
       <r>   -25.1880     0.0000   154.0000 </r>
       <r>   -24.9415     0.0000   154.0000 </r>
       <r>   -24.6949     0.0000   154.0000 </r>
       <r>   -24.4483     0.0000   154.0000 </r>
       <r>   -24.2018     0.0000   154.0000 </r>
       <r>   -23.9552     0.0000   154.0000 </r>
       <r>   -23.7087     0.1469   154.0362 </r>
       <r>   -23.4621    14.8269   157.6919 </r>
       <r>   -23.2155    29.5587   164.9800 </r>
       <r>   -22.9690    30.3782   172.4701 </r>
       <r>   -22.7224    32.8696   180.5744 </r>
       <r>   -22.4759    31.1452   188.2536 </r>
       <r>   -22.2293     7.0814   189.9996 </r>
       <r>   -21.9827     0.0016   190.0000 </r>
       <r>   -21.7362     0.0000   190.0000 </r>
       <r>   -21.4896     0.0000   190.0000 </r>
       <r>   -21.2430     0.0000   190.0000 </r>
       <r>   -20.9965     0.0000   190.0000 </r>
       <r>   -20.7499     0.0000   190.0000 </r>
       <r>   -20.5034     0.0000   190.0000 </r>
       <r>   -20.2568     0.0078   190.0019 </r>
       <r>   -20.0102     6.2093   191.5329 </r>
       <r>   -19.7637    24.5587   197.5881 </r>
       <r>   -19.5171    48.1698   209.4649 </r>
       <r>   -19.2706    70.0519   226.7370 </r>
       <r>   -19.0240    20.0059   231.6696 </r>
       <r>   -18.7774     1.3398   232.0000 </r>
       <r>   -18.5309     0.0000   232.0000 </r>
       <r>   -18.2843     0.0000   232.0000 </r>
       <r>   -18.0378     0.0000   232.0000 </r>
       <r>   -17.7912     0.0000   232.0000 </r>
       <r>   -17.5446     0.0000   232.0000 </r>
       <r>   -17.2981     0.0000   232.0000 </r>
       <r>   -17.0515     0.0000   232.0000 </r>
       <r>   -16.8050     0.0000   232.0000 </r>
       <r>   -16.5584     0.0000   232.0000 </r>
       <r>   -16.3118     0.0000   232.0000 </r>
       <r>   -16.0653     0.0000   232.0000 </r>
       <r>   -15.8187     0.0000   232.0000 </r>
       <r>   -15.5722     0.0000   232.0000 </r>
       <r>   -15.3256     0.0000   232.0000 </r>
       <r>   -15.0790     0.0000   232.0000 </r>
       <r>   -14.8325     0.0000   232.0000 </r>
       <r>   -14.5859     0.0000   232.0000 </r>
       <r>   -14.3393     0.0000   232.0000 </r>
       <r>   -14.0928     0.0000   232.0000 </r>
       <r>   -13.8462     0.0000   232.0000 </r>
       <r>   -13.5997     0.0000   232.0000 </r>
       <r>   -13.3531     0.0000   232.0000 </r>
       <r>   -13.1065     0.0000   232.0000 </r>
       <r>   -12.8600     0.0000   232.0000 </r>
       <r>   -12.6134     0.0000   232.0000 </r>
       <r>   -12.3669     0.0000   232.0000 </r>
       <r>   -12.1203     0.0000   232.0000 </r>
       <r>   -11.8737     0.0000   232.0000 </r>
       <r>   -11.6272     0.0000   232.0000 </r>
       <r>   -11.3806     0.0000   232.0000 </r>
       <r>   -11.1341     0.0000   232.0000 </r>
       <r>   -10.8875     0.0000   232.0000 </r>
       <r>   -10.6409     0.0000   232.0000 </r>
       <r>   -10.3944     0.0000   232.0000 </r>
       <r>   -10.1478     0.0000   232.0000 </r>
       <r>    -9.9013     0.0000   232.0000 </r>
       <r>    -9.6547     0.0000   232.0000 </r>
       <r>    -9.4081     0.0000   232.0000 </r>
       <r>    -9.1616     0.0000   232.0000 </r>
       <r>    -8.9150     0.0000   232.0000 </r>
       <r>    -8.6684     0.0898   232.0221 </r>
       <r>    -8.4219     5.7229   233.4332 </r>
       <r>    -8.1753     4.3404   234.5034 </r>
       <r>    -7.9288     8.0315   236.4836 </r>
       <r>    -7.6822    13.4530   239.8006 </r>
       <r>    -7.4356    14.2154   243.3056 </r>
       <r>    -7.1891    30.0384   250.7119 </r>
       <r>    -6.9425    22.6781   256.3034 </r>
       <r>    -6.6960     6.8520   257.9928 </r>
       <r>    -6.4494     0.0291   258.0000 </r>
       <r>    -6.2028     0.0000   258.0000 </r>
       <r>    -5.9563     0.0000   258.0000 </r>
       <r>    -5.7097     0.0000   258.0000 </r>
       <r>    -5.4632     0.0000   258.0000 </r>
       <r>    -5.2166     0.0000   258.0000 </r>
       <r>    -4.9700     0.1930   258.0476 </r>
       <r>    -4.7235     4.4700   259.1497 </r>
       <r>    -4.4769     4.2360   260.1942 </r>
       <r>    -4.2304     8.2800   262.2357 </r>
       <r>    -3.9838     8.4071   264.3085 </r>
       <r>    -3.7372    11.8633   267.2336 </r>
       <r>    -3.4907    19.4582   272.0312 </r>
       <r>    -3.2441    30.0566   279.4420 </r>
       <r>    -2.9975    26.5083   285.9779 </r>
       <r>    -2.7510    23.7569   291.8354 </r>
       <r>    -2.5044    12.1534   294.8319 </r>
       <r>    -2.2579     4.0839   295.8389 </r>
       <r>    -2.0113     0.6532   295.9999 </r>
       <r>    -1.7647     0.0004   296.0000 </r>
       <r>    -1.5182     0.0000   296.0000 </r>
       <r>    -1.2716     0.0000   296.0000 </r>
       <r>    -1.0251     0.0000   296.0000 </r>
       <r>    -0.7785     0.0000   296.0000 </r>
       <r>    -0.5319     0.0000   296.0000 </r>
       <r>    -0.2854     0.0000   296.0000 </r>
       <r>    -0.0388     0.0859   296.0212 </r>
       <r>     0.2077     1.4565   296.3803 </r>
       <r>     0.4543     8.2895   298.4242 </r>
       <r>     0.7009    11.0221   301.1418 </r>
       <r>     0.9474    10.2185   303.6613 </r>
       <r>     1.1940    20.1900   308.6393 </r>
       <r>     1.4405    27.8228   315.4994 </r>
       <r>     1.6871    31.4623   323.2567 </r>
       <r>     1.9337    31.5168   331.0276 </r>
       <r>     2.1802    37.5443   340.2845 </r>
       <r>     2.4268    33.8103   348.6208 </r>
       <r>     2.6734    39.2824   358.3063 </r>
       <r>     2.9199    50.9809   370.8762 </r>
       <r>     3.1665    55.7170   384.6138 </r>
       <r>     3.4130    58.4182   399.0174 </r>
       <r>     3.6596    61.4813   414.1763 </r>
       <r>     3.9062    60.5442   429.1041 </r>
       <r>     4.1527    59.6026   443.7998 </r>
       <r>     4.3993    44.9652   454.8865 </r>
       <r>     4.6458    34.8438   463.4776 </r>
       <r>     4.8924    31.7517   471.3063 </r>
       <r>     5.1390    27.9512   478.1980 </r>
       <r>     5.3855    18.9511   482.8706 </r>
       <r>     5.6321    14.5305   486.4533 </r>
       <r>     5.8786     8.9329   488.6558 </r>
       <r>     6.1252    14.6856   492.2766 </r>
       <r>     6.3718    15.6932   496.1460 </r>
       <r>     6.6183    24.2732   502.1308 </r>
       <r>     6.8649    22.0640   507.5709 </r>
       <r>     7.1114    21.8236   512.9518 </r>
       <r>     7.3580    30.2656   520.4141 </r>
       <r>     7.6046    34.5630   528.9360 </r>
       <r>     7.8511    37.8007   538.2561 </r>
       <r>     8.0977    47.3078   549.9204 </r>
       <r>     8.3443    53.0299   562.9955 </r>
       <r>     8.5908    49.6611   575.2400 </r>
       <r>     8.8374    46.5367   586.7141 </r>
       <r>     9.0839    47.5313   598.4334 </r>
       <r>     9.3305    50.0986   610.7858 </r>
       <r>     9.5771    42.3587   621.2298 </r>
       <r>     9.8236    11.1942   623.9898 </r>
       <r>    10.0702     0.0412   624.0000 </r>
       <r>    10.3167     0.0000   624.0000 </r>
       <r>    10.5633     0.0000   624.0000 </r>
       <r>    10.8099     0.0000   624.0000 </r>
       <r>    11.0564     0.0000   624.0000 </r>
       <r>    11.3030     0.0000   624.0000 </r>
       <r>    11.5495     0.0000   624.0000 </r>
       <r>    11.7961     0.0000   624.0000 </r>
       <r>    12.0427     0.0000   624.0000 </r>
       <r>    12.2892     0.0000   624.0000 </r>
       <r>    12.5358     0.0000   624.0000 </r>
       <r>    12.7823     0.0000   624.0000 </r>
       <r>    13.0289     0.0000   624.0000 </r>
      </set>
     </set>
    </array>
   </total>
  </dos>
 </calculation>
 <structure name="finalpos" >
  <crystal>
   <varray name="basis" >
    <v>       8.77162032       0.01604543      -0.01400776 </v>
    <v>       0.02212372       8.80325062       0.00290545 </v>
    <v>       0.01750302      -0.01236791       8.78719343 </v>
   </varray>
   <i name="volume">    678.53564598 </i>
   <varray name="rec_basis" >
    <v>       0.11400418      -0.00028643      -0.00022749 </v>
    <v>      -0.00020754       0.11359487       0.00016030 </v>
    <v>       0.00018180      -0.00003802       0.11380156 </v>
   </varray>
  </crystal>
  <varray name="positions" >
   <v>       0.00157689       0.99130856       0.00264398 </v>
   <v>       0.26944014       0.99947935       0.24906087 </v>
   <v>       0.24770524       0.49774345       0.24847382 </v>
   <v>       0.50610661       0.49858761       0.00192858 </v>
   <v>       0.50377801       0.24697913       0.74424952 </v>
   <v>       0.99506239       0.50413866       0.50016484 </v>
   <v>       0.49736547       0.75855844       0.74903663 </v>
   <v>       0.99422625       0.24848546       0.24582282 </v>
   <v>       0.74688482       0.74924615       0.01114565 </v>
   <v>       0.99548459       0.24465513       0.75295581 </v>
   <v>       0.74612640       0.23509224       0.50043614 </v>
   <v>       0.99824238       0.75886935       0.74446599 </v>
   <v>       0.25050333       0.50078241       0.74889732 </v>
   <v>       0.25841266       0.24268302       0.99232165 </v>
   <v>       0.50735035       0.25743867       0.25350690 </v>
   <v>       0.73574420       0.98358677       0.26069955 </v>
   <v>       0.74535182       0.24691625       0.99936851 </v>
   <v>       0.25246093       0.74831637       0.00052438 </v>
   <v>       0.25463873       0.24689125       0.50299963 </v>
   <v>       0.25314650       0.75278326       0.49879842 </v>
   <v>       0.25375151       0.24794935       0.24615633 </v>
   <v>       0.26079398       0.00092557       0.99278239 </v>
   <v>       0.99810783       0.24878786       0.99878618 </v>
   <v>       0.74550628       0.24583369       0.24870377 </v>
   <v>       0.74235858       0.00211788       0.00274756 </v>
   <v>       0.51253938       0.00318013       0.25416987 </v>
   <v>       0.98824674       0.50323131       0.24470179 </v>
   <v>       0.49603635       0.76337905       0.00835074 </v>
   <v>       0.99927374       0.00175250       0.73845943 </v>
   <v>       0.75201030       0.24207880       0.75342731 </v>
   <v>       0.74282827       0.99159561       0.49916259 </v>
   <v>       0.49823559       0.24216502       0.49084799 </v>
   <v>       0.51600218       0.00181103       0.74441902 </v>
   <v>       0.99867004       0.99279556       0.25806281 </v>
   <v>       0.50370624       0.23874590       0.00451252 </v>
   <v>       0.25083140       0.74916023       0.24946966 </v>
   <v>       0.24055094       0.49923584       0.99760815 </v>
   <v>       0.00376769       0.73853579       0.00574293 </v>
   <v>       0.74543029       0.74619919       0.26246577 </v>
   <v>       0.76357060       0.49542148       0.00386770 </v>
   <v>       0.50798951       0.50051096       0.26074584 </v>
   <v>       0.24902358       0.24080276       0.74810857 </v>
   <v>       0.25438722       0.00005004       0.50818987 </v>
   <v>       0.00291274       0.24062384       0.49832075 </v>
   <v>       0.24630923       0.76069973       0.75093572 </v>
   <v>       0.25961208       0.50013289       0.49963845 </v>
   <v>       0.99733423       0.76375032       0.48985755 </v>
   <v>       0.98942456       0.50247276       0.76025309 </v>
   <v>       0.74854465       0.75337648       0.74796337 </v>
   <v>       0.73857598       0.50869526       0.50204903 </v>
   <v>       0.49880663       0.75875145       0.48746237 </v>
   <v>       0.50874030       0.50382792       0.74005315 </v>
   <v>       0.51640484       0.01148326       0.97296619 </v>
   <v>       0.99138780       0.51220207       0.98282464 </v>
   <v>       0.49070762       0.73070612       0.25952402 </v>
   <v>       0.23821662       0.00221363       0.73349968 </v>
   <v>       0.48177251       0.98785959       0.52064453 </v>
   <v>       0.73723317       0.97933694       0.77334896 </v>
   <v>       0.01628570       0.75704286       0.25713052 </v>
   <v>       0.74074871       0.51758983       0.26983097 </v>
   <v>       0.02330313       0.99793409       0.49565927 </v>
   <v>       0.50217293       0.52212094       0.49757980 </v>
   <v>       0.74654711       0.52506085       0.74046105 </v>
   <v>       0.74173392       0.75531182       0.49100723 </v>
  </varray>
 </structure>
</modeling>
