HECN                                    
           1
     8.778463    0.015413   -0.013550
     0.021482    8.816044    0.002651
     0.017987   -0.012645    8.794172
   Zr   Hf   Ti   N    C    Cr   V 
   7   6   7  13  19   6   6
Direct configuration=     1
   0.00149727  0.99126026  0.00271654
   0.26950109  0.99956487  0.24894124
   0.24765955  0.49769497  0.24844758
   0.50620319  0.49854549  0.00187447
   0.50383567  0.24699430  0.74416320
   0.99506473  0.50412517  0.50020688
   0.49735909  0.75854420  0.74895421
   0.99416819  0.24843722  0.24579335
   0.74674486  0.74931913  0.01116240
   0.99548717  0.24447535  0.75300154
   0.74616540  0.23488278  0.50046942
   0.99836123  0.75896737  0.74441871
   0.25056065  0.50076540  0.74890323
   0.25849143  0.24261565  0.99226104
   0.50743394  0.25754496  0.25363302
   0.73546360  0.98339844  0.26101116
   0.74530556  0.24676210  0.99931684
   0.25252950  0.74821743  0.00045789
   0.25464890  0.24692685  0.50306576
   0.25313092  0.75276040  0.49879325
   0.25372754  0.24797238  0.24617136
   0.26065383  0.00100617  0.99284123
   0.99800737  0.24849292  0.99878029
   0.74549270  0.24570838  0.24876859
   0.74227014  0.00206973  0.00261762
   0.51242584  0.00337176  0.25463813
   0.98832207  0.50306172  0.24487941
   0.49600580  0.76316530  0.00815682
   0.99961581  0.00175033  0.73861559
   0.75203257  0.24189954  0.75339131
   0.74278010  0.99161834  0.49901214
   0.49826823  0.24212911  0.49092810
   0.51572109  0.00173201  0.74433524
   0.99874707  0.99279604  0.25811206
   0.50372277  0.23874773  0.00447410
   0.25086898  0.74916194  0.24947368
   0.24062877  0.49933787  0.99756693
   0.00371365  0.73861016  0.00569747
   0.74532959  0.74625410  0.26245626
   0.76357576  0.49554614  0.00378104
   0.50801215  0.50050053  0.26075333
   0.24907011  0.24092062  0.74810567
   0.25435272  0.00004143  0.50810603
   0.00292462  0.24062973  0.49835596
   0.24638249  0.76058429  0.75092415
   0.25957874  0.50013877  0.49962994
   0.99746671  0.76373274  0.48988038
   0.98943827  0.50252168  0.76028639
   0.74857404  0.75346249  0.74795513
   0.73859115  0.50879930  0.50204726
   0.49876588  0.75873083  0.48747277
   0.50877647  0.50383444  0.74003895
   0.51646564  0.01159247  0.97262969
   0.99112884  0.51263904  0.98264111
   0.49056356  0.73052782  0.25967076
   0.23868504  0.00226254  0.73363919
   0.48144711  0.98774289  0.52062489
   0.73691556  0.97917658  0.77324492
   0.01645219  0.75714584  0.25719048
   0.74082117  0.51789840  0.26994452
   0.02349487  0.99786578  0.49560999
   0.50219916  0.52230842  0.49758537
   0.74654242  0.52540494  0.74036891
   0.74182982  0.75530414  0.49100523
HECN                                    
           1
     8.759039    0.016161   -0.014226
     0.022227    8.792441    0.002677
     0.017240   -0.012576    8.775129
   Zr   Hf   Ti   N    C    Cr   V 
   7   6   7  13  19   6   6
Direct configuration=     2
   0.00150686  0.99122336  0.00271521
   0.26950199  0.99953485  0.24896639
   0.24767882  0.49771741  0.24844232
   0.50619394  0.49854011  0.00187457
   0.50382803  0.24697903  0.74418300
   0.99506096  0.50411394  0.50021199
   0.49734913  0.75846995  0.74896947
   0.99416633  0.24842851  0.24582543
   0.74676045  0.74931073  0.01117076
   0.99549676  0.24450495  0.75296631
   0.74618480  0.23488872  0.50045811
   0.99835800  0.75900063  0.74442436
   0.25056063  0.50076528  0.74886937
   0.25850299  0.24262133  0.99224808
   0.50743896  0.25755787  0.25361863
   0.73545433  0.98339865  0.26097947
   0.74528786  0.24677889  0.99931722
   0.25251977  0.74820611  0.00047109
   0.25462962  0.24692376  0.50307438
   0.25313600  0.75275917  0.49878646
   0.25373434  0.24796961  0.24616892
   0.26068277  0.00100327  0.99283584
   0.99800787  0.24852020  0.99878023
   0.74548821  0.24571531  0.24877118
   0.74223860  0.00206122  0.00260487
   0.51246569  0.00335044  0.25457555
   0.98829766  0.50307449  0.24485841
   0.49601285  0.76320497  0.00818200
   0.99958921  0.00172351  0.73858030
   0.75203003  0.24190080  0.75338651
   0.74277488  0.99159743  0.49901580
   0.49827349  0.24212065  0.49090551
   0.51578459  0.00179625  0.74433410
   0.99874452  0.99278015  0.25812987
   0.50373669  0.23871686  0.00447141
   0.25086642  0.74916102  0.24947642
   0.24060537  0.49932997  0.99758281
   0.00371388  0.73857267  0.00570258
   0.74533082  0.74623054  0.26247498
   0.76361163  0.49555372  0.00378731
   0.50803213  0.50052319  0.26077791
   0.24905545  0.24088799  0.74810761
   0.25436376  0.00004217  0.50813336
   0.00291856  0.24061022  0.49835364
   0.24636245  0.76061503  0.75092923
   0.25959840  0.50014018  0.49965499
   0.99744924  0.76376066  0.48986406
   0.98942312  0.50251316  0.76031394
   0.74856873  0.75346898  0.74795106
   0.73857046  0.50881977  0.50204051
   0.49877837  0.75874470  0.48744674
   0.50878646  0.50385569  0.74002879
   0.51649126  0.01162106  0.97266829
   0.99113117  0.51265440  0.98262608
   0.49056243  0.73051991  0.25968205
   0.23860895  0.00226143  0.73358585
   0.48147180  0.98772648  0.52066064
   0.73693240  0.97915696  0.77328309
   0.01646918  0.75716866  0.25720132
   0.74079268  0.51790061  0.26996085
   0.02349619  0.99786780  0.49560212
   0.50220154  0.52231623  0.49759028
   0.74652765  0.52540787  0.74035773
   0.74180227  0.75531029  0.49098276
HECN                                    
           1
     8.771368    0.015686   -0.013797
     0.021754    8.807423    0.002660
     0.017715   -0.012620    8.787217
   Zr   Hf   Ti   N    C    Cr   V 
   7   6   7  13  19   6   6
Direct configuration=     3
   0.00150076  0.99124685  0.00271606
   0.26950141  0.99955395  0.24895039
   0.24766656  0.49770313  0.24844566
   0.50619982  0.49854353  0.00187451
   0.50383289  0.24698875  0.74417041
   0.99506336  0.50412109  0.50020874
   0.49735546  0.75851721  0.74895976
   0.99416751  0.24843406  0.24580502
   0.74675053  0.74931608  0.01116544
   0.99549066  0.24448611  0.75298872
   0.74617246  0.23488494  0.50046530
   0.99836006  0.75897947  0.74442077
   0.25056064  0.50076535  0.74889091
   0.25849564  0.24261772  0.99225632
   0.50743577  0.25754965  0.25362778
   0.73546023  0.98339851  0.26099963
   0.74529912  0.24676820  0.99931698
   0.25252596  0.74821331  0.00046270
   0.25464189  0.24692573  0.50306890
   0.25313277  0.75275996  0.49879078
   0.25373001  0.24797137  0.24617047
   0.26066436  0.00100512  0.99283927
   0.99800756  0.24850284  0.99878027
   0.74549107  0.24571090  0.24876953
   0.74225867  0.00206663  0.00261298
   0.51244034  0.00336401  0.25461536
   0.98831319  0.50306636  0.24487177
   0.49600836  0.76317972  0.00816598
   0.99960614  0.00174058  0.73860275
   0.75203164  0.24189999  0.75338956
   0.74277820  0.99161074  0.49901347
   0.49827014  0.24212603  0.49091988
   0.51574420  0.00175537  0.74433482
   0.99874614  0.99279027  0.25811854
   0.50372783  0.23873651  0.00447312
   0.25086805  0.74916160  0.24947468
   0.24062026  0.49933500  0.99757271
   0.00371373  0.73859653  0.00569933
   0.74533003  0.74624553  0.26246307
   0.76358881  0.49554890  0.00378332
   0.50801942  0.50050877  0.26076227
   0.24906477  0.24090875  0.74810637
   0.25435673  0.00004170  0.50811597
   0.00292241  0.24062264  0.49835511
   0.24637520  0.76059546  0.75092600
   0.25958590  0.50013928  0.49963905
   0.99746035  0.76374289  0.48987444
   0.98943276  0.50251858  0.76029642
   0.74857211  0.75346485  0.74795365
   0.73858362  0.50880674  0.50204481
   0.49877042  0.75873587  0.48746330
   0.50878011  0.50384217  0.74003525
   0.51647496  0.01160287  0.97264373
   0.99112969  0.51264463  0.98263564
   0.49056315  0.73052494  0.25967487
   0.23865735  0.00226214  0.73361978
   0.48145609  0.98773693  0.52063790
   0.73692168  0.97916945  0.77325881
   0.01645837  0.75715413  0.25719443
   0.74081080  0.51789921  0.26995047
   0.02349535  0.99786651  0.49560712
   0.50220002  0.52231126  0.49758715
   0.74653704  0.52540600  0.74036484
   0.74181980  0.75530638  0.49099705
HECN                                    
           1
     8.771589    0.015678   -0.013790
     0.021746    8.807691    0.002660
     0.017723   -0.012621    8.787433
   Zr   Hf   Ti   N    C    Cr   V 
   7   6   7  13  19   6   6
Direct configuration=     4
   0.00150065  0.99124726  0.00271607
   0.26950140  0.99955430  0.24895010
   0.24766635  0.49770287  0.24844572
   0.50619993  0.49854359  0.00187451
   0.50383298  0.24698892  0.74417018
   0.99506340  0.50412122  0.50020868
   0.49735557  0.75851805  0.74895959
   0.99416753  0.24843415  0.24580466
   0.74675035  0.74931617  0.01116534
   0.99549055  0.24448578  0.75298912
   0.74617224  0.23488487  0.50046543
   0.99836009  0.75897909  0.74442070
   0.25056064  0.50076536  0.74889129
   0.25849551  0.24261765  0.99225647
   0.50743571  0.25754951  0.25362795
   0.73546033  0.98339851  0.26099999
   0.74529932  0.24676801  0.99931698
   0.25252607  0.74821344  0.00046255
   0.25464211  0.24692576  0.50306880
   0.25313271  0.75275997  0.49879086
   0.25372994  0.24797141  0.24617050
   0.26066403  0.00100515  0.99283933
   0.99800755  0.24850253  0.99878027
   0.74549112  0.24571082  0.24876950
   0.74225903  0.00206673  0.00261313
   0.51243989  0.00336425  0.25461607
   0.98831347  0.50306621  0.24487201
   0.49600828  0.76317927  0.00816570
   0.99960644  0.00174088  0.73860316
   0.75203167  0.24189998  0.75338962
   0.74277826  0.99161098  0.49901343
   0.49827008  0.24212613  0.49092014
   0.51574348  0.00175464  0.74433484
   0.99874617  0.99279045  0.25811834
   0.50372768  0.23873686  0.00447315
   0.25086808  0.74916161  0.24947465
   0.24062052  0.49933509  0.99757253
   0.00371373  0.73859696  0.00569927
   0.74533002  0.74624580  0.26246286
   0.76358840  0.49554881  0.00378324
   0.50801919  0.50050851  0.26076200
   0.24906494  0.24090912  0.74810635
   0.25435661  0.00004169  0.50811566
   0.00292248  0.24062286  0.49835514
   0.24637543  0.76059511  0.75092594
   0.25958567  0.50013927  0.49963877
   0.99746055  0.76374257  0.48987463
   0.98943293  0.50251868  0.76029610
   0.74857217  0.75346477  0.74795370
   0.73858386  0.50880651  0.50204488
   0.49877028  0.75873572  0.48746359
   0.50878000  0.50384193  0.74003537
   0.51647467  0.01160254  0.97264330
   0.99112966  0.51264445  0.98263581
   0.49056316  0.73052503  0.25967474
   0.23865822  0.00226215  0.73362039
   0.48145581  0.98773711  0.52063749
   0.73692149  0.97916967  0.77325837
   0.01645818  0.75715388  0.25719430
   0.74081113  0.51789918  0.26995028
   0.02349533  0.99786649  0.49560721
   0.50220000  0.52231117  0.49758710
   0.74653721  0.52540597  0.74036497
   0.74182011  0.75530631  0.49099731
HECN                                    
           1
     8.771533    0.015680   -0.013791
     0.021748    8.807623    0.002660
     0.017721   -0.012620    8.787378
   Zr   Hf   Ti   N    C    Cr   V 
   7   6   7  13  19   6   6
Direct configuration=     5
   0.00150068  0.99124716  0.00271607
   0.26950141  0.99955421  0.24895018
   0.24766640  0.49770294  0.24844571
   0.50619990  0.49854358  0.00187451
   0.50383296  0.24698888  0.74417024
   0.99506339  0.50412118  0.50020870
   0.49735554  0.75851784  0.74895963
   0.99416753  0.24843413  0.24580475
   0.74675040  0.74931615  0.01116537
   0.99549058  0.24448586  0.75298902
   0.74617230  0.23488489  0.50046540
   0.99836008  0.75897918  0.74442072
   0.25056064  0.50076536  0.74889120
   0.25849554  0.24261767  0.99225643
   0.50743573  0.25754954  0.25362790
   0.73546031  0.98339851  0.26099990
   0.74529927  0.24676806  0.99931698
   0.25252604  0.74821341  0.00046258
   0.25464205  0.24692575  0.50306883
   0.25313273  0.75275997  0.49879084
   0.25372996  0.24797140  0.24617049
   0.26066412  0.00100514  0.99283931
   0.99800755  0.24850261  0.99878027
   0.74549110  0.24571084  0.24876951
   0.74225894  0.00206671  0.00261309
   0.51244000  0.00336419  0.25461589
   0.98831340  0.50306625  0.24487195
   0.49600830  0.76317939  0.00816577
   0.99960636  0.00174081  0.73860305
   0.75203167  0.24189998  0.75338960
   0.74277825  0.99161092  0.49901344
   0.49827010  0.24212611  0.49092007
   0.51574366  0.00175482  0.74433483
   0.99874616  0.99279040  0.25811839
   0.50372772  0.23873677  0.00447314
   0.25086807  0.74916161  0.24947466
   0.24062045  0.49933507  0.99757258
   0.00371373  0.73859685  0.00569929
   0.74533002  0.74624573  0.26246292
   0.76358850  0.49554884  0.00378326
   0.50801925  0.50050858  0.26076207
   0.24906490  0.24090903  0.74810636
   0.25435664  0.00004170  0.50811574
   0.00292246  0.24062280  0.49835513
   0.24637537  0.76059520  0.75092596
   0.25958573  0.50013927  0.49963884
   0.99746050  0.76374265  0.48987458
   0.98943288  0.50251866  0.76029618
   0.74857216  0.75346479  0.74795369
   0.73858380  0.50880657  0.50204486
   0.49877032  0.75873576  0.48746352
   0.50878003  0.50384199  0.74003534
   0.51647475  0.01160262  0.97264341
   0.99112967  0.51264450  0.98263577
   0.49056315  0.73052501  0.25967477
   0.23865800  0.00226214  0.73362024
   0.48145588  0.98773706  0.52063760
   0.73692154  0.97916961  0.77325848
   0.01645823  0.75715394  0.25719433
   0.74081104  0.51789919  0.26995033
   0.02349534  0.99786650  0.49560719
   0.50220000  0.52231120  0.49758711
   0.74653717  0.52540598  0.74036494
   0.74182003  0.75530632  0.49099725
HECN                                    
           1
     8.771445    0.015683   -0.013795
     0.021751    8.807516    0.002660
     0.017717   -0.012620    8.787292
   Zr   Hf   Ti   N    C    Cr   V 
   7   6   7  13  19   6   6
Direct configuration=     6
   0.00150072  0.99124699  0.00271606
   0.26950141  0.99955407  0.24895029
   0.24766649  0.49770304  0.24844568
   0.50619986  0.49854355  0.00187451
   0.50383292  0.24698881  0.74417033
   0.99506337  0.50412113  0.50020872
   0.49735550  0.75851750  0.74895970
   0.99416752  0.24843409  0.24580489
   0.74675047  0.74931611  0.01116540
   0.99549063  0.24448600  0.75298886
   0.74617238  0.23488492  0.50046535
   0.99836007  0.75897933  0.74442074
   0.25056064  0.50076536  0.74889104
   0.25849559  0.24261769  0.99225637
   0.50743575  0.25754960  0.25362784
   0.73546027  0.98339851  0.26099975
   0.74529919  0.24676814  0.99931698
   0.25252600  0.74821336  0.00046264
   0.25464196  0.24692574  0.50306887
   0.25313275  0.75275996  0.49879081
   0.25372999  0.24797138  0.24617048
   0.26066425  0.00100513  0.99283929
   0.99800755  0.24850273  0.99878027
   0.74549108  0.24571087  0.24876952
   0.74225879  0.00206667  0.00261303
   0.51244018  0.00336410  0.25461560
   0.98831329  0.50306631  0.24487185
   0.49600833  0.76317957  0.00816589
   0.99960624  0.00174068  0.73860289
   0.75203165  0.24189999  0.75338958
   0.74277822  0.99161082  0.49901346
   0.49827012  0.24212607  0.49091997
   0.51574395  0.00175511  0.74433483
   0.99874615  0.99279033  0.25811847
   0.50372778  0.23873663  0.00447313
   0.25086806  0.74916161  0.24947467
   0.24062035  0.49933503  0.99757265
   0.00371373  0.73859668  0.00569931
   0.74533003  0.74624563  0.26246300
   0.76358867  0.49554887  0.00378329
   0.50801934  0.50050868  0.26076218
   0.24906483  0.24090888  0.74810637
   0.25435669  0.00004170  0.50811587
   0.00292244  0.24062271  0.49835512
   0.24637528  0.76059534  0.75092598
   0.25958582  0.50013928  0.49963895
   0.99746042  0.76374278  0.48987451
   0.98943282  0.50251862  0.76029631
   0.74857213  0.75346482  0.74795367
   0.73858370  0.50880666  0.50204483
   0.49877037  0.75873582  0.48746340
   0.50878007  0.50384208  0.74003529
   0.51647486  0.01160275  0.97264358
   0.99112968  0.51264457  0.98263570
   0.49056315  0.73052498  0.25967482
   0.23865765  0.00226214  0.73361999
   0.48145599  0.98773699  0.52063776
   0.73692162  0.97916952  0.77325865
   0.01645831  0.75715404  0.25719438
   0.74081091  0.51789920  0.26995040
   0.02349534  0.99786651  0.49560715
   0.50220001  0.52231123  0.49758713
   0.74653710  0.52540599  0.74036488
   0.74181991  0.75530635  0.49099714
HECN                                    
           1
     8.771398    0.015685   -0.013796
     0.021753    8.807460    0.002660
     0.017716   -0.012620    8.787247
   Zr   Hf   Ti   N    C    Cr   V 
   7   6   7  13  19   6   6
Direct configuration=     7
   0.00150074  0.99124690  0.00271606
   0.26950141  0.99955400  0.24895035
   0.24766653  0.49770309  0.24844567
   0.50619983  0.49854354  0.00187451
   0.50383290  0.24698877  0.74417038
   0.99506336  0.50412111  0.50020873
   0.49735548  0.75851732  0.74895974
   0.99416752  0.24843407  0.24580497
   0.74675050  0.74931609  0.01116542
   0.99549065  0.24448607  0.75298878
   0.74617243  0.23488493  0.50046532
   0.99836006  0.75897941  0.74442076
   0.25056064  0.50076536  0.74889096
   0.25849562  0.24261771  0.99225634
   0.50743576  0.25754963  0.25362780
   0.73546024  0.98339851  0.26099968
   0.74529915  0.24676818  0.99931698
   0.25252597  0.74821333  0.00046268
   0.25464192  0.24692573  0.50306889
   0.25313276  0.75275996  0.49879079
   0.25373000  0.24797138  0.24617047
   0.26066432  0.00100512  0.99283928
   0.99800756  0.24850280  0.99878027
   0.74549107  0.24571089  0.24876953
   0.74225872  0.00206665  0.00261300
   0.51244028  0.00336405  0.25461546
   0.98831323  0.50306634  0.24487180
   0.49600835  0.76317966  0.00816595
   0.99960618  0.00174062  0.73860281
   0.75203165  0.24189999  0.75338957
   0.74277821  0.99161077  0.49901346
   0.49827014  0.24212605  0.49091992
   0.51574410  0.00175526  0.74433483
   0.99874614  0.99279029  0.25811851
   0.50372781  0.23873656  0.00447312
   0.25086805  0.74916160  0.24947467
   0.24062029  0.49933501  0.99757269
   0.00371373  0.73859659  0.00569932
   0.74533003  0.74624557  0.26246305
   0.76358875  0.49554889  0.00378331
   0.50801939  0.50050873  0.26076224
   0.24906480  0.24090880  0.74810637
   0.25435672  0.00004170  0.50811593
   0.00292242  0.24062267  0.49835512
   0.24637523  0.76059542  0.75092599
   0.25958586  0.50013928  0.49963901
   0.99746038  0.76374285  0.48987447
   0.98943278  0.50251860  0.76029637
   0.74857212  0.75346484  0.74795366
   0.73858365  0.50880671  0.50204482
   0.49877040  0.75873585  0.48746334
   0.50878009  0.50384213  0.74003527
   0.51647492  0.01160282  0.97264367
   0.99112968  0.51264460  0.98263567
   0.49056315  0.73052496  0.25967485
   0.23865747  0.00226214  0.73361987
   0.48145605  0.98773695  0.52063784
   0.73692166  0.97916948  0.77325875
   0.01645835  0.75715410  0.25719441
   0.74081085  0.51789920  0.26995044
   0.02349535  0.99786651  0.49560714
   0.50220002  0.52231125  0.49758715
   0.74653707  0.52540600  0.74036486
   0.74181984  0.75530637  0.49099709
HECN                                    
           1
     8.771833    0.016089   -0.014126
     0.022163    8.805927    0.002693
     0.017386   -0.012583    8.787738
   Zr   Hf   Ti   N    C    Cr   V 
   7   6   7  13  19   6   6
Direct configuration=     8
   0.00150870  0.99125672  0.00269210
   0.26948312  0.99954439  0.24896725
   0.24766582  0.49769624  0.24844731
   0.50617742  0.49855640  0.00188111
   0.50381512  0.24700996  0.74416834
   0.99507144  0.50410625  0.50021149
   0.49732931  0.75847870  0.74898103
   0.99418534  0.24844365  0.24581659
   0.74676448  0.74931491  0.01116694
   0.99550871  0.24452929  0.75297134
   0.74618407  0.23493991  0.50046913
   0.99835119  0.75897137  0.74442570
   0.25054907  0.50075967  0.74887400
   0.25846535  0.24262992  0.99227276
   0.50741198  0.25753772  0.25361313
   0.73552351  0.98345347  0.26093212
   0.74533350  0.24677957  0.99932287
   0.25252626  0.74822416  0.00046808
   0.25463530  0.24693188  0.50304566
   0.25312551  0.75275063  0.49879618
   0.25375129  0.24796897  0.24616655
   0.26072511  0.00098588  0.99279815
   0.99801974  0.24857909  0.99877863
   0.74546763  0.24573141  0.24873587
   0.74224829  0.00209170  0.00264456
   0.51246860  0.00332558  0.25455003
   0.98826799  0.50312428  0.24480657
   0.49598358  0.76324633  0.00822122
   0.99954966  0.00173493  0.73855082
   0.75202468  0.24191466  0.75341334
   0.74278843  0.99155353  0.49906739
   0.49823819  0.24213174  0.49088458
   0.51575782  0.00178815  0.74433343
   0.99872379  0.99276676  0.25813945
   0.50372569  0.23871628  0.00449463
   0.25087250  0.74915874  0.24947421
   0.24058025  0.49931767  0.99758411
   0.00373381  0.73855156  0.00572262
   0.74534638  0.74623812  0.26246579
   0.76361523  0.49551818  0.00379669
   0.50802492  0.50050517  0.26077938
   0.24905505  0.24086880  0.74810760
   0.25437078  0.00004221  0.50812817
   0.00294555  0.24059827  0.49835727
   0.24636247  0.76063897  0.75093413
   0.25961344  0.50013625  0.49964557
   0.99743266  0.76376644  0.48985938
   0.98940941  0.50251180  0.76030065
   0.74856942  0.75347294  0.74793174
   0.73856563  0.50881173  0.50205902
   0.49877862  0.75875776  0.48744996
   0.50879861  0.50384474  0.74001537
   0.51643386  0.01157702  0.97273146
   0.99117148  0.51256987  0.98268693
   0.49058729  0.73059082  0.25962462
   0.23862133  0.00226101  0.73363494
   0.48152761  0.98777941  0.52062460
   0.73700226  0.97922435  0.77324228
   0.01642423  0.75712273  0.25717667
   0.74082900  0.51780713  0.26991276
   0.02343138  0.99789315  0.49562458
   0.50218390  0.52224119  0.49760436
   0.74654289  0.52530761  0.74038527
   0.74181471  0.75531201  0.49103165
HECN                                    
           1
     8.772377    0.016595   -0.014539
     0.022676    8.804008    0.002734
     0.016974   -0.012538    8.788354
   Zr   Hf   Ti   N    C    Cr   V 
   7   6   7  13  19   6   6
Direct configuration=     9
   0.00151868  0.99126901  0.00266209
   0.26946021  0.99953235  0.24898842
   0.24766493  0.49768766  0.24844937
   0.50614934  0.49857252  0.00188939
   0.50379285  0.24703651  0.74416579
   0.99508155  0.50408763  0.50021495
   0.49729655  0.75843031  0.74900769
   0.99420766  0.24845565  0.24583114
   0.74678199  0.74931342  0.01116884
   0.99553133  0.24458344  0.75294950
   0.74619864  0.23500878  0.50047390
   0.99834007  0.75896130  0.74443189
   0.25053457  0.50075255  0.74885275
   0.25842744  0.24264522  0.99229331
   0.50738219  0.25752280  0.25359475
   0.73560274  0.98352231  0.26084752
   0.74537653  0.24679384  0.99933024
   0.25252663  0.74823773  0.00047486
   0.25462700  0.24693958  0.50301656
   0.25311643  0.75273895  0.49880292
   0.25377796  0.24796596  0.24616165
   0.26080124  0.00096176  0.99274664
   0.99803500  0.24867467  0.99877658
   0.74543827  0.24575711  0.24869371
   0.74223523  0.00212309  0.00268409
   0.51250407  0.00327738  0.25446809
   0.98821132  0.50319687  0.24472486
   0.49595256  0.76332985  0.00829045
   0.99947888  0.00172780  0.73848571
   0.75201596  0.24193304  0.75344311
   0.74280123  0.99148183  0.49913493
   0.49819818  0.24213887  0.49084032
   0.51577501  0.00182935  0.74433168
   0.99869580  0.99273729  0.25816567
   0.50372304  0.23869087  0.00452156
   0.25087807  0.74915516  0.24947362
   0.24053009  0.49929595  0.99759841
   0.00375897  0.73849516  0.00575181
   0.74536685  0.74622879  0.26246924
   0.76364840  0.49547971  0.00381346
   0.50803186  0.50050070  0.26080084
   0.24904283  0.24081870  0.74810914
   0.25438839  0.00004285  0.50814350
   0.00297452  0.24056771  0.49835998
   0.24634649  0.76069352  0.75094432
   0.25964798  0.50013245  0.49965378
   0.99739794  0.76379600  0.48984049
   0.98938013  0.50250328  0.76030601
   0.74856604  0.75348309  0.74790428
   0.73854305  0.50881803  0.50207681
   0.49878890  0.75878521  0.48743320
   0.50882180  0.50384800  0.73999045
   0.51638243  0.01154471  0.97284140
   0.99122384  0.51247625  0.98275113
   0.49061753  0.73067332  0.25956171
   0.23857607  0.00225959  0.73365382
   0.48161722  0.98783260  0.52060802
   0.73710320  0.97929308  0.77322165
   0.01638149  0.75708343  0.25715445
   0.74085174  0.51769177  0.26986557
   0.02335127  0.99792653  0.49564643
   0.50216371  0.52215341  0.49762591
   0.74655020  0.52518436  0.74041085
   0.74180827  0.75531908  0.49107493
HECN                                    
           1
     8.772177    0.016409   -0.014387
     0.022487    8.804715    0.002719
     0.017126   -0.012554    8.788127
   Zr   Hf   Ti   N    C    Cr   V 
   7   6   7  13  19   6   6
Direct configuration=    10
   0.00151501  0.99126448  0.00267314
   0.26946865  0.99953678  0.24898063
   0.24766526  0.49769082  0.24844861
   0.50615968  0.49856658  0.00188634
   0.50380105  0.24702673  0.74416673
   0.99507783  0.50409449  0.50021368
   0.49730861  0.75844813  0.74899787
   0.99419944  0.24845123  0.24582578
   0.74677554  0.74931397  0.01116814
   0.99552300  0.24456350  0.75295754
   0.74619328  0.23498341  0.50047215
   0.99834416  0.75896501  0.74442961
   0.25053990  0.50075517  0.74886057
   0.25844140  0.24263959  0.99228574
   0.50739315  0.25752829  0.25360152
   0.73557357  0.98349696  0.26087867
   0.74536069  0.24678858  0.99932752
   0.25252649  0.74823273  0.00047236
   0.25463006  0.24693674  0.50302728
   0.25311977  0.75274326  0.49880044
   0.25376814  0.24796707  0.24616345
   0.26077321  0.00097065  0.99276560
   0.99802938  0.24863947  0.99877733
   0.74544908  0.24574764  0.24870924
   0.74224004  0.00211153  0.00266953
   0.51249101  0.00329514  0.25449826
   0.98823219  0.50317014  0.24475494
   0.49596398  0.76329909  0.00826496
   0.99950494  0.00173043  0.73850969
   0.75201917  0.24192627  0.75343215
   0.74279651  0.99150824  0.49911006
   0.49821292  0.24213624  0.49085662
   0.51576868  0.00181417  0.74433233
   0.99870611  0.99274814  0.25815601
   0.50372402  0.23870023  0.00451164
   0.25087602  0.74915648  0.24947383
   0.24054856  0.49930395  0.99759314
   0.00374970  0.73851593  0.00574106
   0.74535931  0.74623222  0.26246797
   0.76363618  0.49549388  0.00380728
   0.50802930  0.50050235  0.26079294
   0.24904733  0.24083715  0.74810857
   0.25438191  0.00004262  0.50813786
   0.00296385  0.24057896  0.49835898
   0.24635238  0.76067343  0.75094057
   0.25963526  0.50013385  0.49965075
   0.99741073  0.76378511  0.48984745
   0.98939091  0.50250641  0.76030404
   0.74856728  0.75347935  0.74791439
   0.73855137  0.50881571  0.50207026
   0.49878512  0.75877510  0.48743937
   0.50881326  0.50384680  0.73999962
   0.51640137  0.01155661  0.97280092
   0.99120456  0.51251074  0.98272749
   0.49060640  0.73064293  0.25958487
   0.23859274  0.00226011  0.73364687
   0.48158423  0.98781301  0.52061413
   0.73706604  0.97926777  0.77322924
   0.01639723  0.75709790  0.25716263
   0.74084336  0.51773426  0.26988295
   0.02338077  0.99791423  0.49563838
   0.50217114  0.52218574  0.49761798
   0.74654751  0.52522976  0.74040143
   0.74181064  0.75531648  0.49105900
HECN                                    
           1
     8.772470    0.016486   -0.014442
     0.022564    8.805359    0.002747
     0.017071   -0.012528    8.788318
   Zr   Hf   Ti   N    C    Cr   V 
   7   6   7  13  19   6   6
Direct configuration=    11
   0.00152183  0.99127217  0.00266357
   0.26946414  0.99952642  0.24899496
   0.24766924  0.49769386  0.24844974
   0.50614515  0.49857250  0.00189811
   0.50379355  0.24703124  0.74417458
   0.99508029  0.50409109  0.50021343
   0.49730572  0.75845442  0.74901044
   0.99420556  0.24845793  0.24583000
   0.74679058  0.74931079  0.01116445
   0.99552549  0.24459539  0.75295406
   0.74619076  0.23501945  0.50047079
   0.99832724  0.75894237  0.74443798
   0.25052472  0.50075403  0.74886161
   0.25842494  0.24265034  0.99229546
   0.50738060  0.25751411  0.25358921
   0.73561351  0.98353674  0.26083215
   0.74537486  0.24679915  0.99933195
   0.25252315  0.74824268  0.00047991
   0.25462965  0.24693738  0.50301152
   0.25312070  0.75274124  0.49879859
   0.25377551  0.24796351  0.24616076
   0.26080192  0.00095817  0.99274846
   0.99804016  0.24868699  0.99877799
   0.74544470  0.24576213  0.24869501
   0.74224367  0.00212467  0.00268916
   0.51250471  0.00326639  0.25444929
   0.98821160  0.50320454  0.24472275
   0.49595649  0.76333623  0.00829622
   0.99946646  0.00173280  0.73848238
   0.75201665  0.24194378  0.75344217
   0.74280478  0.99148594  0.49913974
   0.49820276  0.24214130  0.49083859
   0.51579180  0.00182188  0.74433924
   0.99869286  0.99274071  0.25815399
   0.50372185  0.23869274  0.00451845
   0.25087441  0.74915521  0.24947351
   0.24053145  0.49929054  0.99759642
   0.00375697  0.73849625  0.00574924
   0.74537067  0.74622397  0.26246908
   0.76364345  0.49547568  0.00381750
   0.50802791  0.50050593  0.26079456
   0.24904403  0.24081625  0.74810962
   0.25439046  0.00004329  0.50814587
   0.00296864  0.24057085  0.49835494
   0.24634452  0.76069379  0.75094450
   0.25964442  0.50013245  0.49965065
   0.99739379  0.76379054  0.48984229
   0.98938441  0.50250434  0.76030348
   0.74856203  0.75347667  0.74790993
   0.73854940  0.50880884  0.50207381
   0.49878798  0.75878518  0.48743414
   0.50881485  0.50384411  0.73999591
   0.51637968  0.01153379  0.97285194
   0.99124053  0.51245485  0.98275796
   0.49062496  0.73068684  0.25955380
   0.23855351  0.00225514  0.73364741
   0.48162753  0.98783770  0.52060673
   0.73710745  0.97930366  0.77323010
   0.01637607  0.75707500  0.25715297
   0.74084417  0.51767501  0.26986184
   0.02334769  0.99793047  0.49564657
   0.50216254  0.52214326  0.49761970
   0.74655675  0.52516405  0.74041700
   0.74180253  0.75532104  0.49107193
HECN                                    
           1
     8.772439    0.016478   -0.014436
     0.022556    8.805291    0.002744
     0.017077   -0.012530    8.788298
   Zr   Hf   Ti   N    C    Cr   V 
   7   6   7  13  19   6   6
Direct configuration=    12
   0.00152111  0.99127136  0.00266458
   0.26946461  0.99952751  0.24899345
   0.24766882  0.49769354  0.24844962