  64  64   0   0
  0.1129557E+02  0.8932500E-09  0.9055600E-09  0.8937200E-09  0.5000000E-15
  1.000000000000000E-004
  CAR 
 HECN                                    
     12.83005161    -44.16384093  301      7.59884530      1.00000000
    -44.164  0.0000E+00  0.0000E+00
    -43.974  0.0000E+00  0.0000E+00
    -43.784  0.0000E+00  0.0000E+00
    -43.594  0.0000E+00  0.0000E+00
    -43.404  0.0000E+00  0.0000E+00
    -43.214  0.0000E+00  0.0000E+00
    -43.024  0.0000E+00  0.0000E+00
    -42.834  0.0000E+00  0.0000E+00
    -42.644  0.0000E+00  0.0000E+00
    -42.454  0.0000E+00  0.0000E+00
    -42.264  0.0000E+00  0.0000E+00
    -42.074  0.7541E-13  0.1433E-13
    -41.884  0.6290E-06  0.1195E-06
    -41.694  0.6533E-02  0.1241E-02
    -41.504  0.2133E+00  0.4176E-01
    -41.314  0.9592E-01  0.5998E-01
    -41.124  0.8836E-01  0.7677E-01
    -40.934  0.2214E+00  0.1188E+00
    -40.744  0.2054E-01  0.1227E+00
    -40.554  0.8503E-01  0.1389E+00
    -40.364  0.5889E-02  0.1400E+00
    -40.174  0.9996E-06  0.1400E+00
    -39.984  0.1751E-12  0.1400E+00
    -39.794  0.0000E+00  0.1400E+00
    -39.604  0.0000E+00  0.1400E+00
    -39.414  0.0000E+00  0.1400E+00
    -39.224  0.0000E+00  0.1400E+00
    -39.034  0.0000E+00  0.1400E+00
    -38.844  0.0000E+00  0.1400E+00
    -38.654  0.0000E+00  0.1400E+00
    -38.464  0.0000E+00  0.1400E+00
    -38.274  0.0000E+00  0.1400E+00
    -38.084  0.0000E+00  0.1400E+00
    -37.895  0.0000E+00  0.1400E+00
    -37.705  0.0000E+00  0.1400E+00
    -37.515  0.0000E+00  0.1400E+00
    -37.325  0.0000E+00  0.1400E+00
    -37.135  0.0000E+00  0.1400E+00
    -36.945  0.0000E+00  0.1400E+00
    -36.755  0.3720E-13  0.1400E+00
    -36.565  0.3724E-06  0.1400E+00
    -36.375  0.3745E-02  0.1407E+00
    -36.185  0.9237E-01  0.1583E+00
    -35.995  0.4718E+00  0.2479E+00
    -35.805  0.1085E+01  0.4541E+00
    -35.615  0.2381E+00  0.4993E+00
    -35.425  0.3508E-02  0.5000E+00
    -35.235  0.2526E-06  0.5000E+00
    -35.045  0.2010E-13  0.5000E+00
    -34.855  0.0000E+00  0.5000E+00
    -34.665  0.0000E+00  0.5000E+00
    -34.475  0.0000E+00  0.5000E+00
    -34.285  0.0000E+00  0.5000E+00
    -34.095  0.0000E+00  0.5000E+00
    -33.905  0.0000E+00  0.5000E+00
    -33.715  0.0000E+00  0.5000E+00
    -33.525  0.0000E+00  0.5000E+00
    -33.335  0.0000E+00  0.5000E+00
    -33.145  0.0000E+00  0.5000E+00
    -32.955  0.0000E+00  0.5000E+00
    -32.765  0.0000E+00  0.5000E+00
    -32.575  0.5015E-10  0.5000E+00
    -32.385  0.3172E-04  0.5000E+00
    -32.195  0.2415E-01  0.5046E+00
    -32.005  0.1590E+00  0.5348E+00
    -31.815  0.5283E+00  0.6352E+00
    -31.625  0.7308E+00  0.7740E+00
    -31.435  0.4355E+00  0.8568E+00
    -31.245  0.1705E-01  0.8600E+00
    -31.055  0.6235E-05  0.8600E+00
    -30.865  0.3201E-11  0.8600E+00
    -30.675  0.0000E+00  0.8600E+00
    -30.485  0.0000E+00  0.8600E+00
    -30.295  0.0000E+00  0.8600E+00
    -30.105  0.0000E+00  0.8600E+00
    -29.915  0.0000E+00  0.8600E+00
    -29.725  0.0000E+00  0.8600E+00
    -29.535  0.0000E+00  0.8600E+00
    -29.345  0.0000E+00  0.8600E+00
    -29.155  0.0000E+00  0.8600E+00
    -28.965  0.0000E+00  0.8600E+00
    -28.775  0.0000E+00  0.8600E+00
    -28.586  0.0000E+00  0.8600E+00
    -28.396  0.0000E+00  0.8600E+00
    -28.206  0.0000E+00  0.8600E+00
    -28.016  0.0000E+00  0.8600E+00
    -27.826  0.0000E+00  0.8600E+00
    -27.636  0.0000E+00  0.8600E+00
    -27.446  0.0000E+00  0.8600E+00
    -27.256  0.0000E+00  0.8600E+00
    -27.066  0.0000E+00  0.8600E+00
    -26.876  0.0000E+00  0.8600E+00
    -26.686  0.0000E+00  0.8600E+00
    -26.496  0.0000E+00  0.8600E+00
    -26.306  0.0000E+00  0.8600E+00
    -26.116  0.0000E+00  0.8600E+00
    -25.926  0.0000E+00  0.8600E+00
    -25.736  0.0000E+00  0.8600E+00
    -25.546  0.0000E+00  0.8600E+00
    -25.356  0.0000E+00  0.8600E+00
    -25.166  0.0000E+00  0.8600E+00
    -24.976  0.0000E+00  0.8600E+00
    -24.786  0.0000E+00  0.8600E+00
    -24.596  0.0000E+00  0.8600E+00
    -24.406  0.0000E+00  0.8600E+00
    -24.216  0.0000E+00  0.8600E+00
    -24.026  0.7247E-10  0.8600E+00
    -23.836  0.5004E-04  0.8600E+00
    -23.646  0.4919E-01  0.8694E+00
    -23.456  0.2469E+00  0.9163E+00
    -23.266  0.5970E-01  0.9276E+00
    -23.076  0.7856E+00  0.1077E+01
    -22.886  0.7889E+00  0.1227E+01
    -22.696  0.2599E+00  0.1276E+01
    -22.506  0.2060E-01  0.1280E+01
    -22.316  0.1815E-04  0.1280E+01
    -22.126  0.1950E-10  0.1280E+01
    -21.936  0.0000E+00  0.1280E+01
    -21.746  0.0000E+00  0.1280E+01
    -21.556  0.0000E+00  0.1280E+01
    -21.366  0.0000E+00  0.1280E+01
    -21.176  0.0000E+00  0.1280E+01
    -20.986  0.0000E+00  0.1280E+01
    -20.796  0.0000E+00  0.1280E+01
    -20.606  0.6529E-11  0.1280E+01
    -20.416  0.9396E-05  0.1280E+01
    -20.226  0.1522E-01  0.1283E+01
    -20.036  0.1195E+00  0.1306E+01
    -19.846  0.3547E+00  0.1373E+01
    -19.656  0.3933E+00  0.1448E+01
    -19.466  0.3190E+00  0.1508E+01
    -19.277  0.6547E+00  0.1633E+01
    -19.087  0.1271E+00  0.1657E+01
    -18.897  0.2205E+00  0.1699E+01
    -18.707  0.6690E-02  0.1700E+01
    -18.517  0.5422E-06  0.1700E+01
    -18.327  0.5405E-13  0.1700E+01
    -18.137  0.0000E+00  0.1700E+01
    -17.947  0.0000E+00  0.1700E+01
    -17.757  0.0000E+00  0.1700E+01
    -17.567  0.0000E+00  0.1700E+01
    -17.377  0.0000E+00  0.1700E+01
    -17.187  0.0000E+00  0.1700E+01
    -16.997  0.0000E+00  0.1700E+01
    -16.807  0.0000E+00  0.1700E+01
    -16.617  0.0000E+00  0.1700E+01
    -16.427  0.0000E+00  0.1700E+01
    -16.237  0.0000E+00  0.1700E+01
    -16.047  0.0000E+00  0.1700E+01
    -15.857  0.0000E+00  0.1700E+01
    -15.667  0.0000E+00  0.1700E+01
    -15.477  0.0000E+00  0.1700E+01
    -15.287  0.0000E+00  0.1700E+01
    -15.097  0.0000E+00  0.1700E+01
    -14.907  0.0000E+00  0.1700E+01
    -14.717  0.0000E+00  0.1700E+01
    -14.527  0.0000E+00  0.1700E+01
    -14.337  0.0000E+00  0.1700E+01
    -14.147  0.0000E+00  0.1700E+01
    -13.957  0.0000E+00  0.1700E+01
    -13.767  0.0000E+00  0.1700E+01
    -13.577  0.0000E+00  0.1700E+01
    -13.387  0.0000E+00  0.1700E+01
    -13.197  0.0000E+00  0.1700E+01
    -13.007  0.0000E+00  0.1700E+01
    -12.817  0.0000E+00  0.1700E+01
    -12.627  0.0000E+00  0.1700E+01
    -12.437  0.0000E+00  0.1700E+01
    -12.247  0.0000E+00  0.1700E+01
    -12.057  0.0000E+00  0.1700E+01
    -11.867  0.0000E+00  0.1700E+01
    -11.677  0.0000E+00  0.1700E+01
    -11.487  0.0000E+00  0.1700E+01
    -11.297  0.0000E+00  0.1700E+01
    -11.107  0.0000E+00  0.1700E+01
    -10.917  0.0000E+00  0.1700E+01
    -10.727  0.0000E+00  0.1700E+01
    -10.537  0.0000E+00  0.1700E+01
    -10.347  0.0000E+00  0.1700E+01
    -10.157  0.0000E+00  0.1700E+01
     -9.968  0.0000E+00  0.1700E+01
     -9.778  0.0000E+00  0.1700E+01
     -9.588  0.0000E+00  0.1700E+01
     -9.398  0.0000E+00  0.1700E+01
     -9.208  0.7716E-15  0.1700E+01
     -9.018  0.1080E-07  0.1700E+01
     -8.828  0.1969E-03  0.1700E+01
     -8.638  0.1845E-01  0.1704E+01
     -8.448  0.8461E-01  0.1720E+01
     -8.258  0.9819E-01  0.1738E+01
     -8.068  0.7748E-01  0.1753E+01
     -7.878  0.1253E+00  0.1777E+01
     -7.688  0.9252E-01  0.1794E+01
     -7.498  0.1148E+00  0.1816E+01
     -7.308  0.7806E-01  0.1831E+01
     -7.118  0.1908E+00  0.1867E+01
     -6.928  0.1507E+00  0.1896E+01
     -6.738  0.1888E+00  0.1932E+01
     -6.548  0.1364E+00  0.1958E+01
     -6.358  0.1236E-01  0.1960E+01
     -6.168  0.5379E-05  0.1960E+01
     -5.978  0.2658E-11  0.1960E+01
     -5.788  0.2917E-12  0.1960E+01
     -5.598  0.5554E-06  0.1960E+01
     -5.408  0.1809E-02  0.1960E+01
     -5.218  0.5363E-01  0.1971E+01
     -5.028  0.4961E-01  0.1980E+01
     -4.838  0.5515E-01  0.1990E+01
     -4.648  0.1200E+00  0.2013E+01
     -4.458  0.1278E+00  0.2038E+01
     -4.268  0.1493E+00  0.2066E+01
     -4.078  0.2103E+00  0.2106E+01
     -3.888  0.1942E+00  0.2143E+01
     -3.698  0.2072E+00  0.2182E+01
     -3.508  0.1733E+00  0.2215E+01
     -3.318  0.1804E+00  0.2249E+01
     -3.128  0.1402E+00  0.2276E+01
     -2.938  0.1042E+00  0.2296E+01
     -2.748  0.1336E+00  0.2321E+01
     -2.558  0.7910E-01  0.2336E+01
     -2.368  0.1977E-01  0.2340E+01
     -2.178  0.6404E-03  0.2340E+01
     -1.988  0.1766E-06  0.2340E+01
     -1.798  0.6563E-13  0.2340E+01
     -1.608  0.0000E+00  0.2340E+01
     -1.418  0.0000E+00  0.2340E+01
     -1.228  0.0000E+00  0.2340E+01
     -1.038  0.5709E-12  0.2340E+01
     -0.848  0.5837E-06  0.2340E+01
     -0.659  0.6874E-03  0.2340E+01
     -0.469  0.3605E-02  0.2341E+01
     -0.279  0.2172E-01  0.2345E+01
     -0.089  0.4774E-01  0.2354E+01
      0.101  0.1040E+00  0.2374E+01
      0.291  0.1220E+00  0.2397E+01
      0.481  0.1613E+00  0.2428E+01
      0.671  0.1951E+00  0.2465E+01
      0.861  0.2329E+00  0.2509E+01
      1.051  0.2373E+00  0.2554E+01
      1.241  0.2582E+00  0.2603E+01
      1.431  0.2774E+00  0.2656E+01
      1.621  0.2958E+00  0.2712E+01
      1.811  0.3470E+00  0.2778E+01
      2.001  0.3947E+00  0.2853E+01
      2.191  0.4339E+00  0.2935E+01
      2.381  0.4615E+00  0.3023E+01
      2.571  0.5353E+00  0.3125E+01
      2.761  0.5775E+00  0.3234E+01
      2.951  0.6319E+00  0.3354E+01
      3.141  0.6324E+00  0.3475E+01
      3.331  0.6148E+00  0.3591E+01
      3.521  0.5418E+00  0.3694E+01
      3.711  0.4757E+00  0.3785E+01
      3.901  0.4467E+00  0.3870E+01
      4.091  0.3843E+00  0.3943E+01
      4.281  0.3489E+00  0.4009E+01
      4.471  0.3139E+00  0.4068E+01
      4.661  0.2651E+00  0.4119E+01
      4.851  0.2539E+00  0.4167E+01
      5.041  0.2176E+00  0.4208E+01
      5.231  0.1645E+00  0.4240E+01
      5.421  0.1470E+00  0.4268E+01
      5.611  0.1261E+00  0.4292E+01
      5.801  0.1700E+00  0.4324E+01
      5.991  0.1890E+00  0.4360E+01
      6.181  0.1831E+00  0.4395E+01
      6.371  0.2190E+00  0.4436E+01
      6.561  0.2463E+00  0.4483E+01
      6.751  0.2440E+00  0.4529E+01
      6.941  0.2501E+00  0.4577E+01
      7.131  0.2729E+00  0.4629E+01
      7.321  0.2755E+00  0.4681E+01
      7.511  0.2594E+00  0.4730E+01
      7.701  0.2242E+00  0.4773E+01
      7.891  0.3000E+00  0.4830E+01
      8.081  0.3522E+00  0.4897E+01
      8.271  0.4027E+00  0.4973E+01
      8.461  0.4294E+00  0.5055E+01
      8.650  0.4578E+00  0.5142E+01
      8.840  0.4948E+00  0.5236E+01
      9.030  0.4825E+00  0.5327E+01
      9.220  0.4096E+00  0.5405E+01
      9.410  0.3878E+00  0.5479E+01
      9.600  0.3578E+00  0.5547E+01
      9.790  0.3382E+00  0.5611E+01
      9.980  0.3543E+00  0.5679E+01
     10.170  0.3405E+00  0.5743E+01
     10.360  0.8749E-01  0.5760E+01
     10.550  0.9326E-03  0.5760E+01
     10.740  0.5892E-07  0.5760E+01
     10.930  0.6044E-14  0.5760E+01
     11.120  0.0000E+00  0.5760E+01
     11.310  0.0000E+00  0.5760E+01
     11.500  0.0000E+00  0.5760E+01
     11.690  0.0000E+00  0.5760E+01
     11.880  0.0000E+00  0.5760E+01
     12.070  0.0000E+00  0.5760E+01
     12.260  0.0000E+00  0.5760E+01
     12.450  0.0000E+00  0.5760E+01
     12.640  0.0000E+00  0.5760E+01
     12.830  0.0000E+00  0.5760E+01
