 vasp.6.4.3 19Mar24 (build Sep 18 2024 11:30:23) complex                        
  
 executed on             LinuxIFC date 2026.07.03  19:29:17
 running   28 mpi-ranks, on    1 nodes
 distrk:  each k-point on   28 cores,    1 groups
 distr:  one band on NCORE=   1 cores,   28 groups


--------------------------------------------------------------------------------------------------------


 INCAR:
   SYSTEM = HECN
   ISTART = 0
   ICHARG = 2
   PREC = Normal
   LREAL = .F.
   IBRION = 2
   ISIF = 3
   NSW = 100
   POTIM = 0.5
   EDIFFG = -0.01
   ENCUT = 400
   NELM = 60
   EDIFF = 1E-5
   LCHARG = .F.
   LWAVE = .F.
   ISMEAR = 0
   SIGMA = 0.1
   ALGO = Fast

 POTCAR:   PAW_PBE Ti_sv 07Sep2000                
 POTCAR:   PAW_PBE Ta_pv 07Sep2000                
 POTCAR:   PAW_PBE Hf_pv 06Sep2000                
 POTCAR:   PAW_PBE N 08Apr2002                    
 POTCAR:   PAW_PBE C 08Apr2002                    
 POTCAR:   PAW_PBE Zr_sv 07Sep2000                
 POTCAR:   PAW_PBE W_pv 06Sep2000                 
 -----------------------------------------------------------------------------
|                                                                             |
|           W    W    AA    RRRRR   N    N  II  N    N   GGGG   !!!           |
|           W    W   A  A   R    R  NN   N  II  NN   N  G    G  !!!           |
|           W    W  A    A  R    R  N N  N  II  N N  N  G       !!!           |
|           W WW W  AAAAAA  RRRRR   N  N N  II  N  N N  G  GGG   !            |
|           WW  WW  A    A  R   R   N   NN  II  N   NN  G    G                |
|           W    W  A    A  R    R  N    N  II  N    N   GGGG   !!!           |
|                                                                             |
|     For optimal performance we recommend to set                             |
|       NCORE = 2 up to number-of-cores-per-socket                            |
|     NCORE specifies how many cores store one orbital (NPAR=cpu/NCORE).      |
|     This setting can greatly improve the performance of VASP for DFT.       |
|     The default, NCORE=1 might be grossly inefficient on modern             |
|     multi-core architectures or massively parallel machines. Do your        |
|     own testing! More info at https://www.vasp.at/wiki/index.php/NCORE      |
|     Unfortunately you need to use the default for GW and RPA                |
|     calculations (for HF NCORE is supported but not extensively tested      |
|     yet).                                                                   |
|                                                                             |
 -----------------------------------------------------------------------------

 POTCAR:   PAW_PBE Ti_sv 07Sep2000                
   VRHFIN =Ti: 3p4s3d                                                                               
   LEXCH  = PE                                                                                      
   EATOM  =  1587.5048 eV,  116.6783 Ry                                                             
                                                                                                    
   TITEL  = PAW_PBE Ti_sv 07Sep2000                                                                 
   LULTRA =        F    use ultrasoft PP ?                                                          
   IUNSCR =        1    unscreen: 0-lin 1-nonlin 2-no                                               
   RPACOR =    2.000    partial core radius                                                         
   POMASS =   47.880; ZVAL   =   12.000    mass and valenz                                          
   RCORE  =    2.300    outmost cutoff radius                                                       
   RWIGS  =    2.300; RWIGS  =    1.217    wigner-seitz radius (au A)                               
   ENMAX  =  274.574; ENMIN  =  205.930 eV                                                          
   RCLOC  =    1.701    cutoff for local pot                                                        
   LCOR   =        T    correct aug charges                                                         
   LPAW   =        T    paw PP                                                                      
   EAUG   =  482.848                                                                                
   DEXC   =     .000                                                                                
   RMAX   =    2.783    core radius for proj-oper                                                   
   RAUG   =    1.300    factor for augmentation sphere                                              
   RDEP   =    2.381    radius for radial grids                                                     
   QCUT   =   -4.492; QGAM   =    8.985    optimization parameters                                  
                                                                                                    
   Description                                                                                      
     l     E      TYP  RCUT    TYP  RCUT                                                            
     0   .000     23  1.800                                                                         
     0   .000     23  2.300                                                                         
     0   .000     23  1.800                                                                         
     0   .000     23  2.300                                                                         
     1   .000     23  2.300                                                                         
     1  -.100     23  2.300                                                                         
     2   .000     23  2.300                                                                         
     2   .000     23  2.300                                                                         
     3   .000      7   .000                                                                         
  local pseudopotential read in
  partial core-charges read in
  atomic valenz-charges read in
  non local Contribution for L=           0  read in
    real space projection operators read in
  non local Contribution for L=           0  read in
    real space projection operators read in
  non local Contribution for L=           1  read in
    real space projection operators read in
  non local Contribution for L=           1  read in
    real space projection operators read in
  non local Contribution for L=           2  read in
    real space projection operators read in
  non local Contribution for L=           2  read in
    real space projection operators read in
    PAW grid and wavefunctions read in
 
   number of l-projection  operators is LMAX  =           6
   number of lm-projection operators is LMMAX =          18
 
 POTCAR:   PAW_PBE Ta_pv 07Sep2000                
   VRHFIN =Ta:  5p6s5d                                                                              
   LEXCH  = PE                                                                                      
   EATOM  =  1045.8051 eV,   76.8645 Ry                                                             
                                                                                                    
   TITEL  = PAW_PBE Ta_pv 07Sep2000                                                                 
   LULTRA =        F    use ultrasoft PP ?                                                          
   IUNSCR =        1    unscreen: 0-lin 1-nonlin 2-no                                               
   RPACOR =    2.330    partial core radius                                                         
   POMASS =  180.948; ZVAL   =   11.000    mass and valenz                                          
   RCORE  =    2.500    outmost cutoff radius                                                       
   RWIGS  =    2.840; RWIGS  =    1.503    wigner-seitz radius (au A)                               
   ENMAX  =  223.675; ENMIN  =  167.756 eV                                                          
   RCLOC  =    2.205    cutoff for local pot                                                        
   LCOR   =        T    correct aug charges                                                         
   LPAW   =        T    paw PP                                                                      
   EAUG   =  377.421                                                                                
   DEXC   =    -.043                                                                                
   RMAX   =    3.083    core radius for proj-oper                                                   
   RAUG   =    1.300    factor for augmentation sphere                                              
   RDEP   =    2.526    radius for radial grids                                                     
   QCUT   =   -4.055; QGAM   =    8.109    optimization parameters                                  
                                                                                                    
   Description                                                                                      
     l     E      TYP  RCUT    TYP  RCUT                                                            
     1   .000     23  2.500                                                                         
     1   .100     23  2.500                                                                         
     2   .000     23  2.500                                                                         
     2   .000     23  2.500                                                                         
     0   .000     23  2.500                                                                         
     0   .000     23  2.500                                                                         
     3   .000      7   .000                                                                         
  local pseudopotential read in
  partial core-charges read in
  atomic valenz-charges read in
  non local Contribution for L=           1  read in
    real space projection operators read in
  non local Contribution for L=           1  read in
    real space projection operators read in
  non local Contribution for L=           2  read in
    real space projection operators read in
  non local Contribution for L=           2  read in
    real space projection operators read in
  non local Contribution for L=           0  read in
    real space projection operators read in
  non local Contribution for L=           0  read in
    real space projection operators read in
    PAW grid and wavefunctions read in
 
   number of l-projection  operators is LMAX  =           6
   number of lm-projection operators is LMMAX =          18
 
 POTCAR:   PAW_PBE Hf_pv 06Sep2000                
   VRHFIN =Hf: 5p6s5d                                                                               
   LEXCH  = PE                                                                                      
   EATOM  =   859.6195 eV,   63.1803 Ry                                                             
                                                                                                    
   TITEL  = PAW_PBE Hf_pv 06Sep2000                                                                 
   LULTRA =        F    use ultrasoft PP ?                                                          
   IUNSCR =        1    unscreen: 0-lin 1-nonlin 2-no                                               
   RPACOR =    2.500    partial core radius                                                         
   POMASS =  178.490; ZVAL   =   10.000    mass and valenz                                          
   RCORE  =    2.600    outmost cutoff radius                                                       
   RWIGS  =    3.050; RWIGS  =    1.614    wigner-seitz radius (au A)                               
   ENMAX  =  220.342; ENMIN  =  165.256 eV                                                          
   RCLOC  =    2.212    cutoff for local pot                                                        
   LCOR   =        T    correct aug charges                                                         
   LPAW   =        T    paw PP                                                                      
   EAUG   =  380.878                                                                                
   DEXC   =    -.057                                                                                
   RMAX   =    3.106    core radius for proj-oper                                                   
   RAUG   =    1.300    factor for augmentation sphere                                              
   RDEP   =    2.681    radius for radial grids                                                     
   QCUT   =   -4.024; QGAM   =    8.049    optimization parameters                                  
                                                                                                    
   Description                                                                                      
     l     E      TYP  RCUT    TYP  RCUT                                                            
     1   .000     23  2.500                                                                         
     1   .000     23  2.500                                                                         
     2   .000     23  2.500                                                                         
     2   .000     23  2.500                                                                         
     0   .000     23  2.600                                                                         
     0   .000     23  2.600                                                                         
     3   .000      7   .000                                                                         
  local pseudopotential read in
  partial core-charges read in
  atomic valenz-charges read in
  non local Contribution for L=           1  read in
    real space projection operators read in
  non local Contribution for L=           1  read in
    real space projection operators read in
  non local Contribution for L=           2  read in
    real space projection operators read in
  non local Contribution for L=           2  read in
    real space projection operators read in
  non local Contribution for L=           0  read in
    real space projection operators read in
  non local Contribution for L=           0  read in
    real space projection operators read in
    PAW grid and wavefunctions read in
 
   number of l-projection  operators is LMAX  =           6
   number of lm-projection operators is LMMAX =          18
 
 POTCAR:   PAW_PBE N 08Apr2002                    
   VRHFIN =N: s2p3                                                                                  
   LEXCH  = PE                                                                                      
   EATOM  =   264.5486 eV,   19.4438 Ry                                                             
                                                                                                    
   TITEL  = PAW_PBE N 08Apr2002                                                                     
   LULTRA =        F    use ultrasoft PP ?                                                          
   IUNSCR =        0    unscreen: 0-lin 1-nonlin 2-no                                               
   RPACOR =     .000    partial core radius                                                         
   POMASS =   14.001; ZVAL   =    5.000    mass and valenz                                          
   RCORE  =    1.500    outmost cutoff radius                                                       
   RWIGS  =    1.400; RWIGS  =     .741    wigner-seitz radius (au A)                               
   ENMAX  =  400.000; ENMIN  =  300.000 eV                                                          
   ICORE  =        2    local potential                                                             
   LCOR   =        T    correct aug charges                                                         
   LPAW   =        T    paw PP                                                                      
   EAUG   =  627.112                                                                                
   DEXC   =     .000                                                                                
   RMAX   =    2.247    core radius for proj-oper                                                   
   RAUG   =    1.300    factor for augmentation sphere                                              
   RDEP   =    1.514    radius for radial grids                                                     
   QCUT   =   -5.562; QGAM   =   11.124    optimization parameters                                  
                                                                                                    
   Description                                                                                      
     l     E      TYP  RCUT    TYP  RCUT                                                            
     0   .000     23  1.200                                                                         
     0   .000     23  1.200                                                                         
     1   .000     23  1.500                                                                         
     1   .700     23  1.500                                                                         
     2   .000      7  1.500                                                                         
  local pseudopotential read in
  atomic valenz-charges read in
  non local Contribution for L=           0  read in
    real space projection operators read in
  non local Contribution for L=           0  read in
    real space projection operators read in
  non local Contribution for L=           1  read in
    real space projection operators read in
  non local Contribution for L=           1  read in
    real space projection operators read in
    PAW grid and wavefunctions read in
 
   number of l-projection  operators is LMAX  =           4
   number of lm-projection operators is LMMAX =           8
 
 POTCAR:   PAW_PBE C 08Apr2002                    
   VRHFIN =C: s2p2                                                                                  
   LEXCH  = PE                                                                                      
   EATOM  =   147.1560 eV,   10.8157 Ry                                                             
                                                                                                    
   TITEL  = PAW_PBE C 08Apr2002                                                                     
   LULTRA =        F    use ultrasoft PP ?                                                          
   IUNSCR =        0    unscreen: 0-lin 1-nonlin 2-no                                               
   RPACOR =     .000    partial core radius                                                         
   POMASS =   12.011; ZVAL   =    4.000    mass and valenz                                          
   RCORE  =    1.500    outmost cutoff radius                                                       
   RWIGS  =    1.630; RWIGS  =     .863    wigner-seitz radius (au A)                               
   ENMAX  =  400.000; ENMIN  =  300.000 eV                                                          
   ICORE  =        2    local potential                                                             
   LCOR   =        T    correct aug charges                                                         
   LPAW   =        T    paw PP                                                                      
   EAUG   =  644.873                                                                                
   DEXC   =     .000                                                                                
   RMAX   =    2.266    core radius for proj-oper                                                   
   RAUG   =    1.300    factor for augmentation sphere                                              
   RDEP   =    1.501    radius for radial grids                                                     
   RDEPT  =    1.300    core radius for aug-charge                                                  
   QCUT   =   -5.516; QGAM   =   11.032    optimization parameters                                  
                                                                                                    
   Description                                                                                      
     l     E      TYP  RCUT    TYP  RCUT                                                            
     0   .000     23  1.200                                                                         
     0   .000     23  1.200                                                                         
     1   .000     23  1.500                                                                         
     1  2.500     23  1.500                                                                         
     2   .000      7  1.500                                                                         
  local pseudopotential read in
  atomic valenz-charges read in
  non local Contribution for L=           0  read in
    real space projection operators read in
  non local Contribution for L=           0  read in
    real space projection operators read in
  non local Contribution for L=           1  read in
    real space projection operators read in
  non local Contribution for L=           1  read in
    real space projection operators read in
    PAW grid and wavefunctions read in
 
   number of l-projection  operators is LMAX  =           4
   number of lm-projection operators is LMMAX =           8
 
 POTCAR:   PAW_PBE Zr_sv 07Sep2000                
   VRHFIN =Zr: 4s4p5s4d                                                                             
   LEXCH  = PE                                                                                      
   EATOM  =  1283.3934 eV,   94.3268 Ry                                                             
                                                                                                    
   TITEL  = PAW_PBE Zr_sv 07Sep2000                                                                 
   LULTRA =        F    use ultrasoft PP ?                                                          
   IUNSCR =        1    unscreen: 0-lin 1-nonlin 2-no                                               
   RPACOR =    2.200    partial core radius                                                         
   POMASS =   91.224; ZVAL   =   12.000    mass and valenz                                          
   RCORE  =    2.500    outmost cutoff radius                                                       
   RWIGS  =    3.070; RWIGS  =    1.625    wigner-seitz radius (au A)                               
   ENMAX  =  229.839; ENMIN  =  172.379 eV                                                          
   RCLOC  =    2.213    cutoff for local pot                                                        
   LCOR   =        T    correct aug charges                                                         
   LPAW   =        T    paw PP                                                                      
   EAUG   =  357.078                                                                                
   DEXC   =     .000                                                                                
   RMAX   =    3.041    core radius for proj-oper                                                   
   RAUG   =    1.300    factor for augmentation sphere                                              
   RDEP   =    2.597    radius for radial grids                                                     
   QCUT   =   -4.110; QGAM   =    8.220    optimization parameters                                  
                                                                                                    
   Description                                                                                      
     l     E      TYP  RCUT    TYP  RCUT                                                            
     0   .000     23  2.500                                                                         
     0   .000     23  2.500                                                                         
     1   .000     23  2.500                                                                         
     1   .000     23  2.500                                                                         
     2   .000     23  2.500                                                                         
     2   .000     23  2.500                                                                         
     3   .000      7   .000                                                                         
  local pseudopotential read in
  partial core-charges read in
  atomic valenz-charges read in
  non local Contribution for L=           0  read in
    real space projection operators read in
  non local Contribution for L=           0  read in
    real space projection operators read in
  non local Contribution for L=           1  read in
    real space projection operators read in
  non local Contribution for L=           1  read in
    real space projection operators read in
  non local Contribution for L=           2  read in
    real space projection operators read in
  non local Contribution for L=           2  read in
    real space projection operators read in
    PAW grid and wavefunctions read in
 
   number of l-projection  operators is LMAX  =           6
   number of lm-projection operators is LMMAX =          18
 
 POTCAR:   PAW_PBE W_pv 06Sep2000                 
   VRHFIN =W : 5p6s5d                                                                               
   LEXCH  = PE                                                                                      
   EATOM  =  1260.0376 eV,   92.6101 Ry                                                             
                                                                                                    
   TITEL  = PAW_PBE W_pv 06Sep2000                                                                  
   LULTRA =        F    use ultrasoft PP ?                                                          
   IUNSCR =        1    unscreen: 0-lin 1-nonlin 2-no                                               
   RPACOR =    2.330    partial core radius                                                         
   POMASS =  183.850; ZVAL   =   12.000    mass and valenz                                          
   RCORE  =    2.500    outmost cutoff radius                                                       
   RWIGS  =    2.750; RWIGS  =    1.455    wigner-seitz radius (au A)                               
   ENMAX  =  223.065; ENMIN  =  167.299 eV                                                          
   RCLOC  =    2.147    cutoff for local pot                                                        
   LCOR   =        T    correct aug charges                                                         
   LPAW   =        T    paw PP                                                                      
   EAUG   =  373.438                                                                                
   DEXC   =    -.018                                                                                
   RMAX   =    3.087    core radius for proj-oper                                                   
   RAUG   =    1.300    factor for augmentation sphere                                              
   RDEP   =    2.539    radius for radial grids                                                     
   QCUT   =   -4.049; QGAM   =    8.098    optimization parameters                                  
                                                                                                    
   Description                                                                                      
     l     E      TYP  RCUT    TYP  RCUT                                                            
     1   .000     23  2.500                                                                         
     1  -.200     23  2.500                                                                         
     2   .000     23  2.500                                                                         
     2   .000     23  2.500                                                                         
     0   .000     23  2.500                                                                         
     0   .000     23  2.500                                                                         
     3   .000      7   .000                                                                         
  local pseudopotential read in
  partial core-charges read in
  atomic valenz-charges read in
  non local Contribution for L=           1  read in
    real space projection operators read in
  non local Contribution for L=           1  read in
    real space projection operators read in
  non local Contribution for L=           2  read in
    real space projection operators read in
  non local Contribution for L=           2  read in
    real space projection operators read in
  non local Contribution for L=           0  read in
    real space projection operators read in
  non local Contribution for L=           0  read in
    real space projection operators read in
    PAW grid and wavefunctions read in
 
   number of l-projection  operators is LMAX  =           6
   number of lm-projection operators is LMMAX =          18
 
 -----------------------------------------------------------------------------
|                                                                             |
|               ----> ADVICE to this user running VASP <----                  |
|                                                                             |
|     You have a (more or less) 'large supercell' and for larger cells it     |
|     might be more efficient to use real-space projection operators.         |
|     Therefore, try LREAL= Auto in the INCAR file.                           |
|     Mind: If you want to do very accurate calculations, keep the            |
|     reciprocal projection scheme (i.e. LREAL=.FALSE.).                      |
|                                                                             |
 -----------------------------------------------------------------------------

 PAW_PBE Ti_sv 07Sep2000                :
 energy of atom  1       EATOM=-1587.5048
 kinetic energy error for atom=    0.0139 (will be added to EATOM!!)
 PAW_PBE Ta_pv 07Sep2000                :
 energy of atom  2       EATOM=-1045.8051
 kinetic energy error for atom=    0.0046 (will be added to EATOM!!)
 PAW_PBE Hf_pv 06Sep2000                :
 energy of atom  3       EATOM= -859.6195
 kinetic energy error for atom=    0.0038 (will be added to EATOM!!)
 PAW_PBE N 08Apr2002                    :
 energy of atom  4       EATOM= -264.5486
 kinetic energy error for atom=    0.0736 (will be added to EATOM!!)
 PAW_PBE C 08Apr2002                    :
 energy of atom  5       EATOM= -147.1560
 kinetic energy error for atom=    0.0288 (will be added to EATOM!!)
 PAW_PBE Zr_sv 07Sep2000                :
 energy of atom  6       EATOM=-1283.3934
 kinetic energy error for atom=    0.0044 (will be added to EATOM!!)
 PAW_PBE W_pv 06Sep2000                 :
 energy of atom  7       EATOM=-1260.0376
 kinetic energy error for atom=    0.0051 (will be added to EATOM!!)
 
 
 POSCAR: 9-TiZrHfTaW
  positions in direct lattice
  velocities in cartesian coordinates


 exchange-correlation table for PE
   RHO(1)=    0.500       N(1)  =     2000
   RHO(2)=  100.500       N(2)  =     4000
 


--------------------------------------------------------------------------------------------------------


 ion  position               nearest neighbor table
   1  0.001  0.996  0.014-  33 2.07  37 2.16  21 2.18  24 2.18  22 2.23  59 2.96  16 3.07   8 3.12
                            18 3.15   9 3.18  14 3.20  55 3.24  17 3.24  57 3.27
   2  0.238  0.993  0.252-  33 2.10  42 2.15  21 2.19  35 2.21  20 2.32  61 2.91  59 2.93   8 3.10
                            58 3.16  18 3.17  56 3.19  19 3.21  54 3.23  14 3.25  52 3.27  15 3.31
   3  0.264  0.505  0.250-  40 2.10  36 2.21  45 2.21  35 2.21  20 2.31  54 3.05  62 3.11  15 3.12
                            58 3.13  18 3.15  14 3.19  19 3.19  53 3.22
   4  0.501  0.499  0.999-  39 2.17  34 2.21  36 2.21  27 2.22  51 2.23  40 2.25  60 3.00  63 3.04
                            13 3.11  17 3.15   9 3.16  15 3.18  54 3.19  14 3.19  18 3.20
   5  0.493  0.261  0.751-  51 2.15  41 2.17  34 2.20  31 2.23  29 2.29  32 2.35  13 3.01  14 3.16
                            63 3.16  62 3.16  19 3.17  17 3.18  52 3.22  55 3.23  11 3.25  56 3.27
   6  0.005  0.497  0.498-  26 2.15  47 2.18  43 2.21  45 2.21  49 2.25  46 2.31  10 3.01  11 3.03
                            64 3.09  19 3.09  12 3.10  58 3.12   8 3.14  13 3.20
   7  0.503  0.737  0.747-  51 2.14  50 2.15  48 2.18  27 2.21  44 2.27  63 2.95  62 3.01  13 3.06
                            64 3.12   9 3.18  58 3.19  57 3.20  56 3.21  18 3.21  52 3.28  55 3.31
   8  0.999  0.240  0.262-  43 2.14  33 2.16  23 2.21  20 2.23  26 2.31  22 2.33  61 2.91  11 3.07
                            19 3.07   2 3.10  16 3.12   1 3.12   6 3.14  14 3.22  17 3.26  53 3.30
   9  0.753  0.744  1.000-  39 2.19  37 2.20  48 2.23  27 2.24  38 2.25  24 2.31  63 3.02  60 3.04
                            53 3.13  12 3.15   4 3.16   7 3.18   1 3.18  59 3.19  16 3.19  57 3.19
  10  0.005  0.263  0.738-  43 2.12  47 2.14  41 2.21  29 2.30  28 2.37  22 2.37   6 3.01  19 3.05
                            11 3.05  13 3.13  14 3.21  53 3.21  55 3.21  17 3.24  61 3.25  63 3.27
  11  0.758  0.267  0.503-  49 2.10  43 2.18  29 2.19  23 2.25  31 2.26  30 2.38   6 3.03  10 3.05
                             8 3.07  62 3.16  63 3.17  60 3.21  15 3.23   5 3.25  61 3.28  57 3.31
  12  0.997  0.737  0.747-  47 2.15  46 2.23  48 2.25  44 2.27  37 2.28  28 2.39  63 3.07   6 3.10
                            64 3.12  58 3.13  53 3.15   9 3.15  13 3.18  57 3.18  18 3.19  55 3.26
  13  0.259  0.500  0.750-  51 2.18  44 2.21  41 2.22  45 2.27  36 2.27  47 2.34   5 3.01   7 3.06
                             4 3.11  62 3.11  10 3.13  58 3.15  18 3.16  19 3.17  12 3.18  14 3.18
  14  0.246  0.252  0.002-  22 2.21  20 2.22  36 2.24  41 2.26  21 2.28  34 2.28  53 3.15   5 3.16
                            13 3.18  15 3.19   3 3.19   4 3.19   1 3.20  52 3.20  10 3.21  55 3.21
  15  0.501  0.252  0.251-  40 2.23  25 2.23  31 2.25  23 2.25  34 2.27  20 2.28  60 3.11   3 3.12
                            19 3.17   4 3.18  14 3.19  52 3.19  17 3.21  62 3.22  11 3.23  56 3.24
  16  0.756  0.992  0.254-  30 2.18  33 2.23  38 2.25  24 2.25  25 2.28  23 2.33  59 2.99   1 3.07
                            61 3.07   8 3.12  54 3.18   9 3.19  56 3.24  52 3.24  64 3.26  15 3.28
  17  0.752  0.255  0.995-  22 2.22  29 2.23  39 2.23  34 2.24  24 2.30  23 2.30  63 3.14  53 3.15
                             4 3.15   5 3.18  60 3.19  52 3.21  15 3.21  10 3.24   1 3.24   8 3.26
  18  0.248  0.748  0.999-  44 2.21  35 2.23  36 2.25  37 2.25  21 2.28  27 2.28  53 3.15   3 3.15
                             1 3.15  13 3.16   2 3.17  59 3.17  12 3.19  55 3.19   4 3.20  54 3.20
  19  0.247  0.253  0.498-  43 2.21  20 2.22  45 2.22  41 2.25  42 2.27  31 2.32  10 3.05   8 3.07
                            61 3.08   6 3.09   5 3.17  13 3.17  15 3.17   3 3.19  56 3.21  55 3.21
  20  0.247  0.250  0.250-  19 2.22  14 2.22   8 2.23  15 2.28   3 2.31   2 2.32
  21  0.243  0.000  0.008-   1 2.18   2 2.19  14 2.28  18 2.28  52 2.30  55 2.32
  22  0.999  0.243  0.002-  14 2.21  17 2.22   1 2.23  53 2.33   8 2.33  10 2.37
  23  0.752  0.250  0.252-   8 2.21  11 2.25  15 2.25  17 2.30  16 2.33  60 2.35
  24  0.757  0.000  0.003-   1 2.18  16 2.25  17 2.30  57 2.30  52 2.31   9 2.31
  25  0.501  0.005  0.249-  15 2.23  52 2.25  56 2.27  16 2.28  54 2.33
  26  0.999  0.495  0.258-   6 2.15  53 2.27   8 2.31  60 2.41  59 2.47
  27  0.503  0.745  0.994-   7 2.21   4 2.22   9 2.24  18 2.28  54 2.31  52 2.33
  28  0.997  0.001  0.752-  57 2.19  55 2.23  10 2.37  12 2.39  61 2.41
  29  0.749  0.252  0.747-  11 2.19  17 2.23   5 2.29  10 2.30  63 2.34  57 2.35
  30  0.754  0.004  0.497-  16 2.18  57 2.23  61 2.30  56 2.34  11 2.38  64 2.50
  31  0.505  0.253  0.502-   5 2.23  15 2.25  11 2.26  62 2.30  19 2.32  56 2.33
  32  0.502  0.001  0.750-  56 2.22  52 2.22  57 2.24  55 2.29   5 2.35
  33  0.004  0.001  0.246-   1 2.07  59 2.09   2 2.10  61 2.13   8 2.16  16 2.23
  34  0.501  0.255  0.997-   5 2.20   4 2.21  17 2.24  15 2.27  52 2.28  14 2.28
  35  0.242  0.749  0.248-  59 2.16   2 2.21   3 2.21  18 2.23  58 2.27  54 2.31
  36  0.255  0.500  0.004-   4 2.21   3 2.21  14 2.24  18 2.25  13 2.27  53 2.28
  37  0.998  0.757  0.001-   1 2.16   9 2.20  18 2.25  59 2.25  12 2.28  53 2.31
  38  0.755  0.743  0.251-  60 2.13  59 2.23  16 2.25   9 2.25  64 2.25  54 2.28
  39  0.744  0.502  0.001-  60 2.16   4 2.17  63 2.17   9 2.19  17 2.23  53 2.30
  40  0.498  0.499  0.250-  60 2.09   3 2.10  15 2.23  54 2.25   4 2.25  62 2.26
  41  0.252  0.254  0.750-   5 2.17  10 2.21  13 2.22  19 2.25  14 2.26  55 2.30
  42  0.244  0.001  0.492-  61 2.10   2 2.15  56 2.24  19 2.27  55 2.30  58 2.30
  43  0.000  0.253  0.501-  10 2.12   8 2.14  11 2.18   6 2.21  19 2.21  61 2.24
  44  0.250  0.745  0.752-  18 2.21  13 2.21  58 2.24   7 2.27  12 2.27  55 2.30
  45  0.251  0.499  0.497-   6 2.21   3 2.21  19 2.22  58 2.23  62 2.25  13 2.27
  46  0.992  0.752  0.498-  64 2.18  59 2.21  12 2.23  58 2.27  61 2.30   6 2.31
  47  0.998  0.499  0.742-  10 2.14  12 2.15   6 2.18  63 2.32  13 2.34  53 2.35
  48  0.746  0.745  0.750-  63 2.12   7 2.18  57 2.23   9 2.23  64 2.24  12 2.25
  49  0.754  0.499  0.499-  64 2.06  11 2.10  62 2.25   6 2.25  60 2.31  63 2.33
  50  0.504  0.744  0.507-  62 2.13   7 2.15  64 2.21  56 2.27  54 2.29  58 2.31
  51  0.503  0.499  0.749-  63 2.14   7 2.14   5 2.15  13 2.18  62 2.22   4 2.23
  52  0.500  0.002  0.998-  32 2.22  25 2.25  34 2.28  21 2.30  24 2.31  27 2.33  55 3.18  15 3.19
                            57 3.20  14 3.20  17 3.21  18 3.21   5 3.22  54 3.24  16 3.24   9 3.25
  53  0.000  0.501  0.005-  26 2.27  36 2.28  39 2.30  37 2.31  22 2.33  47 2.35   9 3.13  14 3.15
                            17 3.15  12 3.15  18 3.15  63 3.21  10 3.21  60 3.21   3 3.22  13 3.25
  54  0.500  0.747  0.252-  40 2.25  38 2.28  50 2.29  35 2.31  27 2.31  25 2.33  60 2.99   3 3.05
                            62 3.11  56 3.16  64 3.17  16 3.18   4 3.19  58 3.19   9 3.20  18 3.20
  55  0.246  1.000  0.749-  28 2.23  32 2.29  41 2.30  42 2.30  44 2.30  21 2.32  56 3.13  52 3.18
                            58 3.18  61 3.19  18 3.19  14 3.21  19 3.21  10 3.21   5 3.23   1 3.24
  56  0.493  0.995  0.502-  32 2.22  42 2.24  50 2.27  25 2.27  31 2.33  30 2.34  55 3.13  58 3.15
                            54 3.16  57 3.19   2 3.19  19 3.21   7 3.21  15 3.24  16 3.24   5 3.27
  57  0.752  0.991  0.746-  28 2.19  48 2.23  30 2.23  32 2.24  24 2.30  29 2.35  12 3.18  56 3.19
                             9 3.19  52 3.20   7 3.20  64 3.23  17 3.26   1 3.27  61 3.30  11 3.31
  58  0.246  0.746  0.502-  45 2.23  44 2.24  35 2.27  46 2.27  42 2.30  50 2.31   6 3.12  59 3.13
                            12 3.13   3 3.13  62 3.15  13 3.15  56 3.15   2 3.16  61 3.16  55 3.18
  59  0.002  0.769  0.252-  33 2.09  35 2.16  46 2.21  38 2.23  37 2.25  26 2.47   2 2.93   1 2.96
                            61 2.97  16 2.99  58 3.13  18 3.17   9 3.19  64 3.20  53 3.28  60 3.38
  60  0.731  0.509  0.242-  40 2.09  38 2.13  39 2.16  49 2.31  23 2.35  26 2.41  54 2.99   4 3.00
                             9 3.04  64 3.05  62 3.10  15 3.11  17 3.19  11 3.21  53 3.21  59 3.38
  61  0.010  0.005  0.483-  42 2.10  33 2.13  43 2.24  46 2.30  30 2.30  28 2.41   8 2.91   2 2.91
                            59 2.97  16 3.07  19 3.08  58 3.16  55 3.19  10 3.25  11 3.28  57 3.30
  62  0.503  0.508  0.502-  50 2.13  51 2.22  49 2.25  45 2.25  40 2.26  31 2.30  64 2.97   7 3.01
                            60 3.10   3 3.11  54 3.11  13 3.11  63 3.13  58 3.15  11 3.16   5 3.16
  63  0.741  0.511  0.758-  48 2.12  51 2.14  39 2.17  47 2.32  49 2.33  29 2.34   7 2.95   9 3.02
                            64 3.03   4 3.04  12 3.07  62 3.13  17 3.14   5 3.16  11 3.17  53 3.21
  64  0.750  0.727  0.501-  49 2.06  46 2.18  50 2.21  48 2.24  38 2.25  30 2.50  62 2.97  63 3.03
                            60 3.05   6 3.09  12 3.12   7 3.12  54 3.17  59 3.20  57 3.23  16 3.26
 
  LATTYP: Found a triclinic cell.
 ALAT       =    12.6615678503
 B/A-ratio  =     0.7075740998
 C/A-ratio  =     1.0055121465
 COS(alpha) =     0.0002386046
 COS(beta)  =     0.4985859449
 COS(gamma) =     0.7071267696
  
  Lattice vectors:
  
 A1 = (  -8.9561658780,   0.0149373997,  -8.9499815680)
 A2 = (  -8.9589959838,   0.0043166483,   0.0028408718)
 A3 = (  -0.0015237806,   9.0412292417,  -8.9634650519)


Analysis of symmetry for initial positions (statically):
=====================================================================
 Subroutine PRICEL returns:
 Original cell was already a primitive cell.
 

 Routine SETGRP: Setting up the symmetry group for a 
 triclinic supercell.


 Subroutine GETGRP returns: Found  1 space group operations
 (whereof  1 operations were pure point group operations)
 out of a pool of  2 trial point group operations.


The static configuration has the point symmetry C_1 .


Analysis of symmetry for dynamics (positions and initial velocities):
=====================================================================
 Subroutine PRICEL returns:
 Original cell was already a primitive cell.
 

 Routine SETGRP: Setting up the symmetry group for a 
 triclinic supercell.


 Subroutine GETGRP returns: Found  1 space group operations
 (whereof  1 operations were pure point group operations)
 out of a pool of  2 trial point group operations.


The dynamic configuration has the point symmetry C_1 .


 Subroutine INISYM returns: Found  1 space group operations
 (whereof  1 operations are pure point group operations),
 and found     1 'primitive' translations


----------------------------------------------------------------------------------------

                                     Primitive cell                                     

  volume of cell :     724.3285

  direct lattice vectors                    reciprocal lattice vectors
     8.958995984 -0.004316648 -0.002840872     0.111619688  0.000053856  0.000035348
    -0.004353886  9.030608490 -0.010642612     0.000053396  0.110734690  0.000131382
    -0.002830106 -0.010620751  8.952822440     0.000035482  0.000131652  0.111696787

  length of vectors
     8.958997474  9.030615811  8.952829187     0.111619706  0.110734781  0.111696870

  position of ions in fractional coordinates (direct lattice)
     0.000520271  0.995844858  0.014201811
     0.238227744  0.993065716  0.252326217
     0.263627253  0.504994502  0.250228607
     0.501234580  0.499025083  0.998672069
     0.493455532  0.260965294  0.751269615
     0.005027937  0.497034940  0.498472751
     0.503348282  0.736733353  0.747265063
     0.998611029  0.239569057  0.261581292
     0.752792232  0.744205510  0.999605720
     0.004909927  0.262710206  0.737761269
     0.757567555  0.267367294  0.502900189
     0.996985108  0.736812728  0.747004789
     0.259231748  0.500079436  0.749935560
     0.246267457  0.252287398  0.001956094
     0.500586925  0.252153004  0.250714919
     0.755915732  0.991961814  0.253580684
     0.751600163  0.254709627  0.995271218
     0.248260812  0.748284881  0.998744968
     0.246775888  0.252835867  0.497888273
     0.246573715  0.250127156  0.249984411
     0.243465026  0.000375551  0.008023389
     0.999405365  0.242889122  0.001557698
     0.752065138  0.249798217  0.252491168
     0.756990693  0.000241874  0.002754362
     0.501383192  0.005459618  0.249091701
     0.999135341  0.495419184  0.258482095
     0.503165142  0.744781922  0.993658314
     0.996843363  0.001027742  0.751803095
     0.748642717  0.252016855  0.746501450
     0.753703819  0.004266029  0.497092972
     0.505304095  0.253343954  0.502335080
     0.502254619  0.001159335  0.749685778
     0.004372170  0.000517461  0.245754185
     0.501247209  0.254816335  0.996677502
     0.242246211  0.748690379  0.248306763
     0.255040946  0.499837851  0.003690049
     0.997650587  0.756575325  0.001160574
     0.755042351  0.743351128  0.250500557
     0.743719915  0.501799438  0.001039165
     0.497963882  0.498791613  0.250154490
     0.251588866  0.254135421  0.749713869
     0.243518241  0.001237285  0.492281781
     0.000378516  0.252895011  0.500783947
     0.250401870  0.744880727  0.751882101
     0.251372363  0.498883135  0.496550565
     0.992370712  0.752103959  0.498172408
     0.998413474  0.499194557  0.742279312
     0.746472943  0.745010214  0.750395525
     0.753660104  0.499284516  0.498921300
     0.503738997  0.744475485  0.507335261
     0.502581872  0.499236463  0.749209715
     0.499624008  0.002390940  0.997656967
     0.000439315  0.500680436  0.004886144
     0.500393630  0.747447151  0.252011637
     0.246162961  0.999798757  0.749362189
     0.492802458  0.995067062  0.502207501
     0.752315786  0.991435182  0.745952609
     0.245683940  0.746226758  0.501567561
     0.002424273  0.768653144  0.252070818
     0.731305844  0.508969102  0.241677626
     0.009773898  0.005318925  0.483193836
     0.502621669  0.508436770  0.501997808
     0.740531538  0.510822260  0.758447012
     0.750261722  0.727490753  0.501317273

  ion indices of the primitive-cell ions
   primitive index   ion index
                 1           1
                 2           2
                 3           3
                 4           4
                 5           5
                 6           6
                 7           7
                 8           8
                 9           9
                10          10
                11          11
                12          12
                13          13
                14          14
                15          15
                16          16
                17          17
                18          18
                19          19
                20          20
                21          21
                22          22
                23          23
                24          24
                25          25
                26          26
                27          27
                28          28
                29          29
                30          30
                31          31
                32          32
                33          33
                34          34
                35          35
                36          36
                37          37
                38          38
                39          39
                40          40
                41          41
                42          42
                43          43
                44          44
                45          45
                46          46
                47          47
                48          48
                49          49
                50          50
                51          51
                52          52
                53          53
                54          54
                55          55
                56          56
                57          57
                58          58
                59          59
                60          60
                61          61
                62          62
                63          63
                64          64

----------------------------------------------------------------------------------------

 
 
 KPOINTS: HECN                                    

Automatic generation of k-mesh.
 Grid dimensions read from file:
 generate k-points for:    3    3    3

 Generating k-lattice:

  Cartesian coordinates                     Fractional coordinates (reciprocal lattice)
     0.037206563  0.000017952  0.000011783     0.333333333  0.000000000  0.000000000
     0.000017799  0.036911563  0.000043794    -0.000000000  0.333333333 -0.000000000
     0.000011827  0.000043884  0.037232262     0.000000000 -0.000000000  0.333333333

  Length of vectors
     0.037206569  0.036911594  0.037232290

  Shift w.r.t. Gamma in fractional coordinates (k-lattice)
     0.000000000  0.000000000  0.000000000

 
 Subroutine IBZKPT returns following result:
 ===========================================
 
 Found     14 irreducible k-points:
 
 Following reciprocal coordinates:
            Coordinates               Weight
  0.000000  0.000000  0.000000      1.000000
  0.333333 -0.000000  0.000000      2.000000
  0.000000  0.333333 -0.000000      2.000000
  0.333333  0.333333 -0.000000      2.000000
 -0.333333  0.333333 -0.000000      2.000000
  0.000000  0.000000  0.333333      2.000000
  0.333333  0.000000  0.333333      2.000000
 -0.333333  0.000000  0.333333      2.000000
  0.000000  0.333333  0.333333      2.000000
  0.333333  0.333333  0.333333      2.000000
 -0.333333  0.333333  0.333333      2.000000
  0.000000 -0.333333  0.333333      2.000000
  0.333333 -0.333333  0.333333      2.000000
 -0.333333 -0.333333  0.333333      2.000000
 
 Following cartesian coordinates:
            Coordinates               Weight
  0.000000  0.000000  0.000000      1.000000
  0.037207  0.000018  0.000012      2.000000
  0.000018  0.036912  0.000044      2.000000
  0.037224  0.036930  0.000056      2.000000
 -0.037189  0.036894  0.000032      2.000000
  0.000012  0.000044  0.037232      2.000000
  0.037218  0.000062  0.037244      2.000000
 -0.037195  0.000026  0.037220      2.000000
  0.000030  0.036955  0.037276      2.000000
  0.037236  0.036973  0.037288      2.000000
 -0.037177  0.036937  0.037264      2.000000
 -0.000006 -0.036868  0.037188      2.000000
  0.037201 -0.036850  0.037200      2.000000
 -0.037213 -0.036886  0.037177      2.000000
 


--------------------------------------------------------------------------------------------------------




 Dimension of arrays:
   k-points           NKPTS =     14   k-points in BZ     NKDIM =     14   number of bands    NBANDS=    308
   number of dos      NEDOS =    301   number of ions     NIONS =     64
   non local maximal  LDIM  =      6   non local SUM 2l+1 LMDIM =     18
   total plane-waves  NPLWV = 110592
   max r-space proj   IRMAX =      1   max aug-charges    IRDMAX=   9519
   dimension x,y,z NGX =    48 NGY =   48 NGZ =   48
   dimension x,y,z NGXF=    96 NGYF=   96 NGZF=   96
   support grid    NGXF=    96 NGYF=   96 NGZF=   96
   ions per type =               7   6   6  13  19   7   6
   NGX,Y,Z   is equivalent  to a cutoff of   8.91,  8.84,  8.91 a.u.
   NGXF,Y,Z  is equivalent  to a cutoff of  17.81, 17.67, 17.83 a.u.

 SYSTEM =  HECN                                    
 POSCAR =  9-TiZrHfTaW                             

 Startparameter for this run:
   NWRITE =      2    write-flag & timer
   PREC   = normal    normal or accurate (medium, high low for compatibility)
   ISTART =      0    job   : 0-new  1-cont  2-samecut
   ICHARG =      2    charge: 1-file 2-atom 10-const
   ISPIN  =      1    spin polarized calculation?
   LNONCOLLINEAR =      F non collinear calculations
   LSORBIT =      F    spin-orbit coupling
   INIWAV =      1    electr: 0-lowe 1-rand  2-diag
   LASPH  =      F    aspherical Exc in radial PAW
 Electronic Relaxation 1
   ENCUT  =  400.0 eV  29.40 Ry    5.42 a.u.  14.61 14.73 14.60*2*pi/ulx,y,z
   ENINI  =  400.0     initial cutoff
   ENAUG  =  644.9 eV  augmentation charge cutoff
   NELM   =     60;   NELMIN=  2; NELMDL= -5     # of ELM steps 
   EDIFF  = 0.1E-04   stopping-criterion for ELM
   LREAL  =      F    real-space projection
   NLSPLINE    = F    spline interpolate recip. space projectors
   LCOMPAT=      F    compatible to vasp.4.4
   GGA_COMPAT  = T    GGA compatible to vasp.4.4-vasp.4.6
   LMAXPAW     = -100 max onsite density
   LMAXMIX     =    2 max onsite mixed and CHGCAR
   VOSKOWN=      0    Vosko Wilk Nusair interpolation
   ROPT   =    0.00000   0.00000   0.00000   0.00000
   ROPT   =    0.00000   0.00000   0.00000
 Ionic relaxation
   EDIFFG = -.1E-01   stopping-criterion for IOM
   NSW    =    100    number of steps for IOM
   NBLOCK =      1;   KBLOCK =    100    inner block; outer block 
   IBRION =      2    ionic relax: 0-MD 1-quasi-New 2-CG
   NFREE  =      1    steps in history (QN), initial steepest desc. (CG)
   ISIF   =      3    stress and relaxation
   IWAVPR =     11    prediction:  0-non 1-charg 2-wave 3-comb
   ISYM   =      2    0-nonsym 1-usesym 2-fastsym
   LCORR  =      T    Harris-Foulkes like correction to forces

   POTIM  = 0.5000    time-step for ionic-motion
   TEIN   =    0.0    initial temperature
   TEBEG  =    0.0;   TEEND  =   0.0 temperature during run
   SMASS  =  -3.00    Nose mass-parameter (am)
   estimated Nose-frequenzy (Omega)   =  0.10E-29 period in steps = 0.13E+47 mass=  -0.183E-26a.u.
   SCALEE = 1.0000    scale energy and forces
   NPACO  =    256;   APACO  = 10.0  distance and # of slots for P.C.
   PSTRESS=    0.0 pullay stress

  Mass of Ions in am
   POMASS =  47.88180.95178.49 14.00 12.01 91.22183.85
  Ionic Valenz
   ZVAL   =  12.00 11.00 10.00  5.00  4.00 12.00 12.00
  Atomic Wigner-Seitz radii
   RWIGS  =  -1.00 -1.00 -1.00 -1.00 -1.00 -1.00 -1.00
  virtual crystal weights 
   VCA    =   1.00  1.00  1.00  1.00  1.00  1.00  1.00
   NELECT =     507.0000    total number of electrons
   NUPDOWN=      -1.0000    fix difference up-down

 DOS related values:
   EMIN   =  10.00;   EMAX   =-10.00  energy-range for DOS
   EFERMI =   0.00;   METHOD = LEGACY      
   ISMEAR =     0;   SIGMA  =   0.10  broadening in eV -4-tet -1-fermi 0-gaus

 Electronic relaxation 2 (details)
   IALGO  =     68    algorithm
   LDIAG  =      T    sub-space diagonalisation (order eigenvalues)
   LSUBROT=      F    optimize rotation matrix (better conditioning)
   TURBO    =      0    0=normal 1=particle mesh
   IRESTART =      0    0=no restart 2=restart with 2 vectors
   NREBOOT  =      0    no. of reboots
   NMIN     =      0    reboot dimension
   EREF     =   0.00    reference energy to select bands
   IMIX   =      4    mixing-type and parameters
     AMIX     =   0.40;   BMIX     =  1.00
     AMIX_MAG =   1.60;   BMIX_MAG =  1.00
     AMIN     =   0.10
     WC   =   100.;   INIMIX=   1;  MIXPRE=   1;  MAXMIX= -45

 Intra band minimization:
   WEIMIN = 0.0010     energy-eigenvalue tresh-hold
   EBREAK =  0.81E-08  absolut break condition
   DEPER  =   0.30     relativ break condition  

   TIME   =   0.40     timestep for ELM

  volume/ion in A,a.u.               =      11.32        76.38
  Fermi-wavevector in a.u.,A,eV,Ry     =   1.453558  2.746826 28.746799  2.112830
  Thomas-Fermi vector in A             =   2.570810
 
 Write flags
   LWAVE        =      F    write WAVECAR
   LDOWNSAMPLE  =      F    k-point downsampling of WAVECAR
   LCHARG       =      F    write CHGCAR
   LVTOT        =      F    write LOCPOT, total local potential
   LVHAR        =      F    write LOCPOT, Hartree potential only
   WRT_POTENTIAL= false  ! write potential to hdf5 file
   LELF         =      F    write electronic localiz. function (ELF)
   LORBIT       =      0    0 simple, 1 ext, 2 COOP (PROOUT), +10 PAW based schemes


 Dipole corrections
   LMONO      =      F    monopole corrections only (constant potential shift)
   LDIPOL     =      F    correct potential (dipole corrections)
   IDIPOL     =      0    1-x, 2-y, 3-z, 4-all directions 
   EPSILON    =  1.0000000 bulk dielectric constant
   LVACPOTAV  =      F  vacuum potentials using an averaging scheme for the charge density
   VACPOTFLAT =  0.1000000 required flatness to determine vacuum potential
 Exchange correlation treatment:
   GGA     = PE    functional components
   XC_C    = 1    coefficients multiplying the functional components
   LIBXC   =     F    Libxc                    
   VOSKOWN =     0    Vosko Wilk Nusair interpolation
   LHFCALC =     F    Hartree Fock is set to
   LHFONE  =     F    Hartree Fock one center treatment
   AEXX    =    0.0000 exact exchange contribution

 Parameters of functionals:
   PE:
     No parameter
 
 Van der Waals corrections
   IVDW    =     0    specifies the selected vdW correction

 Linear response parameters
   LEPSILON=     F    determine dielectric tensor
   LRPA    =     F    only Hartree local field effects (RPA)
   LNABLA  =     F    use nabla operator in PAW spheres
   LVEL    =     F    velocity operator in full k-point grid
   CSHIFT  =0.1000    complex shift for real part using Kramers Kronig
   OMEGAMAX=  -1.0    maximum frequency
   DEG_THRESHOLD= 0.2000000E-02 threshold for treating states as degnerate
   RTIME   =   -0.100 relaxation time in fs
  (WPLASMAI=    0.000 imaginary part of plasma frequency in eV, 0.658/RTIME)
   DFIELD  = 0.0000000 0.0000000 0.0000000 field for delta impulse in time
 
  Optional k-point grid parameters
   LKPOINTS_OPT  =     F    use optional k-point grid
   KPOINTS_OPT_MODE=     1    mode for optional k-point grid
 
 Orbital magnetization related:
   ORBITALMAG=     F  switch on orbital magnetization
   LCHIMAG   =     F  perturbation theory with respect to B field
   DQ        =  0.001000  dq finite difference perturbation B field
   LLRAUG    =     F  two centre corrections for induced B field
   LBONE     =     F  B-component reconstruction in AE one-centre
   LVGVCALC  =     T  calculate vGv susceptibility
   LVGVAPPL  =     F  apply vGv susceptibility instead of pGv for G=0

 Random number generation:
   RANDOM_GENERATOR = DEFAULT
   PCG_SEED         = not used


--------------------------------------------------------------------------------------------------------


 conjugate gradient relaxation of ions
 charge density and potential will be updated during run
 non-spin polarized calculation
 RMM-DIIS sequential band-by-band and
  variant of blocked Davidson during initial phase
 perform sub-space diagonalisation
    before iterative eigenvector-optimisation
 modified Broyden-mixing scheme, WC =      100.0
 initial mixing is a Kerker type mixing with AMIX =  0.4000 and BMIX =      1.0000
 Hartree-type preconditioning will be used
 using additional bands           54
 reciprocal scheme for non local part
 use partial core corrections
 calculate Harris-corrections to forces 
   (improved forces if not selfconsistent)
 use gradient corrections 
 use of overlap-Matrix (Vanderbilt PP)
 Gauss-broadening in eV      SIGMA  =   0.10


--------------------------------------------------------------------------------------------------------


  energy-cutoff  :      400.00
  volume of cell :      724.33
      direct lattice vectors                 reciprocal lattice vectors
     8.958995984 -0.004316648 -0.002840872     0.111619688  0.000053856  0.000035348
    -0.004353886  9.030608490 -0.010642612     0.000053396  0.110734690  0.000131382
    -0.002830106 -0.010620751  8.952822440     0.000035482  0.000131652  0.111696787

  length of vectors
     8.958997474  9.030615811  8.952829187     0.111619706  0.110734781  0.111696870


 
 k-points in units of 2pi/SCALE and weight: HECN                                    
   0.00000000  0.00000000  0.00000000       0.037
   0.03720656  0.00001795  0.00001178       0.074
   0.00001780  0.03691156  0.00004379       0.074
   0.03722436  0.03692952  0.00005558       0.074
  -0.03718876  0.03689361  0.00003201       0.074
   0.00001183  0.00004388  0.03723226       0.074
   0.03721839  0.00006184  0.03724405       0.074
  -0.03719474  0.00002593  0.03722048       0.074
   0.00002963  0.03695545  0.03727606       0.074
   0.03723619  0.03697340  0.03728784       0.074
  -0.03717694  0.03693750  0.03726427       0.074
  -0.00000597 -0.03686768  0.03718847       0.074
   0.03720059 -0.03684973  0.03720025       0.074
  -0.03721253 -0.03688563  0.03717669       0.074
 
 k-points in reciprocal lattice and weights: HECN                                    
   0.00000000  0.00000000  0.00000000       0.037
   0.33333333 -0.00000000  0.00000000       0.074
   0.00000000  0.33333333 -0.00000000       0.074
   0.33333333  0.33333333 -0.00000000       0.074
  -0.33333333  0.33333333 -0.00000000       0.074
   0.00000000  0.00000000  0.33333333       0.074
   0.33333333  0.00000000  0.33333333       0.074
  -0.33333333  0.00000000  0.33333333       0.074
   0.00000000  0.33333333  0.33333333       0.074
   0.33333333  0.33333333  0.33333333       0.074
  -0.33333333  0.33333333  0.33333333       0.074
   0.00000000 -0.33333333  0.33333333       0.074
   0.33333333 -0.33333333  0.33333333       0.074
  -0.33333333 -0.33333333  0.33333333       0.074
 
 position of ions in fractional coordinates (direct lattice) 
   0.00052027  0.99584486  0.01420181
   0.23822774  0.99306572  0.25232622
   0.26362725  0.50499450  0.25022861
   0.50123458  0.49902508  0.99867207
   0.49345553  0.26096529  0.75126962
   0.00502794  0.49703494  0.49847275
   0.50334828  0.73673335  0.74726506
   0.99861103  0.23956906  0.26158129
   0.75279223  0.74420551  0.99960572
   0.00490993  0.26271021  0.73776127
   0.75756755  0.26736729  0.50290019
   0.99698511  0.73681273  0.74700479
   0.25923175  0.50007944  0.74993556
   0.24626746  0.25228740  0.00195609
   0.50058692  0.25215300  0.25071492
   0.75591573  0.99196181  0.25358068
   0.75160016  0.25470963  0.99527122
   0.24826081  0.74828488  0.99874497
   0.24677589  0.25283587  0.49788827
   0.24657372  0.25012716  0.24998441
   0.24346503  0.00037555  0.00802339
   0.99940537  0.24288912  0.00155770
   0.75206514  0.24979822  0.25249117
   0.75699069  0.00024187  0.00275436
   0.50138319  0.00545962  0.24909170
   0.99913534  0.49541918  0.25848210
   0.50316514  0.74478192  0.99365831
   0.99684336  0.00102774  0.75180310
   0.74864272  0.25201686  0.74650145
   0.75370382  0.00426603  0.49709297
   0.50530410  0.25334395  0.50233508
   0.50225462  0.00115934  0.74968578
   0.00437217  0.00051746  0.24575418
   0.50124721  0.25481633  0.99667750
   0.24224621  0.74869038  0.24830676
   0.25504095  0.49983785  0.00369005
   0.99765059  0.75657533  0.00116057
   0.75504235  0.74335113  0.25050056
   0.74371992  0.50179944  0.00103917
   0.49796388  0.49879161  0.25015449
   0.25158887  0.25413542  0.74971387
   0.24351824  0.00123729  0.49228178
   0.00037852  0.25289501  0.50078395
   0.25040187  0.74488073  0.75188210
   0.25137236  0.49888314  0.49655056
   0.99237071  0.75210396  0.49817241
   0.99841347  0.49919456  0.74227931
   0.74647294  0.74501021  0.75039552
   0.75366010  0.49928452  0.49892130
   0.50373900  0.74447548  0.50733526
   0.50258187  0.49923646  0.74920972
   0.49962401  0.00239094  0.99765697
   0.00043931  0.50068044  0.00488614
   0.50039363  0.74744715  0.25201164
   0.24616296  0.99979876  0.74936219
   0.49280246  0.99506706  0.50220750
   0.75231579  0.99143518  0.74595261
   0.24568394  0.74622676  0.50156756
   0.00242427  0.76865314  0.25207082
   0.73130584  0.50896910  0.24167763
   0.00977390  0.00531893  0.48319384
   0.50262167  0.50843677  0.50199781
   0.74053154  0.51082226  0.75844701
   0.75026172  0.72749075  0.50131727
 
 position of ions in cartesian coordinates  (Angst):
   0.00028512  8.99293195  0.11654642
   2.12924359  8.96427945  2.24778623
   2.35892864  4.55661203  2.23412890
   4.48555954  4.49372985  8.93419883
   4.41760375  2.34656628  6.72180427
   0.04147050  4.48321209  4.45743399
   4.50417274  6.64304117  6.68086071
   8.94476884  2.15636552  2.33650429
   6.73819340  6.70676249  8.93923365
   0.04075627  2.36457624  6.60223578
   6.78445733  2.40587803  4.49737845
   8.92666348  6.64162989  6.67712732
   2.31815651  4.50693771  6.70798131
   2.20520519  2.27722489  0.01412795
   4.48294885  2.27227142  2.24050049
   6.76720946  8.95206254  2.25755832
   6.72965714  2.28636800  8.90564052
   2.21808312  6.74578872  8.93291738
   2.20835429  2.27690854  4.45411341
   2.20725642  2.25508103  2.23470355
   2.18117785  0.00225528  0.07113633
   8.95260673  2.18910594  0.00852163
   6.73594638  2.24990185  2.25571357
   6.78186773 -0.00111265  0.02250622
   4.49116128  0.04449384  2.22859130
   8.94836098  4.46687850  2.30603333
   4.50179963  6.71310856  8.88669060
   8.92858353 -0.00300660  6.72791678
   6.70387717  2.26470552  6.67848602
   6.75100409  0.02999187  4.44819853
   4.52449267  2.28033367  4.49318503
   4.49757038  0.00033922  6.71036447
   0.03847249  0.00204402  2.20017565
   4.48674159  2.28839738  8.91894082
   2.16632039  6.75744680  2.21439015
   2.28272413  4.51269983  0.02699223
   8.93465028  6.82801672 -0.00049572
   6.76047598  6.70699325  2.23263083
   6.66079601  4.52833285  0.00185019
   4.45837677  4.49958542  2.23286564
   2.25075539  2.28594894  6.70863575
   2.18028034  0.00489385  4.40660640
   0.00087278  2.27847550  4.48073722
   2.23797831  6.71765977  6.72282811
   2.24846662  4.49885945  4.43950550
   8.88596076  6.78238172  4.44922556
   8.94050814  4.49583724  6.63734578
   6.68228071  6.71670354  6.70810840
   6.74845202  4.50029079  4.45929907
   4.50831847  6.71550389  4.53272828
   4.49833501  4.49828241  6.70080060
   4.47329560  0.00883908  8.93040087
   0.00174208  4.52139520  0.03841499
   4.47905700  6.74506601  2.24683910
   2.19889919  9.01976976  6.69756683
   4.40926154  8.97859998  4.48418449
   6.73356638  8.94209291  6.66569256
   2.19641295  6.73249414  4.48180556
   0.01765903  6.93871796  2.24855791
   6.54886615  4.59057711  2.15620257
   0.08617367  0.04285906  4.32586424
   4.49935113  4.58399218  4.48745826
   6.63004853  4.60178395  6.78270119
   6.71700556  6.56112119  4.47833073
 


--------------------------------------------------------------------------------------------------------


 k-point     1 :   0.0000 0.0000 0.0000  plane waves:   13183
 k-point     2 :   0.3333-0.0000 0.0000  plane waves:   13179
 k-point     3 :   0.0000 0.3333-0.0000  plane waves:   13183
 k-point     4 :   0.3333 0.3333-0.0000  plane waves:   13142
 k-point     5 :  -0.3333 0.3333-0.0000  plane waves:   13132
 k-point     6 :   0.0000 0.0000 0.3333  plane waves:   13177
 k-point     7 :   0.3333 0.0000 0.3333  plane waves:   13138
 k-point     8 :  -0.3333 0.0000 0.3333  plane waves:   13134
 k-point     9 :   0.0000 0.3333 0.3333  plane waves:   13138
 k-point    10 :   0.3333 0.3333 0.3333  plane waves:   13156
 k-point    11 :  -0.3333 0.3333 0.3333  plane waves:   13153
 k-point    12 :   0.0000-0.3333 0.3333  plane waves:   13131
 k-point    13 :   0.3333-0.3333 0.3333  plane waves:   13153
 k-point    14 :  -0.3333-0.3333 0.3333  plane waves:   13154

 maximum and minimum number of plane-waves per node :     13183    13131

 maximum number of plane-waves:     13183
 maximum index in each direction: 
   IXMAX=   14   IYMAX=   15   IZMAX=   14
   IXMIN=  -14   IYMIN=  -15   IZMIN=  -14


 serial   3D FFT for wavefunctions
 parallel 3D FFT for charge:
    minimum data exchange during FFTs selected (reduces bandwidth)


 total amount of memory used by VASP MPI-rank0   274912. kBytes
=======================================================================

   base      :      30000. kBytes
   nonl-proj :     199613. kBytes
   fftplans  :       1680. kBytes
   grid      :       8060. kBytes
   one-center:        995. kBytes
   wavefun   :      34564. kBytes
 
     INWAV:  cpu time      0.0001: real time      0.0003
 Broyden mixing: mesh for mixing (old mesh)
   NGX = 29   NGY = 29   NGZ = 29
  (NGX  = 96   NGY  = 96   NGZ  = 96)
  gives a total of  24389 points

 initial charge density was supplied:
 charge density of overlapping atoms calculated
 number of electron     507.0000000 magnetization 
 keeping initial charge density in first step


--------------------------------------------------------------------------------------------------------


 Maximum index for augmentation-charges          595 (set IRDMAX)


--------------------------------------------------------------------------------------------------------


 First call to EWALD:  gamma=   0.197
 Maximum number of real-space cells 3x 3x 3
 Maximum number of reciprocal cells 3x 3x 3

    FEWALD:  cpu time      0.0021: real time      0.0024


--------------------------------------- Ionic step        1  -------------------------------------------




--------------------------------------- Iteration      1(   1)  ---------------------------------------


    POTLOK:  cpu time      0.0268: real time      0.0493
    SETDIJ:  cpu time      0.0063: real time      0.0093
     EDDAV:  cpu time     20.4605: real time     20.7545
       DOS:  cpu time      0.0021: real time      0.0054
    --------------------------------------------
      LOOP:  cpu time     20.4957: real time     20.8185

 eigenvalue-minimisations  :  8624
 total energy-change (2. order) : 0.4836323E+04  (-0.2204883E+05)
 number of electron     507.0000000 magnetization 
 augmentation part      507.0000000 magnetization 

 Free energy of the ion-electron system (eV)
  ---------------------------------------------------
  alpha Z        PSCENC =      4744.40430862
  Ewald energy   TEWEN  =    -40962.86728434
  -Hartree energ DENC   =     -6770.23495364
  -exchange      EXHF   =         0.00000000
  -V(xc)+E(xc)   XCENC  =      1799.52460708
  PAW double counting   =     27747.83240567   -27271.73470511
  entropy T*S    EENTRO =        -0.07347897
  eigenvalues    EBANDS =       227.02826986
  atomic energy  EATOM  =     45322.44378034
  Solvation  Ediel_sol  =         0.00000000
  ---------------------------------------------------
  free energy    TOTEN  =      4836.32294952 eV

  energy without entropy =     4836.39642849  energy(sigma->0) =     4836.35968900


--------------------------------------------------------------------------------------------------------




--------------------------------------- Iteration      1(   2)  ---------------------------------------


     EDDAV:  cpu time     20.3779: real time     21.1446
       DOS:  cpu time      0.0009: real time      0.0009
    --------------------------------------------
      LOOP:  cpu time     20.3787: real time     21.1454

 eigenvalue-minimisations  :  8624
 total energy-change (2. order) :-0.4883898E+04  (-0.4722415E+04)
 number of electron     507.0000000 magnetization 
 augmentation part      507.0000000 magnetization 

 Free energy of the ion-electron system (eV)
  ---------------------------------------------------
  alpha Z        PSCENC =      4744.40430862
  Ewald energy   TEWEN  =    -40962.86728434
  -Hartree energ DENC   =     -6770.23495364
  -exchange      EXHF   =         0.00000000
  -V(xc)+E(xc)   XCENC  =      1799.52460708
  PAW double counting   =     27747.83240567   -27271.73470511
  entropy T*S    EENTRO =        -0.08025351
  eigenvalues    EBANDS =     -4656.86340130
  atomic energy  EATOM  =     45322.44378034
  Solvation  Ediel_sol  =         0.00000000
  ---------------------------------------------------
  free energy    TOTEN  =       -47.57549618 eV

  energy without entropy =      -47.49524267  energy(sigma->0) =      -47.53536942


--------------------------------------------------------------------------------------------------------




--------------------------------------- Iteration      1(   3)  ---------------------------------------


     EDDAV:  cpu time     27.0845: real time     27.6585
       DOS:  cpu time      0.0009: real time      0.0009
    --------------------------------------------
      LOOP:  cpu time     27.0854: real time     27.6593

 eigenvalue-minimisations  : 12152
 total energy-change (2. order) :-0.6863936E+03  (-0.6629052E+03)
 number of electron     507.0000000 magnetization 
 augmentation part      507.0000000 magnetization 

 Free energy of the ion-electron system (eV)
  ---------------------------------------------------
  alpha Z        PSCENC =      4744.40430862
  Ewald energy   TEWEN  =    -40962.86728434
  -Hartree energ DENC   =     -6770.23495364
  -exchange      EXHF   =         0.00000000
  -V(xc)+E(xc)   XCENC  =      1799.52460708
  PAW double counting   =     27747.83240567   -27271.73470511
  entropy T*S    EENTRO =        -0.06536097
  eigenvalues    EBANDS =     -5343.27185718
  atomic energy  EATOM  =     45322.44378034
  Solvation  Ediel_sol  =         0.00000000
  ---------------------------------------------------
  free energy    TOTEN  =      -733.96905952 eV

  energy without entropy =     -733.90369856  energy(sigma->0) =     -733.93637904


--------------------------------------------------------------------------------------------------------




--------------------------------------- Iteration      1(   4)  ---------------------------------------


     EDDAV:  cpu time     32.7556: real time     33.5245
       DOS:  cpu time      0.0008: real time      0.0008
    --------------------------------------------
      LOOP:  cpu time     32.7564: real time     33.5254

 eigenvalue-minimisations  : 14812
 total energy-change (2. order) :-0.5740175E+02  (-0.5671946E+02)
 number of electron     507.0000000 magnetization 
 augmentation part      507.0000000 magnetization 

 Free energy of the ion-electron system (eV)
  ---------------------------------------------------
  alpha Z        PSCENC =      4744.40430862
  Ewald energy   TEWEN  =    -40962.86728434
  -Hartree energ DENC   =     -6770.23495364
  -exchange      EXHF   =         0.00000000
  -V(xc)+E(xc)   XCENC  =      1799.52460708
  PAW double counting   =     27747.83240567   -27271.73470511
  entropy T*S    EENTRO =        -0.09510805
  eigenvalues    EBANDS =     -5400.64385843
  atomic energy  EATOM  =     45322.44378034
  Solvation  Ediel_sol  =         0.00000000
  ---------------------------------------------------
  free energy    TOTEN  =      -791.37080785 eV

  energy without entropy =     -791.27569980  energy(sigma->0) =     -791.32325383


--------------------------------------------------------------------------------------------------------




--------------------------------------- Iteration      1(   5)  ---------------------------------------


     EDDAV:  cpu time     29.8714: real time     30.4385
       DOS:  cpu time      0.0008: real time      0.0008
    CHARGE:  cpu time      0.1744: real time      0.1805
    MIXING:  cpu time      0.0019: real time      0.0066
    --------------------------------------------
      LOOP:  cpu time     30.0486: real time     30.6263

 eigenvalue-minimisations  : 13664
 total energy-change (2. order) :-0.3354936E+01  (-0.3342468E+01)
 number of electron     506.9999924 magnetization 
 augmentation part      105.6254301 magnetization 

 Broyden mixing:
  rms(total) = 0.59404E+01    rms(broyden)= 0.59392E+01
  rms(prec ) = 0.93606E+01
  weight for this iteration     100.00

 Free energy of the ion-electron system (eV)
  ---------------------------------------------------
  alpha Z        PSCENC =      4744.40430862
  Ewald energy   TEWEN  =    -40962.86728434
  -Hartree energ DENC   =     -6770.23495364
  -exchange      EXHF   =         0.00000000
  -V(xc)+E(xc)   XCENC  =      1799.52460708
  PAW double counting   =     27747.83240567   -27271.73470511
  entropy T*S    EENTRO =        -0.09393315
  eigenvalues    EBANDS =     -5403.99996910
  atomic energy  EATOM  =     45322.44378034
  Solvation  Ediel_sol  =         0.00000000
  ---------------------------------------------------
  free energy    TOTEN  =      -794.72574362 eV

  energy without entropy =     -794.63181047  energy(sigma->0) =     -794.67877705


--------------------------------------------------------------------------------------------------------




--------------------------------------- Iteration      1(   6)  ---------------------------------------


    POTLOK:  cpu time      0.0314: real time      0.0348
    SETDIJ:  cpu time      0.0376: real time      0.0379
    EDDIAG:  cpu time      1.4077: real time      1.4368
  RMM-DIIS:  cpu time     18.3476: real time     18.6121
    ORTHCH:  cpu time      0.3775: real time      0.3802
       DOS:  cpu time      0.0009: real time      0.0009
    CHARGE:  cpu time      0.1763: real time      0.1770
    MIXING:  cpu time      0.0014: real time      0.0023
    --------------------------------------------
      LOOP:  cpu time     20.3805: real time     20.6820

 eigenvalue-minimisations  : 12104
 total energy-change (2. order) : 0.1296790E+03  (-0.7216875E+02)
 number of electron     506.9999938 magnetization 
 augmentation part      112.2909870 magnetization 

 Broyden mixing:
  rms(total) = 0.16545E+01    rms(broyden)= 0.16524E+01
  rms(prec ) = 0.25711E+01
  weight for this iteration     100.00

 eigenvalues of (default mixing * dielectric matrix)
  average eigenvalue GAMMA=   0.8550
  0.8550

 Free energy of the ion-electron system (eV)
  ---------------------------------------------------
  alpha Z        PSCENC =      4744.40430862
  Ewald energy   TEWEN  =    -40962.86728434
  -Hartree energ DENC   =     -6375.38181030
  -exchange      EXHF   =         0.00000000
  -V(xc)+E(xc)   XCENC  =      1797.44564719
  PAW double counting   =     27293.83805795   -26884.40383873
  entropy T*S    EENTRO =        -0.10815621
  eigenvalues    EBANDS =     -5600.41746027
  atomic energy  EATOM  =     45322.44378034
  Solvation  Ediel_sol  =         0.00000000
  ---------------------------------------------------
  free energy    TOTEN  =      -665.04675574 eV

  energy without entropy =     -664.93859953  energy(sigma->0) =     -664.99267764


--------------------------------------------------------------------------------------------------------




--------------------------------------- Iteration      1(   7)  ---------------------------------------


    POTLOK:  cpu time      0.0176: real time      0.0181
    SETDIJ:  cpu time      0.0052: real time      0.0054
    EDDIAG:  cpu time      1.4706: real time      1.4891
  RMM-DIIS:  cpu time     19.9873: real time     20.4251
    ORTHCH:  cpu time      0.3466: real time      0.3497
       DOS:  cpu time      0.0008: real time      0.0008
    CHARGE:  cpu time      0.1691: real time      0.1697
    MIXING:  cpu time      0.0010: real time      0.0010
    --------------------------------------------
      LOOP:  cpu time     21.9984: real time     22.4590

 eigenvalue-minimisations  : 13055
 total energy-change (2. order) :-0.8218145E-01  (-0.1012144E+02)
 number of electron     506.9999932 magnetization 
 augmentation part      110.0874835 magnetization 

 Broyden mixing:
  rms(total) = 0.93178E+00    rms(broyden)= 0.93123E+00
  rms(prec ) = 0.12275E+01
  weight for this iteration     100.00

 eigenvalues of (default mixing * dielectric matrix)
  average eigenvalue GAMMA=   0.8781
  0.8781  0.8781

 Free energy of the ion-electron system (eV)
  ---------------------------------------------------
  alpha Z        PSCENC =      4744.40430862
[...]
  0.005  -0.009   0.000  -0.001   0.001   0.000  -0.000   0.006   0.000   0.003   0.006   0.522  -0.010  -0.002   0.000   0.001
  0.030  -0.053   0.014   0.002  -0.001   0.052   0.006  -0.001   0.013  -0.016   0.036  -0.010   0.559   0.002  -0.001  -0.009
  0.003  -0.003   0.003  -0.000  -0.005   0.003   0.000   0.000  -0.189  -0.000   0.001  -0.002   0.002   0.180  -0.000  -0.002
 -0.001  -0.000   0.000  -0.005  -0.000  -0.012   0.001  -0.000  -0.000  -0.217  -0.004   0.000  -0.001  -0.000   0.187   0.004
  0.015  -0.022  -0.006  -0.034  -0.002  -0.017  -0.087  -0.002   0.001  -0.004  -0.488   0.001  -0.009  -0.002   0.004   0.529
  0.002  -0.001  -0.000   0.001   0.004  -0.000  -0.001  -0.003  -0.002   0.000   0.000  -0.201  -0.001  -0.001   0.000   0.002
 -0.008   0.013  -0.010   0.001   0.003  -0.030   0.002   0.003   0.002  -0.001  -0.010  -0.001  -0.481  -0.003   0.002  -0.006


------------------------ aborting loop because EDIFF is reached ----------------------------------------


    CHARGE:  cpu time      0.3481: real time      0.3482
    FORLOC:  cpu time      0.0936: real time      0.0936
    FORNL :  cpu time      7.7759: real time      7.7876
    STRESS:  cpu time     25.8668: real time     28.3978
    FORCOR:  cpu time      0.1328: real time      0.1328
    FORHAR:  cpu time      0.0747: real time      0.0747
    MIXING:  cpu time      0.0584: real time      0.0584
    OFIELD:  cpu time      0.0001: real time      0.0001

  FORCE on cell =-STRESS in cart. coord.  units (eV):
  Direction    XX          YY          ZZ          XY          YZ          ZX
  --------------------------------------------------------------------------------------
  Alpha Z  4760.75720  4760.75720  4760.75720
  Ewald  -13627.94065-13903.85458-13494.56414    20.07815   -21.82700     5.60672
  Hartree  2126.04803  1984.62865  2200.56752    10.90357   -14.04899     0.07344
  E(xc)   -2205.32373 -2206.13253 -2205.20513     0.05034    -0.05519     0.01285
  Local    3085.99373  3509.30142  2895.27957   -28.67458    35.63580    -6.57276
  n-local -2138.30031 -2139.14702 -2139.15814    -1.31009    -1.30038    -0.03635
  augment   804.06453   801.57830   801.24933    -0.41949     0.10673     0.41179
  Kinetic  7194.89970  7192.99470  7181.33999    -0.62885     1.48507     0.53219
  Fock        0.00000     0.00000     0.00000     0.00000     0.00000     0.00000
  -------------------------------------------------------------------------------------
  Total       0.19850     0.12614     0.26621    -0.00095    -0.00396     0.02787
  in kB       0.44058     0.27997     0.59087    -0.00212    -0.00879     0.06185
  external pressure =        0.44 kB  Pullay stress =        0.00 kB


 VOLUME and BASIS-vectors are now :
 -----------------------------------------------------------------------------
  energy-cutoff  :      400.00
  volume of cell :      721.84
      direct lattice vectors                 reciprocal lattice vectors
     8.955645916  0.003572294 -0.002772430     0.111661433 -0.000044285  0.000034631
     0.003582191  9.024887583 -0.009297486    -0.000044163  0.110804841  0.000115427
    -0.002773579 -0.009304714  8.931061827     0.000034617  0.000115337  0.111968900

  length of vectors
     8.955647058  9.024893083  8.931067105     0.111661447  0.110804910  0.111968965


 FORCES acting on ions
    electron-ion (+dipol)            ewald-force                    non-local-force                 convergence-correction
 -----------------------------------------------------------------------------------------------
   0.206E+02 -.251E+02 0.900E+02   -.203E+02 0.242E+02 -.895E+02   -.339E+00 0.933E+00 -.584E+00   -.256E-02 0.548E-02 -.656E-02
   -.105E+03 -.437E+02 0.157E+02   0.105E+03 0.422E+02 -.151E+02   0.104E+00 0.143E+01 -.569E+00   0.211E-02 0.816E-02 -.117E-01
   0.567E+02 0.344E+02 0.417E+02   -.557E+02 -.327E+02 -.423E+02   -.100E+01 -.163E+01 0.594E+00   -.122E-01 -.536E-02 -.443E-02
   0.500E+02 0.529E+02 -.213E+02   -.514E+02 -.541E+02 0.213E+02   0.139E+01 0.114E+01 0.615E-02   -.325E-02 0.779E-02 -.182E-02
   0.156E+02 0.612E+02 -.210E+02   -.174E+02 -.605E+02 0.227E+02   0.177E+01 -.775E+00 -.168E+01   -.481E-02 -.686E-02 -.630E-03
   -.431E+01 0.830E+01 -.295E+02   0.550E+01 -.843E+01 0.288E+02   -.119E+01 0.140E+00 0.622E+00   -.342E-02 -.900E-02 0.706E-02
   0.541E+02 -.808E+02 -.177E+02   -.549E+02 0.800E+02 0.174E+02   0.843E+00 0.736E+00 0.252E+00   -.212E-02 0.816E-02 0.448E-02
   0.219E+02 -.399E+02 0.469E+02   -.214E+02 0.398E+02 -.457E+02   -.571E+00 0.130E+00 -.120E+01   -.152E-02 -.149E-02 -.126E-01
   -.245E+02 -.476E+02 -.268E+01   0.255E+02 0.468E+02 0.264E+01   -.994E+00 0.798E+00 0.478E-01   0.655E-02 0.103E-01 0.122E-02
   -.145E+02 0.308E+02 -.534E+02   0.165E+02 -.292E+02 0.520E+02   -.196E+01 -.163E+01 0.135E+01   -.118E-02 -.612E-02 0.107E-01
   0.573E+01 0.652E+02 0.248E+02   -.486E+01 -.642E+02 -.243E+02   -.881E+00 -.101E+01 -.519E+00   0.627E-02 -.987E-02 0.256E-02
   -.411E+02 -.400E+02 -.484E+02   0.422E+02 0.385E+02 0.482E+02   -.109E+01 0.152E+01 0.135E+00   0.369E-02 0.499E-02 0.153E-01
   0.769E+02 0.124E+02 -.407E+02   -.766E+02 -.121E+02 0.413E+02   -.303E+00 -.310E+00 -.579E+00   -.110E-01 0.283E-02 0.458E-02
   -.542E+01 -.172E+02 0.219E+02   0.677E+01 0.185E+02 -.226E+02   -.135E+01 -.130E+01 0.696E+00   -.118E-01 -.751E-02 0.281E-03
   -.942E+01 0.484E+02 0.195E+02   0.882E+01 -.477E+02 -.213E+02   0.601E+00 -.700E+00 0.179E+01   0.731E-03 -.820E-02 -.114E-02
   0.575E+02 -.299E+02 0.112E+02   -.571E+02 0.290E+02 -.107E+02   -.333E+00 0.903E+00 -.448E+00   0.665E-03 0.434E-02 -.116E-01
   -.260E+01 0.259E+02 -.272E+02   0.119E+01 -.251E+02 0.267E+02   0.139E+01 -.762E+00 0.439E+00   0.126E-01 -.107E-01 0.718E-03
   0.229E+02 0.215E+02 0.357E+02   -.239E+02 -.231E+02 -.357E+02   0.982E+00 0.150E+01 -.406E-01   -.683E-02 0.764E-02 -.490E-02
   -.149E+02 0.119E+02 -.213E+02   0.141E+02 -.115E+02 0.222E+02   0.832E+00 -.377E+00 -.883E+00   -.381E-02 -.211E-02 -.548E-03
   -.195E+02 -.383E+01 0.112E+02   0.207E+02 0.416E+01 -.112E+02   -.117E+01 -.336E+00 0.638E-02   -.426E-02 -.245E-02 -.170E-02
   -.206E+02 -.103E+02 0.281E+02   0.201E+02 0.102E+02 -.277E+02   0.433E+00 0.669E-01 -.434E+00   -.822E-02 -.469E-03 -.892E-03
   0.296E+01 -.166E+02 0.165E+02   -.291E+01 0.158E+02 -.172E+02   -.589E-01 0.875E+00 0.611E+00   -.801E-03 -.679E-02 -.176E-03
   0.159E+02 0.246E+02 0.202E+02   -.169E+02 -.257E+02 -.214E+02   0.937E+00 0.103E+01 0.121E+01   0.430E-02 -.227E-02 -.258E-02
   0.210E+02 -.203E+02 -.108E+02   -.207E+02 0.210E+02 0.105E+02   -.334E+00 -.764E+00 0.243E+00   0.768E-02 -.892E-03 0.103E-02
   -.215E+02 -.253E+02 0.346E+01   0.203E+02 0.249E+02 -.331E+01   0.126E+01 0.487E+00 -.150E+00   0.938E-04 -.548E-04 -.296E-02
   0.449E+01 -.186E+01 0.345E+02   -.318E+01 0.282E+01 -.332E+02   -.131E+01 -.963E+00 -.134E+01   0.283E-02 -.296E-02 -.383E-02
   0.170E+02 -.298E+02 -.140E+02   -.181E+02 0.289E+02 0.135E+02   0.113E+01 0.898E+00 0.532E+00   0.222E-02 0.420E-02 -.210E-03
   -.445E+01 -.361E+01 -.276E+01   0.431E+01 0.324E+01 0.507E+01   0.145E+00 0.368E+00 -.232E+01   -.369E-03 -.848E-03 0.124E-01
   -.208E+02 0.241E+02 -.184E+02   0.188E+02 -.262E+02 0.196E+02   0.199E+01 0.210E+01 -.124E+01   0.759E-02 -.436E-02 -.137E-03
   0.868E+01 -.153E+01 0.120E+02   -.104E+02 0.599E+00 -.117E+02   0.168E+01 0.925E+00 -.345E+00   -.321E-02 0.130E-01 0.130E-02
   0.607E+01 0.245E+02 0.307E+02   -.698E+01 -.269E+02 -.298E+02   0.906E+00 0.239E+01 -.882E+00   0.153E-02 -.428E-02 -.397E-02
   0.519E+01 -.786E+01 -.381E+01   -.535E+01 0.780E+01 0.359E+01   0.168E+00 0.625E-01 0.218E+00   -.601E-03 -.681E-02 0.232E-02
   0.383E+02 -.278E+02 0.700E+01   -.378E+02 0.288E+02 -.928E+01   -.424E+00 -.107E+01 0.229E+01   -.995E-03 0.298E-02 -.114E-01
   0.120E+01 0.215E+02 -.271E+02   -.138E+01 -.211E+02 0.269E+02   0.174E+00 -.399E+00 0.220E+00   -.683E-03 -.446E-02 0.237E-02
   -.999E+01 0.119E+02 0.218E+02   0.115E+02 -.125E+02 -.216E+02   -.153E+01 0.641E+00 -.223E+00   -.318E-03 0.200E-02 -.315E-02
   0.265E+02 0.574E+01 0.177E+02   -.264E+02 -.557E+01 -.167E+02   -.139E+00 -.172E+00 -.103E+01   -.410E-02 -.203E-03 -.129E-02
   -.178E+02 0.206E+02 0.232E+02   0.188E+02 -.205E+02 -.239E+02   -.101E+01 -.100E+00 0.768E+00   -.484E-03 0.609E-02 -.227E-02
   0.204E+01 -.332E+02 0.924E+01   -.300E+01 0.344E+02 -.989E+01   0.965E+00 -.117E+01 0.654E+00   0.434E-03 0.245E-02 -.467E-02
   -.329E+02 0.276E+02 -.325E+01   0.326E+02 -.284E+02 0.329E+01   0.345E+00 0.792E+00 -.350E-01   0.345E-02 0.224E-02 -.402E-03
   0.352E+01 0.298E+02 -.897E+00   -.585E+01 -.296E+02 -.782E+00   0.233E+01 -.164E+00 0.168E+01   0.129E-03 0.391E-03 -.754E-03
   0.217E+02 0.750E+01 -.878E+01   -.205E+02 -.828E+01 0.876E+01   -.118E+01 0.782E+00 0.269E-01   -.649E-02 -.159E-02 0.194E-02
   -.255E+02 -.184E+02 -.278E+02   0.276E+02 0.180E+02 0.278E+02   -.208E+01 0.316E+00 -.886E-02   0.330E-02 0.532E-03 0.112E-02
   -.372E+01 0.115E+02 -.122E+02   0.454E+01 -.100E+02 0.126E+02   -.820E+00 -.146E+01 -.380E+00   -.174E-02 0.110E-02 0.141E-02
   0.211E+02 -.795E+01 -.214E+02   -.201E+02 0.876E+01 0.212E+02   -.102E+01 -.811E+00 0.169E+00   -.186E-02 0.158E-02 0.255E-02
   0.970E+00 0.207E+02 -.157E+02   -.307E+01 -.204E+02 0.147E+02   0.211E+01 -.298E+00 0.105E+01   -.371E-02 -.578E-03 0.206E-02
   0.312E+00 -.754E+01 -.256E+02   0.103E+01 0.632E+01 0.267E+02   -.135E+01 0.122E+01 -.113E+01   -.452E-03 -.150E-02 0.344E-02
   -.133E+02 0.571E+01 -.279E+02   0.137E+02 -.576E+01 0.271E+02   -.424E+00 0.429E-01 0.811E+00   0.184E-02 -.500E-03 0.207E-02
   -.272E+02 -.337E+02 -.651E+01   0.261E+02 0.356E+02 0.712E+01   0.112E+01 -.188E+01 -.609E+00   0.247E-02 0.311E-02 0.437E-02
   -.132E+02 0.289E+02 0.219E+01   0.159E+02 -.300E+02 -.214E+01   -.264E+01 0.118E+01 -.619E-01   0.378E-02 -.241E-02 0.671E-03
   0.602E+01 -.373E+02 0.161E+02   -.781E+01 0.394E+02 -.159E+02   0.179E+01 -.212E+01 -.230E+00   -.102E-02 0.347E-02 0.703E-03
   0.217E+02 0.152E+02 -.488E+00   -.225E+02 -.153E+02 0.226E+01   0.798E+00 0.150E+00 -.177E+01   -.857E-03 0.331E-02 0.898E-03
   -.154E+02 -.419E+02 -.359E+02   0.152E+02 0.434E+02 0.354E+02   0.272E+00 -.153E+01 0.478E+00   0.427E-03 -.458E-02 0.680E-03
   -.355E+02 0.149E+02 0.318E+02   0.369E+02 -.135E+02 -.315E+02   -.145E+01 -.142E+01 -.332E+00   0.370E-02 -.208E-02 -.144E-03
   0.557E+00 -.773E+02 0.116E+02   -.185E+01 0.761E+02 -.109E+02   0.130E+01 0.109E+01 -.612E+00   0.269E-02 0.877E-02 -.696E-02
   0.143E+02 -.991E+01 -.749E+01   -.146E+02 0.958E+01 0.639E+01   0.304E+00 0.329E+00 0.109E+01   -.631E-02 -.539E-02 0.105E-01
   -.242E+02 -.291E+02 0.347E+02   0.221E+02 0.277E+02 -.342E+02   0.205E+01 0.146E+01 -.555E+00   0.388E-02 0.867E-03 0.784E-03
   -.199E+02 -.255E+02 -.969E+01   0.204E+02 0.243E+02 0.907E+01   -.470E+00 0.124E+01 0.602E+00   0.543E-02 0.172E-02 0.120E-01
   -.898E+00 -.158E+02 -.421E+02   0.122E+01 0.154E+02 0.421E+02   -.324E+00 0.423E+00 0.468E-01   -.480E-03 0.213E-02 0.633E-02
   0.239E+02 0.913E+02 0.473E+02   -.224E+02 -.907E+02 -.476E+02   -.152E+01 -.573E+00 0.274E+00   -.152E-02 0.377E-02 -.207E-01
   -.669E+02 0.666E+02 0.359E+01   0.657E+02 -.652E+02 -.484E+01   0.125E+01 -.140E+01 0.126E+01   0.343E-02 -.171E-02 -.405E-02
   0.565E+02 -.204E+02 -.103E+03   -.546E+02 0.202E+02 0.102E+03   -.187E+01 0.142E+00 0.490E+00   -.263E-02 0.886E-02 0.384E-02
   0.220E+02 0.623E+02 0.233E+02   -.240E+02 -.608E+02 -.233E+02   0.209E+01 -.154E+01 0.259E-01   0.246E-02 -.436E-02 -.378E-03
   -.928E+02 0.599E+02 -.524E+01   0.922E+02 -.587E+02 0.646E+01   0.635E+00 -.121E+01 -.122E+01   0.962E-02 -.203E-02 -.819E-04
   -.187E+02 -.118E+03 0.938E+00   0.186E+02 0.117E+03 -.980E+00   0.812E-01 0.782E+00 0.408E-01   0.823E-02 -.184E-02 -.283E-02
 -----------------------------------------------------------------------------------------------
   -.306E+01 -.115E+01 0.691E+00   -.618E-12 -.782E-12 0.242E-12   0.306E+01 0.115E+01 -.680E+00   -.149E-02 -.365E-03 -.979E-02
 
 
 POSITION                                       TOTAL-FORCE (eV/Angst)
 -----------------------------------------------------------------------------------
      8.95283      8.98930      0.08380        -0.000210      0.004465      0.002045
      2.15503      8.96562      2.23450         0.001940      0.002433      0.001558
      2.36429      4.55088      2.22717        -0.003003     -0.000861      0.003215
      4.47462      4.49216      8.91031        -0.002242      0.001647     -0.003652
      4.41170      2.33431      6.70831        -0.004139      0.001180     -0.001645
      0.11246      4.47920      4.42177        -0.002026     -0.003154      0.003780
      4.50567      6.65485      6.67046         0.000794     -0.002523     -0.003542
      8.94848      2.18826      2.31791         0.000752     -0.000246     -0.003106
      6.76770      6.72217      0.01539        -0.000217      0.000046      0.003171
      0.04512      2.38259      6.60716         0.000540      0.000039      0.004728
      6.76121      2.44514      4.49837         0.001172      0.001852      0.001622
      8.92070      6.62142      6.62891         0.000398      0.000161      0.002063
      2.31454      4.50799      6.69722         0.001910     -0.000398     -0.001108
      2.21000      2.26672      0.01242        -0.001611     -0.001766     -0.001782
      4.48278      2.28998      2.21925        -0.002420      0.001118     -0.000572
      6.75897      8.98136      2.26676        -0.000285      0.002512     -0.002175
      6.72618      2.26401      8.87230        -0.001432      0.003046     -0.002184
      2.20481      6.76478     -0.00323         0.004196     -0.000606     -0.000355
      2.23501      2.27085      4.44984        -0.001783     -0.002046      0.000851
      2.22439      2.25041      2.22924        -0.002055     -0.000062      0.001594
      2.19153      0.00574      0.05760        -0.002309     -0.000101      0.001752
      8.95077      2.20718      0.00482        -0.001358     -0.003013      0.000549
      6.73151      2.25255      2.24418         0.000318      0.003286     -0.000261
      6.75938      0.00434      0.00774         0.002259      0.000126      0.002334
      4.49062      0.04205      2.22306        -0.001027      0.001508      0.001174
      8.93553      4.46169      2.29925         0.000478     -0.000393      0.002364
      4.48985      6.73207      8.87207         0.003706      0.000527     -0.000708
      8.92611      0.02563      6.68624        -0.000002     -0.001127      0.002379
      6.70348      2.25380      6.66751        -0.000214      0.000030     -0.000650
      6.75209      0.10421      4.43913         0.001707      0.007535      0.001233
      4.52023      2.27117      4.48246        -0.001054     -0.000291      0.001150
      4.49955      0.00832      6.69667        -0.000069     -0.000850     -0.000051
      0.02674      0.02594      2.19457         0.000585      0.005713     -0.005052
      4.48037      2.28059      8.89980         0.000455     -0.001446     -0.000631
      2.17342      6.76365      2.20863        -0.002766      0.000835      0.000731
      2.28038      4.51263      0.02728         0.002744      0.000014      0.001942
      8.92876      6.82540      0.00426        -0.000003      0.000844      0.000517
      6.76475      6.71510      2.23082        -0.001179      0.000579     -0.000249
      6.65634      4.52406      0.00427         0.000320      0.002176     -0.001303
      4.45402      4.49796      2.22301         0.000227      0.000450     -0.000396
      2.24891      2.28584      6.69633        -0.000410     -0.000917      0.001282
      2.19516      0.01843      4.40324         0.000364      0.001767     -0.002681
      8.94768      2.26641      4.46491         0.001606      0.000053     -0.000420
      2.23660      6.72212      6.71439         0.000123     -0.001149     -0.000789
      2.27139      4.49065      4.43207         0.003155      0.001248     -0.002679
      8.89609      6.79519      4.44913        -0.000575      0.003052      0.002525
      8.93710      4.50325      6.63305        -0.000513     -0.003984     -0.000679
      6.68782      6.70875      6.69294         0.000219     -0.000258      0.001051
      6.77194      4.51159      4.45166         0.000413     -0.004130     -0.002829
      4.53119      6.71339      4.52430         0.000236      0.000961      0.000539
      4.49354      4.49381      6.69983         0.001474     -0.000087     -0.001429
      4.46164      0.00426      8.89185        -0.001065      0.001288      0.001559
      0.00458      4.52755      0.06099         0.000940      0.000381      0.002416
      4.47286      6.73692      2.23367         0.002635     -0.000221      0.001032
      2.19046      9.01398      6.69197        -0.001397     -0.002777     -0.000107
      4.42599      8.98415      4.48666        -0.002935     -0.003805     -0.000826
      6.75556      8.93078      6.62708         0.001945     -0.001947     -0.000882
      2.21408      6.73992      4.46403        -0.001221     -0.000446     -0.000318
      0.00300      6.94320      2.29853        -0.000188      0.000042     -0.004985
      6.54754      4.56695      2.13145        -0.003745     -0.002066      0.001848
      0.10471      0.03153      4.32940         0.000383      0.001230      0.003109
      4.46950      4.56546      4.48264         0.002171     -0.003694      0.000662
      6.62455      4.58551      6.79801        -0.002991     -0.001982     -0.004893
      6.73521      6.52254      4.42825         0.006278     -0.005800     -0.003835
 -----------------------------------------------------------------------------------
    total drift:                               -0.005176     -0.001241      0.001683


--------------------------------------------------------------------------------------------------------



  FREE ENERGIE OF THE ION-ELECTRON SYSTEM (eV)
  ---------------------------------------------------
  free  energy   TOTEN  =      -666.44911965 eV

  energy  without entropy=     -666.33162389  energy(sigma->0) =     -666.39037177
 
 d Force =-0.9141579E-05[-0.227E-04, 0.442E-05]  d Energy = 0.3189463E-04-0.410E-04
 d Force = 0.2358160E-01[ 0.234E-01, 0.238E-01]  d Ewald  =-0.1731571E+01 0.176E+01


--------------------------------------------------------------------------------------------------------


    POTLOK:  cpu time      0.1528: real time      0.1529


--------------------------------------------------------------------------------------------------------




--------------------------------------------------------------------------------------------------------


  
 reached required accuracy - stopping structural energy minimisation
     LOOP+:  cpu time    162.8760: real time    171.7792
    4ORBIT:  cpu time      0.0000: real time      0.0000

 total amount of memory used by VASP MPI-rank0   274912. kBytes
=======================================================================

   base      :      30000. kBytes
   nonl-proj :     199613. kBytes
   fftplans  :       1680. kBytes
   grid      :       8060. kBytes
   one-center:        995. kBytes
   wavefun   :      34564. kBytes
 
  
  
 General timing and accounting informations for this job:
 ========================================================
  
                  Total CPU time used (sec):     7534.491
                            User time (sec):     7437.789
                          System time (sec):       96.702
                         Elapsed time (sec):     7889.000
  
                   Maximum memory used (kb):      376600.
                   Average memory used (kb):          N/A
  
                          Minor page faults:      1469413
                          Major page faults:            1
                 Voluntary context switches:         4906
