<?xml version="1.0" encoding="ISO-8859-1"?>
<modeling>
 <generator>
  <i name="program" type="string">vasp </i>
  <i name="version" type="string">5.4.4.18Apr17-6-g9f103f2a35  </i>
  <i name="subversion" type="string">(build Oct 18 2021 20:38:43) complex            parallel </i>
  <i name="platform" type="string">LinuxIFC </i>
  <i name="date" type="string">2024 06 22 </i>
  <i name="time" type="string">16:47:44 </i>
 </generator>
 <incar>
  <i type="string" name="SYSTEM">HECN</i>
  <i type="int" name="ISTART">     0</i>
  <i type="string" name="PREC">normal</i>
  <i type="string" name="ALGO">Fast</i>
  <i type="int" name="ICHARG">     2</i>
  <i type="int" name="NELM">    60</i>
  <i type="int" name="IBRION">     2</i>
  <i name="EDIFF">      0.00001000</i>
  <i name="EDIFFG">     -0.01000000</i>
  <i type="int" name="NSW">   100</i>
  <i type="int" name="ISIF">     3</i>
  <i name="ENCUT">    400.00000000</i>
  <i name="POTIM">      0.50000000</i>
  <i type="logical" name="LREAL"> F  </i>
  <i type="int" name="ISMEAR">     0</i>
  <i name="SIGMA">      0.10000000</i>
  <i type="logical" name="LWAVE"> F  </i>
  <i type="logical" name="LCHARG"> F  </i>
  <v type="int" name="KPOINT_BSE">    -1     0     0     0</v>
  <i type="int" name="NELM">    60</i>
 </incar>
 <structure name="primitive_cell" >
  <crystal>
   <varray name="basis" >
    <v>       8.82763247       0.02097109      -0.00226351 </v>
    <v>       0.02713311       8.84951303      -0.01694536 </v>
    <v>       0.02953245      -0.03219948       8.84969478 </v>
   </varray>
   <i name="volume">    691.33108669 </i>
   <varray name="rec_basis" >
    <v>       0.11328139      -0.00034805      -0.00037930 </v>
    <v>      -0.00026834       0.11300218       0.00041205 </v>
    <v>       0.00002846       0.00021629       0.11299894 </v>
   </varray>
  </crystal>
  <varray name="positions" >
   <v>       0.00502213      -0.00406560      -0.00223991 </v>
   <v>       0.00239719      -0.25705807       0.00045858 </v>
   <v>      -0.01372383       0.00331653      -0.25457846 </v>
   <v>      -0.00192849       0.00006842       0.25182290 </v>
   <v>       0.26153627       0.00098053      -0.00633033 </v>
   <v>       0.00126732       0.25225981       0.00035756 </v>
   <v>      -0.25636277       0.00071697       0.00562061 </v>
   <v>      -0.26329022      -0.02487203      -0.21146519 </v>
   <v>       0.22530598       0.01302176      -0.26597886 </v>
   <v>       0.00049942      -0.24661408      -0.24926728 </v>
   <v>       0.24921210      -0.25019127      -0.00015869 </v>
   <v>       0.00670826      -0.24089835       0.25242853 </v>
   <v>      -0.00338049       0.23807988       0.25100338 </v>
   <v>       0.25947938       0.23882683      -0.00808144 </v>
   <v>       0.00111888       0.24652097      -0.25052927 </v>
   <v>      -0.25056842      -0.25195654       0.00700681 </v>
   <v>      -0.25717346       0.24643212       0.00026359 </v>
   <v>       0.27224774      -0.00079432       0.25147152 </v>
   <v>      -0.26756082      -0.00686999       0.24898749 </v>
   <v>       0.24158132      -0.24251364      -0.24812374 </v>
   <v>      -0.24856882      -0.24171816      -0.24534140 </v>
   <v>       0.24716628       0.24501647      -0.25060895 </v>
   <v>       0.24879955       0.24617621       0.24614710 </v>
   <v>      -0.24402626       0.24441083      -0.25094708 </v>
   <v>       0.25634399      -0.25146979       0.24850039 </v>
   <v>      -0.25088177       0.24417580       0.24746446 </v>
   <v>      -0.25646614      -0.24678162       0.24986342 </v>
   <v>       0.00200473      -0.48015137      -0.01619517 </v>
   <v>      -0.48247912       0.01392753      -0.02401251 </v>
   <v>       0.01032720       0.00136682      -0.49936398 </v>
   <v>      -0.47533836       0.00108005      -0.25194089 </v>
   <v>      -0.49977875      -0.23844901       0.00843766 </v>
   <v>       0.23853020       0.49966491      -0.00522541 </v>
   <v>       0.25915771       0.00047977      -0.48778525 </v>
   <v>      -0.00072835      -0.49915844      -0.24068376 </v>
   <v>       0.00071517      -0.24461996      -0.49843068 </v>
   <v>      -0.48745850       0.00573191       0.24889867 </v>
   <v>      -0.00605061       0.49249207       0.24279085 </v>
   <v>      -0.49820796       0.23953238       0.00374874 </v>
   <v>      -0.25433460       0.00786871       0.49046698 </v>
   <v>      -0.23957078       0.49752220       0.00138377 </v>
   <v>       0.00205256       0.24748043       0.49960868 </v>
   <v>       0.49433988      -0.24027890      -0.24796606 </v>
   <v>      -0.25030271      -0.48940301      -0.24617769 </v>
   <v>       0.25144949      -0.24613210      -0.49815129 </v>
   <v>       0.25185751       0.24652319      -0.49443751 </v>
   <v>       0.24784951       0.49478954      -0.24806564 </v>
   <v>       0.24493116       0.49564686       0.24696933 </v>
   <v>      -0.25444872      -0.24488860       0.49307263 </v>
   <v>      -0.25142408      -0.49525486       0.25030465 </v>
   <v>      -0.24906064       0.24609560       0.49692908 </v>
   <v>      -0.49671407       0.24309552      -0.25629080 </v>
   <v>      -0.49335266       0.25950312       0.25171076 </v>
   <v>       0.49565077      -0.27206130       0.25632166 </v>
   <v>       0.48676225      -0.01367094      -0.47806180 </v>
   <v>      -0.00079162      -0.49824984      -0.49488363 </v>
   <v>       0.49750968       0.49840557       0.00063598 </v>
   <v>       0.49430999      -0.23761470       0.48946029 </v>
   <v>       0.49875064      -0.49867559      -0.25461861 </v>
   <v>       0.25389755       0.49935844      -0.49737838 </v>
   <v>      -0.49924972       0.24419021       0.49030448 </v>
   <v>      -0.49833223       0.49745557       0.25345648 </v>
   <v>      -0.25469949       0.49890459       0.49938335 </v>
   <v>       0.49747305      -0.48670628       0.49803943 </v>
  </varray>
 </structure>
 <varray name="primitive_index" >
  <v type="int" >        1 </v>
  <v type="int" >       38 </v>
  <v type="int" >       29 </v>
  <v type="int" >       34 </v>
  <v type="int" >       22 </v>
  <v type="int" >       23 </v>
  <v type="int" >       25 </v>
  <v type="int" >       58 </v>
  <v type="int" >       56 </v>
  <v type="int" >       12 </v>
  <v type="int" >       18 </v>
  <v type="int" >       59 </v>
  <v type="int" >        8 </v>
  <v type="int" >       14 </v>
  <v type="int" >       10 </v>
  <v type="int" >        9 </v>
  <v type="int" >       17 </v>
  <v type="int" >        2 </v>
  <v type="int" >       16 </v>
  <v type="int" >       45 </v>
  <v type="int" >       49 </v>
  <v type="int" >       42 </v>
  <v type="int" >       21 </v>
  <v type="int" >       30 </v>
  <v type="int" >       36 </v>
  <v type="int" >       24 </v>
  <v type="int" >       39 </v>
  <v type="int" >       54 </v>
  <v type="int" >       53 </v>
  <v type="int" >       61 </v>
  <v type="int" >       33 </v>
  <v type="int" >       28 </v>
  <v type="int" >       37 </v>
  <v type="int" >       43 </v>
  <v type="int" >       48 </v>
  <v type="int" >       47 </v>
  <v type="int" >       26 </v>
  <v type="int" >       27 </v>
  <v type="int" >       35 </v>
  <v type="int" >       31 </v>
  <v type="int" >       40 </v>
  <v type="int" >       44 </v>
  <v type="int" >        7 </v>
  <v type="int" >       63 </v>
  <v type="int" >       20 </v>
  <v type="int" >       19 </v>
  <v type="int" >       13 </v>
  <v type="int" >        3 </v>
  <v type="int" >       64 </v>
  <v type="int" >       60 </v>
  <v type="int" >       11 </v>
  <v type="int" >        5 </v>
  <v type="int" >       15 </v>
  <v type="int" >       55 </v>
  <v type="int" >       57 </v>
  <v type="int" >        6 </v>
  <v type="int" >        4 </v>
  <v type="int" >       51 </v>
  <v type="int" >       52 </v>
  <v type="int" >       46 </v>
  <v type="int" >       32 </v>
  <v type="int" >       41 </v>
  <v type="int" >       50 </v>
  <v type="int" >       62 </v>
 </varray>
 <kpoints>
  <generation param="Gamma">
   <v type="int" name="divisions">       3        3        3 </v>
   <v name="usershift">      0.00000000       0.00000000       0.00000000 </v>
   <v name="genvec1">      0.33333333      -0.00000000       0.00000000 </v>
   <v name="genvec2">     -0.00000000       0.33333333       0.00000000 </v>
   <v name="genvec3">      0.00000000       0.00000000       0.33333333 </v>
   <v name="shift">      0.00000000       0.00000000       0.00000000 </v>
  </generation>
  <varray name="kpointlist" >
   <v>       0.00000000       0.00000000       0.00000000 </v>
   <v>       0.33333333      -0.00000000       0.00000000 </v>
   <v>      -0.00000000       0.33333333      -0.00000000 </v>
   <v>       0.33333333       0.33333333      -0.00000000 </v>
   <v>      -0.33333333       0.33333333      -0.00000000 </v>
   <v>       0.00000000       0.00000000       0.33333333 </v>
   <v>       0.33333333       0.00000000       0.33333333 </v>
   <v>      -0.33333333       0.00000000       0.33333333 </v>
   <v>       0.00000000       0.33333333       0.33333333 </v>
   <v>       0.33333333       0.33333333       0.33333333 </v>
   <v>      -0.33333333       0.33333333       0.33333333 </v>
   <v>       0.00000000      -0.33333333       0.33333333 </v>
   <v>       0.33333333      -0.33333333       0.33333333 </v>
   <v>      -0.33333333      -0.33333333       0.33333333 </v>
  </varray>
  <varray name="weights" >
   <v>       0.03703704 </v>
   <v>       0.07407407 </v>
   <v>       0.07407407 </v>
   <v>       0.07407407 </v>
   <v>       0.07407407 </v>
   <v>       0.07407407 </v>
   <v>       0.07407407 </v>
   <v>       0.07407407 </v>
   <v>       0.07407407 </v>
   <v>       0.07407407 </v>
   <v>       0.07407407 </v>
   <v>       0.07407407 </v>
   <v>       0.07407407 </v>
   <v>       0.07407407 </v>
  </varray>
 </kpoints>
 <parameters>
  <separator name="general" >
   <i type="string" name="SYSTEM">HECN</i>
   <i type="logical" name="LCOMPAT"> F  </i>
  </separator>
  <separator name="electronic" >
   <i type="string" name="PREC">normal</i>
   <i name="ENMAX">    400.00000000</i>
   <i name="ENAUG">    644.87300000</i>
   <i name="EDIFF">      0.00001000</i>
   <i type="int" name="IALGO">    68</i>
   <i type="int" name="IWAVPR">    11</i>
   <i type="int" name="NBANDS">   336</i>
   <i name="NELECT">    525.00000000</i>
   <i type="int" name="TURBO">     0</i>
   <i type="int" name="IRESTART">     0</i>
   <i type="int" name="NREBOOT">     0</i>
   <i type="int" name="NMIN">     0</i>
   <i name="EREF">      0.00000000</i>
   <separator name="electronic smearing" >
    <i type="int" name="ISMEAR">     0</i>
    <i name="SIGMA">      0.10000000</i>
    <i name="KSPACING">      0.50000000</i>
    <i type="logical" name="KGAMMA"> T  </i>
   </separator>
   <separator name="electronic projectors" >
    <i type="logical" name="LREAL"> F  </i>
    <v name="ROPT">      0.00000000      0.00000000      0.00000000      0.00000000      0.00000000      0.00000000      0.00000000</v>
    <i type="int" name="LMAXPAW">  -100</i>
    <i type="int" name="LMAXMIX">     2</i>
    <i type="logical" name="NLSPLINE"> F  </i>
   </separator>
   <separator name="electronic startup" >
    <i type="int" name="ISTART">     0</i>
    <i type="int" name="ICHARG">     2</i>
    <i type="int" name="INIWAV">     1</i>
   </separator>
   <separator name="electronic spin" >
    <i type="int" name="ISPIN">     1</i>
    <i type="logical" name="LNONCOLLINEAR"> F  </i>
    <v name="MAGMOM">      1.00000000      1.00000000      1.00000000      1.00000000      1.00000000      1.00000000      1.00000000      1.00000000      1.00000000      1.00000000      1.00000000      1.00000000      1.00000000      1.00000000      1.00000000      1.00000000      1.00000000      1.00000000      1.00000000      1.00000000
      1.00000000      1.00000000      1.00000000      1.00000000      1.00000000      1.00000000      1.00000000      1.00000000      1.00000000      1.00000000      1.00000000      1.00000000      1.00000000      1.00000000      1.00000000      1.00000000      1.00000000      1.00000000      1.00000000      1.00000000
      1.00000000      1.00000000      1.00000000      1.00000000      1.00000000      1.00000000      1.00000000      1.00000000      1.00000000      1.00000000      1.00000000      1.00000000      1.00000000      1.00000000      1.00000000      1.00000000      1.00000000      1.00000000      1.00000000      1.00000000
      1.00000000      1.00000000      1.00000000      1.00000000</v>
    <i name="NUPDOWN">     -1.00000000</i>
    <i type="logical" name="LSORBIT"> F  </i>
    <v name="SAXIS">      0.00000000      0.00000000      1.00000000</v>
    <i type="logical" name="LSPIRAL"> F  </i>
    <v name="QSPIRAL">      0.00000000      0.00000000      0.00000000</v>
    <i type="logical" name="LZEROZ"> F  </i>
   </separator>
   <separator name="electronic exchange-correlation" >
    <i type="logical" name="LASPH"> F  </i>
    <i type="logical" name="LMETAGGA"> F  </i>
   </separator>
   <separator name="electronic convergence" >
    <i type="int" name="NELM">    60</i>
    <i type="int" name="NELMDL">    -5</i>
    <i type="int" name="NELMIN">     2</i>
    <i name="ENINI">    400.00000000</i>
    <separator name="electronic convergence detail" >
     <i type="logical" name="LDIAG"> T  </i>
     <i type="logical" name="LSUBROT"> F  </i>
     <i name="WEIMIN">      0.00100000</i>
     <i name="EBREAK">      0.00000001</i>
     <i name="DEPER">      0.30000000</i>
     <i type="int" name="NRMM">     4</i>
     <i name="TIME">      0.40000000</i>
    </separator>
   </separator>
   <separator name="electronic mixer" >
    <i name="AMIX">      0.40000000</i>
    <i name="BMIX">      1.00000000</i>
    <i name="AMIN">      0.10000000</i>
    <i name="AMIX_MAG">      1.60000000</i>
    <i name="BMIX_MAG">      1.00000000</i>
    <separator name="electronic mixer details" >
     <i type="int" name="IMIX">     4</i>
     <i type="logical" name="MIXFIRST"> F  </i>
     <i type="int" name="MAXMIX">   -45</i>
     <i name="WC">    100.00000000</i>
     <i type="int" name="INIMIX">     1</i>
     <i type="int" name="MIXPRE">     1</i>
     <i type="int" name="MREMOVE">     5</i>
    </separator>
   </separator>
   <separator name="electronic dipolcorrection" >
    <i type="logical" name="LDIPOL"> F  </i>
    <i type="logical" name="LMONO"> F  </i>
    <i type="int" name="IDIPOL">     0</i>
    <i name="EPSILON">      1.00000000</i>
    <v name="DIPOL">   -100.00000000   -100.00000000   -100.00000000</v>
    <i name="EFIELD">      0.00000000</i>
   </separator>
  </separator>
  <separator name="grids" >
   <i type="int" name="NGX">    48</i>
   <i type="int" name="NGY">    48</i>
   <i type="int" name="NGZ">    48</i>
   <i type="int" name="NGXF">    96</i>
   <i type="int" name="NGYF">    96</i>
   <i type="int" name="NGZF">    96</i>
   <i type="logical" name="ADDGRID"> F  </i>
  </separator>
  <separator name="ionic" >
   <i type="int" name="NSW">   100</i>
   <i type="int" name="IBRION">     2</i>
   <i type="int" name="MDALGO">     0</i>
   <i type="int" name="ISIF">     3</i>
   <i name="PSTRESS">      0.00000000</i>
   <i name="EDIFFG">     -0.01000000</i>
   <i type="int" name="NFREE">     1</i>
   <i name="POTIM">      0.50000000</i>
   <i name="SMASS">     -3.00000000</i>
   <i name="SCALEE">      1.00000000</i>
  </separator>
  <separator name="ionic md" >
   <i name="TEBEG">      0.00010000</i>
   <i name="TEEND">      0.00010000</i>
   <i type="int" name="NBLOCK">     1</i>
   <i type="int" name="KBLOCK">   100</i>
   <i type="int" name="NPACO">   256</i>
   <i name="APACO">     16.00000000</i>
  </separator>
  <separator name="symmetry" >
   <i type="int" name="ISYM">     2</i>
   <i name="SYMPREC">      0.00001000</i>
  </separator>
  <separator name="dos" >
   <i type="int" name="LORBIT">     0</i>
   <v name="RWIGS">     -1.00000000     -1.00000000     -1.00000000     -1.00000000     -1.00000000     -1.00000000     -1.00000000</v>
   <i type="int" name="NEDOS">   301</i>
   <i name="EMIN">     10.00000000</i>
   <i name="EMAX">    -10.00000000</i>
   <i name="EFERMI">      0.00000000</i>
  </separator>
  <separator name="writing" >
   <i type="int" name="NWRITE">     2</i>
   <i type="logical" name="LWAVE"> F  </i>
   <i type="logical" name="LDOWNSAMPLE"> F  </i>
   <i type="logical" name="LCHARG"> F  </i>
   <i type="logical" name="LPARD"> F  </i>
   <i type="logical" name="LVTOT"> F  </i>
   <i type="logical" name="LVHAR"> F  </i>
   <i type="logical" name="LELF"> F  </i>
   <i type="logical" name="LOPTICS"> F  </i>
   <v name="STM">      0.00000000      0.00000000      0.00000000      0.00000000      0.00000000      0.00000000      0.00000000</v>
  </separator>
  <separator name="performance" >
   <i type="int" name="NPAR">    24</i>
   <i type="int" name="NSIM">     4</i>
   <i type="int" name="NBLK">    -1</i>
   <i type="logical" name="LPLANE"> T  </i>
   <i type="logical" name="LSCALAPACK"> T  </i>
   <i type="logical" name="LSCAAWARE"> F  </i>
   <i type="logical" name="LSCALU"> F  </i>
   <i type="logical" name="LASYNC"> F  </i>
   <i type="logical" name="LORBITALREAL"> F  </i>
  </separator>
  <separator name="miscellaneous" >
   <i type="int" name="IDIOT">     3</i>
   <i type="int" name="ISPECIAL">     0</i>
   <i type="logical" name="LMUSIC"> F  </i>
   <v name="POMASS">     91.22400000    180.94800000     47.88000000     14.00100000     12.01100000     51.99600000     92.91000000</v>
   <v name="DARWINR">      0.00000000      0.00000000      0.00000000      0.00000000      0.00000000      0.00000000      0.00000000</v>
   <v name="DARWINV">      1.00000000      1.00000000      1.00000000      1.00000000      1.00000000      1.00000000      1.00000000</v>
   <i type="logical" name="LCORR"> T  </i>
  </separator>
  <i type="logical" name="GGA_COMPAT"> T  </i>
  <i type="logical" name="LBERRY"> F  </i>
  <i type="int" name="ICORELEVEL">     0</i>
  <i type="logical" name="LDAU"> F  </i>
  <i type="int" name="I_CONSTRAINED_M">     0</i>
  <separator name="electronic exchange-correlation" >
   <i type="string" name="GGA">--</i>
   <i type="int" name="VOSKOWN">     0</i>
   <i type="logical" name="LHFCALC"> F  </i>
   <i type="string" name="PRECFOCK"></i>
   <i type="logical" name="LSYMGRAD"> F  </i>
   <i type="logical" name="LHFONE"> F  </i>
   <i type="logical" name="LRHFCALC"> F  </i>
   <i type="logical" name="LTHOMAS"> F  </i>
   <i type="logical" name="LMODELHF"> F  </i>
   <i name="ENCUT4O">     -1.00000000</i>
   <i type="int" name="EXXOEP">     0</i>
   <i type="int" name="FOURORBIT">     0</i>
   <i name="AEXX">      0.00000000</i>
   <i name="HFALPHA">      0.00000000</i>
   <i name="MCALPHA">      0.00000000</i>
   <i name="ALDAX">      1.00000000</i>
   <i name="AGGAX">      1.00000000</i>
   <i name="ALDAC">      1.00000000</i>
   <i name="AGGAC">      1.00000000</i>
   <i type="int" name="NKREDX">     1</i>
   <i type="int" name="NKREDY">     1</i>
   <i type="int" name="NKREDZ">     1</i>
   <i type="logical" name="SHIFTRED"> F  </i>
   <i type="logical" name="ODDONLY"> F  </i>
   <i type="logical" name="EVENONLY"> F  </i>
   <i type="int" name="LMAXFOCK">     0</i>
   <i type="int" name="NMAXFOCKAE">     0</i>
   <i type="logical" name="LFOCKAEDFT"> F  </i>
   <i name="HFSCREEN">      0.00000000</i>
   <i name="HFSCREENC">      0.00000000</i>
   <i type="int" name="NBANDSGWLOW">     0</i>
  </separator>
  <separator name="vdW DFT" >
   <i type="logical" name="LUSE_VDW"> F  </i>
   <i name="Zab_VDW">     -0.84910000</i>
   <i name="PARAM1">      0.12340000</i>
   <i name="PARAM2">      1.00000000</i>
   <i name="PARAM3">      0.00000000</i>
  </separator>
  <separator name="model GW" >
   <i type="int" name="MODEL_GW">     0</i>
   <i name="MODEL_EPS0">      6.48122894</i>
   <i name="MODEL_ALPHA">      1.00000000</i>
  </separator>
  <separator name="linear response parameters" >
   <i type="logical" name="LEPSILON"> F  </i>
   <i type="logical" name="LRPA"> F  </i>
   <i type="logical" name="LNABLA"> F  </i>
   <i type="logical" name="LVEL"> F  </i>
   <i type="int" name="KINTER">     0</i>
   <i name="CSHIFT">      0.10000000</i>
   <i name="OMEGAMAX">     -1.00000000</i>
   <i name="DEG_THRESHOLD">      0.00200000</i>
   <i name="RTIME">     -0.10000000</i>
   <i name="WPLASMAI">      0.00000000</i>
   <v name="DFIELD">      0.00000000      0.00000000      0.00000000</v>
   <v name="WPLASMA">      0.00000000      0.00000000      0.00000000      0.00000000      0.00000000      0.00000000      0.00000000      0.00000000      0.00000000</v>
  </separator>
  <separator name="orbital magnetization" >
   <i type="logical" name="NUCIND"> F  </i>
   <v name="MAGPOS">      0.00000000      0.00000000      0.00000000</v>
   <i type="logical" name="LNICSALL"> T  </i>
   <i type="logical" name="ORBITALMAG"> F  </i>
   <i type="logical" name="LMAGBLOCH"> F  </i>
   <i type="logical" name="LCHIMAG"> F  </i>
   <i type="logical" name="LGAUGE"> T  </i>
   <i type="int" name="MAGATOM">     0</i>
   <v name="MAGDIPOL">      0.00000000      0.00000000      0.00000000</v>
   <v name="AVECCONST">      0.00000000      0.00000000      0.00000000</v>
  </separator>
  <separator name="response functions" >
   <i type="logical" name="LADDER"> F  </i>
   <i type="logical" name="LRPAFORCE"> F  </i>
   <i type="logical" name="LFXC"> F  </i>
   <i type="logical" name="LHARTREE"> T  </i>
   <i type="int" name="IBSE">     0</i>
   <v type="int" name="KPOINT">    -1     0     0     0</v>
   <i type="logical" name="LTCTE"> F  </i>
   <i type="logical" name="LTETE"> F  </i>
   <i type="logical" name="LTRIPLET"> F  </i>
   <i type="logical" name="LFXCEPS"> F  </i>
   <i type="logical" name="LFXHEG"> F  </i>
   <i type="int" name="NATURALO">     2</i>
   <i type="logical" name="L2ORDER"> F  </i>
   <i type="logical" name="LMP2LT"> F  </i>
   <i type="logical" name="LUSEW"> F  </i>
   <i name="ENCUTGW">     -2.00000000</i>
   <i name="ENCUTGWSOFT">     -2.00000000</i>
   <i name="ENCUTLF">     -1.00000000</i>
   <i type="int" name="LMAXMP2">    -1</i>
   <i name="SCISSOR">      0.00000000</i>
   <i type="int" name="NOMEGA">     0</i>
   <i type="int" name="NOMEGAR">     0</i>
   <i type="int" name="NBANDSGW">    -1</i>
   <i type="int" name="NBANDSO">    -1</i>
   <i type="int" name="NBANDSV">    -1</i>
   <i type="int" name="NELM">    60</i>
   <i type="int" name="NELMHF">     1</i>
   <i type="int" name="DIM">     3</i>
   <i type="int" name="ANTIRES">     0</i>
   <i name="OMEGAMAX">    -30.00000000</i>
   <i name="OMEGAMIN">    -30.00000000</i>
   <i name="OMEGATL">   -200.00000000</i>
   <i type="int" name="OMEGAGRID">   140</i>
   <i name="CSHIFT">     -0.10000000</i>
   <i type="logical" name="SELFENERGY"> F  </i>
   <i type="logical" name="LSPECTRAL"> F  </i>
   <i type="logical" name="LSPECTRALGW"> F  </i>
   <i type="logical" name="LSINGLES"> F  </i>
   <i type="logical" name="LFERMIGW"> F  </i>
   <i type="logical" name="ODDONLYGW"> F  </i>
   <i type="logical" name="EVENONLYGW"> F  </i>
   <i type="int" name="NKREDLFX">     1</i>
   <i type="int" name="NKREDLFY">     1</i>
   <i type="int" name="NKREDLFZ">     1</i>
   <i type="int" name="MAXMEM">  2800</i>
   <i type="int" name="TELESCOPE">     0</i>
   <i type="int" name="TAUPAR">     1</i>
   <i type="int" name="OMEGAPAR">    -1</i>
   <i name="LAMBDA">      1.00000000</i>
  </separator>
  <separator name="External order field" >
   <i name="OFIELD_KAPPA">      0.00000000</i>
   <v name="OFIELD_K">      0.00000000      0.00000000      0.00000000</v>
   <i name="OFIELD_Q6_NEAR">      0.00000000</i>
   <i name="OFIELD_Q6_FAR">      0.00000000</i>
   <i name="OFIELD_A">      0.00000000</i>
  </separator>
 </parameters>
 <atominfo>
  <atoms>      64 </atoms>
  <types>       7 </types>
  <array name="atoms" >
   <dimension dim="1">ion</dimension>
   <field type="string">element</field>
   <field type="int">atomtype</field>
   <set>
    <rc><c>Zr</c><c>   1</c></rc>
    <rc><c>Zr</c><c>   1</c></rc>
    <rc><c>Zr</c><c>   1</c></rc>
    <rc><c>Zr</c><c>   1</c></rc>
    <rc><c>Zr</c><c>   1</c></rc>
    <rc><c>Zr</c><c>   1</c></rc>
    <rc><c>Zr</c><c>   1</c></rc>
    <rc><c>Ta</c><c>   2</c></rc>
    <rc><c>Ta</c><c>   2</c></rc>
    <rc><c>Ta</c><c>   2</c></rc>
    <rc><c>Ta</c><c>   2</c></rc>
    <rc><c>Ta</c><c>   2</c></rc>
    <rc><c>Ta</c><c>   2</c></rc>
    <rc><c>Ti</c><c>   3</c></rc>
    <rc><c>Ti</c><c>   3</c></rc>
    <rc><c>Ti</c><c>   3</c></rc>
    <rc><c>Ti</c><c>   3</c></rc>
    <rc><c>Ti</c><c>   3</c></rc>
    <rc><c>Ti</c><c>   3</c></rc>
    <rc><c>Ti</c><c>   3</c></rc>
    <rc><c>N </c><c>   4</c></rc>
    <rc><c>N </c><c>   4</c></rc>
    <rc><c>N </c><c>   4</c></rc>
    <rc><c>N </c><c>   4</c></rc>
    <rc><c>N </c><c>   4</c></rc>
    <rc><c>N </c><c>   4</c></rc>
    <rc><c>N </c><c>   4</c></rc>
    <rc><c>N </c><c>   4</c></rc>
    <rc><c>N </c><c>   4</c></rc>
    <rc><c>N </c><c>   4</c></rc>
    <rc><c>N </c><c>   4</c></rc>
    <rc><c>N </c><c>   4</c></rc>
    <rc><c>N </c><c>   4</c></rc>
    <rc><c>C </c><c>   5</c></rc>
    <rc><c>C </c><c>   5</c></rc>
    <rc><c>C </c><c>   5</c></rc>
    <rc><c>C </c><c>   5</c></rc>
    <rc><c>C </c><c>   5</c></rc>
    <rc><c>C </c><c>   5</c></rc>
    <rc><c>C </c><c>   5</c></rc>
    <rc><c>C </c><c>   5</c></rc>
    <rc><c>C </c><c>   5</c></rc>
    <rc><c>C </c><c>   5</c></rc>
    <rc><c>C </c><c>   5</c></rc>
    <rc><c>C </c><c>   5</c></rc>
    <rc><c>C </c><c>   5</c></rc>
    <rc><c>C </c><c>   5</c></rc>
    <rc><c>C </c><c>   5</c></rc>
    <rc><c>C </c><c>   5</c></rc>
    <rc><c>C </c><c>   5</c></rc>
    <rc><c>C </c><c>   5</c></rc>
    <rc><c>C </c><c>   5</c></rc>
    <rc><c>Cr</c><c>   6</c></rc>
    <rc><c>Cr</c><c>   6</c></rc>
    <rc><c>Cr</c><c>   6</c></rc>
    <rc><c>Cr</c><c>   6</c></rc>
    <rc><c>Cr</c><c>   6</c></rc>
    <rc><c>Cr</c><c>   6</c></rc>
    <rc><c>Nb</c><c>   7</c></rc>
    <rc><c>Nb</c><c>   7</c></rc>
    <rc><c>Nb</c><c>   7</c></rc>
    <rc><c>Nb</c><c>   7</c></rc>
    <rc><c>Nb</c><c>   7</c></rc>
    <rc><c>Nb</c><c>   7</c></rc>
   </set>
  </array>
  <array name="atomtypes" >
   <dimension dim="1">type</dimension>
   <field type="int">atomspertype</field>
   <field type="string">element</field>
   <field>mass</field>
   <field>valence</field>
   <field type="string">pseudopotential</field>
   <set>
    <rc><c>   7</c><c>Zr</c><c>     91.22400000</c><c>     12.00000000</c><c> PAW_PBE Zr_sv 07Sep2000                </c></rc>
    <rc><c>   6</c><c>Ta</c><c>    180.94800000</c><c>     11.00000000</c><c> PAW_PBE Ta_pv 07Sep2000                </c></rc>
    <rc><c>   7</c><c>Ti</c><c>     47.88000000</c><c>     12.00000000</c><c> PAW_PBE Ti_sv 07Sep2000                </c></rc>
    <rc><c>  13</c><c>N </c><c>     14.00100000</c><c>      5.00000000</c><c> PAW_PBE N 08Apr2002                    </c></rc>
    <rc><c>  19</c><c>C </c><c>     12.01100000</c><c>      4.00000000</c><c> PAW_PBE C 08Apr2002                    </c></rc>
    <rc><c>   6</c><c>Cr</c><c>     51.99600000</c><c>     12.00000000</c><c> PAW_PBE Cr_pv 07Sep2000                </c></rc>
    <rc><c>   6</c><c>Nb</c><c>     92.91000000</c><c>     13.00000000</c><c> PAW_PBE Nb_sv 17Jan2003                </c></rc>
   </set>
  </array>
 </atominfo>
 <structure name="initialpos" >
  <crystal>
   <varray name="basis" >
    <v>       8.82763247       0.02097109      -0.00226351 </v>
    <v>       0.02713311       8.84951303      -0.01694536 </v>
    <v>       0.02953245      -0.03219948       8.84969478 </v>
   </varray>
   <i name="volume">    691.33108669 </i>
   <varray name="rec_basis" >
    <v>       0.11328139      -0.00034805      -0.00037930 </v>
    <v>      -0.00026834       0.11300218       0.00041205 </v>
    <v>       0.00002846       0.00021629       0.11299894 </v>
   </varray>
  </crystal>
  <varray name="positions" >
   <v>       0.00502213       0.99593440       0.99776009 </v>
   <v>       0.27224774       0.99920568       0.25147152 </v>
   <v>       0.24493116       0.49564686       0.24696933 </v>
   <v>       0.49750968       0.49840557       0.00063598 </v>
   <v>       0.50328593       0.24309552       0.74370920 </v>
   <v>       0.99920838       0.50175016       0.50511637 </v>
   <v>       0.49433988       0.75972110       0.75203394 </v>
   <v>       0.99661951       0.23807988       0.25100338 </v>
   <v>       0.74943158       0.74804346       0.00700681 </v>
   <v>       0.00111888       0.24652097       0.74947073 </v>
   <v>       0.75093936       0.24609560       0.49692908 </v>
   <v>       0.00049942       0.75338592       0.75073272 </v>
   <v>       0.24784951       0.49478954       0.75193436 </v>
   <v>       0.25947938       0.23882683       0.99191856 </v>
   <v>       0.50664734       0.25950312       0.25171076 </v>
   <v>       0.73243918       0.99313001       0.24898749 </v>
   <v>       0.74282654       0.24643212       0.00026359 </v>
   <v>       0.24921210       0.74980873       0.99984131 </v>
   <v>       0.25185751       0.24652319       0.50556249 </v>
   <v>       0.25144949       0.75386790       0.50184871 </v>
   <v>       0.24879955       0.24617621       0.24614710 </v>
   <v>       0.26153627       0.00098053       0.99366967 </v>
   <v>       0.00126732       0.25225981       0.00035756 </v>
   <v>       0.74911823       0.24417580       0.24746446 </v>
   <v>       0.74363723       0.00071697       0.00562061 </v>
   <v>       0.51254150       0.00573191       0.24889867 </v>
   <v>       0.99394939       0.49249207       0.24279085 </v>
   <v>       0.50022125       0.76155099       0.00843766 </v>
   <v>       0.98627617       0.00331653       0.74542154 </v>
   <v>       0.75597374       0.24441083       0.74905292 </v>
   <v>       0.74566540       0.00786871       0.49046698 </v>
   <v>       0.50075028       0.24419021       0.49030448 </v>
   <v>       0.52466164       0.00108005       0.74805911 </v>
   <v>       0.99807151       0.00006842       0.25182290 </v>
   <v>       0.50179204       0.23953238       0.00374874 </v>
   <v>       0.25634399       0.74853021       0.24850039 </v>
   <v>       0.23853020       0.49966491       0.99477459 </v>
   <v>       0.00239719       0.74294193       0.00045858 </v>
   <v>       0.74353386       0.75321838       0.24986342 </v>
   <v>       0.76042922       0.49752220       0.00138377 </v>
   <v>       0.50166777       0.49745557       0.25345648 </v>
   <v>       0.24716628       0.24501647       0.74939105 </v>
   <v>       0.25915771       0.00047977       0.51221475 </v>
   <v>       0.00205256       0.24748043       0.49960868 </v>
   <v>       0.24158132       0.75748636       0.75187626 </v>
   <v>       0.25389755       0.49935844       0.50262162 </v>
   <v>       0.00071517       0.75538004       0.50156932 </v>
   <v>       0.99927165       0.50084156       0.75931624 </v>
   <v>       0.75143118       0.75828184       0.75465860 </v>
   <v>       0.74530051       0.49890459       0.49938335 </v>
   <v>       0.49430999       0.76238530       0.48946029 </v>
   <v>       0.49875064       0.50132441       0.74538139 </v>
   <v>       0.51752088       0.01392753       0.97598749 </v>
   <v>       0.00200473       0.51984863       0.98380483 </v>
   <v>       0.49565077       0.72793870       0.25632166 </v>
   <v>       0.22530598       0.01302176       0.73402114 </v>
   <v>       0.48676225       0.98632906       0.52193820 </v>
   <v>       0.73670978       0.97512797       0.78853481 </v>
   <v>       0.00670826       0.75910165       0.25242853 </v>
   <v>       0.74857592       0.50474514       0.25030465 </v>
   <v>       0.01032720       0.00136682       0.50063602 </v>
   <v>       0.49747305       0.51329372       0.49803943 </v>
   <v>       0.74969729       0.51059699       0.75382231 </v>
   <v>       0.74555128       0.75511140       0.49307263 </v>
  </varray>
 </structure>
 <calculation>
  <scstep>
   <time name="dav">   22.35   22.53</time>
   <time name="total">   22.41   22.66</time>
   <energy>
    <i name="alphaZ">   4399.81710422 </i>
    <i name="ewald"> -44896.68545139 </i>
    <i name="hartreedc">  -8914.50853046 </i>
    <i name="XCdc">   2137.25776108 </i>
    <i name="pawpsdc">  32672.10709094 </i>
    <i name="pawaedc"> -32522.68187297 </i>
    <i name="eentropy">     -0.08723470 </i>
    <i name="bandstr">   2399.36767698 </i>
    <i name="atom">  51820.80468327 </i>
    <i name="e_fr_energy">   7095.39122697 </i>
    <i name="e_wo_entrp">   7095.47846167 </i>
    <i name="e_0_energy">   7095.43484432 </i>
   </energy>
  </scstep>
  <scstep>
   <time name="dav">   23.06   23.09</time>
   <time name="total">   23.06   23.09</time>
   <energy>
    <i name="e_fr_energy">    483.29809576 </i>
    <i name="e_wo_entrp">    483.42282521 </i>
    <i name="e_0_energy">    483.36046049 </i>
   </energy>
  </scstep>
  <scstep>
   <time name="dav">   33.03   33.06</time>
   <time name="total">   33.03   33.06</time>
   <energy>
    <i name="e_fr_energy">   -631.47254632 </i>
    <i name="e_wo_entrp">   -631.37653952 </i>
    <i name="e_0_energy">   -631.42454292 </i>
   </energy>
  </scstep>
  <scstep>
   <time name="dav">   36.44   36.47</time>
   <time name="total">   36.44   36.47</time>
   <energy>
    <i name="e_fr_energy">   -769.50041912 </i>
    <i name="e_wo_entrp">   -769.40616255 </i>
    <i name="e_0_energy">   -769.45329084 </i>
   </energy>
  </scstep>
  <scstep>
   <time name="dav">   40.45   40.53</time>
   <time name="total">   40.72   40.80</time>
   <energy>
    <i name="e_fr_energy">   -787.66239326 </i>
    <i name="e_wo_entrp">   -787.56395738 </i>
    <i name="e_0_energy">   -787.61317532 </i>
   </energy>
  </scstep>
  <scstep>
   <time name="diag">    1.99    1.99</time>
   <time name="diis">   20.19   20.20</time>
   <time name="orth">    0.49    0.49</time>
   <time name="total">   22.97   22.98</time>
   <energy>
    <i name="e_fr_energy">   -899.04805077 </i>
    <i name="e_wo_entrp">   -898.84952137 </i>
    <i name="e_0_energy">   -898.94878607 </i>
   </energy>
  </scstep>
  <scstep>
   <time name="diag">    2.04    2.05</time>
   <time name="diis">   23.03   23.11</time>
   <time name="orth">    0.49    0.49</time>
   <time name="total">   25.86   25.96</time>
   <energy>
    <i name="e_fr_energy">   -652.81855478 </i>
    <i name="e_wo_entrp">   -652.66415645 </i>
    <i name="e_0_energy">   -652.74135562 </i>
   </energy>
  </scstep>
  <scstep>
   <time name="diag">    2.01    2.01</time>
   <time name="diis">   23.31   23.33</time>
   <time name="orth">    0.49    0.49</time>
   <time name="total">   26.10   26.13</time>
   <energy>
    <i name="e_fr_energy">   -643.31871950 </i>
    <i name="e_wo_entrp">   -643.18876149 </i>
    <i name="e_0_energy">   -643.25374050 </i>
   </energy>
  </scstep>
  <scstep>
   <time name="diag">    2.02    2.02</time>
   <time name="diis">   23.69   23.77</time>
   <time name="orth">    0.50    0.50</time>
   <time name="total">   26.51   26.58</time>
   <energy>
    <i name="e_fr_energy">   -641.11382330 </i>
    <i name="e_wo_entrp">   -640.98504075 </i>
    <i name="e_0_energy">   -641.04943203 </i>
   </energy>
  </scstep>
  <scstep>
   <time name="diag">    2.02    2.02</time>
   <time name="diis">   24.32   24.36</time>
   <time name="orth">    0.49    0.49</time>
   <time name="total">   27.12   27.17</time>
   <energy>
    <i name="e_fr_energy">   -639.04630634 </i>
    <i name="e_wo_entrp">   -638.91174298 </i>
    <i name="e_0_energy">   -638.97902466 </i>
   </energy>
  </scstep>
  <scstep>
   <time name="diag">    2.00    2.00</time>
   <time name="diis">   21.89   21.92</time>
   <time name="orth">    0.49    0.49</time>
   <time name="total">   24.68   24.71</time>
   <energy>
    <i name="e_fr_energy">   -639.14022786 </i>
    <i name="e_wo_entrp">   -639.00180720 </i>
    <i name="e_0_energy">   -639.07101753 </i>
   </energy>
  </scstep>
  <scstep>
   <time name="diag">    2.07    2.08</time>
   <time name="diis">   22.31   22.39</time>
   <time name="orth">    0.49    0.49</time>
   <time name="total">   25.18   25.27</time>
   <energy>
    <i name="e_fr_energy">   -638.63648547 </i>
    <i name="e_wo_entrp">   -638.50977885 </i>
    <i name="e_0_energy">   -638.57313216 </i>
   </energy>
  </scstep>
  <scstep>
   <time name="diag">    2.00    2.00</time>
   <time name="diis">   23.80   23.83</time>
   <time name="orth">    0.49    0.49</time>
   <time name="total">   26.59   26.62</time>
   <energy>
    <i name="e_fr_energy">   -638.67431813 </i>
    <i name="e_wo_entrp">   -638.52648964 </i>
    <i name="e_0_energy">   -638.60040388 </i>
   </energy>
  </scstep>
  <scstep>
   <time name="diag">    2.03    2.04</time>
   <time name="diis">   23.02   23.07</time>
   <time name="orth">    0.49    0.49</time>
   <time name="total">   25.84   25.90</time>
   <energy>
    <i name="e_fr_energy">   -638.84179755 </i>
    <i name="e_wo_entrp">   -638.68306867 </i>
    <i name="e_0_energy">   -638.76243311 </i>
   </energy>
  </scstep>
  <scstep>
   <time name="diag">    2.03    2.04</time>
   <time name="diis">   22.53   22.54</time>
   <time name="orth">    0.48    0.48</time>
   <time name="total">   25.34   25.37</time>
   <energy>
    <i name="e_fr_energy">   -638.40594578 </i>
    <i name="e_wo_entrp">   -638.27755839 </i>
    <i name="e_0_energy">   -638.34175209 </i>
   </energy>
  </scstep>
  <scstep>
   <time name="diag">    2.00    2.00</time>
   <time name="diis">   23.04   23.07</time>
   <time name="orth">    0.49    0.49</time>
   <time name="total">   25.82   25.89</time>
   <energy>
    <i name="e_fr_energy">   -638.47425106 </i>
    <i name="e_wo_entrp">   -638.33308831 </i>
    <i name="e_0_energy">   -638.40366968 </i>
   </energy>
  </scstep>
  <scstep>
   <time name="diag">    2.03    2.03</time>
   <time name="diis">   23.74   23.76</time>
   <time name="orth">    0.49    0.49</time>
   <time name="total">   26.55   26.57</time>
   <energy>
    <i name="e_fr_energy">   -638.44028167 </i>
    <i name="e_wo_entrp">   -638.30534667 </i>
    <i name="e_0_energy">   -638.37281417 </i>
   </energy>
  </scstep>
  <scstep>
   <time name="diag">    2.00    2.00</time>
   <time name="diis">   23.20   23.25</time>
   <time name="orth">    0.48    0.48</time>
   <time name="total">   25.97   26.03</time>
   <energy>
    <i name="e_fr_energy">   -638.44560619 </i>
    <i name="e_wo_entrp">   -638.30894827 </i>
    <i name="e_0_energy">   -638.37727723 </i>
   </energy>
  </scstep>
  <scstep>
   <time name="diag">    2.00    2.01</time>
   <time name="diis">   24.09   24.24</time>
   <time name="orth">    0.49    0.49</time>
   <time name="total">   26.88   27.03</time>
   <energy>
    <i name="e_fr_energy">   -638.45761872 </i>
    <i name="e_wo_entrp">   -638.32040056 </i>
    <i name="e_0_energy">   -638.38900964 </i>
   </energy>
  </scstep>
  <scstep>
   <time name="diag">    2.00    2.00</time>
   <time name="diis">   23.50   23.53</time>
   <time name="orth">    0.49    0.49</time>
   <time name="total">   26.28   26.32</time>
   <energy>
    <i name="e_fr_energy">   -638.43593164 </i>
    <i name="e_wo_entrp">   -638.30041845 </i>
    <i name="e_0_energy">   -638.36817505 </i>
   </energy>
  </scstep>
  <scstep>
   <time name="diag">    2.00    2.00</time>
   <time name="diis">   22.76   22.84</time>
   <time name="orth">    0.49    0.49</time>
   <time name="total">   25.54   25.62</time>
   <energy>
    <i name="e_fr_energy">   -638.43692683 </i>
    <i name="e_wo_entrp">   -638.30056052 </i>
    <i name="e_0_energy">   -638.36874368 </i>
   </energy>
  </scstep>
  <scstep>
   <time name="diag">    2.00    2.01</time>
   <time name="diis">   23.56   23.58</time>
   <time name="orth">    0.49    0.49</time>
   <time name="total">   26.34   26.37</time>
   <energy>
    <i name="e_fr_energy">   -638.44038407 </i>
    <i name="e_wo_entrp">   -638.30341296 </i>
    <i name="e_0_energy">   -638.37189851 </i>
   </energy>
  </scstep>
  <scstep>
   <time name="diag">    2.00    2.00</time>
   <time name="diis">   24.47   24.62</time>
   <time name="orth">    0.49    0.49</time>
   <time name="total">   27.25   27.41</time>
   <energy>
    <i name="e_fr_energy">   -638.44197778 </i>
    <i name="e_wo_entrp">   -638.30499136 </i>
    <i name="e_0_energy">   -638.37348457 </i>
   </energy>
  </scstep>
  <scstep>
   <time name="diag">    2.00    2.00</time>
   <time name="diis">   23.75   23.82</time>
   <time name="orth">    0.49    0.49</time>
   <time name="total">   26.53   26.60</time>
   <energy>
    <i name="e_fr_energy">   -638.44335348 </i>
    <i name="e_wo_entrp">   -638.30641979 </i>
    <i name="e_0_energy">   -638.37488664 </i>
   </energy>
  </scstep>
  <scstep>
   <time name="diag">    1.99    1.99</time>
   <time name="diis">   23.35   23.43</time>
   <time name="orth">    0.49    0.49</time>
   <time name="total">   26.13   26.21</time>
   <energy>
    <i name="e_fr_energy">   -638.44414028 </i>
    <i name="e_wo_entrp">   -638.30727988 </i>
    <i name="e_0_energy">   -638.37571008 </i>
   </energy>
  </scstep>
  <scstep>
   <time name="diag">    2.01    2.01</time>
   <time name="diis">   21.54   21.56</time>
   <time name="orth">    0.49    0.49</time>
   <time name="total">   24.33   24.35</time>
   <energy>
    <i name="e_fr_energy">   -638.44468889 </i>
    <i name="e_wo_entrp">   -638.30782478 </i>
    <i name="e_0_energy">   -638.37625684 </i>
   </energy>
  </scstep>
  <scstep>
   <time name="diag">    1.99    2.00</time>
   <time name="diis">   20.69   20.72</time>
   <time name="orth">    0.49    0.49</time>
   <time name="total">   23.47   23.50</time>
   <energy>
    <i name="e_fr_energy">   -638.44506647 </i>
    <i name="e_wo_entrp">   -638.30820537 </i>
    <i name="e_0_energy">   -638.37663592 </i>
   </energy>
  </scstep>
  <scstep>
   <time name="diag">    2.00    2.00</time>
   <time name="diis">   19.89   19.99</time>
   <time name="orth">    0.49    0.49</time>
   <time name="total">   22.67   22.77</time>
   <energy>
    <i name="e_fr_energy">   -638.44531425 </i>
    <i name="e_wo_entrp">   -638.30844025 </i>
    <i name="e_0_energy">   -638.37687725 </i>
   </energy>
  </scstep>
  <scstep>
   <time name="diag">    2.02    2.02</time>
   <time name="diis">   19.12   19.69</time>
   <time name="orth">    0.49    0.49</time>
   <time name="total">   21.92   22.50</time>
   <energy>
    <i name="e_fr_energy">   -638.44548403 </i>
    <i name="e_wo_entrp">   -638.30862533 </i>
    <i name="e_0_energy">   -638.37705468 </i>
   </energy>
  </scstep>
  <scstep>
   <time name="diag">    2.00    2.01</time>
   <time name="diis">   19.20   19.27</time>
   <time name="orth">    0.49    0.49</time>
   <time name="total">   21.99   22.05</time>
   <energy>
    <i name="e_fr_energy">   -638.44559975 </i>
    <i name="e_wo_entrp">   -638.30873872 </i>
    <i name="e_0_energy">   -638.37716924 </i>
   </energy>
  </scstep>
  <scstep>
   <time name="diag">    2.00    2.00</time>
   <time name="diis">   19.03   19.08</time>
   <time name="orth">    0.49    0.49</time>
   <time name="total">   21.81   21.86</time>
   <energy>
    <i name="e_fr_energy">   -638.44567937 </i>
    <i name="e_wo_entrp">   -638.30883522 </i>
    <i name="e_0_energy">   -638.37725729 </i>
   </energy>
  </scstep>
  <scstep>
   <time name="diag">    2.00    2.00</time>
   <time name="diis">   19.32   19.33</time>
   <time name="orth">    0.49    0.49</time>
   <time name="total">   22.10   22.11</time>
   <energy>
    <i name="e_fr_energy">   -638.44573351 </i>
    <i name="e_wo_entrp">   -638.30888703 </i>
    <i name="e_0_energy">   -638.37731027 </i>
   </energy>
  </scstep>
  <scstep>
   <time name="diag">    2.00    2.00</time>
   <time name="diis">   18.50   18.61</time>
   <time name="orth">    0.49    0.49</time>
   <time name="total">   21.28   21.39</time>
   <energy>
    <i name="e_fr_energy">   -638.44577191 </i>
    <i name="e_wo_entrp">   -638.30893093 </i>
    <i name="e_0_energy">   -638.37735142 </i>
   </energy>
  </scstep>
  <scstep>
   <time name="diag">    1.99    1.99</time>
   <time name="diis">   18.18   18.20</time>
   <time name="orth">    0.49    0.49</time>
   <time name="total">   20.96   20.98</time>
   <energy>
    <i name="e_fr_energy">   -638.44579841 </i>
    <i name="e_wo_entrp">   -638.30895707 </i>
    <i name="e_0_energy">   -638.37737774 </i>
   </energy>
  </scstep>
  <scstep>
   <time name="diag">    2.00    2.00</time>
   <time name="diis">   17.45   17.51</time>
   <time name="orth">    0.49    0.49</time>
   <time name="total">   20.23   20.29</time>
   <energy>
    <i name="e_fr_energy">   -638.44581667 </i>
    <i name="e_wo_entrp">   -638.30897771 </i>
    <i name="e_0_energy">   -638.37739719 </i>
   </energy>
  </scstep>
  <scstep>
   <time name="diag">    2.00    2.02</time>
   <time name="diis">   16.93   16.95</time>
   <time name="orth">    0.49    0.49</time>
   <time name="total">   19.72   19.76</time>
   <energy>
    <i name="e_fr_energy">   -638.44582902 </i>
    <i name="e_wo_entrp">   -638.30898944 </i>
    <i name="e_0_energy">   -638.37740923 </i>
   </energy>
  </scstep>
  <scstep>
   <time name="diag">    2.01    2.02</time>
   <time name="diis">   16.69   16.70</time>
   <time name="orth">    0.49    0.49</time>
   <time name="total">   19.49   19.50</time>
   <energy>
    <i name="e_fr_energy">   -638.44583785 </i>
    <i name="e_wo_entrp">   -638.30899912 </i>
    <i name="e_0_energy">   -638.37741848 </i>
   </energy>
  </scstep>
  <scstep>
   <time name="diag">    1.99    1.99</time>
   <time name="diis">   15.62   15.65</time>
   <time name="orth">    0.48    0.48</time>
   <time name="total">   18.13   18.17</time>
   <energy>
    <i name="alphaZ">   4399.81710422 </i>
    <i name="ewald"> -44896.68545139 </i>
    <i name="hartreedc">  -8346.29289102 </i>
    <i name="XCdc">   2122.59919630 </i>
    <i name="pawpsdc">  33888.23947454 </i>
    <i name="pawaedc"> -33751.11144067 </i>
    <i name="eentropy">     -0.13683868 </i>
    <i name="bandstr">  -5875.67968014 </i>
    <i name="atom">  51820.80468327 </i>
    <i name="e_fr_energy">   -638.44584358 </i>
    <i name="e_wo_entrp">   -638.30900489 </i>
    <i name="e_0_energy">   -638.37742424 </i>
   </energy>
  </scstep>
  <structure>
   <crystal>
    <varray name="basis" >
     <v>       8.82763247       0.02097109      -0.00226351 </v>
     <v>       0.02713311       8.84951303      -0.01694536 </v>
     <v>       0.02953245      -0.03219948       8.84969478 </v>
    </varray>
    <i name="volume">    691.33108669 </i>
    <varray name="rec_basis" >
     <v>       0.11328139      -0.00034805      -0.00037930 </v>
     <v>      -0.00026834       0.11300218       0.00041205 </v>
     <v>       0.00002846       0.00021629       0.11299894 </v>
    </varray>
   </crystal>
   <varray name="positions" >
    <v>       0.00502213       0.99593440       0.99776009 </v>
    <v>       0.27224774       0.99920568       0.25147152 </v>
    <v>       0.24493116       0.49564686       0.24696933 </v>
    <v>       0.49750968       0.49840557       0.00063598 </v>
    <v>       0.50328593       0.24309552       0.74370920 </v>
    <v>       0.99920838       0.50175016       0.50511637 </v>
    <v>       0.49433988       0.75972110       0.75203394 </v>
    <v>       0.99661951       0.23807988       0.25100338 </v>
    <v>       0.74943158       0.74804346       0.00700681 </v>
    <v>       0.00111888       0.24652097       0.74947073 </v>
    <v>       0.75093936       0.24609560       0.49692908 </v>
    <v>       0.00049942       0.75338592       0.75073272 </v>
    <v>       0.24784951       0.49478954       0.75193436 </v>
    <v>       0.25947938       0.23882683       0.99191856 </v>
    <v>       0.50664734       0.25950312       0.25171076 </v>
    <v>       0.73243918       0.99313001       0.24898749 </v>
    <v>       0.74282654       0.24643212       0.00026359 </v>
    <v>       0.24921210       0.74980873       0.99984131 </v>
    <v>       0.25185751       0.24652319       0.50556249 </v>
    <v>       0.25144949       0.75386790       0.50184871 </v>
    <v>       0.24879955       0.24617621       0.24614710 </v>
    <v>       0.26153627       0.00098053       0.99366967 </v>
    <v>       0.00126732       0.25225981       0.00035756 </v>
    <v>       0.74911823       0.24417580       0.24746446 </v>
    <v>       0.74363723       0.00071697       0.00562061 </v>
    <v>       0.51254150       0.00573191       0.24889867 </v>
    <v>       0.99394939       0.49249207       0.24279085 </v>
    <v>       0.50022125       0.76155099       0.00843766 </v>
    <v>       0.98627617       0.00331653       0.74542154 </v>
    <v>       0.75597374       0.24441083       0.74905292 </v>
    <v>       0.74566540       0.00786871       0.49046698 </v>
    <v>       0.50075028       0.24419021       0.49030448 </v>
    <v>       0.52466164       0.00108005       0.74805911 </v>
    <v>       0.99807151       0.00006842       0.25182290 </v>
    <v>       0.50179204       0.23953238       0.00374874 </v>
    <v>       0.25634399       0.74853021       0.24850039 </v>
    <v>       0.23853020       0.49966491       0.99477459 </v>
    <v>       0.00239719       0.74294193       0.00045858 </v>
    <v>       0.74353386       0.75321838       0.24986342 </v>
    <v>       0.76042922       0.49752220       0.00138377 </v>
    <v>       0.50166777       0.49745557       0.25345648 </v>
    <v>       0.24716628       0.24501647       0.74939105 </v>
    <v>       0.25915771       0.00047977       0.51221475 </v>
    <v>       0.00205256       0.24748043       0.49960868 </v>
    <v>       0.24158132       0.75748636       0.75187626 </v>
    <v>       0.25389755       0.49935844       0.50262162 </v>
    <v>       0.00071517       0.75538004       0.50156932 </v>
    <v>       0.99927165       0.50084156       0.75931624 </v>
    <v>       0.75143118       0.75828184       0.75465860 </v>
    <v>       0.74530051       0.49890459       0.49938335 </v>
    <v>       0.49430999       0.76238530       0.48946029 </v>
    <v>       0.49875064       0.50132441       0.74538139 </v>
    <v>       0.51752088       0.01392753       0.97598749 </v>
    <v>       0.00200473       0.51984863       0.98380483 </v>
    <v>       0.49565077       0.72793870       0.25632166 </v>
    <v>       0.22530598       0.01302176       0.73402114 </v>
    <v>       0.48676225       0.98632906       0.52193820 </v>
    <v>       0.73670978       0.97512797       0.78853481 </v>
    <v>       0.00670826       0.75910165       0.25242853 </v>
    <v>       0.74857592       0.50474514       0.25030465 </v>
    <v>       0.01032720       0.00136682       0.50063602 </v>
    <v>       0.49747305       0.51329372       0.49803943 </v>
    <v>       0.74969729       0.51059699       0.75382231 </v>
    <v>       0.74555128       0.75511140       0.49307263 </v>
   </varray>
  </structure>
  <varray name="forces" >
   <v>       0.00036371       0.00123133       0.00244546 </v>
   <v>      -0.00208107      -0.00184856       0.00298687 </v>
   <v>       0.00238702       0.00018186       0.00168112 </v>
   <v>       0.00200514       0.00000610       0.00107301 </v>
   <v>      -0.00385190       0.00442383      -0.00182077 </v>
   <v>      -0.00091375       0.00093543      -0.00101793 </v>
   <v>      -0.00267069      -0.00340031      -0.00003997 </v>
   <v>       0.00212517       0.01032658      -0.00225598 </v>
   <v>       0.00081421       0.00117527      -0.00126394 </v>
   <v>       0.00005664       0.00378104       0.00281860 </v>
   <v>      -0.00193179       0.00582851       0.00117374 </v>
   <v>      -0.00201641       0.00308326       0.00024808 </v>
   <v>       0.00099898       0.00463374      -0.00131618 </v>
   <v>      -0.00232702       0.00888991       0.00338569 </v>
   <v>      -0.00351966      -0.00101001      -0.00348715 </v>
   <v>       0.00729511       0.00223749      -0.00384728 </v>
   <v>       0.00413095      -0.00242521      -0.00271449 </v>
   <v>       0.00182264      -0.00018360       0.00247132 </v>
   <v>       0.00180661       0.00340516      -0.00482397 </v>
   <v>      -0.00029500      -0.00176325      -0.00200239 </v>
   <v>       0.00319250      -0.00029285      -0.00166434 </v>
   <v>       0.01038559      -0.00451751      -0.00724755 </v>
   <v>      -0.00020646       0.01419645       0.00193593 </v>
   <v>      -0.00346117      -0.00290369      -0.00516162 </v>
   <v>      -0.00182181       0.00256407       0.00496475 </v>
   <v>       0.00226936      -0.00791806      -0.00915838 </v>
   <v>      -0.00033878       0.00108147      -0.00774640 </v>
   <v>      -0.00481021       0.01097127       0.00778734 </v>
   <v>      -0.00309852      -0.00109848      -0.00220126 </v>
   <v>      -0.00108452      -0.01148320       0.00128749 </v>
   <v>      -0.00752103      -0.00371014       0.00658624 </v>
   <v>      -0.00486965      -0.00577407      -0.00489352 </v>
   <v>      -0.00773215      -0.00010754       0.00090203 </v>
   <v>      -0.00489246      -0.00197330       0.00001916 </v>
   <v>       0.00027889      -0.00338761       0.00148074 </v>
   <v>       0.00549080      -0.00093025       0.00119127 </v>
   <v>      -0.00454206      -0.00389755       0.00372905 </v>
   <v>       0.00324538      -0.00581141       0.00261943 </v>
   <v>      -0.00358809       0.00370338      -0.00017296 </v>
   <v>       0.00551932      -0.00540205      -0.00021730 </v>
   <v>      -0.00116895       0.00315227      -0.00031568 </v>
   <v>       0.00190235      -0.00556870       0.00018673 </v>
   <v>       0.00793521      -0.00062447      -0.00022858 </v>
   <v>       0.00299913       0.00275294      -0.00095569 </v>
   <v>       0.00266385       0.00503033       0.00084450 </v>
   <v>      -0.00129102       0.00020588      -0.00068367 </v>
   <v>       0.00147069      -0.00091790       0.00032363 </v>
   <v>      -0.00078856      -0.00146004       0.00329685 </v>
   <v>      -0.00027761       0.00541591      -0.00009747 </v>
   <v>       0.00031069       0.00076941       0.00102580 </v>
   <v>      -0.00380247       0.00940532      -0.00287395 </v>
   <v>      -0.00043644      -0.00049465      -0.00006401 </v>
   <v>      -0.00767005      -0.00304755       0.01631536 </v>
   <v>      -0.00496820      -0.00854843       0.00734435 </v>
   <v>       0.00283040       0.01143273      -0.00162830 </v>
   <v>       0.00914928      -0.00745505      -0.00038475 </v>
   <v>       0.00751195       0.00286690       0.00187661 </v>
   <v>       0.00740226       0.01447067      -0.00911785 </v>
   <v>      -0.00289266      -0.01250461       0.00110157 </v>
   <v>      -0.00113020      -0.00608367       0.00031347 </v>
   <v>      -0.00549057      -0.00227945      -0.00441764 </v>
   <v>       0.00230421      -0.00907588       0.00007326 </v>
   <v>       0.00091208      -0.01055172      -0.00219133 </v>
   <v>      -0.00408918       0.00029224       0.00252286 </v>
  </varray>
  <varray name="stress" >
   <v>      -0.54679047       0.24444541      -0.00306534 </v>
   <v>       0.24444464      -1.44157112      -0.20040093 </v>
   <v>      -0.00306500      -0.20039836      -0.40416995 </v>
  </varray>
  <energy>
   <i name="e_fr_energy">   -638.44584358 </i>
   <i name="e_wo_entrp">   -638.37742424 </i>
   <i name="e_0_energy">     -0.13683868 </i>
  </energy>
  <time name="totalsc">  999.29 1002.23</time>
 </calculation>
 <calculation>
  <scstep>
   <time name="dav">   31.13   31.15</time>
   <time name="total">   31.43   31.46</time>
   <energy>
    <i name="alphaZ">   4403.24295902 </i>
    <i name="ewald"> -44909.05743304 </i>
    <i name="hartreedc">  -8347.78665512 </i>
    <i name="XCdc">   2123.14405204 </i>
    <i name="pawpsdc">  33888.14577493 </i>
    <i name="pawaedc"> -33751.08232617 </i>
    <i name="eentropy">     -0.13761837 </i>
    <i name="bandstr">  -5865.72082844 </i>
    <i name="atom">  51820.80468327 </i>
    <i name="e_fr_energy">   -638.44739188 </i>
    <i name="e_wo_entrp">   -638.30977351 </i>
    <i name="e_0_energy">   -638.37858269 </i>
   </energy>
  </scstep>
  <scstep>
   <time name="diag">    2.03    2.04</time>
   <time name="diis">   19.91   19.96</time>
   <time name="orth">    0.48    0.48</time>
   <time name="total">   22.74   22.79</time>
   <energy>
    <i name="e_fr_energy">   -638.47723700 </i>
    <i name="e_wo_entrp">   -638.34626169 </i>
    <i name="e_0_energy">   -638.41174935 </i>
   </energy>
  </scstep>
  <scstep>
   <time name="diag">    2.00    2.00</time>
   <time name="diis">   19.23   19.25</time>
   <time name="orth">    0.49    0.49</time>
   <time name="total">   22.02   22.04</time>
   <energy>
    <i name="e_fr_energy">   -638.44811243 </i>
    <i name="e_wo_entrp">   -638.31064128 </i>
    <i name="e_0_energy">   -638.37937685 </i>
   </energy>
  </scstep>
  <scstep>
   <time name="diag">    2.00    2.02</time>
   <time name="diis">   21.78   21.90</time>
   <time name="orth">    0.49    0.49</time>
   <time name="total">   24.56   24.71</time>
   <energy>
    <i name="e_fr_energy">   -638.44705178 </i>
    <i name="e_wo_entrp">   -638.30989652 </i>
    <i name="e_0_energy">   -638.37847415 </i>
   </energy>
  </scstep>
  <scstep>
   <time name="diag">    2.00    2.00</time>
   <time name="diis">   21.13   21.22</time>
   <time name="orth">    0.48    0.48</time>
   <time name="total">   23.90   24.00</time>
   <energy>
    <i name="e_fr_energy">   -638.44636958 </i>
    <i name="e_wo_entrp">   -638.30975715 </i>
    <i name="e_0_energy">   -638.37806336 </i>
   </energy>
  </scstep>
  <scstep>
   <time name="diag">    1.99    1.99</time>
   <time name="diis">   19.52   19.56</time>
   <time name="orth">    0.48    0.48</time>
   <time name="total">   22.28   22.33</time>
   <energy>
    <i name="e_fr_energy">   -638.44629481 </i>
    <i name="e_wo_entrp">   -638.30916073 </i>
    <i name="e_0_energy">   -638.37772777 </i>
   </energy>
  </scstep>
  <scstep>
   <time name="diag">    2.01    2.01</time>
   <time name="diis">   21.27   21.42</time>
   <time name="orth">    0.49    0.49</time>
   <time name="total">   24.06   24.21</time>
   <energy>
    <i name="e_fr_energy">   -638.44594388 </i>
    <i name="e_wo_entrp">   -638.30904569 </i>
    <i name="e_0_energy">   -638.37749479 </i>
   </energy>
  </scstep>
  <scstep>
   <time name="diag">    2.00    2.00</time>
   <time name="diis">   18.72   18.75</time>
   <time name="orth">    0.49    0.49</time>
   <time name="total">   21.50   21.53</time>
   <energy>
    <i name="e_fr_energy">   -638.44602084 </i>
    <i name="e_wo_entrp">   -638.30904877 </i>
    <i name="e_0_energy">   -638.37753481 </i>
   </energy>
  </scstep>
  <scstep>
   <time name="diag">    2.01    2.01</time>
   <time name="diis">   18.64   18.75</time>
   <time name="orth">    0.48    0.48</time>
   <time name="total">   21.42   21.53</time>
   <energy>
    <i name="e_fr_energy">   -638.44591482 </i>
    <i name="e_wo_entrp">   -638.30892932 </i>
    <i name="e_0_energy">   -638.37742207 </i>
   </energy>
  </scstep>
  <scstep>
   <time name="diag">    2.05    2.09</time>
   <time name="diis">   16.40   16.47</time>
   <time name="orth">    0.49    0.49</time>
   <time name="total">   19.23   19.34</time>
   <energy>
    <i name="e_fr_energy">   -638.44592671 </i>
    <i name="e_wo_entrp">   -638.30913276 </i>
    <i name="e_0_energy">   -638.37752973 </i>
   </energy>
  </scstep>
  <scstep>
   <time name="diag">    1.99    2.00</time>
   <time name="diis">   12.88   12.93</time>
   <time name="orth">    0.48    0.48</time>
   <time name="total">   15.64   15.70</time>
   <energy>
    <i name="e_fr_energy">   -638.44591604 </i>
    <i name="e_wo_entrp">   -638.30897931 </i>
    <i name="e_0_energy">   -638.37744767 </i>
   </energy>
  </scstep>
  <scstep>
   <time name="diag">    2.00    2.01</time>
   <time name="diis">   11.78   11.81</time>
   <time name="orth">    0.48    0.48</time>
   <time name="total">   14.30   14.33</time>
   <energy>
    <i name="alphaZ">   4403.24295902 </i>
    <i name="ewald"> -44909.05743304 </i>
    <i name="hartreedc">  -8341.53682402 </i>
    <i name="XCdc">   2122.79058223 </i>
    <i name="pawpsdc">  33894.53544313 </i>
    <i name="pawaedc"> -33757.39019612 </i>
    <i name="eentropy">     -0.13691394 </i>
    <i name="bandstr">  -5871.69822198 </i>
    <i name="atom">  51820.80468327 </i>
    <i name="e_fr_energy">   -638.44592145 </i>
    <i name="e_wo_entrp">   -638.30900751 </i>
    <i name="e_0_energy">   -638.37746448 </i>
   </energy>
  </scstep>
  <structure>
   <crystal>
    <varray name="basis" >
     <v>       8.82606417       0.02166327      -0.00227338 </v>
     <v>       0.02783191       8.84536692      -0.01751999 </v>
     <v>       0.02951582      -0.03275887       8.84853348 </v>
    </varray>
    <i name="volume">    690.79321042 </i>
    <varray name="rec_basis" >
     <v>       0.11330156      -0.00035725      -0.00037926 </v>
     <v>      -0.00027738       0.11305524       0.00041948 </v>
     <v>       0.00002856       0.00022376       0.11301381 </v>
    </varray>
   </crystal>
   <varray name="positions" >
    <v>       0.00502405       0.99594115       0.99777344 </v>
    <v>       0.27223635       0.99919569       0.25148778 </v>
    <v>       0.24494417       0.49564785       0.24697850 </v>
    <v>       0.49752061       0.49840560       0.00064183 </v>
    <v>       0.50326484       0.24311966       0.74369931 </v>
    <v>       0.99920339       0.50175525       0.50511082 </v>
    <v>       0.49432535       0.75970260       0.75203368 </v>
    <v>       0.99663099       0.23813610       0.25099119 </v>
    <v>       0.74943604       0.74804984       0.00699994 </v>
    <v>       0.00111907       0.24654164       0.74948613 </v>
    <v>       0.75092868       0.24612742       0.49693553 </v>
    <v>       0.00048835       0.75340276       0.75073410 </v>
    <v>       0.24785492       0.49481476       0.75192724 </v>
    <v>       0.25946645       0.23887539       0.99193711 </v>
    <v>       0.50662819       0.25949759       0.25169173 </v>
    <v>       0.73247908       0.99314204       0.24896655 </v>
    <v>       0.74284920       0.24641879       0.00024877 </v>
    <v>       0.24922202       0.74980775       0.99985478 </v>
    <v>       0.25186741       0.24654163       0.50553623 </v>
    <v>       0.25144794       0.75385825       0.50183778 </v>
    <v>       0.24881703       0.24617454       0.24613803 </v>
    <v>       0.26159323       0.00095563       0.99363013 </v>
    <v>       0.00126591       0.25233724       0.00036826 </v>
    <v>       0.74909945       0.24415992       0.24743629 </v>
    <v>       0.74362714       0.00073107       0.00564770 </v>
    <v>       0.51255420       0.00568853       0.24884866 </v>
    <v>       0.99394767       0.49249781       0.24274864 </v>
    <v>       0.50019463       0.76161102       0.00848022 </v>
    <v>       0.98625929       0.00331054       0.74540952 </v>
    <v>       0.75596799       0.24434827       0.74905982 </v>
    <v>       0.74562424       0.00784872       0.49050283 </v>
    <v>       0.50072386       0.24415870       0.49027773 </v>
    <v>       0.52461937       0.00107958       0.74806401 </v>
    <v>       0.99804481       0.00005773       0.25182298 </v>
    <v>       0.50179359       0.23951393       0.00375677 </v>
    <v>       0.25637399       0.74852509       0.24850688 </v>
    <v>       0.23850537       0.49964379       0.99479487 </v>
    <v>       0.00241497       0.74291026       0.00047280 </v>
    <v>       0.74351419       0.75323861       0.24986251 </v>
    <v>       0.76045948       0.49749268       0.00138254 </v>
    <v>       0.50166133       0.49747277       0.25345479 </v>
    <v>       0.24717677       0.24498609       0.74939202 </v>
    <v>       0.25920109       0.00047626       0.51221351 </v>
    <v>       0.00206892       0.24749538       0.49960350 </v>
    <v>       0.24159578       0.75751377       0.75188092 </v>
    <v>       0.25389050       0.49935956       0.50261790 </v>
    <v>       0.00072322       0.75537503       0.50157107 </v>
    <v>       0.99926730       0.50083368       0.75933419 </v>
    <v>       0.75142958       0.75831137       0.75465813 </v>
    <v>       0.74530217       0.49890880       0.49938895 </v>
    <v>       0.49428910       0.76243656       0.48944471 </v>
    <v>       0.49874827       0.50132171       0.74538104 </v>
    <v>       0.51747872       0.01391134       0.97607638 </v>
    <v>       0.00197759       0.51980224       0.98384477 </v>
    <v>       0.49566608       0.72800095       0.25631290 </v>
    <v>       0.22535612       0.01298099       0.73401898 </v>
    <v>       0.48680322       0.98634463       0.52194847 </v>
    <v>       0.73675016       0.97520658       0.78848526 </v>
    <v>       0.00669264       0.75903354       0.25243440 </v>
    <v>       0.74856984       0.50471200       0.25030629 </v>
    <v>       0.01029731       0.00135437       0.50061191 </v>
    <v>       0.49748580       0.51324422       0.49803974 </v>
    <v>       0.74970249       0.51053941       0.75381026 </v>
    <v>       0.74552888       0.75511309       0.49308638 </v>
   </varray>
  </structure>
  <varray name="forces" >
   <v>       0.00041213       0.00138526       0.00202242 </v>
   <v>      -0.00247833      -0.00241912       0.00192672 </v>
   <v>       0.00464623       0.00117857       0.00116433 </v>
   <v>       0.00154313       0.00176009       0.00252380 </v>
   <v>      -0.00327771      -0.00097823       0.00061937 </v>
   <v>      -0.00076038      -0.00032596       0.00118519 </v>
   <v>      -0.00002962       0.00037044       0.00123727 </v>
   <v>      -0.00089288       0.00918884       0.00029975 </v>
   <v>       0.00199441       0.00381149      -0.00213559 </v>
   <v>       0.00273108       0.00254531       0.00045287 </v>
   <v>       0.00004815       0.00606407      -0.00093957 </v>
   <v>      -0.00272130       0.00251614       0.00084361 </v>
   <v>      -0.00065120       0.00535717       0.00053115 </v>
   <v>      -0.00263031       0.00745422       0.00179531 </v>
   <v>      -0.00232853      -0.00483535      -0.00382092 </v>
   <v>       0.00824906       0.00506188      -0.00324855 </v>
   <v>       0.00287822      -0.00276083      -0.00148068 </v>
   <v>       0.00206599       0.00104009       0.00275822 </v>
   <v>       0.00064161       0.00221328      -0.00278068 </v>
   <v>      -0.00126052      -0.00176248      -0.00051591 </v>
   <v>       0.00262116      -0.00008430      -0.00135334 </v>
   <v>       0.00626737      -0.00334018      -0.00308131 </v>
   <v>       0.00046338       0.01298951       0.00059878 </v>
   <v>      -0.00270411      -0.00234313      -0.00301109 </v>
   <v>       0.00265861       0.00276193       0.00064794 </v>
   <v>       0.00018939      -0.00815384      -0.00967078 </v>
   <v>       0.00078755       0.00248619      -0.00496163 </v>
   <v>      -0.00266518       0.00870245       0.00419978 </v>
   <v>      -0.00114955       0.00035261      -0.00059412 </v>
   <v>      -0.00099092      -0.01230840       0.00093372 </v>
   <v>      -0.00535362      -0.00506962       0.00596457 </v>
   <v>      -0.00413566      -0.00470307      -0.00357607 </v>
   <v>      -0.00637045       0.00206662       0.00280179 </v>
   <v>      -0.00225161      -0.00196274      -0.00056112 </v>
   <v>      -0.00074944       0.00069077       0.00070796 </v>
   <v>       0.00185124      -0.00136393       0.00058156 </v>
   <v>       0.00029859      -0.00392966       0.00223383 </v>
   <v>       0.00083875      -0.00218929       0.00064290 </v>
   <v>      -0.00158593       0.00132857      -0.00009874 </v>
   <v>       0.00116155      -0.00690898       0.00013655 </v>
   <v>      -0.00064893       0.00219032      -0.00095427 </v>
   <v>       0.00042494      -0.00319945       0.00021387 </v>
   <v>       0.00102560       0.00008996      -0.00184356 </v>
   <v>       0.00211734       0.00083747      -0.00001454 </v>
   <v>       0.00050955       0.00400907       0.00049264 </v>
   <v>      -0.00046692      -0.00015158      -0.00064808 </v>
   <v>       0.00031139      -0.00090011       0.00050517 </v>
   <v>      -0.00011384      -0.00055425      -0.00072238 </v>
   <v>      -0.00089590       0.00164529      -0.00113659 </v>
   <v>       0.00037808       0.00126529       0.00069954 </v>
   <v>      -0.00107406       0.00240696      -0.00117976 </v>
   <v>      -0.00035653      -0.00071337       0.00080635 </v>
   <v>      -0.00618874      -0.00733660       0.00794850 </v>
   <v>      -0.00287279      -0.01373828       0.00553485 </v>
   <v>       0.00316479       0.01239119      -0.00158943 </v>
   <v>       0.00636833      -0.01157797      -0.00049354 </v>
   <v>       0.00726624       0.00837817       0.00141350 </v>
   <v>       0.00300093       0.01720101      -0.00140751 </v>
   <v>      -0.00315638      -0.01023412      -0.00165552 </v>
   <v>      -0.00392408      -0.00605864      -0.00004113 </v>
   <v>      -0.00091482       0.00041726      -0.00152013 </v>
   <v>       0.00072047      -0.00597320      -0.00232315 </v>
   <v>       0.00027849      -0.00640315      -0.00011133 </v>
   <v>      -0.00231352       0.00012231       0.00304720 </v>
  </varray>
  <varray name="stress" >
   <v>       1.21219472      -0.01902481       0.01221161 </v>
   <v>      -0.01902579       1.45556288       0.02880324 </v>
   <v>       0.01221117       0.02880436       1.11796599 </v>
  </varray>
  <energy>
   <i name="e_fr_energy">   -638.44592145 </i>
   <i name="e_wo_entrp">   -638.37746448 </i>
   <i name="e_0_energy">     -0.13691394 </i>
  </energy>
  <time name="totalsc">  309.01  309.93</time>
 </calculation>
 <calculation>
  <scstep>
   <time name="dav">   30.89   30.95</time>
   <time name="total">   31.19   31.26</time>
   <energy>
    <i name="alphaZ">   4401.71311809 </i>
    <i name="ewald"> -44903.53420468 </i>
    <i name="hartreedc">  -8340.87150345 </i>
    <i name="XCdc">   2122.54768912 </i>
    <i name="pawpsdc">  33894.68985613 </i>
    <i name="pawaedc"> -33757.53339777 </i>
    <i name="eentropy">     -0.13655914 </i>
    <i name="bandstr">  -5876.12603459 </i>
    <i name="atom">  51820.80468327 </i>
    <i name="e_fr_energy">   -638.44635301 </i>
    <i name="e_wo_entrp">   -638.30979387 </i>
    <i name="e_0_energy">   -638.37807344 </i>
   </energy>
  </scstep>
  <scstep>
   <time name="diag">    2.01    2.01</time>
   <time name="diis">   20.03   20.09</time>
   <time name="orth">    0.48    0.49</time>
   <time name="total">   22.82   22.88</time>
   <energy>
    <i name="e_fr_energy">   -638.45210272 </i>
    <i name="e_wo_entrp">   -638.31264483 </i>
    <i name="e_0_energy">   -638.38237377 </i>
   </energy>
  </scstep>
  <scstep>
   <time name="diag">    2.00    2.00</time>
   <time name="diis">   18.48   18.50</time>
   <time name="orth">    0.49    0.49</time>
   <time name="total">   21.26   21.29</time>
   <energy>
    <i name="e_fr_energy">   -638.44649389 </i>
    <i name="e_wo_entrp">   -638.30994077 </i>
    <i name="e_0_energy">   -638.37821733 </i>
   </energy>
  </scstep>
  <scstep>
   <time name="diag">    2.02    2.03</time>
   <time name="diis">   18.88   18.90</time>
   <time name="orth">    0.48    0.48</time>
   <time name="total">   21.68   21.73</time>
   <energy>
    <i name="e_fr_energy">   -638.44629422 </i>
    <i name="e_wo_entrp">   -638.30954544 </i>
    <i name="e_0_energy">   -638.37791983 </i>
   </energy>
  </scstep>
  <scstep>
   <time name="diag">    2.01    2.01</time>
   <time name="diis">   19.43   19.44</time>
   <time name="orth">    0.48    0.48</time>
   <time name="total">   22.22   22.23</time>
   <energy>
    <i name="e_fr_energy">   -638.44613700 </i>
    <i name="e_wo_entrp">   -638.30910933 </i>
    <i name="e_0_energy">   -638.37762316 </i>
   </energy>
  </scstep>
  <scstep>
   <time name="diag">    2.00    2.00</time>
   <time name="diis">   16.72   16.73</time>
   <time name="orth">    0.49    0.49</time>
   <time name="total">   19.50   19.51</time>
   <energy>
    <i name="e_fr_energy">   -638.44612037 </i>
    <i name="e_wo_entrp">   -638.30937368 </i>
    <i name="e_0_energy">   -638.37774702 </i>
   </energy>
  </scstep>
  <scstep>
   <time name="diag">    2.00    2.00</time>
   <time name="diis">   17.24   17.31</time>
   <time name="orth">    0.49    0.49</time>
   <time name="total">   20.02   20.10</time>
   <energy>
    <i name="e_fr_energy">   -638.44603789 </i>
    <i name="e_wo_entrp">   -638.30916647 </i>
    <i name="e_0_energy">   -638.37760218 </i>
   </energy>
  </scstep>
  <scstep>
   <time name="diag">    1.99    2.00</time>
   <time name="diis">   11.03   11.03</time>
   <time name="orth">    0.49    0.49</time>
   <time name="total">   13.81   13.81</time>
   <energy>
    <i name="e_fr_energy">   -638.44605760 </i>
    <i name="e_wo_entrp">   -638.30919395 </i>
    <i name="e_0_energy">   -638.37762577 </i>
   </energy>
  </scstep>
  <scstep>
   <time name="diag">    1.99    1.99</time>
   <time name="diis">    9.76    9.76</time>
   <time name="orth">    0.49    0.49</time>
   <time name="total">   12.54   12.54</time>
   <energy>
    <i name="e_fr_energy">   -638.44602659 </i>
    <i name="e_wo_entrp">   -638.30919619 </i>
    <i name="e_0_energy">   -638.37761139 </i>
   </energy>
  </scstep>
  <scstep>
   <time name="diag">    2.01    2.02</time>
   <time name="diis">    9.42    9.44</time>
   <time name="orth">    0.49    0.49</time>
   <time name="total">   11.95   11.98</time>
   <energy>
    <i name="alphaZ">   4401.71311809 </i>
    <i name="ewald"> -44903.53420468 </i>
    <i name="hartreedc">  -8344.00376272 </i>
    <i name="XCdc">   2122.72310360 </i>
    <i name="pawpsdc">  33893.49103246 </i>
    <i name="pawaedc"> -33756.12394732 </i>
    <i name="eentropy">     -0.13693271 </i>
    <i name="bandstr">  -5873.37911765 </i>
    <i name="atom">  51820.80468327 </i>
    <i name="e_fr_energy">   -638.44602765 </i>
    <i name="e_wo_entrp">   -638.30909494 </i>
    <i name="e_0_energy">   -638.37756130 </i>
   </energy>
  </scstep>
  <structure>
   <crystal>
    <varray name="basis" >
     <v>       8.82676428       0.02135427      -0.00226898 </v>
     <v>       0.02751995       8.84721781      -0.01726347 </v>
     <v>       0.02952324      -0.03250915       8.84905190 </v>
    </varray>
    <i name="volume">    691.03329960 </i>
    <varray name="rec_basis" >
     <v>       0.11329256      -0.00035315      -0.00037928 </v>
     <v>      -0.00027335       0.11303155       0.00041616 </v>
     <v>       0.00002852       0.00022042       0.11300717 </v>
    </varray>
   </crystal>
   <varray name="positions" >
    <v>       0.00502319       0.99593814       0.99776748 </v>
    <v>       0.27224143       0.99920015       0.25148052 </v>
    <v>       0.24493836       0.49564741       0.24697441 </v>
    <v>       0.49751573       0.49840559       0.00063922 </v>
    <v>       0.50327426       0.24310888       0.74370373 </v>
    <v>       0.99920562       0.50175298       0.50511330 </v>
    <v>       0.49433184       0.75971086       0.75203380 </v>
    <v>       0.99662586       0.23811099       0.25099663 </v>
    <v>       0.74943405       0.74804699       0.00700301 </v>
    <v>       0.00111898       0.24653241       0.74947925 </v>
    <v>       0.75093345       0.24611321       0.49693265 </v>
    <v>       0.00049329       0.75339524       0.75073349 </v>
    <v>       0.24785251       0.49480350       0.75193042 </v>
    <v>       0.25947222       0.23885370       0.99192883 </v>
    <v>       0.50663674       0.25950006       0.25170023 </v>
    <v>       0.73246126       0.99313667       0.24897590 </v>
    <v>       0.74283908       0.24642475       0.00025539 </v>
    <v>       0.24921759       0.74980819       0.99984877 </v>
    <v>       0.25186299       0.24653340       0.50554796 </v>
    <v>       0.25144863       0.75386256       0.50184266 </v>
    <v>       0.24880922       0.24617529       0.24614208 </v>
    <v>       0.26156780       0.00096675       0.99364779 </v>
    <v>       0.00126654       0.25230266       0.00036348 </v>
    <v>       0.74910784       0.24416701       0.24744887 </v>
    <v>       0.74363164       0.00072477       0.00563561 </v>
    <v>       0.51254853       0.00570791       0.24887099 </v>
    <v>       0.99394844       0.49249525       0.24276749 </v>
    <v>       0.50020652       0.76158420       0.00846122 </v>
    <v>       0.98626683       0.00331322       0.74541489 </v>
    <v>       0.75597056       0.24437621       0.74905674 </v>
    <v>       0.74564262       0.00785764       0.49048682 </v>
    <v>       0.50073565       0.24417277       0.49028968 </v>
    <v>       0.52463824       0.00107979       0.74806182 </v>
    <v>       0.99805673       0.00006250       0.25182295 </v>
    <v>       0.50179290       0.23952217       0.00375319 </v>
    <v>       0.25636059       0.74852737       0.24850399 </v>
    <v>       0.23851645       0.49965322       0.99478582 </v>
    <v>       0.00240703       0.74292440       0.00046645 </v>
    <v>       0.74352297       0.75322958       0.24986292 </v>
    <v>       0.76044597       0.49750586       0.00138309 </v>
    <v>       0.50166421       0.49746509       0.25345554 </v>
    <v>       0.24717209       0.24499966       0.74939159 </v>
    <v>       0.25918172       0.00047783       0.51221406 </v>
    <v>       0.00206162       0.24748870       0.49960581 </v>
    <v>       0.24158933       0.75750153       0.75187884 </v>
    <v>       0.25389365       0.49935906       0.50261956 </v>
    <v>       0.00071963       0.75537727       0.50157029 </v>
    <v>       0.99926924       0.50083720       0.75932617 </v>
    <v>       0.75143030       0.75829818       0.75465834 </v>
    <v>       0.74530143       0.49890692       0.49938645 </v>
    <v>       0.49429843       0.76241367       0.48945167 </v>
    <v>       0.49874933       0.50132292       0.74538120 </v>
    <v>       0.51749754       0.01391857       0.97603669 </v>
    <v>       0.00198971       0.51982296       0.98382694 </v>
    <v>       0.49565924       0.72797315       0.25631681 </v>
    <v>       0.22533373       0.01299920       0.73401994 </v>
    <v>       0.48678493       0.98633767       0.52194388 </v>
    <v>       0.73673213       0.97517147       0.78850738 </v>
    <v>       0.00669961       0.75906396       0.25243178 </v>
    <v>       0.74857255       0.50472680       0.25030556 </v>
    <v>       0.01031065       0.00135993       0.50062268 </v>
    <v>       0.49748010       0.51326633       0.49803960 </v>
    <v>       0.74970017       0.51056513       0.75381564 </v>
    <v>       0.74553888       0.75511233       0.49308024 </v>
   </varray>
  </structure>
  <varray name="forces" >
   <v>       0.00123898       0.00147464       0.00254974 </v>
   <v>      -0.00186812      -0.00277510       0.00202166 </v>
   <v>       0.00431095       0.00141054       0.00177089 </v>
   <v>       0.00227077       0.00182437       0.00231658 </v>
   <v>      -0.00346553       0.00112639       0.00087623 </v>
   <v>      -0.00085955       0.00036207      -0.00026004 </v>
   <v>      -0.00201872      -0.00172079       0.00146645 </v>
   <v>       0.00036249       0.01010856      -0.00088094 </v>
   <v>       0.00107906       0.00236486      -0.00114465 </v>
[...]
      </set>
     </set>
    </set>
   </array>
  </eigenvalues>
  <separator name="orbital magnetization" >
   <v name="MAGDIPOLOUT">      0.00000000      0.00000000      0.00000000</v>
  </separator>
  <dos>
   <i name="efermi">      8.65388535 </i>
   <total>
    <array>
     <dimension dim="1">gridpoints</dimension>
     <dimension dim="2">spin</dimension>
     <field>energy</field>
     <field>total</field>
     <field>integrated</field>
     <set>
      <set comment="spin 1">
       <r>   -52.1110     0.0000     0.0000 </r>
       <r>   -51.8869     0.0000     0.0000 </r>
       <r>   -51.6628     0.0000     0.0000 </r>
       <r>   -51.4387     0.0000     0.0000 </r>
       <r>   -51.2146     0.0000     0.0000 </r>
       <r>   -50.9905     0.0000     0.0000 </r>
       <r>   -50.7665     0.0000     0.0000 </r>
       <r>   -50.5424     0.0000     0.0000 </r>
       <r>   -50.3183     0.0000     0.0000 </r>
       <r>   -50.0942     0.0000     0.0000 </r>
       <r>   -49.8701     0.0000     0.0000 </r>
       <r>   -49.6460     0.0000     0.0000 </r>
       <r>   -49.4219     0.0000     0.0000 </r>
       <r>   -49.1978     0.2005     0.0449 </r>
       <r>   -48.9737    15.0437     3.4160 </r>
       <r>   -48.7497    28.3457     9.7680 </r>
       <r>   -48.5256    12.8422    12.6457 </r>
       <r>   -48.3015     6.0138    13.9934 </r>
       <r>   -48.0774     0.0296    14.0000 </r>
       <r>   -47.8533     0.0000    14.0000 </r>
       <r>   -47.6292     0.0000    14.0000 </r>
       <r>   -47.4051     0.0036    14.0008 </r>
       <r>   -47.1810     4.1231    14.9247 </r>
       <r>   -46.9570    27.8763    21.1715 </r>
       <r>   -46.7329    20.8957    25.8540 </r>
       <r>   -46.5088     0.6517    26.0000 </r>
       <r>   -46.2847     0.0000    26.0000 </r>
       <r>   -46.0606     0.0000    26.0000 </r>
       <r>   -45.8365     0.0000    26.0000 </r>
       <r>   -45.6124     0.0000    26.0000 </r>
       <r>   -45.3883     0.0000    26.0000 </r>
       <r>   -45.1643     0.0000    26.0000 </r>
       <r>   -44.9402     0.0000    26.0000 </r>
       <r>   -44.7161     0.0000    26.0000 </r>
       <r>   -44.4920     0.0000    26.0000 </r>
       <r>   -44.2679     0.0000    26.0000 </r>
       <r>   -44.0438     0.0000    26.0000 </r>
       <r>   -43.8197     0.0000    26.0000 </r>
       <r>   -43.5956     0.0000    26.0000 </r>
       <r>   -43.3716     0.0000    26.0000 </r>
       <r>   -43.1475     0.0000    26.0000 </r>
       <r>   -42.9234     0.0000    26.0000 </r>
       <r>   -42.6993     0.0000    26.0000 </r>
       <r>   -42.4752     0.0000    26.0000 </r>
       <r>   -42.2511     0.0000    26.0000 </r>
       <r>   -42.0270     0.0000    26.0000 </r>
       <r>   -41.8029     0.0000    26.0000 </r>
       <r>   -41.5789     0.0000    26.0000 </r>
       <r>   -41.3548     0.0000    26.0000 </r>
       <r>   -41.1307     0.0000    26.0000 </r>
       <r>   -40.9066     0.0000    26.0000 </r>
       <r>   -40.6825     0.0004    26.0001 </r>
       <r>   -40.4584     2.0614    26.4620 </r>
       <r>   -40.2343     8.9349    28.4642 </r>
       <r>   -40.0102    16.8684    32.2442 </r>
       <r>   -39.7862    31.6174    39.3293 </r>
       <r>   -39.5621     2.9928    39.9999 </r>
       <r>   -39.3380     0.0003    40.0000 </r>
       <r>   -39.1139     0.0000    40.0000 </r>
       <r>   -38.8898     0.0000    40.0000 </r>
       <r>   -38.6657     0.0000    40.0000 </r>
       <r>   -38.4416     0.0000    40.0000 </r>
       <r>   -38.2175     0.0000    40.0000 </r>
       <r>   -37.9935     0.0000    40.0000 </r>
       <r>   -37.7694     0.0000    40.0000 </r>
       <r>   -37.5453     0.0000    40.0000 </r>
       <r>   -37.3212     0.0000    40.0000 </r>
       <r>   -37.0971     0.0000    40.0000 </r>
       <r>   -36.8730     0.0000    40.0000 </r>
       <r>   -36.6489     0.0000    40.0000 </r>
       <r>   -36.4248     0.0000    40.0000 </r>
       <r>   -36.2008     0.0000    40.0000 </r>
       <r>   -35.9767     0.0000    40.0000 </r>
       <r>   -35.7526     0.0000    40.0000 </r>
       <r>   -35.5285     0.0000    40.0000 </r>
       <r>   -35.3044     0.6825    40.1529 </r>
       <r>   -35.0803    12.0842    42.8609 </r>
       <r>   -34.8562    89.4004    62.8944 </r>
       <r>   -34.6321    55.3761    75.3035 </r>
       <r>   -34.4081     3.1071    75.9998 </r>
       <r>   -34.1840     0.0011    76.0000 </r>
       <r>   -33.9599     0.0000    76.0000 </r>
       <r>   -33.7358     0.0000    76.0000 </r>
       <r>   -33.5117     0.0000    76.0000 </r>
       <r>   -33.2876     0.0000    76.0000 </r>
       <r>   -33.0635     0.0000    76.0000 </r>
       <r>   -32.8394     0.0000    76.0000 </r>
       <r>   -32.6153     0.0000    76.0000 </r>
       <r>   -32.3913     0.0000    76.0000 </r>
       <r>   -32.1672     0.0000    76.0000 </r>
       <r>   -31.9431     0.0000    76.0000 </r>
       <r>   -31.7190     0.0000    76.0000 </r>
       <r>   -31.4949     0.0000    76.0000 </r>
       <r>   -31.2708     0.0000    76.0000 </r>
       <r>   -31.0467     0.0000    76.0000 </r>
       <r>   -30.8226     0.0000    76.0000 </r>
       <r>   -30.5986     0.0000    76.0000 </r>
       <r>   -30.3745     0.0000    76.0000 </r>
       <r>   -30.1504     0.0000    76.0000 </r>
       <r>   -29.9263     0.0000    76.0000 </r>
       <r>   -29.7022     0.0000    76.0000 </r>
       <r>   -29.4781     0.0000    76.0000 </r>
       <r>   -29.2540     0.0000    76.0000 </r>
       <r>   -29.0299     0.0000    76.0000 </r>
       <r>   -28.8059     0.0000    76.0000 </r>
       <r>   -28.5818     0.0000    76.0000 </r>
       <r>   -28.3577     0.0000    76.0000 </r>
       <r>   -28.1336     0.0000    76.0000 </r>
       <r>   -27.9095     0.0000    76.0000 </r>
       <r>   -27.6854     0.0000    76.0000 </r>
       <r>   -27.4613     0.0000    76.0000 </r>
       <r>   -27.2372     0.1255    76.0281 </r>
       <r>   -27.0132    11.5243    78.6106 </r>
       <r>   -26.7891    38.9702    87.3433 </r>
       <r>   -26.5650    43.5876    97.1107 </r>
       <r>   -26.3409    30.6795   103.9856 </r>
       <r>   -26.1168    31.1170   110.9586 </r>
       <r>   -25.8927     4.6465   111.9998 </r>
       <r>   -25.6686     0.0819   112.0181 </r>
       <r>   -25.4445    19.0064   116.2772 </r>
       <r>   -25.2205    69.5869   131.8708 </r>
       <r>   -24.9964    69.0769   147.3501 </r>
       <r>   -24.7723    27.5040   153.5134 </r>
       <r>   -24.5482     2.1715   154.0000 </r>
       <r>   -24.3241     0.0001   154.0000 </r>
       <r>   -24.1000     0.0000   154.0000 </r>
       <r>   -23.8759     0.0000   154.0000 </r>
       <r>   -23.6518     0.0173   154.0039 </r>
       <r>   -23.4278    12.1202   156.7199 </r>
       <r>   -23.2037    45.1980   166.8482 </r>
       <r>   -22.9796    76.9211   184.0852 </r>
       <r>   -22.7555    26.2478   189.9670 </r>
       <r>   -22.5314     0.1471   190.0000 </r>
       <r>   -22.3073     0.0000   190.0000 </r>
       <r>   -22.0832     0.0000   190.0000 </r>
       <r>   -21.8591     0.0000   190.0000 </r>
       <r>   -21.6351     0.0000   190.0000 </r>
       <r>   -21.4110     0.0000   190.0000 </r>
       <r>   -21.1869     0.0000   190.0000 </r>
       <r>   -20.9628     0.0000   190.0000 </r>
       <r>   -20.7387     0.0000   190.0000 </r>
       <r>   -20.5146     0.0000   190.0000 </r>
       <r>   -20.2905     0.0000   190.0000 </r>
       <r>   -20.0664     0.0000   190.0000 </r>
       <r>   -19.8424     0.0000   190.0000 </r>
       <r>   -19.6183     0.0000   190.0000 </r>
       <r>   -19.3942     0.0000   190.0000 </r>
       <r>   -19.1701     0.0000   190.0000 </r>
       <r>   -18.9460     0.4332   190.0971 </r>
       <r>   -18.7219    17.4935   194.0171 </r>
       <r>   -18.4978    38.0929   202.5533 </r>
       <r>   -18.2737    69.3535   218.0946 </r>
       <r>   -18.0497    49.6058   229.2106 </r>
       <r>   -17.8256    11.9523   231.8890 </r>
       <r>   -17.6015     0.4955   232.0000 </r>
       <r>   -17.3774     0.0000   232.0000 </r>
       <r>   -17.1533     0.0000   232.0000 </r>
       <r>   -16.9292     0.0000   232.0000 </r>
       <r>   -16.7051     0.0000   232.0000 </r>
       <r>   -16.4810     0.0000   232.0000 </r>
       <r>   -16.2570     0.0000   232.0000 </r>
       <r>   -16.0329     0.0000   232.0000 </r>
       <r>   -15.8088     0.0000   232.0000 </r>
       <r>   -15.5847     0.0000   232.0000 </r>
       <r>   -15.3606     0.0000   232.0000 </r>
       <r>   -15.1365     0.0000   232.0000 </r>
       <r>   -14.9124     0.0000   232.0000 </r>
       <r>   -14.6883     0.0000   232.0000 </r>
       <r>   -14.4642     0.0000   232.0000 </r>
       <r>   -14.2402     0.0000   232.0000 </r>
       <r>   -14.0161     0.0000   232.0000 </r>
       <r>   -13.7920     0.0000   232.0000 </r>
       <r>   -13.5679     0.0000   232.0000 </r>
       <r>   -13.3438     0.0000   232.0000 </r>
       <r>   -13.1197     0.0000   232.0000 </r>
       <r>   -12.8956     0.0000   232.0000 </r>
       <r>   -12.6715     0.0000   232.0000 </r>
       <r>   -12.4475     0.0000   232.0000 </r>
       <r>   -12.2234     0.0000   232.0000 </r>
       <r>   -11.9993     0.0000   232.0000 </r>
       <r>   -11.7752     0.0000   232.0000 </r>
       <r>   -11.5511     0.0000   232.0000 </r>
       <r>   -11.3270     0.0000   232.0000 </r>
       <r>   -11.1029     0.0000   232.0000 </r>
       <r>   -10.8788     0.0000   232.0000 </r>
       <r>   -10.6548     0.0000   232.0000 </r>
       <r>   -10.4307     0.0000   232.0000 </r>
       <r>   -10.2066     0.0000   232.0000 </r>
       <r>    -9.9825     0.0000   232.0000 </r>
       <r>    -9.7584     0.0000   232.0000 </r>
       <r>    -9.5343     0.0000   232.0000 </r>
       <r>    -9.3102     0.0000   232.0000 </r>
       <r>    -9.0861     0.0000   232.0000 </r>
       <r>    -8.8621     0.0000   232.0000 </r>
       <r>    -8.6380     0.0000   232.0000 </r>
       <r>    -8.4139     0.0000   232.0000 </r>
       <r>    -8.1898     0.0000   232.0000 </r>
       <r>    -7.9657     0.0000   232.0000 </r>
       <r>    -7.7416     0.0035   232.0008 </r>
       <r>    -7.5175     1.7012   232.3820 </r>
       <r>    -7.2934     7.1246   233.9785 </r>
       <r>    -7.0694     8.7557   235.9406 </r>
       <r>    -6.8453    10.5697   238.3091 </r>
       <r>    -6.6212     9.3159   240.3967 </r>
       <r>    -6.3971    18.1533   244.4646 </r>
       <r>    -6.1730    24.6850   249.9962 </r>
       <r>    -5.9489    18.5698   254.1575 </r>
       <r>    -5.7248     9.1417   256.2060 </r>
       <r>    -5.5007     7.8166   257.9577 </r>
       <r>    -5.2767     0.1889   258.0000 </r>
       <r>    -5.0526     0.0000   258.0000 </r>
       <r>    -4.8285     0.0000   258.0000 </r>
       <r>    -4.6044     0.0000   258.0000 </r>
       <r>    -4.3803     0.0000   258.0000 </r>
       <r>    -4.1562     0.0053   258.0012 </r>
       <r>    -3.9321     1.2891   258.2901 </r>
       <r>    -3.7080     6.4063   259.7256 </r>
       <r>    -3.4840     1.6951   260.1055 </r>
       <r>    -3.2599     8.5518   262.0218 </r>
       <r>    -3.0358    12.4314   264.8076 </r>
       <r>    -2.8117    16.0043   268.3939 </r>
       <r>    -2.5876    21.4005   273.1895 </r>
       <r>    -2.3635    22.6522   278.2656 </r>
       <r>    -2.1394    24.7826   283.8190 </r>
       <r>    -1.9153    25.1975   289.4655 </r>
       <r>    -1.6913    17.4130   293.3675 </r>
       <r>    -1.4672     8.5246   295.2778 </r>
       <r>    -1.2431     2.8969   295.9269 </r>
       <r>    -1.0190     0.3255   295.9999 </r>
       <r>    -0.7949     0.0006   296.0000 </r>
       <r>    -0.5708     0.0000   296.0000 </r>
       <r>    -0.3467     0.0000   296.0000 </r>
       <r>    -0.1226     0.0000   296.0000 </r>
       <r>     0.1014     0.0000   296.0000 </r>
       <r>     0.3255     0.0000   296.0000 </r>
       <r>     0.5496     0.0000   296.0000 </r>
       <r>     0.7737     0.0603   296.0135 </r>
       <r>     0.9978     0.8526   296.2046 </r>
       <r>     1.2219     4.2141   297.1489 </r>
       <r>     1.4460    10.1855   299.4314 </r>
       <r>     1.6701    11.6497   302.0419 </r>
       <r>     1.8941    15.3271   305.4765 </r>
       <r>     2.1182    21.2719   310.2433 </r>
       <r>     2.3423    26.1749   316.1088 </r>
       <r>     2.5664    28.9811   322.6031 </r>
       <r>     2.7905    26.4094   328.5211 </r>
       <r>     3.0146    35.1994   336.4088 </r>
       <r>     3.2387    40.2412   345.4264 </r>
       <r>     3.4628    38.0440   353.9516 </r>
       <r>     3.6869    43.8135   363.7696 </r>
       <r>     3.9109    50.7133   375.1339 </r>
       <r>     4.1350    60.0687   388.5945 </r>
       <r>     4.3591    63.1472   402.7450 </r>
       <r>     4.5832    64.0778   417.1041 </r>
       <r>     4.8073    61.8669   430.9677 </r>
       <r>     5.0314    53.6509   442.9902 </r>
       <r>     5.2555    44.4903   452.9599 </r>
       <r>     5.4796    39.0052   461.7005 </r>
       <r>     5.7036    33.0082   469.0972 </r>
       <r>     5.9277    28.6341   475.5138 </r>
       <r>     6.1518    21.0111   480.2221 </r>
       <r>     6.3759    17.4511   484.1327 </r>
       <r>     6.6000    12.8906   487.0213 </r>
       <r>     6.8241     5.3537   488.2210 </r>
       <r>     7.0482    10.2861   490.5260 </r>
       <r>     7.2723    17.0500   494.3467 </r>
       <r>     7.4963    17.2647   498.2155 </r>
       <r>     7.7204    22.3436   503.2224 </r>
       <r>     7.9445    20.8480   507.8942 </r>
       <r>     8.1686    19.3539   512.2312 </r>
       <r>     8.3927    25.4697   517.9386 </r>
       <r>     8.6168    26.9799   523.9845 </r>
       <r>     8.8409    29.0175   530.4869 </r>
       <r>     9.0650    34.9171   538.3114 </r>
       <r>     9.2890    37.2374   546.6559 </r>
       <r>     9.5131    43.5941   556.4248 </r>
       <r>     9.7372    46.6157   566.8708 </r>
       <r>     9.9613    44.7069   576.8890 </r>
       <r>    10.1854    49.1780   587.9092 </r>
       <r>    10.4095    49.6059   599.0253 </r>
       <r>    10.6336    48.6175   609.9199 </r>
       <r>    10.8577    49.3480   620.9781 </r>
       <r>    11.0817    47.9886   631.7318 </r>
       <r>    11.3058    46.2502   642.0959 </r>
       <r>    11.5299    52.4703   653.8538 </r>
       <r>    11.7540    48.1017   664.6328 </r>
       <r>    11.9781    28.8340   671.0942 </r>
       <r>    12.2022     4.0166   671.9942 </r>
       <r>    12.4263     0.0257   672.0000 </r>
       <r>    12.6504     0.0000   672.0000 </r>
       <r>    12.8744     0.0000   672.0000 </r>
       <r>    13.0985     0.0000   672.0000 </r>
       <r>    13.3226     0.0000   672.0000 </r>
       <r>    13.5467     0.0000   672.0000 </r>
       <r>    13.7708     0.0000   672.0000 </r>
       <r>    13.9949     0.0000   672.0000 </r>
       <r>    14.2190     0.0000   672.0000 </r>
       <r>    14.4431     0.0000   672.0000 </r>
       <r>    14.6671     0.0000   672.0000 </r>
       <r>    14.8912     0.0000   672.0000 </r>
       <r>    15.1153     0.0000   672.0000 </r>
      </set>
     </set>
    </array>
   </total>
  </dos>
 </calculation>
 <structure name="finalpos" >
  <crystal>
   <varray name="basis" >
    <v>       8.82723674       0.02174367      -0.00220968 </v>
    <v>       0.02791345       8.84641734      -0.01740699 </v>
    <v>       0.02958326      -0.03264794       8.84941706 </v>
   </varray>
   <i name="volume">    691.03602867 </i>
   <varray name="rec_basis" >
    <v>       0.11328652      -0.00035821      -0.00038003 </v>
    <v>      -0.00027835       0.11304181       0.00041797 </v>
    <v>       0.00002774       0.00022227       0.11300252 </v>
   </varray>
  </crystal>
  <varray name="positions" >
   <v>       0.00505799       0.99596592       0.99781054 </v>
   <v>       0.27221895       0.99916159       0.25151377 </v>
   <v>       0.24501318       0.49566793       0.24700066 </v>
   <v>       0.49754889       0.49842790       0.00066399 </v>
   <v>       0.50321030       0.24309389       0.74371627 </v>
   <v>       0.99919266       0.50175803       0.50512360 </v>
   <v>       0.49433309       0.75972465       0.75204426 </v>
   <v>       0.99661705       0.23823497       0.25100219 </v>
   <v>       0.74946642       0.74808651       0.00697082 </v>
   <v>       0.00115912       0.24657717       0.74947888 </v>
   <v>       0.75093020       0.24620239       0.49692111 </v>
   <v>       0.00044907       0.75343210       0.75075004 </v>
   <v>       0.24785652       0.49489498       0.75193989 </v>
   <v>       0.25944151       0.23897828       0.99197077 </v>
   <v>       0.50659857       0.25942857       0.25162948 </v>
   <v>       0.73257561       0.99320595       0.24891752 </v>
   <v>       0.74286438       0.24637141       0.00022825 </v>
   <v>       0.24924824       0.74982935       0.99990345 </v>
   <v>       0.25187594       0.24656424       0.50549477 </v>
   <v>       0.25144360       0.75385191       0.50182509 </v>
   <v>       0.24886018       0.24617259       0.24611566 </v>
   <v>       0.26167784       0.00090849       0.99359053 </v>
   <v>       0.00127563       0.25251668       0.00037796 </v>
   <v>       0.74906181       0.24412878       0.24739328 </v>
   <v>       0.74365857       0.00075387       0.00566073 </v>
   <v>       0.51257125       0.00556031       0.24867300 </v>
   <v>       0.99396028       0.49252930       0.24268112 </v>
   <v>       0.50016418       0.76174311       0.00854074 </v>
   <v>       0.98627076       0.00332289       0.74540491 </v>
   <v>       0.75595981       0.24415094       0.74907300 </v>
   <v>       0.74554432       0.00780053       0.49057759 </v>
   <v>       0.50067187       0.24409805       0.49022225 </v>
   <v>       0.52453049       0.00110022       0.74811673 </v>
   <v>       0.99800944       0.00004636       0.25182062 </v>
   <v>       0.50178664       0.23950286       0.00376016 </v>
   <v>       0.25639192       0.74851231       0.24851751 </v>
   <v>       0.23851949       0.49958722       0.99481693 </v>
   <v>       0.00242450       0.74287635       0.00047770 </v>
   <v>       0.74349499       0.75325066       0.24986299 </v>
   <v>       0.76047135       0.49742337       0.00137989 </v>
   <v>       0.50166440       0.49751036       0.25344840 </v>
   <v>       0.24717682       0.24494308       0.74939455 </v>
   <v>       0.25923169       0.00047799       0.51219433 </v>
   <v>       0.00209403       0.24750512       0.49960037 </v>
   <v>       0.24159789       0.75756679       0.75188563 </v>
   <v>       0.25389031       0.49936008       0.50261960 </v>
   <v>       0.00072489       0.75537167       0.50157704 </v>
   <v>       0.99926347       0.50083006       0.75933152 </v>
   <v>       0.75141715       0.75835511       0.75465321 </v>
   <v>       0.74530064       0.49892086       0.49939653 </v>
   <v>       0.49427640       0.76249224       0.48942467 </v>
   <v>       0.49874406       0.50131284       0.74538913 </v>
   <v>       0.51740147       0.01384537       0.97621078 </v>
   <v>       0.00194224       0.51964123       0.98389269 </v>
   <v>       0.49571873       0.72814209       0.25631823 </v>
   <v>       0.22544206       0.01280345       0.73397038 </v>
   <v>       0.48689838       0.98642704       0.52197248 </v>
   <v>       0.73672112       0.97540879       0.78851154 </v>
   <v>       0.00664034       0.75891519       0.25241190 </v>
   <v>       0.74850052       0.50463456       0.25030739 </v>
   <v>       0.01027090       0.00135345       0.50057556 </v>
   <v>       0.49749895       0.51318305       0.49801341 </v>
   <v>       0.74969935       0.51044467       0.75381487 </v>
   <v>       0.74547796       0.75511199       0.49311731 </v>
  </varray>
 </structure>
</modeling>
