 vasp.6.4.3 19Mar24 (build Sep 18 2024 11:30:23) complex                        
  
 executed on             LinuxIFC date 2026.07.06  23:36:11
 running   28 mpi-ranks, on    1 nodes
 distrk:  each k-point on   28 cores,    1 groups
 distr:  one band on NCORE=   1 cores,   28 groups


--------------------------------------------------------------------------------------------------------


 INCAR:
   SYSTEM = HECN
   ISTART = 0
   ICHARG = 2
   PREC = Normal
   LREAL = .F.
   IBRION = 2
   ISIF = 3
   NSW = 100
   POTIM = 0.5
   EDIFFG = -0.01
   ENCUT = 400
   NELM = 60
   EDIFF = 1E-5
   LCHARG = .F.
   LWAVE = .F.
   ISMEAR = 0
   SIGMA = 0.1
   ALGO = Fast

 POTCAR:   PAW_PBE Zr_sv 07Sep2000                
 POTCAR:   PAW_PBE W_pv 06Sep2000                 
 POTCAR:   PAW_PBE Hf_pv 06Sep2000                
 POTCAR:   PAW_PBE N 08Apr2002                    
 POTCAR:   PAW_PBE C 08Apr2002                    
 POTCAR:   PAW_PBE Mo 08Apr2002                   
 POTCAR:   PAW_PBE Nb_sv 17Jan2003                
 -----------------------------------------------------------------------------
|                                                                             |
|           W    W    AA    RRRRR   N    N  II  N    N   GGGG   !!!           |
|           W    W   A  A   R    R  NN   N  II  NN   N  G    G  !!!           |
|           W    W  A    A  R    R  N N  N  II  N N  N  G       !!!           |
|           W WW W  AAAAAA  RRRRR   N  N N  II  N  N N  G  GGG   !            |
|           WW  WW  A    A  R   R   N   NN  II  N   NN  G    G                |
|           W    W  A    A  R    R  N    N  II  N    N   GGGG   !!!           |
|                                                                             |
|     For optimal performance we recommend to set                             |
|       NCORE = 2 up to number-of-cores-per-socket                            |
|     NCORE specifies how many cores store one orbital (NPAR=cpu/NCORE).      |
|     This setting can greatly improve the performance of VASP for DFT.       |
|     The default, NCORE=1 might be grossly inefficient on modern             |
|     multi-core architectures or massively parallel machines. Do your        |
|     own testing! More info at https://www.vasp.at/wiki/index.php/NCORE      |
|     Unfortunately you need to use the default for GW and RPA                |
|     calculations (for HF NCORE is supported but not extensively tested      |
|     yet).                                                                   |
|                                                                             |
 -----------------------------------------------------------------------------

 POTCAR:   PAW_PBE Zr_sv 07Sep2000                
   VRHFIN =Zr: 4s4p5s4d                                                                             
   LEXCH  = PE                                                                                      
   EATOM  =  1283.3934 eV,   94.3268 Ry                                                             
                                                                                                    
   TITEL  = PAW_PBE Zr_sv 07Sep2000                                                                 
   LULTRA =        F    use ultrasoft PP ?                                                          
   IUNSCR =        1    unscreen: 0-lin 1-nonlin 2-no                                               
   RPACOR =    2.200    partial core radius                                                         
   POMASS =   91.224; ZVAL   =   12.000    mass and valenz                                          
   RCORE  =    2.500    outmost cutoff radius                                                       
   RWIGS  =    3.070; RWIGS  =    1.625    wigner-seitz radius (au A)                               
   ENMAX  =  229.839; ENMIN  =  172.379 eV                                                          
   RCLOC  =    2.213    cutoff for local pot                                                        
   LCOR   =        T    correct aug charges                                                         
   LPAW   =        T    paw PP                                                                      
   EAUG   =  357.078                                                                                
   DEXC   =     .000                                                                                
   RMAX   =    3.041    core radius for proj-oper                                                   
   RAUG   =    1.300    factor for augmentation sphere                                              
   RDEP   =    2.597    radius for radial grids                                                     
   QCUT   =   -4.110; QGAM   =    8.220    optimization parameters                                  
                                                                                                    
   Description                                                                                      
     l     E      TYP  RCUT    TYP  RCUT                                                            
     0   .000     23  2.500                                                                         
     0   .000     23  2.500                                                                         
     1   .000     23  2.500                                                                         
     1   .000     23  2.500                                                                         
     2   .000     23  2.500                                                                         
     2   .000     23  2.500                                                                         
     3   .000      7   .000                                                                         
  local pseudopotential read in
  partial core-charges read in
  atomic valenz-charges read in
  non local Contribution for L=           0  read in
    real space projection operators read in
  non local Contribution for L=           0  read in
    real space projection operators read in
  non local Contribution for L=           1  read in
    real space projection operators read in
  non local Contribution for L=           1  read in
    real space projection operators read in
  non local Contribution for L=           2  read in
    real space projection operators read in
  non local Contribution for L=           2  read in
    real space projection operators read in
    PAW grid and wavefunctions read in
 
   number of l-projection  operators is LMAX  =           6
   number of lm-projection operators is LMMAX =          18
 
 POTCAR:   PAW_PBE W_pv 06Sep2000                 
   VRHFIN =W : 5p6s5d                                                                               
   LEXCH  = PE                                                                                      
   EATOM  =  1260.0376 eV,   92.6101 Ry                                                             
                                                                                                    
   TITEL  = PAW_PBE W_pv 06Sep2000                                                                  
   LULTRA =        F    use ultrasoft PP ?                                                          
   IUNSCR =        1    unscreen: 0-lin 1-nonlin 2-no                                               
   RPACOR =    2.330    partial core radius                                                         
   POMASS =  183.850; ZVAL   =   12.000    mass and valenz                                          
   RCORE  =    2.500    outmost cutoff radius                                                       
   RWIGS  =    2.750; RWIGS  =    1.455    wigner-seitz radius (au A)                               
   ENMAX  =  223.065; ENMIN  =  167.299 eV                                                          
   RCLOC  =    2.147    cutoff for local pot                                                        
   LCOR   =        T    correct aug charges                                                         
   LPAW   =        T    paw PP                                                                      
   EAUG   =  373.438                                                                                
   DEXC   =    -.018                                                                                
   RMAX   =    3.087    core radius for proj-oper                                                   
   RAUG   =    1.300    factor for augmentation sphere                                              
   RDEP   =    2.539    radius for radial grids                                                     
   QCUT   =   -4.049; QGAM   =    8.098    optimization parameters                                  
                                                                                                    
   Description                                                                                      
     l     E      TYP  RCUT    TYP  RCUT                                                            
     1   .000     23  2.500                                                                         
     1  -.200     23  2.500                                                                         
     2   .000     23  2.500                                                                         
     2   .000     23  2.500                                                                         
     0   .000     23  2.500                                                                         
     0   .000     23  2.500                                                                         
     3   .000      7   .000                                                                         
  local pseudopotential read in
  partial core-charges read in
  atomic valenz-charges read in
  non local Contribution for L=           1  read in
    real space projection operators read in
  non local Contribution for L=           1  read in
    real space projection operators read in
  non local Contribution for L=           2  read in
    real space projection operators read in
  non local Contribution for L=           2  read in
    real space projection operators read in
  non local Contribution for L=           0  read in
    real space projection operators read in
  non local Contribution for L=           0  read in
    real space projection operators read in
    PAW grid and wavefunctions read in
 
   number of l-projection  operators is LMAX  =           6
   number of lm-projection operators is LMMAX =          18
 
 POTCAR:   PAW_PBE Hf_pv 06Sep2000                
   VRHFIN =Hf: 5p6s5d                                                                               
   LEXCH  = PE                                                                                      
   EATOM  =   859.6195 eV,   63.1803 Ry                                                             
                                                                                                    
   TITEL  = PAW_PBE Hf_pv 06Sep2000                                                                 
   LULTRA =        F    use ultrasoft PP ?                                                          
   IUNSCR =        1    unscreen: 0-lin 1-nonlin 2-no                                               
   RPACOR =    2.500    partial core radius                                                         
   POMASS =  178.490; ZVAL   =   10.000    mass and valenz                                          
   RCORE  =    2.600    outmost cutoff radius                                                       
   RWIGS  =    3.050; RWIGS  =    1.614    wigner-seitz radius (au A)                               
   ENMAX  =  220.342; ENMIN  =  165.256 eV                                                          
   RCLOC  =    2.212    cutoff for local pot                                                        
   LCOR   =        T    correct aug charges                                                         
   LPAW   =        T    paw PP                                                                      
   EAUG   =  380.878                                                                                
   DEXC   =    -.057                                                                                
   RMAX   =    3.106    core radius for proj-oper                                                   
   RAUG   =    1.300    factor for augmentation sphere                                              
   RDEP   =    2.681    radius for radial grids                                                     
   QCUT   =   -4.024; QGAM   =    8.049    optimization parameters                                  
                                                                                                    
   Description                                                                                      
     l     E      TYP  RCUT    TYP  RCUT                                                            
     1   .000     23  2.500                                                                         
     1   .000     23  2.500                                                                         
     2   .000     23  2.500                                                                         
     2   .000     23  2.500                                                                         
     0   .000     23  2.600                                                                         
     0   .000     23  2.600                                                                         
     3   .000      7   .000                                                                         
  local pseudopotential read in
  partial core-charges read in
  atomic valenz-charges read in
  non local Contribution for L=           1  read in
    real space projection operators read in
  non local Contribution for L=           1  read in
    real space projection operators read in
  non local Contribution for L=           2  read in
    real space projection operators read in
  non local Contribution for L=           2  read in
    real space projection operators read in
  non local Contribution for L=           0  read in
    real space projection operators read in
  non local Contribution for L=           0  read in
    real space projection operators read in
    PAW grid and wavefunctions read in
 
   number of l-projection  operators is LMAX  =           6
   number of lm-projection operators is LMMAX =          18
 
 POTCAR:   PAW_PBE N 08Apr2002                    
   VRHFIN =N: s2p3                                                                                  
   LEXCH  = PE                                                                                      
   EATOM  =   264.5486 eV,   19.4438 Ry                                                             
                                                                                                    
   TITEL  = PAW_PBE N 08Apr2002                                                                     
   LULTRA =        F    use ultrasoft PP ?                                                          
   IUNSCR =        0    unscreen: 0-lin 1-nonlin 2-no                                               
   RPACOR =     .000    partial core radius                                                         
   POMASS =   14.001; ZVAL   =    5.000    mass and valenz                                          
   RCORE  =    1.500    outmost cutoff radius                                                       
   RWIGS  =    1.400; RWIGS  =     .741    wigner-seitz radius (au A)                               
   ENMAX  =  400.000; ENMIN  =  300.000 eV                                                          
   ICORE  =        2    local potential                                                             
   LCOR   =        T    correct aug charges                                                         
   LPAW   =        T    paw PP                                                                      
   EAUG   =  627.112                                                                                
   DEXC   =     .000                                                                                
   RMAX   =    2.247    core radius for proj-oper                                                   
   RAUG   =    1.300    factor for augmentation sphere                                              
   RDEP   =    1.514    radius for radial grids                                                     
   QCUT   =   -5.562; QGAM   =   11.124    optimization parameters                                  
                                                                                                    
   Description                                                                                      
     l     E      TYP  RCUT    TYP  RCUT                                                            
     0   .000     23  1.200                                                                         
     0   .000     23  1.200                                                                         
     1   .000     23  1.500                                                                         
     1   .700     23  1.500                                                                         
     2   .000      7  1.500                                                                         
  local pseudopotential read in
  atomic valenz-charges read in
  non local Contribution for L=           0  read in
    real space projection operators read in
  non local Contribution for L=           0  read in
    real space projection operators read in
  non local Contribution for L=           1  read in
    real space projection operators read in
  non local Contribution for L=           1  read in
    real space projection operators read in
    PAW grid and wavefunctions read in
 
   number of l-projection  operators is LMAX  =           4
   number of lm-projection operators is LMMAX =           8
 
 POTCAR:   PAW_PBE C 08Apr2002                    
   VRHFIN =C: s2p2                                                                                  
   LEXCH  = PE                                                                                      
   EATOM  =   147.1560 eV,   10.8157 Ry                                                             
                                                                                                    
   TITEL  = PAW_PBE C 08Apr2002                                                                     
   LULTRA =        F    use ultrasoft PP ?                                                          
   IUNSCR =        0    unscreen: 0-lin 1-nonlin 2-no                                               
   RPACOR =     .000    partial core radius                                                         
   POMASS =   12.011; ZVAL   =    4.000    mass and valenz                                          
   RCORE  =    1.500    outmost cutoff radius                                                       
   RWIGS  =    1.630; RWIGS  =     .863    wigner-seitz radius (au A)                               
   ENMAX  =  400.000; ENMIN  =  300.000 eV                                                          
   ICORE  =        2    local potential                                                             
   LCOR   =        T    correct aug charges                                                         
   LPAW   =        T    paw PP                                                                      
   EAUG   =  644.873                                                                                
   DEXC   =     .000                                                                                
   RMAX   =    2.266    core radius for proj-oper                                                   
   RAUG   =    1.300    factor for augmentation sphere                                              
   RDEP   =    1.501    radius for radial grids                                                     
   RDEPT  =    1.300    core radius for aug-charge                                                  
   QCUT   =   -5.516; QGAM   =   11.032    optimization parameters                                  
                                                                                                    
   Description                                                                                      
     l     E      TYP  RCUT    TYP  RCUT                                                            
     0   .000     23  1.200                                                                         
     0   .000     23  1.200                                                                         
     1   .000     23  1.500                                                                         
     1  2.500     23  1.500                                                                         
     2   .000      7  1.500                                                                         
  local pseudopotential read in
  atomic valenz-charges read in
  non local Contribution for L=           0  read in
    real space projection operators read in
  non local Contribution for L=           0  read in
    real space projection operators read in
  non local Contribution for L=           1  read in
    real space projection operators read in
  non local Contribution for L=           1  read in
    real space projection operators read in
    PAW grid and wavefunctions read in
 
   number of l-projection  operators is LMAX  =           4
   number of lm-projection operators is LMMAX =           8
 
 POTCAR:   PAW_PBE Mo 08Apr2002                   
   VRHFIN =Mo: 4p5s4d                                                                               
   LEXCH  = PE                                                                                      
   EATOM  =   217.5180 eV,   15.9871 Ry                                                             
                                                                                                    
   TITEL  = PAW_PBE Mo 08Apr2002                                                                    
   LULTRA =        F    use ultrasoft PP ?                                                          
   IUNSCR =        1    unscreen: 0-lin 1-nonlin 2-no                                               
   RPACOR =    2.200    partial core radius                                                         
   POMASS =   95.940; ZVAL   =    6.000    mass and valenz                                          
   RCORE  =    2.750    outmost cutoff radius                                                       
   RWIGS  =    2.750; RWIGS  =    1.455    wigner-seitz radius (au A)                               
   ENMAX  =  224.584; ENMIN  =  168.438 eV                                                          
   RCLOC  =    2.111    cutoff for local pot                                                        
   LCOR   =        T    correct aug charges                                                         
   LPAW   =        T    paw PP                                                                      
   EAUG   =  345.278                                                                                
   DEXC   =    -.088                                                                                
   RMAX   =    3.077    core radius for proj-oper                                                   
   RAUG   =    1.300    factor for augmentation sphere                                              
   RDEP   =    2.815    radius for radial grids                                                     
   QCUT   =   -4.063; QGAM   =    8.126    optimization parameters                                  
                                                                                                    
   Description                                                                                      
     l     E      TYP  RCUT    TYP  RCUT                                                            
     2   .000     23  2.500                                                                         
     2   .000     23  2.500                                                                         
     0   .000     23  2.600                                                                         
     0  1.000     23  2.600                                                                         
     1   .400     23  2.750                                                                         
     1  2.000     23  2.750                                                                         
     3   .000      7   .000                                                                         
  local pseudopotential read in
  partial core-charges read in
  atomic valenz-charges read in
  non local Contribution for L=           2  read in
    real space projection operators read in
  non local Contribution for L=           2  read in
    real space projection operators read in
  non local Contribution for L=           0  read in
    real space projection operators read in
  non local Contribution for L=           0  read in
    real space projection operators read in
  non local Contribution for L=           1  read in
    real space projection operators read in
  non local Contribution for L=           1  read in
    real space projection operators read in
    PAW grid and wavefunctions read in
 
   number of l-projection  operators is LMAX  =           6
   number of lm-projection operators is LMMAX =          18
 
 POTCAR:   PAW_PBE Nb_sv 17Jan2003                
   VRHFIN =Nb: 4p5s4d                                                                               
   LEXCH  = PE                                                                                      
   EATOM  =  1555.1913 eV,  114.3033 Ry                                                             
                                                                                                    
   TITEL  = PAW_PBE Nb_sv 17Jan2003                                                                 
   LULTRA =        F    use ultrasoft PP ?                                                          
   IUNSCR =        1    unscreen: 0-lin 1-nonlin 2-no                                               
   RPACOR =    1.800    partial core radius                                                         
   POMASS =   92.910; ZVAL   =   13.000    mass and valenz                                          
   RCORE  =    2.200    outmost cutoff radius                                                       
   RWIGS  =    2.400; RWIGS  =    1.270    wigner-seitz radius (au A)                               
   ENMAX  =  293.235; ENMIN  =  219.927 eV                                                          
   RCLOC  =    1.411    cutoff for local pot                                                        
   LCOR   =        T    correct aug charges                                                         
   LPAW   =        T    paw PP                                                                      
   EAUG   =  455.659                                                                                
   DEXC   =     .000                                                                                
   RMAX   =    2.693    core radius for proj-oper                                                   
   RAUG   =    1.300    factor for augmentation sphere                                              
   RDEP   =    2.299    radius for radial grids                                                     
   QCUT   =   -4.642; QGAM   =    9.285    optimization parameters                                  
                                                                                                    
   Description                                                                                      
     l     E      TYP  RCUT    TYP  RCUT                                                            
     0   .000     23  2.200                                                                         
     0   .000     23  2.200                                                                         
     0   .000     23  2.200                                                                         
     0   .000     23  2.200                                                                         
     1   .000     23  2.200                                                                         
     1  1.000     23  2.200                                                                         
     2   .000     23  2.200                                                                         
     2   .000     23  2.200                                                                         
     3   .000      7   .000                                                                         
  local pseudopotential read in
  partial core-charges read in
  atomic valenz-charges read in
  non local Contribution for L=           0  read in
    real space projection operators read in
  non local Contribution for L=           0  read in
    real space projection operators read in
  non local Contribution for L=           1  read in
    real space projection operators read in
  non local Contribution for L=           1  read in
    real space projection operators read in
  non local Contribution for L=           2  read in
    real space projection operators read in
  non local Contribution for L=           2  read in
    real space projection operators read in
    PAW grid and wavefunctions read in
 
   number of l-projection  operators is LMAX  =           6
   number of lm-projection operators is LMMAX =          18
 
 -----------------------------------------------------------------------------
|                                                                             |
|               ----> ADVICE to this user running VASP <----                  |
|                                                                             |
|     You have a (more or less) 'large supercell' and for larger cells it     |
|     might be more efficient to use real-space projection operators.         |
|     Therefore, try LREAL= Auto in the INCAR file.                           |
|     Mind: If you want to do very accurate calculations, keep the            |
|     reciprocal projection scheme (i.e. LREAL=.FALSE.).                      |
|                                                                             |
 -----------------------------------------------------------------------------

 PAW_PBE Zr_sv 07Sep2000                :
 energy of atom  1       EATOM=-1283.3934
 kinetic energy error for atom=    0.0044 (will be added to EATOM!!)
 PAW_PBE W_pv 06Sep2000                 :
 energy of atom  2       EATOM=-1260.0376
 kinetic energy error for atom=    0.0051 (will be added to EATOM!!)
 PAW_PBE Hf_pv 06Sep2000                :
 energy of atom  3       EATOM= -859.6195
 kinetic energy error for atom=    0.0038 (will be added to EATOM!!)
 PAW_PBE N 08Apr2002                    :
 energy of atom  4       EATOM= -264.5486
 kinetic energy error for atom=    0.0736 (will be added to EATOM!!)
 PAW_PBE C 08Apr2002                    :
 energy of atom  5       EATOM= -147.1560
 kinetic energy error for atom=    0.0288 (will be added to EATOM!!)
 PAW_PBE Mo 08Apr2002                   :
 energy of atom  6       EATOM= -217.5180
 kinetic energy error for atom=    0.0025 (will be added to EATOM!!)
 PAW_PBE Nb_sv 17Jan2003                :
 energy of atom  7       EATOM=-1555.1913
 kinetic energy error for atom=    0.0212 (will be added to EATOM!!)
 
 
 POSCAR: 44-ZrHfNbMoW
  positions in direct lattice
  velocities in cartesian coordinates


 exchange-correlation table for PE
   RHO(1)=    0.500       N(1)  =     2000
   RHO(2)=  100.500       N(2)  =     4000
 


--------------------------------------------------------------------------------------------------------


 ion  position               nearest neighbor table
   1  0.002  0.000  0.991-  29 2.23  38 2.25  25 2.25  23 2.29  22 2.32  34 2.37  56 2.94   9 3.14
                            18 3.14  14 3.15  59 3.16  17 3.17  58 3.18  10 3.20  12 3.23   8 3.27
   2  0.257  0.998  0.256-  26 2.23  36 2.25  21 2.26  43 2.29  22 2.32  34 2.34  57 2.94  59 3.13
                            55 3.16  19 3.17  18 3.17  20 3.17   8 3.19  61 3.19  15 3.20  14 3.26
   3  0.247  0.502  0.247-  36 2.24  27 2.27  37 2.27  21 2.29  46 2.31  41 2.32   4 3.18   6 3.19
                            18 3.20  55 3.21  14 3.21  62 3.22  20 3.23  19 3.24  54 3.24  15 3.25
   4  0.501  0.499  1.000-  35 2.25  40 2.29  52 2.29  41 2.29  37 2.30  28 2.34  63 3.12  13 3.13
                            60 3.17  15 3.17   3 3.18  17 3.18  14 3.22  18 3.22   7 3.25  55 3.25
   5  0.503  0.241  0.745-  33 2.17  32 2.27  42 2.28  35 2.29  30 2.31  52 2.35  53 2.95  58 3.04
                            19 3.12  17 3.18  13 3.20  14 3.21  11 3.21   4 3.25  63 3.26  56 3.27
   6  0.999  0.500  0.503-  50 2.27  48 2.28  47 2.29  46 2.29  44 2.29  27 2.31  11 3.03  12 3.08
                            64 3.10  10 3.12   8 3.19  20 3.19   3 3.19  63 3.19  60 3.22  19 3.23
   7  0.500  0.760  0.752-  33 2.19  51 2.26  28 2.27  49 2.30  52 2.33  45 2.34  58 2.90  53 3.05
                            57 3.14  63 3.14  18 3.15  62 3.18  20 3.19  64 3.20  13 3.21   4 3.25
   8  0.989  0.231  0.273-  44 2.09  34 2.10  24 2.14  27 2.32  21 2.34  23 2.38  11 2.89  61 2.98
                            16 3.08  19 3.18   6 3.19   2 3.19   1 3.27  17 3.31   3 3.38  14 3.40
   9  0.770  0.742  0.996-  38 2.11  40 2.15  49 2.20  39 2.25  25 2.31  28 2.37  54 2.88  12 2.95
                            58 3.03  63 3.05  60 3.11  59 3.11   1 3.14   4 3.27   7 3.28  16 3.30
  10  0.017  0.240  0.731-  44 2.04  42 2.11  29 2.18  48 2.25  30 2.32  23 2.51  56 2.74  61 2.95
                            19 2.96   6 3.12  14 3.16  11 3.18   1 3.20  13 3.20  17 3.31  54 3.41
  11  0.757  0.267  0.494-  50 2.10  44 2.19  24 2.21  32 2.25  30 2.26  31 2.36   8 2.89   6 3.03
                            60 3.11  15 3.16  63 3.17  10 3.18  62 3.20   5 3.21  16 3.23
  12  0.999  0.725  0.761-  48 2.15  45 2.18  38 2.19  49 2.21  47 2.28  29 2.52  54 2.80   9 2.95
                            63 3.02   6 3.08  13 3.09  18 3.15  20 3.20   1 3.23  64 3.26  56 3.29
  13  0.258  0.500  0.753-  52 2.15  37 2.18  42 2.19  46 2.24  45 2.29  48 2.31  12 3.09   4 3.13
                            62 3.14  14 3.16  54 3.16  19 3.18  20 3.19  18 3.20   5 3.20  10 3.20
  14  0.247  0.249  0.995-  23 2.21  22 2.22  42 2.22  21 2.29  37 2.30  35 2.30  56 3.07   1 3.15
                            13 3.16  10 3.16   5 3.21   3 3.21   4 3.22  53 3.23   2 3.26  15 3.27
  15  0.507  0.251  0.248-  32 2.20  24 2.21  35 2.24  41 2.26  26 2.26  21 2.33  16 3.15  11 3.16
                             4 3.17  60 3.19  19 3.20   2 3.20  17 3.21  53 3.24   3 3.25  57 3.25
  16  0.744  0.994  0.261-  26 2.17  31 2.20  39 2.23  34 2.27  25 2.28  24 2.29  57 3.02   8 3.08
                            59 3.08  55 3.11  64 3.15  15 3.15  11 3.23  61 3.24  53 3.28   9 3.30
  17  0.755  0.253  0.991-  23 2.21  30 2.22  35 2.27  40 2.27  24 2.32  25 2.32  53 3.05  58 3.10
                             1 3.17   5 3.18   4 3.18  63 3.19  15 3.21  54 3.23  60 3.26   8 3.31
  18  0.251  0.756  1.000-  38 2.22  45 2.23  22 2.24  36 2.26  37 2.28  28 2.29   1 3.14   7 3.15
                            12 3.15  54 3.15   2 3.17  59 3.18  13 3.20   3 3.20   4 3.22  56 3.27
  19  0.257  0.249  0.503-  42 2.21  32 2.25  43 2.26  46 2.26  21 2.28  44 2.32  10 2.96  56 3.09
                             5 3.12   2 3.17  13 3.18   8 3.18  61 3.19  15 3.20   6 3.23  57 3.23
  20  0.247  0.752  0.505-  45 2.23  43 2.24  47 2.26  51 2.26  46 2.27  36 2.28  57 3.01  61 3.11
                            62 3.13  55 3.16   2 3.17   6 3.19  59 3.19  13 3.19   7 3.19  12 3.20
  21  0.248  0.249  0.250-   2 2.26  19 2.28   3 2.29  14 2.29  15 2.33   8 2.34
  22  0.260  0.003  0.998-  14 2.22  18 2.24  56 2.28   2 2.32   1 2.32  53 2.32
  23  0.001  0.253  0.009-  14 2.21  17 2.21   1 2.29   8 2.38  54 2.39  10 2.51
  24  0.753  0.246  0.248-   8 2.14  15 2.21  11 2.21  16 2.29  17 2.32  60 2.37
  25  0.752  0.997  0.008-  58 2.13  53 2.13   1 2.25  16 2.28   9 2.31  17 2.32
  26  0.505  0.001  0.235-  16 2.17   2 2.23  57 2.23  15 2.26  55 2.30  53 2.31
  27  0.995  0.485  0.247-  60 2.22   3 2.27   6 2.31   8 2.32  54 2.33
  28  0.506  0.758  0.005-   7 2.27  18 2.29  53 2.32  55 2.32   4 2.34   9 2.37
  29  0.973  0.003  0.746-  61 2.16  10 2.18   1 2.23  56 2.23  58 2.25  12 2.52
  30  0.760  0.245  0.744-  17 2.22  11 2.26   5 2.31  10 2.32  58 2.36  63 2.40
  31  0.744  0.007  0.506-  16 2.20  57 2.31  61 2.35  11 2.36  58 2.41
  32  0.507  0.248  0.493-  15 2.20  11 2.25  19 2.25   5 2.27  62 2.40  57 2.44
  33  0.485  0.001  0.734-   5 2.17  58 2.19   7 2.19  53 2.22  57 2.27  56 2.38
  34  0.997  0.999  0.255-   8 2.10  59 2.10  16 2.27  61 2.28   2 2.34   1 2.37
  35  0.503  0.250  1.000-  53 2.16  15 2.24   4 2.25  17 2.27   5 2.29  14 2.30
  36  0.251  0.750  0.251-   3 2.24   2 2.25  59 2.25  18 2.26  55 2.27  20 2.28
  37  0.245  0.503  0.994-  13 2.18  54 2.24   3 2.27  18 2.28  14 2.30   4 2.30
  38  0.004  0.751  0.003-   9 2.11  54 2.12  12 2.19  18 2.22  59 2.24   1 2.25
  39  0.750  0.747  0.245-  60 2.16  55 2.22  16 2.23   9 2.25  59 2.26  64 2.29
  40  0.755  0.504  0.999-   9 2.15  54 2.17  60 2.24  63 2.25  17 2.27   4 2.29
  41  0.504  0.501  0.255-  60 2.20  62 2.20  55 2.23  15 2.26   4 2.29   3 2.32
  42  0.250  0.257  0.749-  10 2.11  13 2.19  56 2.21  19 2.21  14 2.22   5 2.28
  43  0.254  1.000  0.510-  57 2.15  56 2.16  61 2.23  20 2.24  19 2.26   2 2.29
  44  0.999  0.245  0.505-  10 2.04   8 2.09  11 2.19  61 2.22   6 2.29  19 2.32
  45  0.240  0.752  0.753-  12 2.18  18 2.23  20 2.23  13 2.29   7 2.34  56 2.37
  46  0.254  0.500  0.504-  62 2.21  13 2.24  19 2.26  20 2.27   6 2.29   3 2.31
  47  0.996  0.753  0.509-  64 2.21  61 2.23  20 2.26  12 2.28   6 2.29  59 2.32
  48  0.001  0.487  0.757-  54 2.11  12 2.15  10 2.25   6 2.28  13 2.31  63 2.32
  49  0.755  0.755  0.752-  58 2.13   9 2.20  12 2.21  63 2.21  64 2.28   7 2.30
  50  0.747  0.500  0.498-  11 2.10  64 2.15  62 2.23  60 2.25  63 2.26   6 2.27
  51  0.499  0.749  0.502-  57 2.08  62 2.13  55 2.15   7 2.26  20 2.26  64 2.27
  52  0.497  0.502  0.745-  13 2.15  62 2.22  63 2.22   4 2.29   7 2.33   5 2.35
  53  0.518  0.013  0.978-  25 2.13  35 2.16  33 2.22  26 2.31  28 2.32  22 2.32  58 2.62   5 2.95
                            17 3.05   7 3.05  14 3.23  15 3.24  16 3.28   9 3.33  18 3.35  56 3.38
  54  0.997  0.516  0.990-  48 2.11  38 2.12  40 2.17  37 2.24  27 2.33  23 2.39  12 2.80   9 2.88
                            63 3.14  18 3.15  13 3.16  60 3.22  17 3.23   3 3.24  59 3.25  14 3.30
  55  0.503  0.748  0.262-  51 2.15  39 2.22  41 2.23  36 2.27  26 2.30  28 2.32  57 2.86  62 3.01
                            60 3.09  64 3.09  16 3.11   2 3.16  20 3.16   3 3.21   4 3.25  18 3.28
  56  0.221  0.014  0.748-  43 2.16  42 2.21  29 2.23  22 2.28  45 2.37  33 2.38  10 2.74  61 2.91
                             1 2.94  14 3.07  19 3.09  20 3.22   5 3.27  18 3.27  12 3.29  53 3.38
  57  0.491  0.978  0.482-  51 2.08  43 2.15  26 2.23  33 2.27  31 2.31  32 2.44  55 2.86   2 2.94
                            20 3.01  16 3.02   7 3.14  64 3.18  19 3.23  15 3.25   5 3.35  58 3.37
  58  0.725  0.988  0.773-  25 2.13  49 2.13  33 2.19  29 2.25  30 2.36  31 2.41  53 2.62   7 2.90
                             9 3.03   5 3.04  17 3.10   1 3.18  57 3.37  12 3.41
  59  0.000  0.766  0.251-  34 2.10  38 2.24  36 2.25  39 2.26  47 2.32  16 3.08   9 3.11   2 3.13
                             1 3.16  18 3.18  20 3.19   3 3.25  54 3.25   6 3.31
  60  0.749  0.508  0.249-  39 2.16  41 2.20  27 2.22  40 2.24  50 2.25  24 2.37  55 3.09  11 3.11
                             9 3.11   4 3.17  15 3.19  54 3.22   6 3.22  17 3.26
  61  0.006  1.000  0.508-  29 2.16  44 2.22  43 2.23  47 2.23  34 2.28  31 2.35  56 2.91  10 2.95
                             8 2.98  20 3.11   2 3.19  19 3.19  16 3.24
  62  0.500  0.513  0.499-  51 2.13  41 2.20  46 2.21  52 2.22  50 2.23  32 2.40  55 3.01  64 3.05
                            20 3.13  13 3.14   7 3.18  11 3.20   3 3.22  19 3.24  15 3.26   5 3.31
  63  0.743  0.510  0.750-  49 2.21  52 2.22  40 2.25  50 2.26  48 2.32  30 2.40  12 3.02   9 3.05
                             4 3.12   7 3.14  54 3.14  11 3.17  17 3.19   6 3.19   5 3.26
  64  0.751  0.738  0.499-  50 2.15  47 2.21  51 2.27  49 2.28  39 2.29  62 3.05  55 3.09   6 3.10
                            16 3.15  57 3.18   7 3.20  12 3.26
 
  LATTYP: Found a triclinic cell.
 ALAT       =     8.9927565096
 B/A-ratio  =     1.4182560917
 C/A-ratio  =     1.7255731924
 COS(alpha) =     0.0001016834
 COS(beta)  =     0.5732688540
 COS(gamma) =     0.7094437707
  
  Lattice vectors:
  
 A1 = (   0.0439288170,  -0.0284616039,   8.9926041744)
 A2 = (   9.0326378677,  -0.0136262800,   9.0042541110)
 A3 = (  -8.9240103993,   8.9852792461,   8.9679737648)


Analysis of symmetry for initial positions (statically):
=====================================================================
 Subroutine PRICEL returns:
 Original cell was already a primitive cell.
 

 Routine SETGRP: Setting up the symmetry group for a 
 triclinic supercell.


 Subroutine GETGRP returns: Found  1 space group operations
 (whereof  1 operations were pure point group operations)
 out of a pool of  2 trial point group operations.


The static configuration has the point symmetry C_1 .


Analysis of symmetry for dynamics (positions and initial velocities):
=====================================================================
 Subroutine PRICEL returns:
 Original cell was already a primitive cell.
 

 Routine SETGRP: Setting up the symmetry group for a 
 triclinic supercell.


 Subroutine GETGRP returns: Found  1 space group operations
 (whereof  1 operations were pure point group operations)
 out of a pool of  2 trial point group operations.


The dynamic configuration has the point symmetry C_1 .


 Subroutine INISYM returns: Found  1 space group operations
 (whereof  1 operations are pure point group operations),
 and found     1 'primitive' translations


----------------------------------------------------------------------------------------

                                     Primitive cell                                     

  volume of cell :     729.7863

  direct lattice vectors                    reciprocal lattice vectors
     8.988709051  0.014835324  0.011649937     0.111251810 -0.000256712 -0.000544277
     0.020769834  9.028576174 -0.012980473    -0.000183259  0.110760362  0.000351452
     0.043928817 -0.028461604  8.992604174    -0.000144391  0.000160211  0.111203705

  length of vectors
     8.988728843  9.028609395  8.992756510     0.111253437  0.110761072  0.111203914

  position of ions in fractional coordinates (direct lattice)
     0.001945920  0.000046660  0.991466718
     0.257467248  0.998453365  0.255608752
     0.246724578  0.501771831  0.247404494
     0.501054229  0.498884641  0.999684602
     0.502983549  0.241213606  0.745369969
     0.999297544  0.499500213  0.503031973
     0.499817567  0.759888785  0.752228594
     0.989289314  0.230558971  0.272862589
     0.769752479  0.741880536  0.995738152
     0.017322145  0.239745967  0.730525829
     0.756779636  0.267131812  0.493918582
     0.999022284  0.725197222  0.760608134
     0.257837793  0.499743155  0.752522713
     0.246782286  0.248547208  0.995456728
     0.506827759  0.251104065  0.248259231
     0.744392667  0.993734641  0.261208340
     0.755289962  0.252603927  0.991008501
     0.251167197  0.755750547  0.999963093
     0.256580051  0.249454525  0.502544308
     0.246627742  0.751600081  0.505023041
     0.247786805  0.248638824  0.249630922
     0.259821264  0.003150792  0.997971396
     0.000894511  0.252630259  0.009255811
     0.752952650  0.246428948  0.248447237
     0.752042529  0.996582482  0.007712946
     0.504586389  0.000778932  0.234906241
     0.994854430  0.485488172  0.246640181
     0.506292222  0.757839104  0.004804237
     0.973429272  0.002501923  0.745794401
     0.759888597  0.245138376  0.744443933
     0.744460853  0.006958446  0.506025057
     0.507165799  0.247726181  0.493133975
     0.485306274  0.001319343  0.733876947
     0.997011452  0.999104425  0.254758233
     0.503032097  0.250213932  0.999511431
     0.250677975  0.749728755  0.250957776
     0.245299510  0.503176512  0.994479767
     0.003818510  0.751221535  0.002779760
     0.749786860  0.747093781  0.244791523
     0.755238140  0.504380402  0.999477333
     0.504183242  0.501378679  0.254541892
     0.250218248  0.257115471  0.748686416
     0.253842446  0.999694239  0.510058522
     0.998934624  0.245460991  0.504860415
     0.240000093  0.752447390  0.752810477
     0.254140079  0.500087141  0.503664298
     0.995720757  0.753056001  0.508585767
     0.000759223  0.487207392  0.756696359
     0.755115835  0.754552687  0.752250410
     0.747062024  0.499886504  0.498468347
     0.498600065  0.748568965  0.501567903
     0.496963644  0.501509653  0.744976153
     0.517544232  0.012696060  0.978174507
     0.996657547  0.516381610  0.989518472
     0.503087421  0.747871807  0.262375581
     0.220958615  0.013934502  0.748135153
     0.490798538  0.977938336  0.481958807
     0.725024731  0.987870817  0.772909820
     0.000494010  0.766134360  0.251485220
     0.748663143  0.508415395  0.248646254
     0.006094205  0.999607335  0.507975747
     0.499651282  0.512941611  0.498953681
     0.743391228  0.509930273  0.750150375
     0.750787053  0.738399650  0.498716111

  ion indices of the primitive-cell ions
   primitive index   ion index
                 1           1
                 2           2
                 3           3
                 4           4
                 5           5
                 6           6
                 7           7
                 8           8
                 9           9
                10          10
                11          11
                12          12
                13          13
                14          14
                15          15
                16          16
                17          17
                18          18
                19          19
                20          20
                21          21
                22          22
                23          23
                24          24
                25          25
                26          26
                27          27
                28          28
                29          29
                30          30
                31          31
                32          32
                33          33
                34          34
                35          35
                36          36
                37          37
                38          38
                39          39
                40          40
                41          41
                42          42
                43          43
                44          44
                45          45
                46          46
                47          47
                48          48
                49          49
                50          50
                51          51
                52          52
                53          53
                54          54
                55          55
                56          56
                57          57
                58          58
                59          59
                60          60
                61          61
                62          62
                63          63
                64          64

----------------------------------------------------------------------------------------

 
 
 KPOINTS: HECN                                    

Automatic generation of k-mesh.
 Grid dimensions read from file:
 generate k-points for:    3    3    3

 Generating k-lattice:

  Cartesian coordinates                     Fractional coordinates (reciprocal lattice)
     0.037083937 -0.000085571 -0.000181426     0.333333333 -0.000000000 -0.000000000
    -0.000061086  0.036920121  0.000117151     0.000000000  0.333333333  0.000000000
    -0.000048130  0.000053404  0.037067902    -0.000000000  0.000000000  0.333333333

  Length of vectors
     0.037084479  0.036920357  0.037067971

  Shift w.r.t. Gamma in fractional coordinates (k-lattice)
     0.000000000  0.000000000  0.000000000

 
 Subroutine IBZKPT returns following result:
 ===========================================
 
 Found     14 irreducible k-points:
 
 Following reciprocal coordinates:
            Coordinates               Weight
  0.000000  0.000000  0.000000      1.000000
  0.333333 -0.000000  0.000000      2.000000
  0.000000  0.333333  0.000000      2.000000
  0.333333  0.333333  0.000000      2.000000
 -0.333333  0.333333  0.000000      2.000000
 -0.000000 -0.000000  0.333333      2.000000
  0.333333 -0.000000  0.333333      2.000000
 -0.333333  0.000000  0.333333      2.000000
 -0.000000  0.333333  0.333333      2.000000
  0.333333  0.333333  0.333333      2.000000
 -0.333333  0.333333  0.333333      2.000000
  0.000000 -0.333333  0.333333      2.000000
  0.333333 -0.333333  0.333333      2.000000
 -0.333333 -0.333333  0.333333      2.000000
 
 Following cartesian coordinates:
            Coordinates               Weight
  0.000000  0.000000  0.000000      1.000000
  0.037084 -0.000086 -0.000181      2.000000
 -0.000061  0.036920  0.000117      2.000000
  0.037023  0.036835 -0.000064      2.000000
 -0.037145  0.037006  0.000299      2.000000
 -0.000048  0.000053  0.037068      2.000000
  0.037036 -0.000032  0.036886      2.000000
 -0.037132  0.000139  0.037249      2.000000
 -0.000109  0.036974  0.037185      2.000000
  0.036975  0.036888  0.037004      2.000000
 -0.037193  0.037059  0.037366      2.000000
  0.000013 -0.036867  0.036951      2.000000
  0.037097 -0.036952  0.036769      2.000000
 -0.037071 -0.036781  0.037132      2.000000
 


--------------------------------------------------------------------------------------------------------




 Dimension of arrays:
   k-points           NKPTS =     14   k-points in BZ     NKDIM =     14   number of bands    NBANDS=    308
   number of dos      NEDOS =    301   number of ions     NIONS =     64
   non local maximal  LDIM  =      6   non local SUM 2l+1 LMDIM =     18
   total plane-waves  NPLWV = 110592
   max r-space proj   IRMAX =      1   max aug-charges    IRDMAX=   9928
   dimension x,y,z NGX =    48 NGY =   48 NGZ =   48
   dimension x,y,z NGXF=    96 NGYF=   96 NGZF=   96
   support grid    NGXF=    96 NGYF=   96 NGZF=   96
   ions per type =               7   6   7  13  19   6   6
   NGX,Y,Z   is equivalent  to a cutoff of   8.88,  8.84,  8.87 a.u.
   NGXF,Y,Z  is equivalent  to a cutoff of  17.76, 17.68, 17.75 a.u.

 SYSTEM =  HECN                                    
 POSCAR =  44-ZrHfNbMoW                            

 Startparameter for this run:
   NWRITE =      2    write-flag & timer
   PREC   = normal    normal or accurate (medium, high low for compatibility)
   ISTART =      0    job   : 0-new  1-cont  2-samecut
   ICHARG =      2    charge: 1-file 2-atom 10-const
   ISPIN  =      1    spin polarized calculation?
   LNONCOLLINEAR =      F non collinear calculations
   LSORBIT =      F    spin-orbit coupling
   INIWAV =      1    electr: 0-lowe 1-rand  2-diag
   LASPH  =      F    aspherical Exc in radial PAW
 Electronic Relaxation 1
   ENCUT  =  400.0 eV  29.40 Ry    5.42 a.u.  14.66 14.72 14.66*2*pi/ulx,y,z
   ENINI  =  400.0     initial cutoff
   ENAUG  =  644.9 eV  augmentation charge cutoff
   NELM   =     60;   NELMIN=  2; NELMDL= -5     # of ELM steps 
   EDIFF  = 0.1E-04   stopping-criterion for ELM
   LREAL  =      F    real-space projection
   NLSPLINE    = F    spline interpolate recip. space projectors
   LCOMPAT=      F    compatible to vasp.4.4
   GGA_COMPAT  = T    GGA compatible to vasp.4.4-vasp.4.6
   LMAXPAW     = -100 max onsite density
   LMAXMIX     =    2 max onsite mixed and CHGCAR
   VOSKOWN=      0    Vosko Wilk Nusair interpolation
   ROPT   =    0.00000   0.00000   0.00000   0.00000
   ROPT   =    0.00000   0.00000   0.00000
 Ionic relaxation
   EDIFFG = -.1E-01   stopping-criterion for IOM
   NSW    =    100    number of steps for IOM
   NBLOCK =      1;   KBLOCK =    100    inner block; outer block 
   IBRION =      2    ionic relax: 0-MD 1-quasi-New 2-CG
   NFREE  =      1    steps in history (QN), initial steepest desc. (CG)
   ISIF   =      3    stress and relaxation
   IWAVPR =     11    prediction:  0-non 1-charg 2-wave 3-comb
   ISYM   =      2    0-nonsym 1-usesym 2-fastsym
   LCORR  =      T    Harris-Foulkes like correction to forces

   POTIM  = 0.5000    time-step for ionic-motion
   TEIN   =    0.0    initial temperature
   TEBEG  =    0.0;   TEEND  =   0.0 temperature during run
   SMASS  =  -3.00    Nose mass-parameter (am)
   estimated Nose-frequenzy (Omega)   =  0.10E-29 period in steps = 0.13E+47 mass=  -0.185E-26a.u.
   SCALEE = 1.0000    scale energy and forces
   NPACO  =    256;   APACO  = 10.0  distance and # of slots for P.C.
   PSTRESS=    0.0 pullay stress

  Mass of Ions in am
   POMASS =  91.22183.85178.49 14.00 12.01 95.94 92.91
  Ionic Valenz
   ZVAL   =  12.00 12.00 10.00  5.00  4.00  6.00 13.00
  Atomic Wigner-Seitz radii
   RWIGS  =  -1.00 -1.00 -1.00 -1.00 -1.00 -1.00 -1.00
  virtual crystal weights 
   VCA    =   1.00  1.00  1.00  1.00  1.00  1.00  1.00
   NELECT =     481.0000    total number of electrons
   NUPDOWN=      -1.0000    fix difference up-down

 DOS related values:
   EMIN   =  10.00;   EMAX   =-10.00  energy-range for DOS
   EFERMI =   0.00;   METHOD = LEGACY      
   ISMEAR =     0;   SIGMA  =   0.10  broadening in eV -4-tet -1-fermi 0-gaus

 Electronic relaxation 2 (details)
   IALGO  =     68    algorithm
   LDIAG  =      T    sub-space diagonalisation (order eigenvalues)
   LSUBROT=      F    optimize rotation matrix (better conditioning)
   TURBO    =      0    0=normal 1=particle mesh
   IRESTART =      0    0=no restart 2=restart with 2 vectors
   NREBOOT  =      0    no. of reboots
   NMIN     =      0    reboot dimension
   EREF     =   0.00    reference energy to select bands
   IMIX   =      4    mixing-type and parameters
     AMIX     =   0.40;   BMIX     =  1.00
     AMIX_MAG =   1.60;   BMIX_MAG =  1.00
     AMIN     =   0.10
     WC   =   100.;   INIMIX=   1;  MIXPRE=   1;  MAXMIX= -45

 Intra band minimization:
   WEIMIN = 0.0010     energy-eigenvalue tresh-hold
   EBREAK =  0.81E-08  absolut break condition
   DEPER  =   0.30     relativ break condition  

   TIME   =   0.40     timestep for ELM

  volume/ion in A,a.u.               =      11.40        76.95
  Fermi-wavevector in a.u.,A,eV,Ry     =   1.424704  2.692300 27.616852  2.029781
  Thomas-Fermi vector in A             =   2.545167
 
 Write flags
   LWAVE        =      F    write WAVECAR
   LDOWNSAMPLE  =      F    k-point downsampling of WAVECAR
   LCHARG       =      F    write CHGCAR
   LVTOT        =      F    write LOCPOT, total local potential
   LVHAR        =      F    write LOCPOT, Hartree potential only
   WRT_POTENTIAL= false  ! write potential to hdf5 file
   LELF         =      F    write electronic localiz. function (ELF)
   LORBIT       =      0    0 simple, 1 ext, 2 COOP (PROOUT), +10 PAW based schemes


 Dipole corrections
   LMONO      =      F    monopole corrections only (constant potential shift)
   LDIPOL     =      F    correct potential (dipole corrections)
   IDIPOL     =      0    1-x, 2-y, 3-z, 4-all directions 
   EPSILON    =  1.0000000 bulk dielectric constant
   LVACPOTAV  =      F  vacuum potentials using an averaging scheme for the charge density
   VACPOTFLAT =  0.1000000 required flatness to determine vacuum potential
 Exchange correlation treatment:
   GGA     = PE    functional components
   XC_C    = 1    coefficients multiplying the functional components
   LIBXC   =     F    Libxc                    
   VOSKOWN =     0    Vosko Wilk Nusair interpolation
   LHFCALC =     F    Hartree Fock is set to
   LHFONE  =     F    Hartree Fock one center treatment
   AEXX    =    0.0000 exact exchange contribution

 Parameters of functionals:
   PE:
     No parameter
 
 Van der Waals corrections
   IVDW    =     0    specifies the selected vdW correction

 Linear response parameters
   LEPSILON=     F    determine dielectric tensor
   LRPA    =     F    only Hartree local field effects (RPA)
   LNABLA  =     F    use nabla operator in PAW spheres
   LVEL    =     F    velocity operator in full k-point grid
   CSHIFT  =0.1000    complex shift for real part using Kramers Kronig
   OMEGAMAX=  -1.0    maximum frequency
   DEG_THRESHOLD= 0.2000000E-02 threshold for treating states as degnerate
   RTIME   =   -0.100 relaxation time in fs
  (WPLASMAI=    0.000 imaginary part of plasma frequency in eV, 0.658/RTIME)
   DFIELD  = 0.0000000 0.0000000 0.0000000 field for delta impulse in time
 
  Optional k-point grid parameters
   LKPOINTS_OPT  =     F    use optional k-point grid
   KPOINTS_OPT_MODE=     1    mode for optional k-point grid
 
 Orbital magnetization related:
   ORBITALMAG=     F  switch on orbital magnetization
   LCHIMAG   =     F  perturbation theory with respect to B field
   DQ        =  0.001000  dq finite difference perturbation B field
   LLRAUG    =     F  two centre corrections for induced B field
   LBONE     =     F  B-component reconstruction in AE one-centre
   LVGVCALC  =     T  calculate vGv susceptibility
   LVGVAPPL  =     F  apply vGv susceptibility instead of pGv for G=0

 Random number generation:
   RANDOM_GENERATOR = DEFAULT
   PCG_SEED         = not used


--------------------------------------------------------------------------------------------------------


 conjugate gradient relaxation of ions
 charge density and potential will be updated during run
 non-spin polarized calculation
 RMM-DIIS sequential band-by-band and
  variant of blocked Davidson during initial phase
 perform sub-space diagonalisation
    before iterative eigenvector-optimisation
 modified Broyden-mixing scheme, WC =      100.0
 initial mixing is a Kerker type mixing with AMIX =  0.4000 and BMIX =      1.0000
 Hartree-type preconditioning will be used
 using additional bands           67
 reciprocal scheme for non local part
 use partial core corrections
 calculate Harris-corrections to forces 
   (improved forces if not selfconsistent)
 use gradient corrections 
 use of overlap-Matrix (Vanderbilt PP)
 Gauss-broadening in eV      SIGMA  =   0.10


--------------------------------------------------------------------------------------------------------


  energy-cutoff  :      400.00
  volume of cell :      729.79
      direct lattice vectors                 reciprocal lattice vectors
     8.988709051  0.014835324  0.011649937     0.111251810 -0.000256712 -0.000544277
     0.020769834  9.028576174 -0.012980473    -0.000183259  0.110760362  0.000351452
     0.043928817 -0.028461604  8.992604174    -0.000144391  0.000160211  0.111203705

  length of vectors
     8.988728843  9.028609395  8.992756510     0.111253437  0.110761072  0.111203914


 
 k-points in units of 2pi/SCALE and weight: HECN                                    
   0.00000000  0.00000000  0.00000000       0.037
   0.03708394 -0.00008557 -0.00018143       0.074
  -0.00006109  0.03692012  0.00011715       0.074
   0.03702285  0.03683455 -0.00006428       0.074
  -0.03714502  0.03700569  0.00029858       0.074
  -0.00004813  0.00005340  0.03706790       0.074
   0.03703581 -0.00003217  0.03688648       0.074
  -0.03713207  0.00013897  0.03724933       0.074
  -0.00010922  0.03697352  0.03718505       0.074
   0.03697472  0.03688795  0.03700363       0.074
  -0.03719315  0.03705910  0.03736648       0.074
   0.00001296 -0.03686672  0.03695075       0.074
   0.03709689 -0.03695229  0.03676933       0.074
  -0.03707098 -0.03678115  0.03713218       0.074
 
 k-points in reciprocal lattice and weights: HECN                                    
   0.00000000  0.00000000  0.00000000       0.037
   0.33333333 -0.00000000  0.00000000       0.074
   0.00000000  0.33333333  0.00000000       0.074
   0.33333333  0.33333333  0.00000000       0.074
  -0.33333333  0.33333333  0.00000000       0.074
  -0.00000000 -0.00000000  0.33333333       0.074
   0.33333333 -0.00000000  0.33333333       0.074
  -0.33333333  0.00000000  0.33333333       0.074
  -0.00000000  0.33333333  0.33333333       0.074
   0.33333333  0.33333333  0.33333333       0.074
  -0.33333333  0.33333333  0.33333333       0.074
   0.00000000 -0.33333333  0.33333333       0.074
   0.33333333 -0.33333333  0.33333333       0.074
  -0.33333333 -0.33333333  0.33333333       0.074
 
 position of ions in fractional coordinates (direct lattice) 
   0.00194592  0.00004666  0.99146672
   0.25746725  0.99845336  0.25560875
   0.24672458  0.50177183  0.24740449
   0.50105423  0.49888464  0.99968460
   0.50298355  0.24121361  0.74536997
   0.99929754  0.49950021  0.50303197
   0.49981757  0.75988878  0.75222859
   0.98928931  0.23055897  0.27286259
   0.76975248  0.74188054  0.99573815
   0.01732214  0.23974597  0.73052583
   0.75677964  0.26713181  0.49391858
   0.99902228  0.72519722  0.76060813
   0.25783779  0.49974315  0.75252271
   0.24678229  0.24854721  0.99545673
   0.50682776  0.25110407  0.24825923
   0.74439267  0.99373464  0.26120834
   0.75528996  0.25260393  0.99100850
   0.25116720  0.75575055  0.99996309
   0.25658005  0.24945452  0.50254431
   0.24662774  0.75160008  0.50502304
   0.24778681  0.24863882  0.24963092
   0.25982126  0.00315079  0.99797140
   0.00089451  0.25263026  0.00925581
   0.75295265  0.24642895  0.24844724
   0.75204253  0.99658248  0.00771295
   0.50458639  0.00077893  0.23490624
   0.99485443  0.48548817  0.24664018
   0.50629222  0.75783910  0.00480424
   0.97342927  0.00250192  0.74579440
   0.75988860  0.24513838  0.74444393
   0.74446085  0.00695845  0.50602506
   0.50716580  0.24772618  0.49313398
   0.48530627  0.00131934  0.73387695
   0.99701145  0.99910443  0.25475823
   0.50303210  0.25021393  0.99951143
   0.25067798  0.74972875  0.25095778
   0.24529951  0.50317651  0.99447977
   0.00381851  0.75122153  0.00277976
   0.74978686  0.74709378  0.24479152
   0.75523814  0.50438040  0.99947733
   0.50418324  0.50137868  0.25454189
   0.25021825  0.25711547  0.74868642
   0.25384245  0.99969424  0.51005852
   0.99893462  0.24546099  0.50486042
   0.24000009  0.75244739  0.75281048
   0.25414008  0.50008714  0.50366430
   0.99572076  0.75305600  0.50858577
   0.00075922  0.48720739  0.75669636
   0.75511583  0.75455269  0.75225041
   0.74706202  0.49988650  0.49846835
   0.49860007  0.74856896  0.50156790
   0.49696364  0.50150965  0.74497615
   0.51754423  0.01269606  0.97817451
   0.99665755  0.51638161  0.98951847
   0.50308742  0.74787181  0.26237558
   0.22095862  0.01393450  0.74813515
   0.49079854  0.97793834  0.48195881
   0.72502473  0.98787082  0.77290982
   0.00049401  0.76613436  0.25148522
   0.74866314  0.50841540  0.24864625
   0.00609420  0.99960734  0.50797575
   0.49965128  0.51294161  0.49895368
   0.74339123  0.50993027  0.75015037
   0.75078705  0.73839965  0.49871611
 
 position of ions in cartesian coordinates  (Angst):
   0.06104624 -0.02776859  8.91588981
   2.34626448  9.01115684  2.28862741
   2.23902536  4.52690391  2.22117177
   4.55810740  4.48319866  8.98912941
   4.55892597  2.16406291  6.70554576
   9.01486702  4.51028353  4.52872542
   4.54154197  6.84671910  6.76045312
   8.90920901  2.08852955  2.46227765
   6.97823141  6.68120415  8.95361667
   0.19277434  2.14402976  6.56641940
   6.82971751  2.40898927  4.44696324
   9.02839549  6.54067105  6.84207302
   2.36106592  4.49437624  6.76365578
   2.26714569  2.21935620  8.95139706
   4.57184839  2.26756528  2.23514205
   6.72324338  8.97561780  2.34471619
   6.83786209  2.26365308  8.91726734
   2.31729286  6.79861697  8.98538837
   2.33358073  2.24172241  4.51893314
   2.25466069  6.77516362  4.53458938
   2.24341368  2.24142567  2.24449132
   2.37936289  0.00389784  8.97734775
   0.01369419  2.28064137  0.07996500
   6.78410458  2.22900162  2.23976075
   6.78092916  9.00865812  0.06518460
   4.54591557  0.00783255  2.11828714
   8.96337514  4.39100615  2.22322564
   4.56686471  6.84958235  0.03926376
   8.78268634  0.01580344  6.71794175
   6.86821153  2.20333563  6.70016026
   6.71411562  0.05946689  4.55906564
   4.58557384  2.23010328  4.43725149
   4.39454265 -0.00177585  6.60510156
   8.99378832  9.02803057  2.28958623
   4.57071342  2.23809049  8.99082306
   2.27986740  6.76555940  2.24995250
   2.25906314  4.51830208  8.93928916
   0.05004833  6.78243838  0.01529056
   6.76588635  6.74934928  2.20035061
   6.84299766  4.53659435  8.99015542
   4.55355175  4.52697064  2.28836005
   2.28736819  2.30378987  6.73221813
   2.32488565  9.01506434  4.57673514
   9.00640880  2.21661364  4.54846120
   2.20598929  6.77566287  6.76275550
   2.31690333  4.50451000  4.52572301
   8.98822660  6.79932014  4.57533555
   0.05018443  4.37726352  6.79835550
   6.83623394  6.80232855  6.76369277
   6.74740286  4.51015908  4.48474300
   4.51935186  6.75163339  4.50649350
   4.51020380  4.51408750  6.69855543
   4.69528827  0.09446487  8.80220072
   9.01285825  4.64881315  8.90325606
   4.54916548  6.75221341  2.35559296
   2.01928681  0.10779358  6.73007657
   4.45312876  8.82295459  4.32708845
   6.57150729  8.90782464  6.94609554
   0.03140044  6.90995209  2.25156801
   6.75099761  4.59429691  2.23809975
   0.09785549  9.01066358  4.55512045
   4.52379216  4.62434387  4.48605564
   6.72567185  4.59362228  6.74784672
   6.78585082  6.66364139  4.48391842
 


--------------------------------------------------------------------------------------------------------


 k-point     1 :   0.0000 0.0000 0.0000  plane waves:   13235
 k-point     2 :   0.3333-0.0000 0.0000  plane waves:   13262
 k-point     3 :   0.0000 0.3333 0.0000  plane waves:   13273
 k-point     4 :   0.3333 0.3333 0.0000  plane waves:   13251
 k-point     5 :  -0.3333 0.3333 0.0000  plane waves:   13258
 k-point     6 :  -0.0000-0.0000 0.3333  plane waves:   13264
 k-point     7 :   0.3333-0.0000 0.3333  plane waves:   13255
 k-point     8 :  -0.3333 0.0000 0.3333  plane waves:   13256
 k-point     9 :  -0.0000 0.3333 0.3333  plane waves:   13257
 k-point    10 :   0.3333 0.3333 0.3333  plane waves:   13245
 k-point    11 :  -0.3333 0.3333 0.3333  plane waves:   13253
 k-point    12 :   0.0000-0.3333 0.3333  plane waves:   13255
 k-point    13 :   0.3333-0.3333 0.3333  plane waves:   13243
 k-point    14 :  -0.3333-0.3333 0.3333  plane waves:   13241

 maximum and minimum number of plane-waves per node :     13273    13235

 maximum number of plane-waves:     13273
 maximum index in each direction: 
   IXMAX=   14   IYMAX=   15   IZMAX=   14
   IXMIN=  -14   IYMIN=  -15   IZMIN=  -14


 serial   3D FFT for wavefunctions
 parallel 3D FFT for charge:
    minimum data exchange during FFTs selected (reduces bandwidth)


 total amount of memory used by VASP MPI-rank0   276883. kBytes
=======================================================================

   base      :      30000. kBytes
   nonl-proj :     201308. kBytes
   fftplans  :       1680. kBytes
   grid      :       8060. kBytes
   one-center:        995. kBytes
   wavefun   :      34840. kBytes
 
     INWAV:  cpu time      0.0000: real time      0.0002
 Broyden mixing: mesh for mixing (old mesh)
   NGX = 29   NGY = 29   NGZ = 29
  (NGX  = 96   NGY  = 96   NGZ  = 96)
  gives a total of  24389 points

 initial charge density was supplied:
 charge density of overlapping atoms calculated
 number of electron     481.0000000 magnetization 
 keeping initial charge density in first step


--------------------------------------------------------------------------------------------------------


 Maximum index for augmentation-charges          651 (set IRDMAX)


--------------------------------------------------------------------------------------------------------


 First call to EWALD:  gamma=   0.197
 Maximum number of real-space cells 3x 3x 3
 Maximum number of reciprocal cells 3x 3x 3

    FEWALD:  cpu time      0.0021: real time      0.0024


--------------------------------------- Ionic step        1  -------------------------------------------




--------------------------------------- Iteration      1(   1)  ---------------------------------------


    POTLOK:  cpu time      0.0268: real time      0.0343
    SETDIJ:  cpu time      0.0060: real time      0.0092
     EDDAV:  cpu time     20.2749: real time     20.3994
       DOS:  cpu time      0.0016: real time      0.0045
    --------------------------------------------
      LOOP:  cpu time     20.3093: real time     20.4474

 eigenvalue-minimisations  :  8624
 total energy-change (2. order) : 0.3874300E+04  (-0.2134977E+05)
 number of electron     481.0000000 magnetization 
 augmentation part      481.0000000 magnetization 

 Free energy of the ion-electron system (eV)
  ---------------------------------------------------
  alpha Z        PSCENC =      4057.55219607
  Ewald energy   TEWEN  =    -36664.78315717
  -Hartree energ DENC   =     -5722.52441534
  -exchange      EXHF   =         0.00000000
  -V(xc)+E(xc)   XCENC  =      1220.02166380
  PAW double counting   =     23728.57837974   -22935.85576441
  entropy T*S    EENTRO =        -0.05487474
  eigenvalues    EBANDS =       760.43185643
  atomic energy  EATOM  =     39430.93386078
  Solvation  Ediel_sol  =         0.00000000
  ---------------------------------------------------
  free energy    TOTEN  =      3874.29974515 eV

  energy without entropy =     3874.35461990  energy(sigma->0) =     3874.32718253


--------------------------------------------------------------------------------------------------------




--------------------------------------- Iteration      1(   2)  ---------------------------------------


     EDDAV:  cpu time     22.5107: real time     23.1315
       DOS:  cpu time      0.0009: real time      0.0030
    --------------------------------------------
      LOOP:  cpu time     22.5116: real time     23.1345

 eigenvalue-minimisations  :  9800
 total energy-change (2. order) :-0.4100733E+04  (-0.3859326E+04)
 number of electron     481.0000000 magnetization 
 augmentation part      481.0000000 magnetization 

 Free energy of the ion-electron system (eV)
  ---------------------------------------------------
  alpha Z        PSCENC =      4057.55219607
  Ewald energy   TEWEN  =    -36664.78315717
  -Hartree energ DENC   =     -5722.52441534
  -exchange      EXHF   =         0.00000000
  -V(xc)+E(xc)   XCENC  =      1220.02166380
  PAW double counting   =     23728.57837974   -22935.85576441
  entropy T*S    EENTRO =        -0.08562056
  eigenvalues    EBANDS =     -3340.26995726
  atomic energy  EATOM  =     39430.93386078
  Solvation  Ediel_sol  =         0.00000000
  ---------------------------------------------------
  free energy    TOTEN  =      -226.43281435 eV

  energy without entropy =     -226.34719379  energy(sigma->0) =     -226.39000407


--------------------------------------------------------------------------------------------------------




--------------------------------------- Iteration      1(   3)  ---------------------------------------


     EDDAV:  cpu time     30.2510: real time     30.6068
       DOS:  cpu time      0.0009: real time      0.0009
    --------------------------------------------
      LOOP:  cpu time     30.2518: real time     30.6077

 eigenvalue-minimisations  : 14028
 total energy-change (2. order) :-0.5154851E+03  (-0.5047931E+03)
 number of electron     481.0000000 magnetization 
 augmentation part      481.0000000 magnetization 

 Free energy of the ion-electron system (eV)
  ---------------------------------------------------
  alpha Z        PSCENC =      4057.55219607
  Ewald energy   TEWEN  =    -36664.78315717
  -Hartree energ DENC   =     -5722.52441534
  -exchange      EXHF   =         0.00000000
  -V(xc)+E(xc)   XCENC  =      1220.02166380
  PAW double counting   =     23728.57837974   -22935.85576441
  entropy T*S    EENTRO =        -0.09063821
  eigenvalues    EBANDS =     -3855.75002718
  atomic energy  EATOM  =     39430.93386078
  Solvation  Ediel_sol  =         0.00000000
  ---------------------------------------------------
  free energy    TOTEN  =      -741.91790192 eV

  energy without entropy =     -741.82726371  energy(sigma->0) =     -741.87258282


--------------------------------------------------------------------------------------------------------




--------------------------------------- Iteration      1(   4)  ---------------------------------------


     EDDAV:  cpu time     30.8841: real time     31.2461
       DOS:  cpu time      0.0009: real time      0.0009
    --------------------------------------------
      LOOP:  cpu time     30.8849: real time     31.2469

 eigenvalue-minimisations  : 14224
 total energy-change (2. order) :-0.3211907E+02  (-0.3186479E+02)
 number of electron     481.0000000 magnetization 
 augmentation part      481.0000000 magnetization 

 Free energy of the ion-electron system (eV)
  ---------------------------------------------------
  alpha Z        PSCENC =      4057.55219607
  Ewald energy   TEWEN  =    -36664.78315717
  -Hartree energ DENC   =     -5722.52441534
  -exchange      EXHF   =         0.00000000
  -V(xc)+E(xc)   XCENC  =      1220.02166380
  PAW double counting   =     23728.57837974   -22935.85576441
  entropy T*S    EENTRO =        -0.08975849
  eigenvalues    EBANDS =     -3887.86997654
  atomic energy  EATOM  =     39430.93386078
  Solvation  Ediel_sol  =         0.00000000
  ---------------------------------------------------
  free energy    TOTEN  =      -774.03697156 eV

  energy without entropy =     -773.94721307  energy(sigma->0) =     -773.99209232


--------------------------------------------------------------------------------------------------------




--------------------------------------- Iteration      1(   5)  ---------------------------------------


     EDDAV:  cpu time     32.1071: real time     32.4918
       DOS:  cpu time      0.0008: real time      0.0008
    CHARGE:  cpu time      0.1655: real time      0.1699
    MIXING:  cpu time      0.0020: real time      0.0057
    --------------------------------------------
      LOOP:  cpu time     32.2754: real time     32.6682

 eigenvalue-minimisations  : 15008
 total energy-change (2. order) :-0.3188720E+01  (-0.3182646E+01)
 number of electron     481.0000021 magnetization 
 augmentation part       77.4311009 magnetization 

 Broyden mixing:
  rms(total) = 0.56800E+01    rms(broyden)= 0.56785E+01
  rms(prec ) = 0.90774E+01
  weight for this iteration     100.00

 Free energy of the ion-electron system (eV)
  ---------------------------------------------------
  alpha Z        PSCENC =      4057.55219607
  Ewald energy   TEWEN  =    -36664.78315717
  -Hartree energ DENC   =     -5722.52441534
  -exchange      EXHF   =         0.00000000
  -V(xc)+E(xc)   XCENC  =      1220.02166380
  PAW double counting   =     23728.57837974   -22935.85576441
  entropy T*S    EENTRO =        -0.09099194
  eigenvalues    EBANDS =     -3891.05746293
  atomic energy  EATOM  =     39430.93386078
  Solvation  Ediel_sol  =         0.00000000
  ---------------------------------------------------
  free energy    TOTEN  =      -777.22569140 eV

  energy without entropy =     -777.13469946  energy(sigma->0) =     -777.18019543


--------------------------------------------------------------------------------------------------------




--------------------------------------- Iteration      1(   6)  ---------------------------------------


    POTLOK:  cpu time      0.0182: real time      0.0184
    SETDIJ:  cpu time      0.0053: real time      0.0053
    EDDIAG:  cpu time      1.3277: real time      1.3420
  RMM-DIIS:  cpu time     17.8850: real time     18.1080
    ORTHCH:  cpu time      0.3915: real time      0.4022
       DOS:  cpu time      0.0009: real time      0.0009
    CHARGE:  cpu time      0.1516: real time      0.1792
    MIXING:  cpu time      0.0016: real time      0.0023
    --------------------------------------------
      LOOP:  cpu time     19.7816: real time     20.0583

 eigenvalue-minimisations  : 12057
 total energy-change (2. order) : 0.1169044E+03  (-0.5562979E+02)
 number of electron     481.0000008 magnetization 
 augmentation part       83.5390041 magnetization 

 Broyden mixing:
  rms(total) = 0.18026E+01    rms(broyden)= 0.18009E+01
  rms(prec ) = 0.32747E+01
  weight for this iteration     100.00

 eigenvalues of (default mixing * dielectric matrix)
  average eigenvalue GAMMA=   0.8461
  0.8461

 Free energy of the ion-electron system (eV)
  ---------------------------------------------------
  alpha Z        PSCENC =      4057.55219607
  Ewald energy   TEWEN  =    -36664.78315717
  -Hartree energ DENC   =     -5571.58830270
  -exchange      EXHF   =         0.00000000
  -V(xc)+E(xc)   XCENC  =      1230.81207384
  PAW double counting   =     23662.21138147   -22920.16145012
  entropy T*S    EENTRO =        -0.10458094
  eigenvalues    EBANDS =     -3885.19334214
  atomic energy  EATOM  =     39430.93386078
  Solvation  Ediel_sol  =         0.00000000
  ---------------------------------------------------
  free energy    TOTEN  =      -660.32132092 eV

  energy without entropy =     -660.21673997  energy(sigma->0) =     -660.26903044


--------------------------------------------------------------------------------------------------------




--------------------------------------- Iteration      1(   7)  ---------------------------------------


    POTLOK:  cpu time      0.0183: real time      0.0185
    SETDIJ:  cpu time      0.0052: real time      0.0052
    EDDIAG:  cpu time      1.3439: real time      1.3574
  RMM-DIIS:  cpu time     20.1008: real time     20.4058
    ORTHCH:  cpu time      0.3358: real time      0.3383
       DOS:  cpu time      0.0008: real time      0.0008
    CHARGE:  cpu time      0.1567: real time      0.1575
    MIXING:  cpu time      0.0010: real time      0.0010
    --------------------------------------------
      LOOP:  cpu time     21.9626: real time     22.2847

 eigenvalue-minimisations  : 13438
 total energy-change (2. order) :-0.3643814E+00  (-0.1074346E+02)
 number of electron     481.0000010 magnetization 
 augmentation part       80.3308358 magnetization 

 Broyden mixing:
  rms(total) = 0.12833E+01    rms(broyden)= 0.12830E+01
  rms(prec ) = 0.24277E+01
  weight for this iteration     100.00

 eigenvalues of (default mixing * dielectric matrix)
  average eigenvalue GAMMA=   0.7067
  0.8488  0.5647

 Free energy of the ion-electron system (eV)
  ---------------------------------------------------
  alpha Z        PSCENC =      4057.55219607
  Ewald energy   TEWEN  =    -36664.78315717
[...]
  0.015  -0.025   0.001  -0.001   0.006  -0.004   0.016  -0.031  -0.009   0.005  -0.000   0.488  -0.014   0.011  -0.005  -0.028
  0.027  -0.048  -0.011   0.001   0.004   0.048  -0.005  -0.009   0.012   0.007   0.036  -0.014   0.520  -0.014  -0.011  -0.045
 -0.000   0.003   0.000  -0.000   0.000  -0.008   0.007   0.006  -0.604   0.002  -0.005   0.011  -0.014   1.028  -0.010  -0.017
 -0.023   0.046   0.009   0.001  -0.000  -0.053   0.013   0.008   0.002  -0.586   0.014  -0.005  -0.011  -0.010   1.052  -0.045
 -0.010   0.015   0.000  -0.018   0.000  -0.048   0.126  -0.013  -0.006   0.013  -1.080  -0.028  -0.045  -0.017  -0.045   2.636
 -0.004   0.013  -0.000  -0.011   0.005   0.007   0.037   0.013   0.011  -0.005  -0.028  -0.614   0.023  -0.018   0.010   0.123
 -0.038   0.074  -0.000  -0.000  -0.009  -0.085   0.022   0.062  -0.014  -0.011  -0.045   0.023  -1.074   0.027   0.003   0.045


------------------------ aborting loop because EDIFF is reached ----------------------------------------


    CHARGE:  cpu time      0.1559: real time      0.1560
    FORLOC:  cpu time      0.0078: real time      0.0078
    FORNL :  cpu time      6.4421: real time      6.4675
    STRESS:  cpu time     26.4449: real time     26.5885
    FORCOR:  cpu time      0.0201: real time      0.0202
    FORHAR:  cpu time      0.0101: real time      0.0101
    MIXING:  cpu time      0.0009: real time      0.0009
    OFIELD:  cpu time      0.0001: real time      0.0001

  FORCE on cell =-STRESS in cart. coord.  units (eV):
  Direction    XX          YY          ZZ          XY          YZ          ZX
  --------------------------------------------------------------------------------------
  Alpha Z  4054.95482  4054.95482  4054.95482
  Ewald  -12292.87912-12326.64784-12037.54933   126.66201    62.26020    29.51820
  Hartree  1739.53478  1764.72608  1962.11867   105.46453    54.23367     8.18972
  E(xc)   -2043.55826 -2043.76261 -2042.94655     0.14787    -0.39613     0.39651
  Local    1674.16158  1679.49321  1207.73076  -234.94541  -118.57705   -39.44200
  n-local -1106.25762 -1108.73078 -1101.65790     0.10240    -1.22651     0.95459
  augment   700.51541   699.24795   698.34537     0.74328     0.36389     0.69163
  Kinetic  7273.36655  7280.51702  7258.84879     1.89075     3.28967    -0.24797
  Fock        0.00000     0.00000     0.00000     0.00000     0.00000     0.00000
  -------------------------------------------------------------------------------------
  Total      -0.16185    -0.20215    -0.15536     0.06544    -0.05226     0.06068
  in kB      -0.35510    -0.44351    -0.34086     0.14357    -0.11465     0.13314
  external pressure =       -0.38 kB  Pullay stress =        0.00 kB


 VOLUME and BASIS-vectors are now :
 -----------------------------------------------------------------------------
  energy-cutoff  :      400.00
  volume of cell :      730.25
      direct lattice vectors                 reciprocal lattice vectors
     8.991425531  0.015272480  0.012062885     0.111218252 -0.000262133 -0.000549194
     0.021214553  9.028899784 -0.013345449    -0.000188604  0.110756435  0.000355794
     0.044350899 -0.028821040  8.995329312    -0.000149425  0.000164670  0.111170068

  length of vectors
     8.991446594  9.028934570  8.995484817     0.111219917  0.110757167  0.111170291


 FORCES acting on ions
    electron-ion (+dipol)            ewald-force                    non-local-force                 convergence-correction
 -----------------------------------------------------------------------------------------------
   -.472E+02 -.285E+02 0.347E+02   0.472E+02 0.277E+02 -.346E+02   -.688E-01 0.790E+00 -.853E-01   0.169E-01 0.102E-01 0.142E-01
   -.161E+03 0.371E+02 0.411E+02   0.161E+03 -.387E+02 -.402E+02   -.631E-01 0.163E+01 -.895E+00   0.382E-02 0.442E-02 -.248E-02
   -.507E+02 -.327E+02 0.849E+02   0.512E+02 0.342E+02 -.851E+02   -.447E+00 -.143E+01 0.204E+00   0.477E-02 -.437E-02 0.487E-02
   0.726E+02 -.766E+01 -.599E+02   -.728E+02 0.594E+01 0.600E+02   0.225E+00 0.173E+01 -.126E+00   -.466E-02 -.852E-02 0.974E-03
   0.444E+02 0.160E+03 -.622E+02   -.456E+02 -.160E+03 0.633E+02   0.123E+01 0.291E+00 -.109E+01   -.121E-01 0.150E-01 -.467E-02
   -.120E+03 -.262E+02 0.476E+01   0.121E+03 0.275E+02 -.439E+01   -.670E+00 -.130E+01 -.364E+00   0.727E-03 -.110E-01 -.445E-02
   0.931E+02 -.177E+03 -.454E+02   -.934E+02 0.177E+03 0.449E+02   0.308E+00 0.175E-01 0.495E+00   -.194E-01 -.144E-01 -.126E-02
   -.881E+02 -.168E+02 0.155E+03   0.885E+02 0.159E+02 -.154E+03   -.366E+00 0.950E+00 -.468E+00   0.814E-03 0.339E-03 0.427E-02
   0.122E+03 -.984E+02 -.356E+02   -.122E+03 0.971E+02 0.360E+02   -.116E+00 0.131E+01 -.443E+00   -.475E-02 -.898E-02 0.195E-01
   -.211E+02 0.124E+02 -.169E+03   0.220E+02 -.116E+02 0.168E+03   -.899E+00 -.764E+00 0.122E+01   0.884E-02 0.679E-02 -.518E-02
   0.116E+03 0.161E+03 -.529E+02   -.116E+03 -.160E+03 0.541E+02   -.275E-01 -.885E+00 -.115E+01   -.431E-02 0.816E-02 -.614E-02
   -.976E+02 -.109E+03 -.311E+02   0.985E+02 0.108E+03 0.301E+02   -.933E+00 0.126E+01 0.926E+00   0.133E-01 -.723E-02 -.670E-02
   0.154E+02 -.162E+02 -.763E+02   -.141E+02 0.164E+02 0.762E+02   -.132E+01 -.207E+00 0.316E-01   0.946E-02 -.128E-01 -.536E-02
   -.572E+02 0.252E+02 0.275E+01   0.581E+02 -.243E+02 -.329E+01   -.910E+00 -.829E+00 0.535E+00   0.438E-02 -.290E-02 0.777E-03
   0.625E+02 0.950E+02 0.694E+02   -.626E+02 -.936E+02 -.705E+02   0.914E-01 -.143E+01 0.110E+01   -.146E-02 -.571E-03 0.307E-02
   0.143E+03 0.194E+02 0.495E+02   -.143E+03 -.211E+02 -.488E+02   -.133E+00 0.167E+01 -.719E+00   -.323E-02 0.887E-02 0.192E-02
   0.391E+02 0.558E+02 0.570E+01   -.400E+02 -.541E+02 -.637E+01   0.895E+00 -.170E+01 0.659E+00   -.413E-02 0.649E-02 0.754E-02
   -.872E+02 -.393E+02 -.657E+01   0.868E+02 0.386E+02 0.686E+01   0.380E+00 0.663E+00 -.300E+00   0.487E-02 0.339E-02 0.750E-02
   -.895E+02 0.752E+02 0.564E+00   0.894E+02 -.749E+02 0.271E+00   0.312E-01 -.338E+00 -.832E+00   0.366E-02 0.291E-02 0.895E-04
   -.864E+02 -.786E+02 -.534E+00   0.860E+02 0.785E+02 0.429E+00   0.341E+00 0.132E+00 0.115E+00   0.242E-02 -.275E-02 -.711E-02
   -.400E+02 0.503E+01 0.337E+02   0.412E+02 -.414E+01 -.343E+02   -.120E+01 -.889E+00 0.605E+00   0.314E-02 -.661E-03 -.928E-04
   -.945E+02 0.724E+01 0.499E+02   0.953E+02 -.795E+01 -.487E+02   -.810E+00 0.701E+00 -.119E+01   0.434E-02 0.325E-02 0.358E-02
   -.127E+02 -.564E+02 0.121E+02   0.128E+02 0.580E+02 -.120E+02   -.652E-01 -.164E+01 -.808E-01   0.393E-02 -.104E-02 -.472E-03
   0.575E+02 0.433E+02 0.752E+02   -.602E+02 -.429E+02 -.789E+02   0.266E+01 -.434E+00 0.370E+01   -.382E-02 0.856E-03 0.439E-02
   0.846E+02 -.225E+02 0.160E+02   -.824E+02 0.231E+02 -.119E+02   -.221E+01 -.620E+00 -.408E+01   -.364E-02 0.589E-02 0.178E-01
   0.629E+01 0.434E+02 0.346E+02   -.741E+01 -.432E+02 -.372E+02   0.113E+01 -.237E+00 0.256E+01   -.258E-02 0.470E-02 -.217E-02
   -.490E+02 -.345E+01 0.927E+02   0.502E+02 0.443E+01 -.931E+02   -.117E+01 -.976E+00 0.375E+00   0.434E-03 -.318E-04 0.364E-02
   0.318E+02 -.847E+02 -.684E+02   -.321E+02 0.844E+02 0.685E+02   0.302E+00 0.281E+00 -.134E+00   -.586E-02 0.200E-02 0.320E-02
   0.269E+02 0.401E+02 -.406E+02   -.310E+02 -.426E+02 0.402E+02   0.409E+01 0.239E+01 0.460E+00   0.141E-01 0.855E-02 -.287E-02
   0.186E+02 0.848E+02 -.442E+02   -.181E+02 -.858E+02 0.455E+02   -.436E+00 0.991E+00 -.133E+01   0.201E-02 0.143E-01 -.568E-02
   0.102E+03 0.746E+01 -.637E+02   -.102E+03 -.728E+01 0.660E+02   -.131E+00 -.186E+00 -.224E+01   -.486E-03 0.815E-02 -.134E-01
   0.366E+02 0.106E+03 0.611E+01   -.379E+02 -.108E+03 -.557E+01   0.124E+01 0.110E+01 -.545E+00   0.479E-03 0.326E-02 -.226E-02
   0.377E+02 0.255E+01 0.517E+01   -.411E+02 -.216E+01 -.783E+01   0.339E+01 -.396E+00 0.266E+01   -.159E-01 0.560E-02 -.922E-03
   -.550E+01 -.658E+01 0.386E+02   0.574E+01 0.515E+01 -.392E+02   -.248E+00 0.144E+01 0.560E+00   0.181E-02 -.128E-02 0.103E-02
   0.171E+02 0.644E+02 -.114E+02   -.174E+02 -.626E+02 0.114E+02   0.274E+00 -.177E+01 0.299E-01   -.320E-02 -.178E-02 0.232E-02
   -.788E+02 -.514E+01 0.144E+02   0.784E+02 0.482E+01 -.143E+02   0.477E+00 0.324E+00 -.375E-01   -.195E-02 0.764E-03 0.235E-03
   0.311E+02 0.115E+01 -.213E+02   -.299E+02 -.109E+01 0.231E+02   -.120E+01 -.604E-01 -.177E+01   0.383E-02 -.284E-02 0.298E-03
   -.533E+02 0.208E+02 -.158E+01   0.554E+02 -.192E+02 0.302E+01   -.212E+01 -.161E+01 -.145E+01   0.511E-02 0.189E-02 0.744E-02
   0.785E+02 -.542E+02 0.264E+02   -.783E+02 0.547E+02 -.258E+02   -.176E+00 -.485E+00 -.627E+00   0.192E-02 -.817E-03 0.177E-02
   -.245E+02 0.407E+02 -.889E+01   0.230E+02 -.426E+02 0.889E+01   0.152E+01 0.192E+01 0.279E-02   -.398E-02 -.459E-02 0.861E-03
   0.464E+02 -.293E+02 0.400E+02   -.472E+02 0.282E+02 -.407E+02   0.746E+00 0.111E+01 0.780E+00   0.160E-04 -.380E-02 0.305E-02
   -.403E+02 0.577E+02 -.285E+02   0.424E+02 -.577E+02 0.286E+02   -.210E+01 -.246E-01 -.456E-02   -.951E-04 0.150E-02 -.510E-03
   -.880E+02 0.917E+01 -.442E+02   0.883E+02 -.948E+01 0.438E+02   -.237E+00 0.306E+00 0.445E+00   0.717E-03 0.254E-02 -.274E-02
   -.373E+02 -.170E+01 -.210E+01   0.385E+02 0.223E+01 0.236E+01   -.123E+01 -.526E+00 -.266E+00   -.732E-03 0.101E-02 0.197E-02
   -.315E+02 -.749E+02 -.113E+02   0.333E+02 0.759E+02 0.110E+02   -.182E+01 -.993E+00 0.304E+00   0.372E-02 -.110E-02 -.527E-03
   0.259E+01 -.597E+01 0.151E+02   -.348E+01 0.608E+01 -.167E+02   0.885E+00 -.103E+00 0.158E+01   0.355E-02 -.245E-02 -.184E-03
   -.414E+02 -.123E+02 -.146E+02   0.416E+02 0.122E+02 0.137E+02   -.274E+00 0.139E+00 0.881E+00   0.292E-02 -.415E-03 -.647E-02
   -.240E+02 0.306E+02 -.629E+02   0.230E+02 -.320E+02 0.619E+02   0.102E+01 0.148E+01 0.101E+01   0.107E-02 -.757E-02 -.437E-02
   0.245E+02 -.940E+02 -.508E+01   -.257E+02 0.941E+02 0.345E+01   0.121E+01 -.848E-01 0.163E+01   -.181E-02 -.140E-01 -.302E-02
   0.641E+01 0.578E+01 -.522E+00   -.573E+01 -.445E+01 0.727E+00   -.673E+00 -.133E+01 -.203E+00   -.330E-02 -.593E-02 -.517E-03
   0.406E+02 -.991E+02 0.375E+02   -.412E+02 0.982E+02 -.358E+02   0.546E+00 0.880E+00 -.176E+01   -.333E-02 -.311E-02 -.153E-02
   0.227E+02 0.810E+01 -.328E+02   -.215E+02 -.805E+01 0.336E+02   -.128E+01 -.432E-01 -.821E+00   -.297E-03 -.375E-02 -.327E-02
   0.445E+02 0.156E+02 -.167E+02   -.441E+02 -.144E+02 0.165E+02   -.348E+00 -.127E+01 0.227E+00   -.111E-01 0.534E-02 0.103E-01
   -.491E+02 0.559E+02 -.306E+02   0.493E+02 -.552E+02 0.299E+02   -.235E+00 -.671E+00 0.610E+00   0.268E-02 -.506E-02 0.324E-02
   0.441E+02 -.676E+02 0.462E+02   -.444E+02 0.667E+02 -.457E+02   0.308E+00 0.974E+00 -.504E+00   -.364E-02 -.282E-03 0.473E-03
   -.101E+03 0.432E+02 -.278E+02   0.101E+03 -.428E+02 0.265E+02   -.902E-02 -.399E+00 0.130E+01   0.282E-02 0.624E-02 0.242E-03
   0.740E+01 -.171E+02 -.141E+02   -.885E+01 0.152E+02 0.145E+02   0.145E+01 0.184E+01 -.437E+00   -.505E-02 0.552E-02 -.597E-02
   0.433E+02 -.273E+02 0.149E+02   -.434E+02 0.260E+02 -.148E+02   0.143E+00 0.129E+01 -.837E-01   -.358E-02 0.766E-02 0.994E-04
   -.836E+02 0.457E+02 0.561E+02   0.836E+02 -.451E+02 -.561E+02   -.311E-01 -.670E+00 0.542E-02   0.109E-01 0.129E-01 0.632E-02
   0.546E+02 -.124E+00 0.141E+03   -.541E+02 0.670E+00 -.141E+03   -.519E+00 -.546E+00 0.412E-01   -.133E-01 -.562E-02 0.132E-01
   -.417E+02 0.645E+02 -.552E+02   0.416E+02 -.647E+02 0.557E+02   0.127E+00 0.206E+00 -.454E+00   0.206E-01 0.769E-02 -.191E-01
   0.121E+03 -.499E+01 0.557E+02   -.122E+03 0.568E+01 -.557E+02   0.221E+00 -.684E+00 -.297E-02   -.377E-02 -.623E-02 -.162E-02
   0.271E+01 0.668E+02 -.114E+03   -.291E+01 -.665E+02 0.114E+03   0.220E+00 -.285E+00 -.136E+00   -.185E-01 -.848E-02 -.929E-02
   0.104E+03 -.215E+03 0.312E+00   -.104E+03 0.215E+03 -.356E+00   -.239E+00 0.269E+00 0.607E-01   0.343E-04 -.252E-01 -.179E-01
 -----------------------------------------------------------------------------------------------
   -.759E+00 -.226E+01 -.484E+00   -.284E-13 -.654E-12 -.483E-12   0.757E+00 0.227E+01 0.479E+00   0.180E-03 -.341E-02 0.192E-02
 
 
 POSITION                                       TOTAL-FORCE (eV/Angst)
 -----------------------------------------------------------------------------------
      0.06149     -0.02814      8.91859        -0.000108      0.000771     -0.004369
      2.34751      9.01148      2.28901         0.002766      0.000465     -0.000967
      2.23999      4.52708      2.22176        -0.002218      0.000315     -0.000688
      4.56013      4.48323      8.99185        -0.000111      0.001323     -0.000377
      4.56076      2.16413      6.70768         0.004281      0.002405     -0.001533
      9.01803      4.51072      4.53035        -0.000700      0.000663      0.000340
      4.54352      6.84690      6.76244        -0.000627      0.003355      0.000780
      8.91213      2.08891      2.46329        -0.004146      0.000461      0.004238
      6.98096      6.68140      8.95636         0.004960      0.000529     -0.002721
      0.19322      2.14375      6.56837         0.004479     -0.002004     -0.008384
      6.83211      2.40922      4.44848         0.003691      0.001555     -0.003912
      9.03174      6.54110      6.84422         0.000775      0.002732      0.002529
      2.36224      4.49427      6.76565         0.000637     -0.004747      0.002687
      2.26837      2.21914      8.95412        -0.000208     -0.001129     -0.002992
      4.57336      2.26773      2.23593        -0.000840     -0.001839      0.000521
      6.72580      8.97617      2.34532        -0.003399      0.001664      0.002670
      6.84052      2.26375      8.92026         0.003075      0.003016      0.000650
      2.31870      6.79856      8.98795        -0.003662     -0.001840     -0.001258
      2.33463      2.24170      4.52028         0.002107      0.000170      0.002588
      2.25586      6.77527      4.53579         0.000203     -0.001251      0.002123
      2.24439      2.24150      2.24524         0.004505     -0.000042      0.002043
      2.38049      0.00360      8.98023        -0.001514     -0.000943      0.002675
      0.01379      2.28072      0.08003        -0.000397     -0.000690      0.006504
      6.78634      2.22932      2.24070        -0.000669      0.001041      0.003384
      6.78347      9.00935      0.06513        -0.000098      0.002808     -0.003162
      4.54735      0.00792      2.11910        -0.001064     -0.001544      0.001477
      8.96640      4.39158      2.22417        -0.000796      0.002641      0.003970
      4.56854      6.85005      0.03917        -0.003556      0.000639     -0.003464
      8.78568      0.01581      6.72040         0.005135     -0.003601     -0.000160
      6.87069      2.20344      6.70243        -0.001624     -0.001001      0.001660
      6.71635      0.05955      4.56076        -0.000641     -0.000418     -0.005234
      4.58726      2.23019      4.43872        -0.000602     -0.002565     -0.000996
      4.39630     -0.00182      6.60729         0.008762      0.001047      0.001011
      8.99705      9.02867      2.29033        -0.000431      0.005155      0.000703
      4.57266      2.23802      8.99365         0.002425     -0.001180     -0.000710
      2.28100      6.76583      2.25046        -0.000590      0.001230     -0.001329
      2.26039      4.51819      8.94194         0.000783     -0.000553      0.000628
      0.05044      6.78276      0.01502        -0.002742     -0.000391     -0.000382
      6.76837      6.74984      2.20108         0.001384      0.001510      0.000100
      6.84566      4.53667      8.99303        -0.001249      0.001177      0.001460
      4.55521      4.52718      2.28909        -0.002136     -0.000894      0.000192
      2.28856      2.30366      6.73423         0.000834     -0.002957     -0.001816
      2.32622      9.01532      4.57777         0.001279     -0.000024     -0.004975
      9.00946      2.21693      4.55015        -0.001445     -0.001516      0.001626
      2.20732      6.77569      6.76468        -0.000645     -0.002417      0.001252
      2.31803      4.50455      4.52704        -0.000334     -0.000788      0.000266
      8.99147      6.79977      4.57682         0.000141     -0.001164     -0.001398
      0.05071      4.37709      6.80027        -0.001600      0.000233      0.002165
      6.83887      6.80260      6.76577        -0.004104      0.001007      0.000783
      6.74982      4.51046      4.48627        -0.000649     -0.005359      0.002377
      4.52125      6.75191      4.50779        -0.000158      0.005366     -0.001452
      4.51212      4.51421      6.70061        -0.001266      0.002165     -0.000882
      4.69709      0.09431      8.80505         0.005134     -0.000979     -0.004882
      9.01617      4.64898      8.90614        -0.003682      0.000842     -0.007630
      4.55097      6.75261      2.35620         0.001074      0.003546      0.002972
      2.02028      0.10764      6.73220        -0.001817      0.001505     -0.002141
      4.45513      8.82337      4.32827        -0.003241      0.001503     -0.002226
      6.57426      8.90818      6.94815        -0.001497     -0.001727      0.005530
      0.03199      6.91075      2.25212        -0.000695     -0.006738     -0.000360
      6.75299      4.59504      2.23911         0.000346     -0.004838      0.003302
      0.09902      9.01061      4.55591        -0.002163     -0.000511      0.004629
      4.52551      4.62498      4.48735        -0.003507     -0.005579     -0.000332
      6.72793      4.59437      6.75008         0.002097     -0.001081      0.002441
      6.78850      6.66340      4.48520         0.000060      0.009472     -0.001543
 -----------------------------------------------------------------------------------
    total drift:                               -0.001974      0.011267     -0.002807


--------------------------------------------------------------------------------------------------------



  FREE ENERGIE OF THE ION-ELECTRON SYSTEM (eV)
  ---------------------------------------------------
  free  energy   TOTEN  =      -660.17338200 eV

  energy  without entropy=     -660.07592868  energy(sigma->0) =     -660.12465534
 
 d Force = 0.3908766E-04[ 0.115E-04, 0.666E-04]  d Energy = 0.6841205E-03-0.645E-03
 d Force = 0.1570053E+00[ 0.156E+00, 0.158E+00]  d Ewald  = 0.9795517E+01-0.964E+01


--------------------------------------------------------------------------------------------------------


    POTLOK:  cpu time      0.0294: real time      0.0294


--------------------------------------------------------------------------------------------------------




--------------------------------------------------------------------------------------------------------


  
 reached required accuracy - stopping structural energy minimisation
     LOOP+:  cpu time    165.9476: real time    167.1275
    4ORBIT:  cpu time      0.0000: real time      0.0000

 total amount of memory used by VASP MPI-rank0   276883. kBytes
=======================================================================

   base      :      30000. kBytes
   nonl-proj :     201308. kBytes
   fftplans  :       1680. kBytes
   grid      :       8060. kBytes
   one-center:        995. kBytes
   wavefun   :      34840. kBytes
 
  
  
 General timing and accounting informations for this job:
 ========================================================
  
                  Total CPU time used (sec):     1640.968
                            User time (sec):     1628.237
                          System time (sec):       12.731
                         Elapsed time (sec):     1658.783
  
                   Maximum memory used (kb):      361936.
                   Average memory used (kb):          N/A
  
                          Minor page faults:       449139
                          Major page faults:            2
                 Voluntary context switches:         1589
