HECN                                    
           1
     8.988709    0.014835    0.011650
     0.020770    9.028576   -0.012980
     0.043929   -0.028462    8.992604
   Zr   W    Hf   N    C    Mo   Nb
     7     6     7    13    19     6     6
Direct configuration=     1
   0.00194592  0.00004666  0.99146672
   0.25746725  0.99845336  0.25560875
   0.24672458  0.50177183  0.24740449
   0.50105423  0.49888464  0.99968460
   0.50298355  0.24121361  0.74536997
   0.99929754  0.49950021  0.50303197
   0.49981757  0.75988878  0.75222859
   0.98928931  0.23055897  0.27286259
   0.76975248  0.74188054  0.99573815
   0.01732214  0.23974597  0.73052583
   0.75677964  0.26713181  0.49391858
   0.99902228  0.72519722  0.76060813
   0.25783779  0.49974315  0.75252271
   0.24678229  0.24854721  0.99545673
   0.50682776  0.25110407  0.24825923
   0.74439267  0.99373464  0.26120834
   0.75528996  0.25260393  0.99100850
   0.25116720  0.75575055  0.99996309
   0.25658005  0.24945452  0.50254431
   0.24662774  0.75160008  0.50502304
   0.24778681  0.24863882  0.24963092
   0.25982126  0.00315079  0.99797140
   0.00089451  0.25263026  0.00925581
   0.75295265  0.24642895  0.24844724
   0.75204253  0.99658248  0.00771295
   0.50458639  0.00077893  0.23490624
   0.99485443  0.48548817  0.24664018
   0.50629222  0.75783910  0.00480424
   0.97342927  0.00250192  0.74579440
   0.75988860  0.24513838  0.74444393
   0.74446085  0.00695845  0.50602506
   0.50716580  0.24772618  0.49313398
   0.48530627  0.00131934  0.73387695
   0.99701145  0.99910443  0.25475823
   0.50303210  0.25021393  0.99951143
   0.25067798  0.74972875  0.25095778
   0.24529951  0.50317651  0.99447977
   0.00381851  0.75122153  0.00277976
   0.74978686  0.74709378  0.24479152
   0.75523814  0.50438040  0.99947733
   0.50418324  0.50137868  0.25454189
   0.25021825  0.25711547  0.74868642
   0.25384245  0.99969424  0.51005852
   0.99893462  0.24546099  0.50486042
   0.24000009  0.75244739  0.75281048
   0.25414008  0.50008714  0.50366430
   0.99572076  0.75305600  0.50858577
   0.00075922  0.48720739  0.75669636
   0.75511583  0.75455269  0.75225041
   0.74706202  0.49988650  0.49846835
   0.49860007  0.74856896  0.50156790
   0.49696364  0.50150965  0.74497615
   0.51754423  0.01269606  0.97817451
   0.99665755  0.51638161  0.98951847
   0.50308742  0.74787181  0.26237558
   0.22095862  0.01393450  0.74813515
   0.49079854  0.97793834  0.48195881
   0.72502473  0.98787082  0.77290982
   0.00049401  0.76613436  0.25148522
   0.74866314  0.50841540  0.24864625
   0.00609420  0.99960734  0.50797575
   0.49965128  0.51294161  0.49895368
   0.74339123  0.50993027  0.75015037
   0.75078705  0.73839965  0.49871611
HECN                                    
           1
     8.994790    0.015814    0.012574
     0.021765    9.029301   -0.013797
     0.044874   -0.029266    8.998704
   Zr   W    Hf   N    C    Mo   Nb
     7     6     7    13    19     6     6
Direct configuration=     2
   0.00195107  0.00004220  0.99146492
   0.25746607  0.99844722  0.25559365
   0.24671514  0.50177043  0.24740222
   0.50105793  0.49888628  0.99967841
   0.50299574  0.24122258  0.74536637
   0.99930092  0.49950484  0.50303687
   0.49980948  0.75988670  0.75223042
   0.98929349  0.23055136  0.27284925
   0.76972360  0.74187467  0.99573326
   0.01731734  0.23972168  0.73053505
   0.75678100  0.26713043  0.49390823
   0.99901912  0.72520540  0.76059026
   0.25782099  0.49971551  0.75252834
   0.24678850  0.24853445  0.99545603
   0.50680857  0.25109118  0.24825738
   0.74438771  0.99373501  0.26119639
   0.75530821  0.25261505  0.99102707
   0.25115927  0.75573816  0.99996623
   0.25658696  0.24944674  0.50253564
   0.24662394  0.75158412  0.50502238
   0.24780792  0.24863328  0.24964513
   0.25982184  0.00313725  0.99798458
   0.00088765  0.25263106  0.00928950
   0.75294596  0.24642904  0.24845809
   0.75205587  0.99659261  0.00770844
   0.50457652  0.00076626  0.23489804
   0.99485542  0.48550684  0.24664970
   0.50628168  0.75783919  0.00479546
   0.97343864  0.00246550  0.74580053
   0.75988592  0.24512751  0.74444824
   0.74446085  0.00694414  0.50602723
   0.50716394  0.24771559  0.49313499
   0.48533945  0.00132166  0.73387466
   0.99701181  0.99909679  0.25475963
   0.50304278  0.25021158  0.99950734
   0.25067990  0.74973148  0.25095632
   0.24530445  0.50317139  0.99448484
   0.00382895  0.75124193  0.00277786
   0.74979027  0.74709540  0.24479883
   0.75522856  0.50436527  0.99948397
   0.50417218  0.50135937  0.25454507
   0.25023743  0.25710300  0.74867794
   0.25383833  0.99969607  0.51003528
   0.99893910  0.24545731  0.50485692
   0.24000715  0.75243437  0.75282259
   0.25413920  0.50007417  0.50367023
   0.99571847  0.75304519  0.50857733
   0.00075631  0.48719273  0.75670466
   0.75509898  0.75454544  0.75224885
   0.74704957  0.49988487  0.49847896
   0.49859999  0.74856695  0.50156699
   0.49697004  0.50151272  0.74497622
   0.51753875  0.01268879  0.97816817
   0.99664748  0.51636258  0.98951065
   0.50308688  0.74787877  0.26236373
   0.22097579  0.01393817  0.74813479
   0.49080700  0.97795327  0.48196463
   0.72502879  0.98787006  0.77291277
   0.00052902  0.76629384  0.25152112
   0.74856957  0.50850130  0.24869803
   0.00621616  0.99955886  0.50791810
   0.49963144  0.51304897  0.49893270
   0.74331492  0.51006237  0.75016686
   0.75080438  0.73824279  0.49868583
HECN                                    
           1
     8.991426    0.015272    0.012063
     0.021215    9.028900   -0.013345
     0.044351   -0.028821    8.995329
   Zr   W    Hf   N    C    Mo   Nb
     7     6     7    13    19     6     6
Direct configuration=     3
   0.00194822  0.00004467  0.99146592
   0.25746672  0.99845062  0.25560200
   0.24672036  0.50177121  0.24740347
   0.50105588  0.49888537  0.99968183
   0.50298900  0.24121762  0.74536836
   0.99929906  0.49950228  0.50303416
   0.49981395  0.75988785  0.75222941
   0.98929118  0.23055557  0.27285663
   0.76973957  0.74187791  0.99573596
   0.01731999  0.23973512  0.73052995
   0.75678024  0.26713120  0.49391395
   0.99902087  0.72520088  0.76060014
   0.25783028  0.49973080  0.75252523
   0.24678506  0.24854151  0.99545642
   0.50681918  0.25109831  0.24825840
   0.74439045  0.99373481  0.26120300
   0.75529812  0.25260890  0.99101680
   0.25116365  0.75574501  0.99996449
   0.25658314  0.24945105  0.50254043
   0.24662604  0.75159295  0.50502275
   0.24779625  0.24863635  0.24963728
   0.25982152  0.00314474  0.99797729
   0.00089144  0.25263061  0.00927087
   0.75294966  0.24642899  0.24845209
   0.75204849  0.99658701  0.00771093
   0.50458197  0.00077327  0.23490257
   0.99485488  0.48549651  0.24664443
   0.50628751  0.75783914  0.00480031
   0.97343346  0.00248565  0.74579714
   0.75988740  0.24513352  0.74444586
   0.74446085  0.00695205  0.50602603
   0.50716497  0.24772145  0.49313443
   0.48532111  0.00132038  0.73387592
   0.99701161  0.99910101  0.25475886
   0.50303687  0.25021288  0.99950960
   0.25067884  0.74972997  0.25095712
   0.24530172  0.50317422  0.99448203
   0.00382318  0.75123065  0.00277891
   0.74978838  0.74709450  0.24479479
   0.75523386  0.50437364  0.99948030
   0.50417830  0.50137005  0.25454331
   0.25022682  0.25710990  0.74868263
   0.25384061  0.99969506  0.51004813
   0.99893662  0.24545935  0.50485885
   0.24000325  0.75244157  0.75281589
   0.25413968  0.50008135  0.50366695
   0.99571974  0.75305117  0.50858200
   0.00075792  0.48720084  0.75670007
   0.75510830  0.75454945  0.75224971
   0.74705646  0.49988577  0.49847309
   0.49860003  0.74856806  0.50156750
   0.49696650  0.50151103  0.74497618
   0.51754178  0.01269281  0.97817167
   0.99665304  0.51637311  0.98951498
   0.50308718  0.74787492  0.26237028
   0.22096630  0.01393614  0.74813499
   0.49080232  0.97794501  0.48196141
   0.72502655  0.98787048  0.77291114
   0.00050968  0.76620561  0.25150127
   0.74862132  0.50845377  0.24866939
   0.00614873  0.99958569  0.50794998
   0.49964242  0.51298958  0.49894429
   0.74335712  0.50998929  0.75015774
   0.75079479  0.73832957  0.49870258
