  64  64   0   0
  0.1129557E+02  0.8932500E-09  0.9055600E-09  0.8937200E-09  0.5000000E-15
  1.000000000000000E-004
  CAR 
 HECN                                    
     14.42637602    -50.64586997  301      8.33488029      1.00000000
    -50.646  0.0000E+00  0.0000E+00
    -50.429  0.0000E+00  0.0000E+00
    -50.212  0.0000E+00  0.0000E+00
    -49.995  0.0000E+00  0.0000E+00
    -49.778  0.0000E+00  0.0000E+00
    -49.561  0.0000E+00  0.0000E+00
    -49.344  0.0000E+00  0.0000E+00
    -49.128  0.0000E+00  0.0000E+00
    -48.911  0.0000E+00  0.0000E+00
    -48.694  0.0000E+00  0.0000E+00
    -48.477  0.0000E+00  0.0000E+00
    -48.260  0.3071E-16  0.6661E-17
    -48.043  0.2389E-07  0.5181E-08
    -47.826  0.2414E-02  0.5237E-03
    -47.609  0.1265E+00  0.2797E-01
    -47.392  0.2256E+00  0.7690E-01
    -47.175  0.1659E+00  0.1129E+00
    -46.958  0.3284E-01  0.1200E+00
    -46.742  0.9533E-05  0.1200E+00
    -46.525  0.5006E-12  0.1200E+00
    -46.308  0.0000E+00  0.1200E+00
    -46.091  0.0000E+00  0.1200E+00
    -45.874  0.0000E+00  0.1200E+00
    -45.657  0.0000E+00  0.1200E+00
    -45.440  0.0000E+00  0.1200E+00
    -45.223  0.0000E+00  0.1200E+00
    -45.006  0.0000E+00  0.1200E+00
    -44.789  0.0000E+00  0.1200E+00
    -44.572  0.0000E+00  0.1200E+00
    -44.356  0.0000E+00  0.1200E+00
    -44.139  0.0000E+00  0.1200E+00
    -43.922  0.0000E+00  0.1200E+00
    -43.705  0.0000E+00  0.1200E+00
    -43.488  0.0000E+00  0.1200E+00
    -43.271  0.0000E+00  0.1200E+00
    -43.054  0.0000E+00  0.1200E+00
    -42.837  0.0000E+00  0.1200E+00
    -42.620  0.0000E+00  0.1200E+00
    -42.403  0.0000E+00  0.1200E+00
    -42.186  0.0000E+00  0.1200E+00
    -41.970  0.0000E+00  0.1200E+00
    -41.753  0.0000E+00  0.1200E+00
    -41.536  0.0000E+00  0.1200E+00
    -41.319  0.1450E-11  0.1200E+00
    -41.102  0.1676E-04  0.1200E+00
    -40.885  0.3982E-01  0.1286E+00
    -40.668  0.2240E+00  0.1772E+00
    -40.451  0.4822E-01  0.1877E+00
    -40.234  0.1978E+00  0.2306E+00
    -40.017  0.4592E-01  0.2406E+00
    -39.800  0.7820E-01  0.2575E+00
    -39.584  0.1145E-01  0.2600E+00
    -39.367  0.1118E-05  0.2600E+00
    -39.150  0.1437E-13  0.2600E+00
    -38.933  0.0000E+00  0.2600E+00
    -38.716  0.0000E+00  0.2600E+00
    -38.499  0.0000E+00  0.2600E+00
    -38.282  0.0000E+00  0.2600E+00
    -38.065  0.0000E+00  0.2600E+00
    -37.848  0.0000E+00  0.2600E+00
    -37.631  0.0000E+00  0.2600E+00
    -37.415  0.0000E+00  0.2600E+00
    -37.198  0.0000E+00  0.2600E+00
    -36.981  0.0000E+00  0.2600E+00
    -36.764  0.0000E+00  0.2600E+00
    -36.547  0.0000E+00  0.2600E+00
    -36.330  0.0000E+00  0.2600E+00
    -36.113  0.0000E+00  0.2600E+00
    -35.896  0.9022E-11  0.2600E+00
    -35.679  0.4503E-04  0.2600E+00
    -35.462  0.3821E-01  0.2683E+00
    -35.245  0.3416E+00  0.3424E+00
    -35.029  0.1080E+01  0.5767E+00
    -34.812  0.1867E+00  0.6172E+00
    -34.595  0.1282E-01  0.6200E+00
    -34.378  0.1487E-05  0.6200E+00
    -34.161  0.2318E-13  0.6200E+00
    -33.944  0.0000E+00  0.6200E+00
    -33.727  0.0000E+00  0.6200E+00
    -33.510  0.0000E+00  0.6200E+00
    -33.293  0.0000E+00  0.6200E+00
    -33.076  0.0000E+00  0.6200E+00
    -32.859  0.0000E+00  0.6200E+00
    -32.643  0.0000E+00  0.6200E+00
    -32.426  0.0000E+00  0.6200E+00
    -32.209  0.0000E+00  0.6200E+00
    -31.992  0.0000E+00  0.6200E+00
    -31.775  0.0000E+00  0.6200E+00
    -31.558  0.0000E+00  0.6200E+00
    -31.341  0.0000E+00  0.6200E+00
    -31.124  0.0000E+00  0.6200E+00
    -30.907  0.0000E+00  0.6200E+00
    -30.690  0.0000E+00  0.6200E+00
    -30.473  0.0000E+00  0.6200E+00
    -30.257  0.0000E+00  0.6200E+00
    -30.040  0.0000E+00  0.6200E+00
    -29.823  0.0000E+00  0.6200E+00
    -29.606  0.0000E+00  0.6200E+00
    -29.389  0.0000E+00  0.6200E+00
    -29.172  0.0000E+00  0.6200E+00
    -28.955  0.0000E+00  0.6200E+00
    -28.738  0.0000E+00  0.6200E+00
    -28.521  0.0000E+00  0.6200E+00
    -28.304  0.0000E+00  0.6200E+00
    -28.087  0.0000E+00  0.6200E+00
    -27.871  0.0000E+00  0.6200E+00
    -27.654  0.5014E-15  0.6200E+00
    -27.437  0.1789E-06  0.6200E+00
    -27.220  0.9181E-02  0.6220E+00
    -27.003  0.3147E+00  0.6903E+00
    -26.786  0.7595E+00  0.8550E+00
    -26.569  0.5521E+00  0.9748E+00
    -26.352  0.2418E-01  0.9800E+00
    -26.135  0.1790E-05  0.9800E+00
    -25.918  0.2191E-13  0.9800E+00
    -25.702  0.0000E+00  0.9800E+00
    -25.485  0.0000E+00  0.9800E+00
    -25.268  0.0000E+00  0.9800E+00
    -25.051  0.0000E+00  0.9800E+00
    -24.834  0.0000E+00  0.9800E+00
    -24.617  0.0000E+00  0.9800E+00
    -24.400  0.5312E-09  0.9800E+00
    -24.183  0.3852E-03  0.9801E+00
    -23.966  0.7689E-01  0.9968E+00
    -23.749  0.3331E+00  0.1069E+01
    -23.532  0.6877E+00  0.1218E+01
    -23.316  0.4061E+00  0.1306E+01
    -23.099  0.1552E+00  0.1340E+01
    -22.882  0.1190E-02  0.1340E+01
    -22.665  0.1203E+00  0.1366E+01
    -22.448  0.2623E+00  0.1423E+01
    -22.231  0.8965E+00  0.1618E+01
    -22.014  0.6144E+00  0.1751E+01
    -21.797  0.4198E-01  0.1760E+01
    -21.580  0.2837E-04  0.1760E+01
    -21.363  0.3880E-11  0.1760E+01
    -21.146  0.0000E+00  0.1760E+01
    -20.930  0.0000E+00  0.1760E+01
    -20.713  0.0000E+00  0.1760E+01
    -20.496  0.0000E+00  0.1760E+01
    -20.279  0.0000E+00  0.1760E+01
    -20.062  0.0000E+00  0.1760E+01
    -19.845  0.9967E-11  0.1760E+01
    -19.628  0.4752E-04  0.1760E+01
    -19.411  0.3863E-01  0.1768E+01
    -19.194  0.1870E+00  0.1809E+01
    -18.977  0.4233E+00  0.1901E+01
    -18.760  0.2875E+00  0.1963E+01
    -18.544  0.6195E+00  0.2098E+01
    -18.327  0.1435E+00  0.2129E+01
    -18.110  0.2300E+00  0.2179E+01
    -17.893  0.6823E-02  0.2180E+01
    -17.676  0.7911E-07  0.2180E+01
    -17.459  0.1126E-15  0.2180E+01
    -17.242  0.0000E+00  0.2180E+01
    -17.025  0.0000E+00  0.2180E+01
    -16.808  0.0000E+00  0.2180E+01
    -16.591  0.0000E+00  0.2180E+01
    -16.374  0.0000E+00  0.2180E+01
    -16.158  0.0000E+00  0.2180E+01
    -15.941  0.0000E+00  0.2180E+01
    -15.724  0.0000E+00  0.2180E+01
    -15.507  0.0000E+00  0.2180E+01
    -15.290  0.0000E+00  0.2180E+01
    -15.073  0.0000E+00  0.2180E+01
    -14.856  0.0000E+00  0.2180E+01
    -14.639  0.0000E+00  0.2180E+01
    -14.422  0.0000E+00  0.2180E+01
    -14.205  0.0000E+00  0.2180E+01
    -13.989  0.0000E+00  0.2180E+01
    -13.772  0.0000E+00  0.2180E+01
    -13.555  0.0000E+00  0.2180E+01
    -13.338  0.0000E+00  0.2180E+01
    -13.121  0.0000E+00  0.2180E+01
    -12.904  0.0000E+00  0.2180E+01
    -12.687  0.0000E+00  0.2180E+01
    -12.470  0.0000E+00  0.2180E+01
    -12.253  0.0000E+00  0.2180E+01
    -12.036  0.0000E+00  0.2180E+01
    -11.819  0.0000E+00  0.2180E+01
    -11.603  0.0000E+00  0.2180E+01
    -11.386  0.0000E+00  0.2180E+01
    -11.169  0.0000E+00  0.2180E+01
    -10.952  0.0000E+00  0.2180E+01
    -10.735  0.0000E+00  0.2180E+01
    -10.518  0.0000E+00  0.2180E+01
    -10.301  0.0000E+00  0.2180E+01
    -10.084  0.0000E+00  0.2180E+01
     -9.867  0.0000E+00  0.2180E+01
     -9.650  0.0000E+00  0.2180E+01
     -9.433  0.0000E+00  0.2180E+01
     -9.217  0.0000E+00  0.2180E+01
     -9.000  0.0000E+00  0.2180E+01
     -8.783  0.0000E+00  0.2180E+01
     -8.566  0.0000E+00  0.2180E+01
     -8.349  0.0000E+00  0.2180E+01
     -8.132  0.7061E-11  0.2180E+01
     -7.915  0.1067E-04  0.2180E+01
     -7.698  0.9285E-02  0.2182E+01
     -7.481  0.7589E-01  0.2198E+01
     -7.264  0.9235E-01  0.2219E+01
     -7.047  0.1613E+00  0.2254E+01
     -6.831  0.5788E-01  0.2266E+01
     -6.614  0.2119E+00  0.2312E+01
     -6.397  0.2121E+00  0.2358E+01
     -6.180  0.2206E+00  0.2406E+01
     -5.963  0.8987E-01  0.2425E+01
     -5.746  0.6679E-01  0.2440E+01
     -5.529  0.6559E-03  0.2440E+01
     -5.312  0.1635E-08  0.2440E+01
     -5.095  0.0000E+00  0.2440E+01
     -4.878  0.6049E-14  0.2440E+01
     -4.661  0.2355E-06  0.2440E+01
     -4.445  0.1625E-02  0.2440E+01
     -4.228  0.3847E-01  0.2449E+01
     -4.011  0.4988E-01  0.2460E+01
     -3.794  0.1315E-01  0.2462E+01
     -3.577  0.1005E+00  0.2484E+01
     -3.360  0.1166E+00  0.2509E+01
     -3.143  0.1499E+00  0.2542E+01
     -2.926  0.2345E+00  0.2593E+01
     -2.709  0.2366E+00  0.2644E+01
     -2.492  0.2489E+00  0.2698E+01
     -2.276  0.2079E+00  0.2743E+01
     -2.059  0.1835E+00  0.2783E+01
     -1.842  0.1056E+00  0.2806E+01
     -1.625  0.5708E-01  0.2818E+01
     -1.408  0.7537E-02  0.2820E+01
     -1.191  0.5413E-04  0.2820E+01
     -0.974  0.1779E-09  0.2820E+01
     -0.757  0.0000E+00  0.2820E+01
     -0.540  0.0000E+00  0.2820E+01
     -0.323  0.0000E+00  0.2820E+01
     -0.106  0.1896E-18  0.2820E+01
      0.110  0.2126E-09  0.2820E+01
      0.327  0.5132E-04  0.2820E+01
      0.544  0.4691E-02  0.2821E+01
      0.761  0.1237E-01  0.2824E+01
      0.978  0.5656E-01  0.2836E+01
      1.195  0.9025E-01  0.2856E+01
      1.412  0.1215E+00  0.2882E+01
      1.629  0.1786E+00  0.2921E+01
      1.846  0.2331E+00  0.2971E+01
      2.063  0.2795E+00  0.3032E+01
      2.280  0.2795E+00  0.3092E+01
      2.496  0.2754E+00  0.3152E+01
      2.713  0.3139E+00  0.3220E+01
      2.930  0.3490E+00  0.3296E+01
      3.147  0.3862E+00  0.3380E+01
      3.364  0.4597E+00  0.3479E+01
      3.581  0.5243E+00  0.3593E+01
      3.798  0.5940E+00  0.3722E+01
      4.015  0.6835E+00  0.3870E+01
      4.232  0.6697E+00  0.4016E+01
      4.449  0.6049E+00  0.4147E+01
      4.666  0.5456E+00  0.4265E+01
      4.882  0.4810E+00  0.4369E+01
      5.099  0.4098E+00  0.4458E+01
      5.316  0.3264E+00  0.4529E+01
      5.533  0.2866E+00  0.4591E+01
      5.750  0.2608E+00  0.4648E+01
      5.967  0.1919E+00  0.4690E+01
      6.184  0.1426E+00  0.4720E+01
      6.401  0.7670E-01  0.4737E+01
      6.618  0.7146E-01  0.4753E+01
      6.835  0.1512E+00  0.4785E+01
      7.052  0.1759E+00  0.4824E+01
      7.268  0.1845E+00  0.4864E+01
      7.485  0.2108E+00  0.4909E+01
      7.702  0.1897E+00  0.4950E+01
      7.919  0.2201E+00  0.4998E+01
      8.136  0.2736E+00  0.5058E+01
      8.353  0.2635E+00  0.5115E+01
      8.570  0.2697E+00  0.5173E+01
      8.787  0.3194E+00  0.5242E+01
      9.004  0.3521E+00  0.5319E+01
      9.221  0.3832E+00  0.5402E+01
      9.438  0.3750E+00  0.5483E+01
      9.654  0.3884E+00  0.5568E+01
      9.871  0.3947E+00  0.5653E+01
     10.088  0.3704E+00  0.5733E+01
     10.305  0.3911E+00  0.5818E+01
     10.522  0.3802E+00  0.5901E+01
     10.739  0.3788E+00  0.5983E+01
     10.956  0.3873E+00  0.6067E+01
     11.173  0.3928E+00  0.6152E+01
     11.390  0.3422E+00  0.6226E+01
     11.607  0.6245E-01  0.6240E+01
     11.823  0.3368E-03  0.6240E+01
     12.040  0.2276E-08  0.6240E+01
     12.257  0.2275E-17  0.6240E+01
     12.474  0.0000E+00  0.6240E+01
     12.691  0.0000E+00  0.6240E+01
     12.908  0.0000E+00  0.6240E+01
     13.125  0.0000E+00  0.6240E+01
     13.342  0.0000E+00  0.6240E+01
     13.559  0.0000E+00  0.6240E+01
     13.776  0.0000E+00  0.6240E+01
     13.993  0.0000E+00  0.6240E+01
     14.209  0.0000E+00  0.6240E+01
     14.426  0.0000E+00  0.6240E+01
