       N       E                     dE             d eps       ncg     rms          rms(c)
DAV:   1     0.629905386583E+04    0.62991E+04   -0.20493E+05  8624   0.153E+03
DAV:   2     0.306966996772E+03   -0.59921E+04   -0.58042E+04  8624   0.603E+02
DAV:   3    -0.657867151478E+03   -0.96483E+03   -0.89808E+03 12992   0.198E+02
DAV:   4    -0.771804700832E+03   -0.11394E+03   -0.10922E+03 14112   0.825E+01
DAV:   5    -0.782186316700E+03   -0.10382E+02   -0.99571E+01 14252   0.234E+01    0.751E+01
RMM:   6    -0.832410055343E+03   -0.50224E+02   -0.15805E+03 11733   0.141E+02    0.110E+02
RMM:   7    -0.627262168545E+03    0.20515E+03   -0.42130E+02 11833   0.552E+01    0.467E+01
RMM:   8    -0.651500882137E+03   -0.24239E+02   -0.17265E+02 12417   0.214E+01    0.449E+01
RMM:   9    -0.634578467829E+03    0.16922E+02   -0.36620E+01 12299   0.125E+01    0.195E+01
RMM:  10    -0.635286527623E+03   -0.70806E+00   -0.17541E+01 13079   0.598E+00    0.200E+01
RMM:  11    -0.633454651986E+03    0.18319E+01   -0.66439E+00 11546   0.549E+00    0.181E+01
RMM:  12    -0.633043870019E+03    0.41078E+00   -0.42027E+00 12464   0.420E+00    0.168E+01
RMM:  13    -0.632672639445E+03    0.37123E+00   -0.56155E+00 12859   0.407E+00    0.129E+01
RMM:  14    -0.632805329284E+03   -0.13269E+00   -0.31418E+00 12895   0.328E+00    0.106E+01
RMM:  15    -0.632036856787E+03    0.76847E+00   -0.77719E-01 11244   0.189E+00    0.455E+00
RMM:  16    -0.631995225976E+03    0.41631E-01   -0.57558E-01 12335   0.111E+00    0.559E+00
RMM:  17    -0.631795983264E+03    0.19924E+00   -0.75050E-01 12641   0.123E+00    0.184E+00
RMM:  18    -0.631813338275E+03   -0.17355E-01   -0.52486E-01 13256   0.899E-01    0.167E+00
RMM:  19    -0.631828338586E+03   -0.15000E-01   -0.20861E-01 13395   0.537E-01    0.124E+00
RMM:  20    -0.631819349127E+03    0.89895E-02   -0.81794E-02 11741   0.382E-01    0.623E-01
RMM:  21    -0.631818475872E+03    0.87325E-03   -0.77609E-02 12270   0.346E-01    0.346E-01
RMM:  22    -0.631821782337E+03   -0.33065E-02   -0.46131E-02 12622   0.240E-01    0.118E-01
RMM:  23    -0.631823968994E+03   -0.21867E-02   -0.27215E-02 11086   0.134E-01    0.833E-02
RMM:  24    -0.631825383278E+03   -0.14143E-02   -0.16368E-02 10645   0.873E-02    0.380E-02
RMM:  25    -0.631826715933E+03   -0.13327E-02   -0.13159E-02 10143   0.724E-02    0.725E-02
RMM:  26    -0.631827375430E+03   -0.65950E-03   -0.73471E-03  8502   0.536E-02    0.311E-02
RMM:  27    -0.631827937890E+03   -0.56246E-03   -0.60693E-03  9772   0.429E-02    0.132E-02
RMM:  28    -0.631828300480E+03   -0.36259E-03   -0.36280E-03 10500   0.415E-02    0.288E-02
RMM:  29    -0.631828597897E+03   -0.29742E-03   -0.30918E-03  7524   0.294E-02    0.200E-02
RMM:  30    -0.631828766883E+03   -0.16899E-03   -0.17925E-03  6402   0.216E-02    0.108E-02
RMM:  31    -0.631828919637E+03   -0.15275E-03   -0.15652E-03  6293   0.166E-02    0.795E-03
RMM:  32    -0.631829011639E+03   -0.92002E-04   -0.92878E-04  6185   0.174E-02    0.214E-03
RMM:  33    -0.631829092119E+03   -0.80480E-04   -0.80130E-04  6066   0.126E-02    0.283E-03
RMM:  34    -0.631829139317E+03   -0.47199E-04   -0.47212E-04  5807   0.106E-02    0.237E-03
RMM:  35    -0.631829180761E+03   -0.41444E-04   -0.41629E-04  5789   0.782E-03    0.185E-03
RMM:  36    -0.631829205433E+03   -0.24672E-04   -0.24766E-04  5531   0.721E-03    0.875E-04
RMM:  37    -0.631829227573E+03   -0.22140E-04   -0.22169E-04  5438   0.638E-03    0.864E-04
RMM:  38    -0.631829240916E+03   -0.13343E-04   -0.13332E-04  4767   0.592E-03    0.692E-04
RMM:  39    -0.631829252786E+03   -0.11870E-04   -0.11899E-04  4467   0.466E-03    0.432E-04
RMM:  40    -0.631829260075E+03   -0.72882E-05   -0.72989E-05  4311   0.458E-03
   1 F= -.63182926E+03 E0= -.63171263E+03  d E =-.631829E+03
       N       E                     dE             d eps       ncg     rms          rms(c)
DAV:   1    -0.760848150683E+03   -0.12902E+03   -0.40522E+03 11760   0.299E+02    0.806E+01
RMM:   2    -0.802926413291E+03   -0.42078E+02   -0.12346E+03 10220   0.160E+02    0.872E+01
RMM:   3    -0.643719458610E+03    0.15921E+03   -0.18488E+02 11260   0.550E+01    0.486E+01
RMM:   4    -0.637980891148E+03    0.57386E+01   -0.10940E+02 11301   0.304E+01    0.316E+01
RMM:   5    -0.636807079787E+03    0.11738E+01   -0.50325E+01 12213   0.188E+01    0.350E+01
RMM:   6    -0.626422497022E+03    0.10385E+02   -0.11667E+01 11400   0.113E+01    0.940E+00
RMM:   7    -0.629132985493E+03   -0.27105E+01   -0.72018E+00 11959   0.750E+00    0.215E+01
RMM:   8    -0.625994231743E+03    0.31388E+01   -0.24632E+00 11362   0.529E+00    0.484E+00
RMM:   9    -0.626542343098E+03   -0.54811E+00   -0.16920E+00 12147   0.299E+00    0.103E+01
RMM:  10    -0.625981098991E+03    0.56124E+00   -0.67499E-01 11992   0.229E+00    0.286E+00
RMM:  11    -0.626074145465E+03   -0.93046E-01   -0.31637E-01 11705   0.153E+00    0.556E+00
RMM:  12    -0.625940705648E+03    0.13344E+00   -0.14854E-01 11706   0.108E+00    0.124E+00
RMM:  13    -0.625993826495E+03   -0.53121E-01   -0.13939E-01 12421   0.892E-01    0.329E+00
RMM:  14    -0.625942173107E+03    0.51653E-01   -0.75120E-02 12237   0.688E-01    0.518E-01
RMM:  15    -0.625938248858E+03    0.39242E-02   -0.21821E-02 11641   0.318E-01    0.268E-01
RMM:  16    -0.625938002678E+03    0.24618E-03   -0.16774E-02 12085   0.219E-01    0.991E-02
RMM:  17    -0.625938734332E+03   -0.73165E-03   -0.85360E-03 12397   0.135E-01    0.109E-01
RMM:  18    -0.625938747321E+03   -0.12990E-04   -0.33723E-03 11183   0.791E-02    0.605E-02
RMM:  19    -0.625938830449E+03   -0.83128E-04   -0.22499E-03 10586   0.631E-02    0.304E-02
RMM:  20    -0.625938936993E+03   -0.10654E-03   -0.12232E-03  9603   0.404E-02    0.199E-02
RMM:  21    -0.625938989844E+03   -0.52852E-04   -0.66832E-04  7048   0.254E-02    0.116E-02
RMM:  22    -0.625939022685E+03   -0.32840E-04   -0.37601E-04  7309   0.209E-02    0.988E-03
RMM:  23    -0.625939043546E+03   -0.20861E-04   -0.23488E-04  6311   0.172E-02    0.473E-03
RMM:  24    -0.625939055843E+03   -0.12297E-04   -0.13014E-04  6044   0.101E-02    0.263E-03
RMM:  25    -0.625939063909E+03   -0.80665E-05   -0.84369E-05  5862   0.874E-03
   2 F= -.62593906E+03 E0= -.62586111E+03  d E =0.589020E+01
       N       E                     dE             d eps       ncg     rms          rms(c)
DAV:   1    -0.704696536717E+03   -0.78757E+02   -0.16422E+03 11508   0.175E+02    0.812E+01
RMM:   2    -0.984196590294E+03   -0.27950E+03   -0.36039E+02 12046   0.491E+01    0.870E+01
RMM:   3    -0.696642883174E+03    0.28755E+03   -0.12931E+02 11381   0.321E+01    0.584E+01
RMM:   4    -0.650530597290E+03    0.46112E+02   -0.95735E+01 10088   0.412E+01    0.393E+01
RMM:   5    -0.645245769874E+03    0.52848E+01   -0.29218E+01 11779   0.134E+01    0.348E+01
RMM:   6    -0.638463058779E+03    0.67827E+01   -0.79523E+00 11377   0.892E+00    0.164E+01
RMM:   7    -0.639772329233E+03   -0.13093E+01   -0.55440E+00 11633   0.542E+00    0.231E+01
RMM:   8    -0.637420531425E+03    0.23518E+01   -0.21330E+00 11563   0.451E+00    0.113E+01
RMM:   9    -0.637692561268E+03   -0.27203E+00   -0.13929E+00 11852   0.336E+00    0.141E+01
RMM:  10    -0.636770275097E+03    0.92229E+00   -0.81589E-01 11501   0.279E+00    0.467E+00
RMM:  11    -0.636972902280E+03   -0.20263E+00   -0.50718E-01 12268   0.180E+00    0.883E+00
RMM:  12    -0.636704610431E+03    0.26829E+00   -0.28036E-01 11765   0.140E+00    0.309E+00
RMM:  13    -0.636724961388E+03   -0.20351E-01   -0.16880E-01 11448   0.141E+00    0.422E+00
RMM:  14    -0.636674803707E+03    0.50158E-01   -0.65687E-02 11685   0.744E-01    0.237E+00
RMM:  15    -0.636665596283E+03    0.92074E-02   -0.80536E-02 12101   0.786E-01    0.185E+00
RMM:  16    -0.636652839940E+03    0.12756E-01   -0.33242E-02 11209   0.634E-01    0.115E+00
RMM:  17    -0.636651575520E+03    0.12644E-02   -0.20917E-02 11184   0.392E-01    0.956E-01
RMM:  18    -0.636646825196E+03    0.47503E-02   -0.87603E-03 11036   0.278E-01    0.256E-01
RMM:  19    -0.636647181602E+03   -0.35641E-03   -0.57067E-03 11271   0.118E-01    0.207E-01
RMM:  20    -0.636647159064E+03    0.22538E-04   -0.22932E-03 10332   0.730E-02    0.117E-01
RMM:  21    -0.636647242764E+03   -0.83700E-04   -0.17125E-03  9629   0.494E-02    0.190E-02
RMM:  22    -0.636647321406E+03   -0.78643E-04   -0.78259E-04  8652   0.277E-02    0.211E-02
RMM:  23    -0.636647372156E+03   -0.50749E-04   -0.52894E-04  7029   0.212E-02    0.154E-02
RMM:  24    -0.636647399295E+03   -0.27139E-04   -0.28543E-04  6466   0.172E-02    0.577E-03
RMM:  25    -0.636647420644E+03   -0.21349E-04   -0.20314E-04  6215   0.131E-02    0.115E-02
RMM:  26    -0.636647431544E+03   -0.10900E-04   -0.11433E-04  6000   0.104E-02    0.320E-03
RMM:  27    -0.636647439728E+03   -0.81836E-05   -0.81655E-05  5856   0.840E-03
   3 F= -.63664744E+03 E0= -.63654792E+03  d E =-.481818E+01
       N       E                     dE             d eps       ncg     rms          rms(c)
DAV:   1    -0.636701912753E+03   -0.54481E-01   -0.11324E+00 12600   0.469E+00    0.213E+00
RMM:   2    -0.637543774196E+03   -0.84186E+00   -0.68725E-01 10336   0.341E+00    0.125E+01
RMM:   3    -0.636749826562E+03    0.79395E+00   -0.25820E-01 10010   0.224E+00    0.445E+00
RMM:   4    -0.636669857755E+03    0.79969E-01   -0.53053E-02 11050   0.857E-01    0.146E+00
RMM:   5    -0.636673296156E+03   -0.34384E-02   -0.25689E-02 11187   0.447E-01    0.198E+00
RMM:   6    -0.636659082734E+03    0.14213E-01   -0.10574E-02 10842   0.367E-01    0.775E-01
RMM:   7    -0.636657440693E+03    0.16420E-02   -0.89963E-03 11201   0.218E-01    0.582E-01
RMM:   8    -0.636656971225E+03    0.46947E-03   -0.27279E-03 10782   0.164E-01    0.490E-01
RMM:   9    -0.636656047206E+03    0.92402E-03   -0.13562E-03 10613   0.102E-01    0.224E-01
RMM:  10    -0.636656037054E+03    0.10151E-04   -0.58025E-04  9371   0.728E-02    0.217E-01
RMM:  11    -0.636655864888E+03    0.17217E-03   -0.30534E-04  9725   0.471E-02    0.695E-02
RMM:  12    -0.636655920854E+03   -0.55966E-04   -0.15400E-04  8381   0.362E-02    0.122E-01
RMM:  13    -0.636655858924E+03    0.61930E-04   -0.63625E-05  6861   0.253E-02    0.272E-02
RMM:  14    -0.636655863001E+03   -0.40768E-05   -0.30439E-05  6465   0.171E-02
   4 F= -.63665586E+03 E0= -.63655698E+03  d E =-.482660E+01
       N       E                     dE             d eps       ncg     rms          rms(c)
DAV:   1    -0.629323581431E+03    0.73323E+01   -0.64888E+02  9408   0.103E+02    0.695E+00
RMM:   2    -0.643395013014E+03   -0.14071E+02   -0.89229E+01 13608   0.297E+01    0.249E+01
RMM:   3    -0.638918533775E+03    0.44765E+01   -0.15944E+01 11955   0.144E+01    0.112E+01
RMM:   4    -0.639069456464E+03   -0.15092E+00   -0.58699E+00 13455   0.663E+00    0.961E+00
RMM:   5    -0.638879411424E+03    0.19005E+00   -0.17290E+00 12667   0.367E+00    0.688E+00
RMM:   6    -0.638776538747E+03    0.10287E+00   -0.77120E-01 13006   0.201E+00    0.462E+00
RMM:   7    -0.638674535807E+03    0.10200E+00   -0.34298E-01 12312   0.138E+00    0.267E+00
RMM:   8    -0.638702572135E+03   -0.28036E-01   -0.24052E-01 12073   0.124E+00    0.360E+00
RMM:   9    -0.638655734289E+03    0.46838E-01   -0.25292E-01 12499   0.114E+00    0.293E+00
RMM:  10    -0.638633581001E+03    0.22153E-01   -0.11426E-01 12395   0.745E-01    0.147E+00
RMM:  11    -0.638624665050E+03    0.89160E-02   -0.47556E-02 12439   0.405E-01    0.691E-01
RMM:  12    -0.638630892458E+03   -0.62274E-02   -0.29789E-02 12156   0.351E-01    0.132E+00
RMM:  13    -0.638624024412E+03    0.68680E-02   -0.20640E-02 11980   0.280E-01    0.551E-01
RMM:  14    -0.638623572907E+03    0.45151E-03   -0.10802E-02 12294   0.165E-01    0.121E-01
RMM:  15    -0.638623905274E+03   -0.33237E-03   -0.56374E-03 11858   0.911E-02    0.758E-02
RMM:  16    -0.638624171506E+03   -0.26623E-03   -0.34301E-03 10756   0.650E-02    0.806E-02
RMM:  17    -0.638624367370E+03   -0.19586E-03   -0.22222E-03 10124   0.466E-02    0.394E-02
RMM:  18    -0.638624471603E+03   -0.10423E-03   -0.12852E-03  8321   0.374E-02    0.209E-02
RMM:  19    -0.638624549607E+03   -0.78004E-04   -0.86326E-04  8067   0.255E-02    0.150E-02
RMM:  20    -0.638624599583E+03   -0.49976E-04   -0.51589E-04  7011   0.218E-02    0.853E-03
RMM:  21    -0.638624628960E+03   -0.29377E-04   -0.32362E-04  6329   0.184E-02    0.507E-03
RMM:  22    -0.638624647984E+03   -0.19024E-04   -0.20289E-04  6144   0.122E-02    0.256E-03
RMM:  23    -0.638624660826E+03   -0.12842E-04   -0.12983E-04  5952   0.113E-02    0.205E-03
RMM:  24    -0.638624668989E+03   -0.81633E-05   -0.82884E-05  5875   0.812E-03
   5 F= -.63862467E+03 E0= -.63853560E+03  d E =-.196881E+01
       N       E                     dE             d eps       ncg     rms          rms(c)
DAV:   1    -0.638601786712E+03    0.22874E-01   -0.18873E+00 10976   0.556E+00    0.354E-01
RMM:   2    -0.638645099803E+03   -0.43313E-01   -0.26642E-01 13542   0.164E+00    0.206E+00
RMM:   3    -0.638629893824E+03    0.15206E-01   -0.43221E-02 11753   0.737E-01    0.493E-01
RMM:   4    -0.638631164437E+03   -0.12706E-02   -0.16582E-02 13172   0.353E-01    0.554E-01
RMM:   5    -0.638630210271E+03    0.95417E-03   -0.50312E-03 12588   0.195E-01    0.319E-01
RMM:   6    -0.638630055157E+03    0.15511E-03   -0.23105E-03 12165   0.110E-01    0.250E-01
RMM:   7    -0.638629789656E+03    0.26550E-03   -0.94925E-04 10743   0.726E-02    0.157E-01
RMM:   8    -0.638629845230E+03   -0.55573E-04   -0.67818E-04  9966   0.613E-02    0.188E-01
RMM:   9    -0.638629690327E+03    0.15490E-03   -0.77596E-04 11637   0.639E-02    0.108E-01
RMM:  10    -0.638629675992E+03    0.14335E-04   -0.30480E-04  9702   0.439E-02    0.754E-02
RMM:  11    -0.638629652966E+03    0.23026E-04   -0.13354E-04  7703   0.259E-02    0.283E-02
RMM:  12    -0.638629672881E+03   -0.19915E-04   -0.77969E-05  6411   0.230E-02    0.743E-02
RMM:  13    -0.638629650769E+03    0.22112E-04   -0.55186E-05  6260   0.220E-02    0.124E-02
RMM:  14    -0.638629654045E+03   -0.32759E-05   -0.44021E-05  6347   0.142E-02
   6 F= -.63862965E+03 E0= -.63854091E+03  d E =-.197379E+01
       N       E                     dE             d eps       ncg     rms          rms(c)
DAV:   1    -0.638615155798E+03    0.14495E-01   -0.17805E+02 12656   0.758E+01    0.156E+01
RMM:   2    -0.669860520649E+03   -0.31245E+02   -0.37586E+01 11758   0.224E+01    0.487E+01
RMM:   3    -0.639713578743E+03    0.30147E+02   -0.15047E+01 10545   0.174E+01    0.129E+01
RMM:   4    -0.639916484742E+03   -0.20291E+00   -0.50491E+00 13087   0.596E+00    0.127E+01
RMM:   5    -0.639247784763E+03    0.66870E+00   -0.14449E+00 11556   0.380E+00    0.678E+00
RMM:   6    -0.639197309297E+03    0.50475E-01   -0.65699E-01 12120   0.230E+00    0.596E+00
RMM:   7    -0.639041130766E+03    0.15618E+00   -0.32180E-01 11870   0.149E+00    0.320E+00
RMM:   8    -0.639059396417E+03   -0.18266E-01   -0.16176E-01 11813   0.118E+00    0.384E+00
RMM:   9    -0.638986735293E+03    0.72661E-01   -0.10561E-01 11836   0.832E-01    0.119E+00
RMM:  10    -0.639012897074E+03   -0.26162E-01   -0.63185E-02 12194   0.670E-01    0.268E+00
RMM:  11    -0.638981032274E+03    0.31865E-01   -0.29975E-02 11554   0.507E-01    0.492E-01
RMM:  12    -0.638985685524E+03   -0.46533E-02   -0.15413E-02 11944   0.280E-01    0.112E+00
RMM:  13    -0.638980391808E+03    0.52937E-02   -0.75779E-03 11044   0.215E-01    0.266E-01
RMM:  14    -0.638980319943E+03    0.71866E-04   -0.49122E-03 12069   0.118E-01    0.117E-01
RMM:  15    -0.638980478755E+03   -0.15881E-03   -0.28312E-03 11833   0.816E-02    0.777E-02
RMM:  16    -0.638980552921E+03   -0.74166E-04   -0.15731E-03 10409   0.521E-02    0.339E-02
RMM:  17    -0.638980614736E+03   -0.61815E-04   -0.91527E-04  9984   0.458E-02    0.265E-02
RMM:  18    -0.638980674886E+03   -0.60150E-04   -0.65010E-04  8916   0.280E-02    0.164E-02
RMM:  19    -0.638980697943E+03   -0.23057E-04   -0.30487E-04  6814   0.239E-02    0.928E-03
RMM:  20    -0.638980717730E+03   -0.19786E-04   -0.21631E-04  6494   0.147E-02    0.519E-03
RMM:  21    -0.638980730854E+03   -0.13124E-04   -0.12246E-04  6194   0.154E-02    0.319E-03
RMM:  22    -0.638980739327E+03   -0.84732E-05   -0.81377E-05  6032   0.109E-02
   7 F= -.63898074E+03 E0= -.63889385E+03  d E =-.351085E+00
       N       E                     dE             d eps       ncg     rms          rms(c)
DAV:   1    -0.638977132715E+03    0.35981E-02   -0.49410E+00 13188   0.130E+01    0.248E+00
RMM:   2    -0.640057325892E+03   -0.10802E+01   -0.15000E+00 10598   0.510E+00    0.130E+01
RMM:   3    -0.639064386661E+03    0.99294E+00   -0.51017E-01 10520   0.320E+00    0.397E+00
RMM:   4    -0.639014202048E+03    0.50185E-01   -0.14838E-01 12824   0.122E+00    0.183E+00
RMM:   5    -0.639015955569E+03   -0.17535E-02   -0.55718E-02 12124   0.645E-01    0.209E+00
RMM:   6    -0.638999132142E+03    0.16823E-01   -0.17796E-02 11410   0.462E-01    0.811E-01
RMM:   7    -0.638997927420E+03    0.12047E-02   -0.13090E-02 11658   0.282E-01    0.733E-01
RMM:   8    -0.638996406168E+03    0.15213E-02   -0.49120E-03 11117   0.220E-01    0.487E-01
RMM:   9    -0.638995559586E+03    0.84658E-03   -0.31294E-03 11536   0.140E-01    0.308E-01
RMM:  10    -0.638995538489E+03    0.21096E-04   -0.15558E-03 10751   0.110E-01    0.279E-01
RMM:  11    -0.638995196659E+03    0.34183E-03   -0.65599E-04 10396   0.661E-02    0.956E-02
RMM:  12    -0.638995249827E+03   -0.53168E-04   -0.34063E-04  9349   0.458E-02    0.130E-01
RMM:  13    -0.638995187262E+03    0.62565E-04   -0.17751E-04  8154   0.323E-02    0.314E-02
RMM:  14    -0.638995197641E+03   -0.10378E-04   -0.11278E-04  7670   0.216E-02    0.163E-02
RMM:  15    -0.638995204311E+03   -0.66702E-05   -0.59623E-05  6556   0.194E-02
   8 F= -.63899520E+03 E0= -.63890807E+03  d E =-.365550E+00
       N       E                     dE             d eps       ncg     rms          rms(c)
DAV:   1    -0.636001246354E+03    0.29940E+01   -0.17199E+02 12264   0.815E+01    0.610E+00
RMM:   2    -0.643580739616E+03   -0.75795E+01   -0.37330E+01 12545   0.189E+01    0.250E+01
RMM:   3    -0.639211947121E+03    0.43688E+01   -0.69240E+00 11090   0.100E+01    0.558E+00
RMM:   4    -0.639570442759E+03   -0.35850E+00   -0.27417E+00 13006   0.422E+00    0.756E+00
RMM:   5    -0.639279771204E+03    0.29067E+00   -0.56408E-01 11726   0.242E+00    0.226E+00
RMM:   6    -0.639317662838E+03   -0.37892E-01   -0.29000E-01 12491   0.130E+00    0.370E+00
RMM:   7    -0.639270434320E+03    0.47229E-01   -0.11948E-01 11972   0.946E-01    0.210E+00
RMM:   8    -0.639275888275E+03   -0.54540E-02   -0.74815E-02 11848   0.746E-01    0.237E+00
RMM:   9    -0.639249999411E+03    0.25889E-01   -0.55952E-02 12056   0.630E-01    0.952E-01
RMM:  10    -0.639250810893E+03   -0.81148E-03   -0.23514E-02 12224   0.388E-01    0.988E-01
RMM:  11    -0.639246509221E+03    0.43017E-02   -0.10817E-02 11810   0.243E-01    0.392E-01
RMM:  12    -0.639247010463E+03   -0.50124E-03   -0.59370E-03 11607   0.152E-01    0.428E-01
RMM:  13    -0.639246317102E+03    0.69336E-03   -0.31915E-03 11504   0.108E-01    0.926E-02
RMM:  14    -0.639246476112E+03   -0.15901E-03   -0.18705E-03 11423   0.634E-02    0.538E-02
RMM:  15    -0.639246542026E+03   -0.65914E-04   -0.94167E-04  9675   0.446E-02    0.271E-02
RMM:  16    -0.639246608847E+03   -0.66821E-04   -0.70497E-04  8275   0.308E-02    0.156E-02
RMM:  17    -0.639246642226E+03   -0.33379E-04   -0.34705E-04  7080   0.230E-02    0.684E-03
RMM:  18    -0.639246666044E+03   -0.23818E-04   -0.25301E-04  6490   0.186E-02    0.483E-03
RMM:  19    -0.639246677066E+03   -0.11022E-04   -0.12383E-04  6210   0.124E-02    0.320E-03
RMM:  20    -0.639246685335E+03   -0.82695E-05   -0.91885E-05  5981   0.110E-02
   9 F= -.63924669E+03 E0= -.63916597E+03  d E =-.251481E+00
       N       E                     dE             d eps       ncg     rms          rms(c)
DAV:   1    -0.639219393563E+03    0.27284E-01   -0.14089E+00 11984   0.752E+00    0.585E-01
RMM:   2    -0.639292836576E+03   -0.73443E-01   -0.33265E-01 12927   0.175E+00    0.289E+00
RMM:   3    -0.639252779032E+03    0.40058E-01   -0.57648E-02 10969   0.938E-01    0.959E-01
RMM:   4    -0.639251669165E+03    0.11099E-02   -0.21483E-02 12589   0.434E-01    0.647E-01
RMM:   5    -0.639251539368E+03    0.12980E-03   -0.61251E-03 11851   0.241E-01    0.659E-01
RMM:   6    -0.639249613668E+03    0.19257E-02   -0.21408E-03 11118   0.161E-01    0.168E-01
RMM:   7    -0.639249792526E+03   -0.17886E-03   -0.15731E-03 11016   0.954E-02    0.270E-01
RMM:   8    -0.639249489293E+03    0.30323E-03   -0.64310E-04 10155   0.769E-02    0.130E-01
RMM:   9    -0.639249460174E+03    0.29119E-04   -0.47096E-04 10574   0.590E-02    0.133E-01
RMM:  10    -0.639249393003E+03    0.67171E-04   -0.20496E-04  8686   0.443E-02    0.684E-02
RMM:  11    -0.639249375608E+03    0.17395E-04   -0.92490E-05  7681   0.269E-02    0.453E-02
RMM:  12    -0.639249373259E+03    0.23487E-05   -0.45825E-05  6178   0.201E-02
  10 F= -.63924937E+03 E0= -.63916811E+03  d E =-.254169E+00
       N       E                     dE             d eps       ncg     rms          rms(c)
DAV:   1    -0.638313945972E+03    0.93543E+00   -0.49408E+01 10108   0.428E+01    0.162E+00
RMM:   2    -0.639306675688E+03   -0.99273E+00   -0.97119E+00 13516   0.857E+00    0.421E+00
RMM:   3    -0.639391224237E+03   -0.84549E-01   -0.13740E+00 12134   0.371E+00    0.274E+00
RMM:   4    -0.639429432243E+03   -0.38208E-01   -0.32266E-01 12557   0.161E+00    0.302E+00
RMM:   5    -0.639386928479E+03    0.42504E-01   -0.83444E-02 12085   0.919E-01    0.661E-01
RMM:   6    -0.639389309059E+03   -0.23806E-02   -0.43846E-02 12902   0.433E-01    0.867E-01
RMM:   7    -0.639386318504E+03    0.29906E-02   -0.16326E-02 12633   0.284E-01    0.494E-01
RMM:   8    -0.639387650642E+03   -0.13321E-02   -0.14693E-02 12092   0.305E-01    0.807E-01
RMM:   9    -0.639384219766E+03    0.34309E-02   -0.10543E-02 12216   0.242E-01    0.282E-01
RMM:  10    -0.639384918091E+03   -0.69832E-03   -0.42673E-03 11513   0.153E-01    0.406E-01
RMM:  11    -0.639384110282E+03    0.80781E-03   -0.21637E-03 10743   0.102E-01    0.965E-02
RMM:  12    -0.639384387782E+03   -0.27750E-03   -0.15073E-03 10511   0.734E-02    0.234E-01
RMM:  13    -0.639384159787E+03    0.22799E-03   -0.86256E-04 10753   0.604E-02    0.437E-02
RMM:  14    -0.639384187028E+03   -0.27241E-04   -0.48361E-04  9145   0.325E-02    0.193E-02
RMM:  15    -0.639384207866E+03   -0.20837E-04   -0.25185E-04  6996   0.246E-02    0.110E-02
RMM:  16    -0.639384223081E+03   -0.15215E-04   -0.16469E-04  6388   0.181E-02    0.616E-03
RMM:  17    -0.639384232221E+03   -0.91403E-05   -0.95343E-05  6209   0.136E-02
  11 F= -.63938423E+03 E0= -.63930538E+03  d E =-.134859E+00
       N       E                     dE             d eps       ncg     rms          rms(c)
DAV:   1    -0.638855162788E+03    0.52906E+00   -0.24840E+01  9968   0.306E+01    0.115E+00
RMM:   2    -0.639360112144E+03   -0.50495E+00   -0.50392E+00 13544   0.614E+00    0.253E+00
RMM:   3    -0.639420773453E+03   -0.60661E-01   -0.71518E-01 12137   0.267E+00    0.206E+00
RMM:   4    -0.639434849499E+03   -0.14076E-01   -0.16737E-01 12582   0.116E+00    0.197E+00
RMM:   5    -0.639417534740E+03    0.17315E-01   -0.44619E-02 12258   0.641E-01    0.524E-01
RMM:   6    -0.639418535932E+03   -0.10012E-02   -0.22581E-02 12907   0.309E-01    0.569E-01
RMM:   7    -0.639417107067E+03    0.14289E-02   -0.82621E-03 12270   0.199E-01    0.360E-01
RMM:   8    -0.639417537780E+03   -0.43071E-03   -0.67023E-03 11889   0.203E-01    0.523E-01
RMM:   9    -0.639415904054E+03    0.16337E-02   -0.62486E-03 12245   0.180E-01    0.126E-01
RMM:  10    -0.639416520476E+03   -0.61642E-03   -0.21999E-03 11545   0.108E-01    0.346E-01
RMM:  11    -0.639415971525E+03    0.54895E-03   -0.11171E-03  9740   0.757E-02    0.623E-02
RMM:  12    -0.639416006220E+03   -0.34696E-04   -0.76977E-04 10593   0.517E-02    0.991E-02
RMM:  13    -0.639415998827E+03    0.73930E-05   -0.41508E-04  8890   0.379E-02    0.521E-02
RMM:  14    -0.639416004275E+03   -0.54473E-05   -0.24548E-04  7658   0.254E-02    0.138E-02
RMM:  15    -0.639416016039E+03   -0.11764E-04   -0.14009E-04  6452   0.200E-02    0.794E-03
RMM:  16    -0.639416023664E+03   -0.76247E-05   -0.82199E-05  6178   0.136E-02
  12 F= -.63941602E+03 E0= -.63933893E+03  d E =-.166650E+00
       N       E                     dE             d eps       ncg     rms          rms(c)
DAV:   1    -0.638879186184E+03    0.53683E+00   -0.36508E+01 12012   0.350E+01    0.321E+00
RMM:   2    -0.640725811777E+03   -0.18466E+01   -0.73148E+00 12842   0.792E+00    0.138E+01
RMM:   3    -0.639520827108E+03    0.12050E+01   -0.13945E+00 10775   0.485E+00    0.350E+00
RMM:   4    -0.639554596887E+03   -0.33770E-01   -0.51724E-01 12520   0.203E+00    0.362E+00
RMM:   5    -0.639503455942E+03    0.51141E-01   -0.12920E-01 11926   0.114E+00    0.201E+00
RMM:   6    -0.639492624968E+03    0.10831E-01   -0.60850E-02 12257   0.667E-01    0.124E+00
RMM:   7    -0.639485555516E+03    0.70695E-02   -0.26920E-02 11824   0.392E-01    0.608E-01
RMM:   8    -0.639489993699E+03   -0.44382E-02   -0.16948E-02 11983   0.329E-01    0.110E+00
RMM:   9    -0.639483461581E+03    0.65321E-02   -0.97102E-03 11823   0.272E-01    0.203E-01
RMM:  10    -0.639484073077E+03   -0.61150E-03   -0.44919E-03 11613   0.144E-01    0.365E-01
RMM:  11    -0.639483516673E+03    0.55640E-03   -0.22394E-03 10874   0.109E-01    0.112E-01
RMM:  12    -0.639483521128E+03   -0.44556E-05   -0.11893E-03 10941   0.540E-02    0.516E-02
RMM:  13    -0.639483656146E+03   -0.13502E-03   -0.69374E-04  9618   0.463E-02    0.141E-01
RMM:  14    -0.639483596835E+03    0.59311E-04   -0.44435E-04  8513   0.358E-02    0.287E-02
RMM:  15    -0.639483610109E+03   -0.13274E-04   -0.24337E-04  7082   0.214E-02    0.125E-02
RMM:  16    -0.639483620525E+03   -0.10416E-04   -0.13973E-04  6437   0.172E-02    0.707E-03
RMM:  17    -0.639483628181E+03   -0.76560E-05   -0.89278E-05  6107   0.138E-02
  13 F= -.63948363E+03 E0= -.63940769E+03  d E =-.676045E-01
       N       E                     dE             d eps       ncg     rms          rms(c)
DAV:   1    -0.639477152161E+03    0.64684E-02   -0.46786E-01 12572   0.393E+00    0.354E-01
RMM:   2    -0.639500326153E+03   -0.23174E-01   -0.91815E-02 12619   0.904E-01    0.163E+00
RMM:   3    -0.639485518209E+03    0.14808E-01   -0.16608E-02 10718   0.537E-01    0.545E-01
RMM:   4    -0.639485168370E+03    0.34984E-03   -0.71784E-03 12508   0.240E-01    0.350E-01
RMM:   5    -0.639484914661E+03    0.25371E-03   -0.19073E-03 11605   0.127E-01    0.284E-01
RMM:   6    -0.639484562758E+03    0.35190E-03   -0.71686E-04 10026   0.857E-02    0.107E-01
RMM:   7    -0.639484529322E+03    0.33436E-04   -0.43659E-04 10234   0.511E-02    0.908E-02
RMM:   8    -0.639484548824E+03   -0.19501E-04   -0.23486E-04  8549   0.445E-02    0.107E-01
RMM:   9    -0.639484481575E+03    0.67248E-04   -0.14375E-04  8631   0.335E-02    0.209E-02
RMM:  10    -0.639484492375E+03   -0.10800E-04   -0.62920E-05  6505   0.240E-02    0.494E-02
RMM:  11    -0.639484483075E+03    0.92998E-05   -0.37261E-05  5930   0.194E-02
  14 F= -.63948448E+03 E0= -.63940865E+03  d E =-.684594E-01
       N       E                     dE             d eps       ncg     rms          rms(c)
DAV:   1    -0.638963076148E+03    0.52142E+00   -0.41454E+01 13244   0.392E+01    0.391E+00
RMM:   2    -0.641278281182E+03   -0.23152E+01   -0.79128E+00 11166   0.962E+00    0.161E+01
RMM:   3    -0.639556463328E+03    0.17218E+01   -0.20441E+00 10709   0.580E+00    0.442E+00
RMM:   4    -0.639600087103E+03   -0.43624E-01   -0.86287E-01 13175   0.249E+00    0.391E+00
RMM:   5    -0.639541936990E+03    0.58150E-01   -0.18542E-01 11809   0.125E+00    0.204E+00
RMM:   6    -0.639528531324E+03    0.13406E-01   -0.65410E-02 11685   0.799E-01    0.139E+00
RMM:   7    -0.639519439918E+03    0.90914E-02   -0.43086E-02 11752   0.520E-01    0.750E-01
RMM:   8    -0.639523849801E+03   -0.44099E-02   -0.20611E-02 11652   0.423E-01    0.117E+00
RMM:   9    -0.639516047193E+03    0.78026E-02   -0.11728E-02 11739   0.305E-01    0.214E-01
RMM:  10    -0.639516579378E+03   -0.53219E-03   -0.48457E-03 12013   0.152E-01    0.357E-01
RMM:  11    -0.639516115003E+03    0.46438E-03   -0.22311E-03 11074   0.107E-01    0.133E-01
RMM:  12    -0.639516158638E+03   -0.43636E-04   -0.12364E-03 10886   0.607E-02    0.105E-01
RMM:  13    -0.639516239592E+03   -0.80954E-04   -0.70638E-04  9338   0.488E-02    0.124E-01
RMM:  14    -0.639516208522E+03    0.31070E-04   -0.42212E-04  8976   0.371E-02    0.276E-02
RMM:  15    -0.639516224852E+03   -0.16330E-04   -0.21820E-04  7221   0.250E-02    0.117E-02
RMM:  16    -0.639516236702E+03   -0.11851E-04   -0.13299E-04  6444   0.187E-02    0.694E-03
RMM:  17    -0.639516244560E+03   -0.78573E-05   -0.81151E-05  6145   0.139E-02
  15 F= -.63951624E+03 E0= -.63944261E+03  d E =-.317615E-01
       N       E                     dE             d eps       ncg     rms          rms(c)
DAV:   1    -0.639487627764E+03    0.28609E-01   -0.20522E+00 13160   0.883E+00    0.909E-01
RMM:   2    -0.639613685631E+03   -0.12606E+00   -0.43007E-01 11631   0.211E+00    0.379E+00
RMM:   3    -0.639522429188E+03    0.91256E-01   -0.10597E-01 10597   0.132E+00    0.108E+00
RMM:   4    -0.639523831468E+03   -0.14023E-02   -0.43644E-02 13031   0.555E-01    0.911E-01
RMM:   5    -0.639520882595E+03    0.29489E-02   -0.94526E-03 11716   0.285E-01    0.520E-01
RMM:   6    -0.639519926629E+03    0.95597E-03   -0.35001E-03 11275   0.182E-01    0.308E-01
RMM:   7    -0.639519413753E+03    0.51288E-03   -0.19694E-03 11068   0.111E-01    0.122E-01
RMM:   8    -0.639519770174E+03   -0.35642E-03   -0.10503E-03 10881   0.921E-02    0.300E-01
RMM:   9    -0.639519320255E+03    0.44992E-03   -0.54352E-04  9739   0.737E-02    0.722E-02
RMM:  10    -0.639519352430E+03   -0.32175E-04   -0.25654E-04  9187   0.453E-02    0.106E-01
RMM:  11    -0.639519299756E+03    0.52674E-04   -0.10495E-04  7140   0.309E-02    0.282E-02
RMM:  12    -0.639519297654E+03    0.21014E-05   -0.59189E-05  6804   0.195E-02
  16 F= -.63951930E+03 E0= -.63944519E+03  d E =-.348146E-01
       N       E                     dE             d eps       ncg     rms          rms(c)
DAV:   1    -0.639026300254E+03    0.49300E+00   -0.21471E+01  9968   0.297E+01    0.114E+00
RMM:   2    -0.639485817992E+03   -0.45952E+00   -0.47616E+00 13510   0.552E+00    0.152E+00
RMM:   3    -0.639571637384E+03   -0.85819E-01   -0.69260E-01 12212   0.235E+00    0.232E+00
RMM:   4    -0.639556547762E+03    0.15090E-01   -0.10007E-01 12222   0.945E-01    0.116E+00
RMM:   5    -0.639551715052E+03    0.48327E-02   -0.34957E-02 12464   0.495E-01    0.452E-01
RMM:   6    -0.639552554829E+03   -0.83978E-03   -0.12645E-02 12847   0.259E-01    0.622E-01
RMM:   7    -0.639550888109E+03    0.16667E-02   -0.61758E-03 12197   0.178E-01    0.385E-01
RMM:   8    -0.639551433354E+03   -0.54525E-03   -0.63191E-03 12007   0.194E-01    0.583E-01
RMM:   9    -0.639549664157E+03    0.17692E-02   -0.39817E-03 11916   0.163E-01    0.123E-01
RMM:  10    -0.639549794423E+03   -0.13027E-03   -0.13653E-03 11282   0.881E-02    0.196E-01
RMM:  11    -0.639549630619E+03    0.16380E-03   -0.68001E-04  9405   0.608E-02    0.706E-02
RMM:  12    -0.639549609003E+03    0.21616E-04   -0.49365E-04 10420   0.432E-02    0.300E-02
RMM:  13    -0.639549628453E+03   -0.19450E-04   -0.25743E-04  8688   0.291E-02    0.440E-02
RMM:  14    -0.639549635798E+03   -0.73450E-05   -0.15654E-04  6703   0.224E-02    0.278E-02
RMM:  15    -0.639549638373E+03   -0.25746E-05   -0.84085E-05  6322   0.176E-02
  17 F= -.63954964E+03 E0= -.63947603E+03  d E =-.303407E-01
       N       E                     dE             d eps       ncg     rms          rms(c)
DAV:   1    -0.639475349539E+03    0.74286E-01   -0.28810E+00 10360   0.110E+01    0.429E-01
RMM:   2    -0.639542104642E+03   -0.66755E-01   -0.68588E-01 13553   0.209E+00    0.552E-01
RMM:   3    -0.639554751893E+03   -0.12647E-01   -0.10958E-01 12043   0.909E-01    0.777E-01
RMM:   4    -0.639553814245E+03    0.93765E-03   -0.17253E-02 12289   0.369E-01    0.488E-01
RMM:   5    -0.639552852608E+03    0.96164E-03   -0.51354E-03 12324   0.195E-01    0.150E-01
RMM:   6    -0.639552899193E+03   -0.46585E-04   -0.19692E-03 12419   0.911E-02    0.187E-01
RMM:   7    -0.639552799626E+03    0.99567E-04   -0.88574E-04 10745   0.663E-02    0.143E-01
RMM:   8    -0.639552657979E+03    0.14165E-03   -0.99044E-04 11579   0.725E-02    0.958E-02
RMM:   9    -0.639552705847E+03   -0.47867E-04   -0.40243E-04  9892   0.513E-02    0.117E-01
RMM:  10    -0.639552653647E+03    0.52200E-04   -0.19078E-04  7868   0.381E-02    0.601E-02
RMM:  11    -0.639552649228E+03    0.44188E-05   -0.10978E-04  6495   0.237E-02    0.380E-02
RMM:  12    -0.639552649607E+03   -0.37887E-06   -0.69410E-05  6396   0.197E-02
  18 F= -.63955265E+03 E0= -.63947924E+03  d E =-.333520E-01
       N       E                     dE             d eps       ncg     rms          rms(c)
DAV:   1    -0.639400858756E+03    0.15179E+00   -0.58984E+00  9408   0.156E+01    0.816E-01
RMM:   2    -0.639573781157E+03   -0.17292E+00   -0.15270E+00 13520   0.311E+00    0.212E+00
RMM:   3    -0.639565629973E+03    0.81512E-02   -0.23410E-01 11729   0.139E+00    0.723E-01
RMM:   4    -0.639572110661E+03   -0.64807E-02   -0.46818E-02 12246   0.585E-01    0.109E+00
RMM:   5    -0.639565615582E+03    0.64951E-02   -0.94425E-03 11267   0.342E-01    0.248E-01
RMM:   6    -0.639566708545E+03   -0.10930E-02   -0.63985E-03 12619   0.180E-01    0.529E-01
RMM:   7    -0.639565585721E+03    0.11228E-02   -0.28945E-03 11699   0.137E-01    0.224E-01
RMM:   8    -0.639566181601E+03   -0.59588E-03   -0.23450E-03 11555   0.120E-01    0.422E-01
RMM:   9    -0.639565318756E+03    0.86284E-03   -0.11509E-03 10750   0.929E-02    0.703E-02
RMM:  10    -0.639565431958E+03   -0.11320E-03   -0.61297E-04  9828   0.566E-02    0.149E-01
RMM:  11    -0.639565334752E+03    0.97206E-04   -0.29332E-04  8275   0.383E-02    0.373E-02
RMM:  12    -0.639565362220E+03   -0.27468E-04   -0.18117E-04  7381   0.273E-02    0.706E-02
RMM:  13    -0.639565344865E+03    0.17355E-04   -0.10434E-04  6436   0.235E-02    0.191E-02
RMM:  14    -0.639565348421E+03   -0.35564E-05   -0.68146E-05  6311   0.150E-02
  19 F= -.63956535E+03 E0= -.63949188E+03  d E =-.126988E-01
       N       E                     dE             d eps       ncg     rms          rms(c)
DAV:   1    -0.639532524618E+03    0.32820E-01   -0.12503E+00 10192   0.719E+00    0.378E-01
RMM:   2    -0.639569884756E+03   -0.37360E-01   -0.32569E-01 13511   0.143E+00    0.101E+00
RMM:   3    -0.639567457848E+03    0.24269E-02   -0.49225E-02 11612   0.646E-01    0.330E-01
RMM:   4    -0.639569062874E+03   -0.16050E-02   -0.10986E-02 12261   0.279E-01    0.525E-01
RMM:   5    -0.639567585864E+03    0.14770E-02   -0.21028E-03 11151   0.162E-01    0.128E-01
RMM:   6    -0.639567842374E+03   -0.25651E-03   -0.15395E-03 11438   0.852E-02    0.244E-01
RMM:   7    -0.639567580430E+03    0.26194E-03   -0.67045E-04 10614   0.649E-02    0.967E-02
RMM:   8    -0.639567702336E+03   -0.12191E-03   -0.53074E-04 10043   0.578E-02    0.186E-01
RMM:   9    -0.639567527107E+03    0.17523E-03   -0.27647E-04  9526   0.474E-02    0.345E-02
RMM:  10    -0.639567552895E+03   -0.25789E-04   -0.14313E-04  7337   0.301E-02    0.694E-02
RMM:  11    -0.639567532457E+03    0.20438E-04   -0.69918E-05  6257   0.239E-02    0.172E-02
RMM:  12    -0.639567538535E+03   -0.60781E-05   -0.45393E-05  6065   0.154E-02
  20 F= -.63956754E+03 E0= -.63949406E+03  d E =-.148889E-01
       N       E                     dE             d eps       ncg     rms          rms(c)
DAV:   1    -0.639467861706E+03    0.99671E-01   -0.68360E+00 13580   0.166E+01    0.168E+00
RMM:   2    -0.639924591659E+03   -0.45673E+00   -0.14112E+00 10883   0.400E+00    0.752E+00
RMM:   3    -0.639590085575E+03    0.33451E+00   -0.41381E-01 10654   0.246E+00    0.229E+00
RMM:   4    -0.639584888026E+03    0.51975E-02   -0.14946E-01 12964   0.104E+00    0.142E+00
RMM:   5    -0.639580535357E+03    0.43527E-02   -0.35330E-02 11861   0.522E-01    0.113E+00
RMM:   6    -0.639574790186E+03    0.57452E-02   -0.11396E-02 11405   0.350E-01    0.505E-01
RMM:   7    -0.639573429259E+03    0.13609E-02   -0.69009E-03 11601   0.197E-01    0.258E-01
RMM:   8    -0.639575270461E+03   -0.18412E-02   -0.41795E-03 11317   0.181E-01    0.663E-01
RMM:   9    -0.639573050337E+03    0.22201E-02   -0.21481E-03 10849   0.148E-01    0.109E-01
RMM:  10    -0.639573131906E+03   -0.81569E-04   -0.85492E-04 10872   0.691E-02    0.141E-01
RMM:  11    -0.639573061224E+03    0.70682E-04   -0.39045E-04  9257   0.495E-02    0.575E-02
RMM:  12    -0.639573062875E+03   -0.16508E-05   -0.20030E-04  7912   0.286E-02    0.309E-02
RMM:  13    -0.639573087792E+03   -0.24917E-04   -0.11922E-04  6969   0.252E-02    0.583E-02
RMM:  14    -0.639573078240E+03    0.95525E-05   -0.77903E-05  6739   0.221E-02
  21 F= -.63957308E+03 E0= -.63950008E+03  d E =-.553970E-02
       N       E                     dE             d eps       ncg     rms          rms(c)
DAV:   1    -0.639568709694E+03    0.43781E-02   -0.19275E-01 12908   0.288E+00    0.299E-01
RMM:   2    -0.639583493098E+03   -0.14783E-01   -0.50824E-02 11147   0.747E-01    0.132E+00
RMM:   3    -0.639573795419E+03    0.96977E-02   -0.17560E-02 10531   0.449E-01    0.395E-01
RMM:   4    -0.639573744695E+03    0.50724E-04   -0.51599E-03 12743   0.191E-01    0.269E-01
RMM:   5    -0.639573561515E+03    0.18318E-03   -0.12046E-03 10718   0.958E-02    0.197E-01
RMM:   6    -0.639573398005E+03    0.16351E-03   -0.37993E-04  8869   0.674E-02    0.931E-02
RMM:   7    -0.639573352337E+03    0.45669E-04   -0.20886E-04  9150   0.364E-02    0.499E-02
RMM:   8    -0.639573398975E+03   -0.46638E-04   -0.11158E-04  7723   0.364E-02    0.113E-01
RMM:   9    -0.639573329390E+03    0.69585E-04   -0.70016E-05  7578   0.283E-02    0.203E-02
RMM:  10    -0.639573332487E+03   -0.30973E-05   -0.24679E-05  5700   0.196E-02
  22 F= -.63957333E+03 E0= -.63950025E+03  d E =-.579395E-02
       N       E                     dE             d eps       ncg     rms          rms(c)
DAV:   1    -0.639494530090E+03    0.78799E-01   -0.34015E+00  9856   0.118E+01    0.487E-01
RMM:   2    -0.639572170001E+03   -0.77640E-01   -0.77228E-01 13403   0.216E+00    0.940E-01
RMM:   3    -0.639579853349E+03   -0.76833E-02   -0.10917E-01 11899   0.931E-01    0.695E-01
RMM:   4    -0.639581514038E+03   -0.16607E-02   -0.19150E-02 12189   0.398E-01    0.756E-01
RMM:   5    -0.639578613920E+03    0.29001E-02   -0.44117E-03 11315   0.227E-01    0.191E-01
RMM:   6    -0.639578861357E+03   -0.24744E-03   -0.27203E-03 12103   0.113E-01    0.262E-01
RMM:   7    -0.639578474206E+03    0.38715E-03   -0.11981E-03 11338   0.840E-02    0.120E-01
RMM:   8    -0.639578677312E+03   -0.20311E-03   -0.93984E-04 10935   0.775E-02    0.245E-01
RMM:   9    -0.639578385322E+03    0.29199E-03   -0.50599E-04 10377   0.618E-02    0.515E-02
RMM:  10    -0.639578422489E+03   -0.37167E-04   -0.21244E-04  8331   0.376E-02    0.925E-02
RMM:  11    -0.639578382792E+03    0.39697E-04   -0.10526E-04  6758   0.276E-02    0.271E-02
RMM:  12    -0.639578384763E+03   -0.19713E-05   -0.66249E-05  6568   0.198E-02
  23 F= -.63957838E+03 E0= -.63950534E+03  d E =-.505228E-02
       N       E                     dE             d eps       ncg     rms          rms(c)
DAV:   1    -0.639490184205E+03    0.88199E-01   -0.26665E+00  9324   0.109E+01    0.468E-01
RMM:   2    -0.639567486985E+03   -0.77303E-01   -0.76504E-01 13525   0.218E+00    0.854E-01
RMM:   3    -0.639581081695E+03   -0.13595E-01   -0.16112E-01 11839   0.925E-01    0.627E-01
RMM:   4    -0.639582891877E+03   -0.18102E-02   -0.20926E-02 12275   0.384E-01    0.669E-01
RMM:   5    -0.639580643079E+03    0.22488E-02   -0.40494E-03 11496   0.199E-01    0.165E-01
RMM:   6    -0.639580921560E+03   -0.27848E-03   -0.23068E-03 11958   0.980E-02    0.265E-01
RMM:   7    -0.639580607715E+03    0.31385E-03   -0.91000E-04 10917   0.714E-02    0.122E-01
RMM:   8    -0.639580789763E+03   -0.18205E-03   -0.81618E-04 10786   0.726E-02    0.239E-01
RMM:   9    -0.639580523529E+03    0.26623E-03   -0.48775E-04 10403   0.599E-02    0.588E-02
RMM:  10    -0.639580572867E+03   -0.49339E-04   -0.23486E-04  8417   0.401E-02    0.105E-01
RMM:  11    -0.639580517722E+03    0.55145E-04   -0.11140E-04  6767   0.291E-02    0.235E-02
RMM:  12    -0.639580517823E+03   -0.10129E-06   -0.67549E-05  6567   0.182E-02
  24 F= -.63958052E+03 E0= -.63950755E+03  d E =-.718534E-02
       N       E                     dE             d eps       ncg     rms          rms(c)
DAV:   1    -0.639573743074E+03    0.67746E-02   -0.19538E-01 10528   0.296E+00    0.131E-01
RMM:   2    -0.639579726731E+03   -0.59837E-02   -0.57838E-02 13444   0.605E-01    0.276E-01
RMM:   3    -0.639580665880E+03   -0.93915E-03   -0.12951E-02 11492   0.262E-01    0.161E-01
RMM:   4    -0.639580849733E+03   -0.18385E-03   -0.18525E-03 11586   0.112E-01    0.174E-01
RMM:   5    -0.639580689239E+03    0.16049E-03   -0.36425E-04  8878   0.578E-02    0.425E-02
RMM:   6    -0.639580711629E+03   -0.22389E-04   -0.18945E-04  8109   0.310E-02    0.702E-02
RMM:   7    -0.639580688974E+03    0.22655E-04   -0.78153E-05  6828   0.258E-02    0.303E-02
RMM:   8    -0.639580691925E+03   -0.29515E-05   -0.78282E-05  7743   0.228E-02
  25 F= -.63958069E+03 E0= -.63950777E+03  d E =-.735944E-02
       N       E                     dE             d eps       ncg     rms          rms(c)
DAV:   1    -0.639559444104E+03    0.21245E-01   -0.13352E+00 12180   0.717E+00    0.560E-01
RMM:   2    -0.639609068436E+03   -0.49624E-01   -0.28904E-01 12540   0.155E+00    0.202E+00
RMM:   3    -0.639586104889E+03    0.22964E-01   -0.48015E-02 10930   0.821E-01    0.695E-01
RMM:   4    -0.639587425975E+03   -0.13211E-02   -0.16387E-02 12448   0.375E-01    0.728E-01
RMM:   5    -0.639584848958E+03    0.25770E-02   -0.43439E-03 11576   0.219E-01    0.265E-01
RMM:   6    -0.639584939148E+03   -0.90189E-04   -0.22764E-03 11624   0.130E-01    0.304E-01
RMM:   7    -0.639584455604E+03    0.48354E-03   -0.11450E-03 10856   0.949E-02    0.974E-02
RMM:   8    -0.639584646083E+03   -0.19048E-03   -0.72092E-04 10746   0.695E-02    0.232E-01
RMM:   9    -0.639584383204E+03    0.26288E-03   -0.31933E-04  8959   0.582E-02    0.468E-02
RMM:  10    -0.639584376570E+03    0.66341E-05   -0.14627E-04  8496   0.269E-02    0.194E-02
RMM:  11    -0.639584386654E+03   -0.10084E-04   -0.77083E-05  6584   0.223E-02    0.382E-02
RMM:  12    -0.639584381876E+03    0.47776E-05   -0.43467E-05  6121   0.166E-02
  26 F= -.63958438E+03 E0= -.63951137E+03  d E =-.368995E-02
       N       E                     dE             d eps       ncg     rms          rms(c)
DAV:   1    -0.639579243702E+03    0.51430E-02   -0.23716E-01 11760   0.309E+00    0.242E-01
RMM:   2    -0.639588969865E+03   -0.97262E-02   -0.59159E-02 12559   0.721E-01    0.860E-01
RMM:   3    -0.639585241848E+03    0.37280E-02   -0.14027E-02 10930   0.370E-01    0.285E-01
RMM:   4    -0.639585599730E+03   -0.35788E-03   -0.34284E-03 12434   0.167E-01    0.326E-01
RMM:   5    -0.639585097626E+03    0.50210E-03   -0.87211E-04 10731   0.953E-02    0.113E-01
RMM:   6    -0.639585118182E+03   -0.20556E-04   -0.46195E-04  9476   0.603E-02    0.130E-01
RMM:   7    -0.639585032539E+03    0.85643E-04   -0.22690E-04  9271   0.426E-02    0.455E-02
RMM:   8    -0.639585080543E+03   -0.48004E-04   -0.14765E-04  8293   0.372E-02    0.112E-01
RMM:   9    -0.639585015387E+03    0.65156E-04   -0.70007E-05  6751   0.285E-02    0.208E-02
RMM:  10    -0.639585022117E+03   -0.67297E-05   -0.39792E-05  6142   0.211E-02
  27 F= -.63958502E+03 E0= -.63951200E+03  d E =-.433019E-02
       N       E                     dE             d eps       ncg     rms          rms(c)
DAV:   1    -0.639567082022E+03    0.17933E-01   -0.10022E+00 12376   0.616E+00    0.476E-01
RMM:   2    -0.639601973707E+03   -0.34892E-01   -0.20508E-01 12475   0.131E+00    0.168E+00
RMM:   3    -0.639585600749E+03    0.16373E-01   -0.33526E-02 10951   0.696E-01    0.558E-01
RMM:   4    -0.639586975737E+03   -0.13750E-02   -0.11930E-02 12479   0.318E-01    0.661E-01
RMM:   5    -0.639584810600E+03    0.21651E-02   -0.30469E-03 11498   0.189E-01    0.208E-01
RMM:   6    -0.639584976513E+03   -0.16591E-03   -0.17662E-03 11432   0.111E-01    0.279E-01
RMM:   7    -0.639584573413E+03    0.40310E-03   -0.84504E-04 10588   0.848E-02    0.844E-02
RMM:   8    -0.639584730324E+03   -0.15691E-03   -0.55523E-04 10418   0.617E-02    0.206E-01
RMM:   9    -0.639584519226E+03    0.21110E-03   -0.23936E-04  8559   0.514E-02    0.382E-02
RMM:  10    -0.639584518680E+03    0.54579E-06   -0.11666E-04  8008   0.247E-02    0.279E-02
RMM:  11    -0.639584522472E+03   -0.37914E-05   -0.58257E-05  6322   0.212E-02
  28 F= -.63958452E+03 E0= -.63951145E+03  d E =-.383055E-02
       N       E                     dE             d eps       ncg     rms          rms(c)
DAV:   1    -0.639572941515E+03    0.11577E-01   -0.52700E-01 12236   0.459E+00    0.362E-01
RMM:   2    -0.639594295736E+03   -0.21354E-01   -0.12623E-01 12416   0.105E+00    0.130E+00
RMM:   3    -0.639585643564E+03    0.86522E-02   -0.31322E-02 10946   0.552E-01    0.432E-01
RMM:   4    -0.639586350032E+03   -0.70647E-03   -0.74778E-03 12557   0.245E-01    0.475E-01
RMM:   5    -0.639585298863E+03    0.10512E-02   -0.17973E-03 11230   0.139E-01    0.176E-01
RMM:   6    -0.639585320354E+03   -0.21491E-04   -0.92052E-04 10340   0.861E-02    0.191E-01
RMM:   7    -0.639585131621E+03    0.18873E-03   -0.42666E-04  9968   0.617E-02    0.617E-02
RMM:   8    -0.639585225959E+03   -0.94338E-04   -0.26984E-04  9847   0.471E-02    0.154E-01
RMM:   9    -0.639585109697E+03    0.11626E-03   -0.11030E-04  7732   0.388E-02    0.299E-02
RMM:  10    -0.639585108453E+03    0.12443E-05   -0.49208E-05  6973   0.204E-02
  29 F= -.63958511E+03 E0= -.63951207E+03  d E =-.441653E-02
       N       E                     dE             d eps       ncg     rms          rms(c)
DAV:   1    -0.639569868093E+03    0.15242E-01   -0.10622E+00 13020   0.647E+00    0.526E-01
RMM:   2    -0.639618743158E+03   -0.48875E-01   -0.20684E-01 11681   0.143E+00    0.222E+00
RMM:   3    -0.639588065925E+03    0.30677E-01   -0.43340E-02 10724   0.816E-01    0.581E-01
RMM:   4    -0.639588936045E+03   -0.87012E-03   -0.16374E-02 12937   0.350E-01    0.531E-01
RMM:   5    -0.639587949917E+03    0.98613E-03   -0.35777E-03 11813   0.181E-01    0.309E-01
RMM:   6    -0.639587643048E+03    0.30687E-03   -0.14179E-03 11071   0.113E-01    0.179E-01
RMM:   7    -0.639587492044E+03    0.15100E-03   -0.70408E-04 10841   0.689E-02    0.955E-02
RMM:   8    -0.639587661280E+03   -0.16924E-03   -0.42260E-04  9505   0.633E-02    0.206E-01
RMM:   9    -0.639587445812E+03    0.21547E-03   -0.27425E-04  9738   0.519E-02    0.363E-02
RMM:  10    -0.639587465277E+03   -0.19465E-04   -0.10012E-04  7546   0.322E-02    0.613E-02
RMM:  11    -0.639587448185E+03    0.17092E-04   -0.45950E-05  6123   0.231E-02    0.160E-02
RMM:  12    -0.639587449889E+03   -0.17032E-05   -0.26412E-05  6024   0.146E-02
  30 F= -.63958745E+03 E0= -.63951456E+03  d E =-.234144E-02
       N       E                     dE             d eps       ncg     rms          rms(c)
DAV:   1    -0.639570135176E+03    0.17313E-01   -0.73551E-01 12348   0.555E+00    0.456E-01
RMM:   2    -0.639608887694E+03   -0.38753E-01   -0.17946E-01 11881   0.134E+00    0.190E+00
RMM:   3    -0.639588202989E+03    0.20685E-01   -0.50496E-02 10745   0.734E-01    0.500E-01
RMM:   4    -0.639589000364E+03   -0.79738E-03   -0.13170E-02 12959   0.308E-01    0.467E-01
RMM:   5    -0.639588255512E+03    0.74485E-03   -0.29928E-03 11763   0.155E-01    0.260E-01
RMM:   6    -0.639588050221E+03    0.20529E-03   -0.10980E-03 10800   0.956E-02    0.155E-01
RMM:   7    -0.639587947878E+03    0.10234E-03   -0.52751E-04 10499   0.571E-02    0.880E-02
RMM:   8    -0.639588078736E+03   -0.13086E-03   -0.32678E-04  9258   0.553E-02    0.182E-01
RMM:   9    -0.639587912985E+03    0.16575E-03   -0.22407E-04  9536   0.447E-02    0.334E-02
RMM:  10    -0.639587935369E+03   -0.22384E-04   -0.86033E-05  7110   0.300E-02    0.649E-02
RMM:  11    -0.639587915471E+03    0.19897E-04   -0.43225E-05  6061   0.233E-02    0.132E-02
RMM:  12    -0.639587918266E+03   -0.27944E-05   -0.25203E-05  5962   0.137E-02
  31 F= -.63958792E+03 E0= -.63951517E+03  d E =-.280981E-02
       N       E                     dE             d eps       ncg     rms          rms(c)
DAV:   1    -0.639563064329E+03    0.24851E-01   -0.10025E+00 10416   0.650E+00    0.247E-01
RMM:   2    -0.639585757185E+03   -0.22693E-01   -0.22893E-01 13376   0.131E+00    0.445E-01
RMM:   3    -0.639590055735E+03   -0.42986E-02   -0.44955E-02 12229   0.533E-01    0.368E-01
RMM:   4    -0.639589998248E+03    0.57488E-04   -0.60331E-03 12732   0.205E-01    0.210E-01
RMM:   5    -0.639589929957E+03    0.68291E-04   -0.13615E-03 11995   0.974E-02    0.116E-01
RMM:   6    -0.639589901159E+03    0.28799E-04   -0.54130E-04 10964   0.561E-02    0.995E-02
RMM:   7    -0.639589933006E+03   -0.31848E-04   -0.30348E-04  9657   0.478E-02    0.134E-01
RMM:   8    -0.639589833331E+03    0.99675E-04   -0.26788E-04 10416   0.440E-02    0.351E-02
RMM:   9    -0.639589862565E+03   -0.29234E-04   -0.95709E-05  7182   0.300E-02    0.768E-02
RMM:  10    -0.639589832053E+03    0.30512E-04   -0.49308E-05  6143   0.250E-02    0.157E-02
RMM:  11    -0.639589835021E+03   -0.29679E-05   -0.29638E-05  5914   0.162E-02
  32 F= -.63958984E+03 E0= -.63951709E+03  d E =-.191675E-02
       N       E                     dE             d eps       ncg     rms          rms(c)
DAV:   1    -0.639572663588E+03    0.17168E-01   -0.62647E-01 10612   0.518E+00    0.199E-01
RMM:   2    -0.639587415280E+03   -0.14752E-01   -0.14938E-01 13362   0.107E+00    0.332E-01
RMM:   3    -0.639590704282E+03   -0.32890E-02   -0.32543E-02 12268   0.435E-01    0.312E-01
RMM:   4    -0.639590629723E+03    0.74560E-04   -0.39387E-03 12619   0.166E-01    0.170E-01
RMM:   5    -0.639590586304E+03    0.43419E-04   -0.92285E-04 11477   0.788E-02    0.920E-02
RMM:   6    -0.639590569709E+03    0.16594E-04   -0.34880E-04 10338   0.446E-02    0.768E-02
RMM:   7    -0.639590588579E+03   -0.18869E-04   -0.18375E-04  8358   0.381E-02    0.104E-01
RMM:   8    -0.639590533339E+03    0.55240E-04   -0.18299E-04  9802   0.367E-02    0.376E-02
RMM:   9    -0.639590545518E+03   -0.12179E-04   -0.70830E-05  6694   0.283E-02    0.543E-02
RMM:  10    -0.639590531238E+03    0.14280E-04   -0.36148E-05  5982   0.231E-02    0.230E-02
RMM:  11    -0.639590530220E+03    0.10182E-05   -0.19960E-05  5699   0.145E-02
  33 F= -.63959053E+03 E0= -.63951780E+03  d E =-.261195E-02
       N       E                     dE             d eps       ncg     rms          rms(c)
DAV:   1    -0.639587939545E+03    0.25917E-02   -0.85941E-02 11004   0.194E+00    0.764E-02
RMM:   2    -0.639590096139E+03   -0.21566E-02   -0.21802E-02 13373   0.408E-01    0.125E-01
RMM:   3    -0.639590616134E+03   -0.51999E-03   -0.50539E-03 11920   0.167E-01    0.123E-01
RMM:   4    -0.639590608822E+03    0.73117E-05   -0.64105E-04 10962   0.657E-02    0.652E-02
RMM:   5    -0.639590601701E+03    0.71207E-05   -0.13112E-04  7632   0.328E-02    0.348E-02
RMM:   6    -0.639590601566E+03    0.13505E-06   -0.53137E-05  6648   0.239E-02
  34 F= -.63959060E+03 E0= -.63951789E+03  d E =-.268330E-02
       N       E                     dE             d eps       ncg     rms          rms(c)
DAV:   1    -0.639590203741E+03    0.39796E-03   -0.12436E-02 10668   0.742E-01    0.450E-02
RMM:   2    -0.639590769458E+03   -0.56572E-03   -0.34105E-03 12839   0.158E-01    0.220E-01
RMM:   3    -0.639590580101E+03    0.18936E-03   -0.73470E-04  8974   0.841E-02    0.390E-02
RMM:   4    -0.639590607754E+03   -0.27653E-04   -0.15252E-04  7917   0.392E-02    0.695E-02
RMM:   5    -0.639590586974E+03    0.20781E-04   -0.35082E-05  5820   0.247E-02    0.223E-02
RMM:   6    -0.639590585937E+03    0.10365E-05   -0.12496E-05  5318   0.172E-02
  35 F= -.63959059E+03 E0= -.63951787E+03  d E =-.266767E-02
       N       E                     dE             d eps       ncg     rms          rms(c)
DAV:   1    -0.639590434041E+03    0.15293E-03   -0.56452E-03 11032   0.498E-01    0.216E-02
RMM:   2    -0.639590580734E+03   -0.14669E-03   -0.13698E-03 12352   0.999E-02    0.606E-02
RMM:   3    -0.639590590502E+03   -0.97686E-05   -0.25956E-04  7396   0.486E-02    0.233E-02
RMM:   4    -0.639590596827E+03   -0.63246E-05   -0.49555E-05  6130   0.244E-02
  36 F= -.63959060E+03 E0= -.63951790E+03  d E =-.267856E-02
       N       E                     dE             d eps       ncg     rms          rms(c)
DAV:   1    -0.639590553655E+03    0.36847E-04   -0.13877E-03 12096   0.252E-01    0.133E-02
RMM:   2    -0.639590599207E+03   -0.45552E-04   -0.31627E-04  9751   0.473E-02    0.579E-02
RMM:   3    -0.639590589627E+03    0.95800E-05   -0.75284E-05  5815   0.277E-02
  37 F= -.63959059E+03 E0= -.63951786E+03  d E =-.267136E-02
       N       E                     dE             d eps       ncg     rms          rms(c)
DAV:   1    -0.639590579164E+03    0.20043E-04   -0.64275E-04 12236   0.173E-01    0.213E-02
RMM:   2    -0.639590720134E+03   -0.14097E-03   -0.18289E-04  7707   0.473E-02    0.157E-01
RMM:   3    -0.639590596862E+03    0.12327E-03   -0.72249E-05  6429   0.375E-02    0.308E-02
RMM:   4    -0.639590592062E+03    0.48005E-05   -0.15149E-05  5481   0.145E-02
  38 F= -.63959059E+03 E0= -.63951787E+03  d E =-.267380E-02
       N       E                     dE             d eps       ncg     rms          rms(c)
DAV:   1    -0.639587657632E+03    0.29392E-02   -0.25344E-01 13076   0.308E+00    0.372E-01
RMM:   2    -0.639606630348E+03   -0.18973E-01   -0.56325E-02 11019   0.911E-01    0.150E+00
RMM:   3    -0.639591914278E+03    0.14716E-01   -0.19118E-02 10542   0.535E-01    0.343E-01
RMM:   4    -0.639592526496E+03   -0.61222E-03   -0.66039E-03 13266   0.222E-01    0.400E-01
RMM:   5    -0.639591839432E+03    0.68706E-03   -0.14676E-03 11177   0.118E-01    0.187E-01
RMM:   6    -0.639591777861E+03    0.61571E-04   -0.66324E-04 10251   0.793E-02    0.150E-01
RMM:   7    -0.639591668622E+03    0.10924E-03   -0.31213E-04 10077   0.489E-02    0.726E-02
RMM:   8    -0.639591703635E+03   -0.35012E-04   -0.14087E-04  8030   0.408E-02    0.115E-01
RMM:   9    -0.639591631880E+03    0.71755E-04   -0.92074E-05  7980   0.293E-02    0.241E-02
RMM:  10    -0.639591642036E+03   -0.10156E-04   -0.40474E-05  6275   0.230E-02    0.524E-02
RMM:  11    -0.639591627825E+03    0.14211E-04   -0.21336E-05  5617   0.196E-02    0.108E-02
RMM:  12    -0.639591627476E+03    0.34945E-06   -0.13215E-05  5649   0.115E-02
  39 F= -.63959163E+03 E0= -.63951881E+03  d E =-.103541E-02
       N       E                     dE             d eps       ncg     rms          rms(c)
DAV:   1    -0.639591359789E+03    0.26804E-03   -0.24635E-02 13132   0.963E-01    0.118E-01
RMM:   2    -0.639593326040E+03   -0.19663E-02   -0.55709E-03 10906   0.287E-01    0.491E-01
RMM:   3    -0.639591784117E+03    0.15419E-02   -0.19114E-03 10061   0.173E-01    0.118E-01
RMM:   4    -0.639591821561E+03   -0.37443E-04   -0.65394E-04 11310   0.739E-02    0.115E-01
RMM:   5    -0.639591772743E+03    0.48817E-04   -0.15485E-04  8499   0.398E-02    0.672E-02
RMM:   6    -0.639591757183E+03    0.15560E-04   -0.55694E-05  6290   0.289E-02    0.411E-02
RMM:   7    -0.639591749668E+03    0.75144E-05   -0.31287E-05  5857   0.222E-02
  40 F= -.63959175E+03 E0= -.63951891E+03  d E =-.115761E-02
       N       E                     dE             d eps       ncg     rms          rms(c)
DAV:   1    -0.639590161559E+03    0.15956E-02   -0.98515E-02 13132   0.193E+00    0.241E-01
RMM:   2    -0.639598492723E+03   -0.83312E-02   -0.22463E-02 10933   0.580E-01    0.101E+00
RMM:   3    -0.639591864602E+03    0.66281E-02   -0.78295E-03 10523   0.346E-01    0.238E-01
RMM:   4    -0.639591972384E+03   -0.10778E-03   -0.26013E-03 13031   0.141E-01    0.216E-01
RMM:   5    -0.639591761310E+03    0.21107E-03   -0.59362E-04 10654   0.723E-02    0.113E-01
RMM:   6    -0.639591747165E+03    0.14145E-04   -0.24802E-04  8623   0.512E-02    0.990E-02
RMM:   7    -0.639591710051E+03    0.37113E-04   -0.12726E-04  8458   0.324E-02    0.599E-02
RMM:   8    -0.639591704810E+03    0.52416E-05   -0.51959E-05  6390   0.279E-02
  41 F= -.63959170E+03 E0= -.63951882E+03  d E =-.111275E-02
       N       E                     dE             d eps       ncg     rms          rms(c)
DAV:   1    -0.639590955758E+03    0.75429E-03   -0.44707E-02 12768   0.131E+00    0.155E-01
RMM:   2    -0.639594292451E+03   -0.33367E-02   -0.10507E-02 11039   0.392E-01    0.623E-01
RMM:   3    -0.639591808724E+03    0.24837E-02   -0.37450E-03 10487   0.227E-01    0.146E-01
RMM:   4    -0.639591919497E+03   -0.11077E-03   -0.11922E-03 12070   0.958E-02    0.168E-01
RMM:   5    -0.639591790810E+03    0.12869E-03   -0.25165E-04  9469   0.519E-02    0.724E-02
RMM:   6    -0.639591785906E+03    0.49040E-05   -0.10279E-04  6985   0.349E-02    0.643E-02
RMM:   7    -0.639591770850E+03    0.15056E-04   -0.46164E-05  6045   0.257E-02    0.370E-02
RMM:   8    -0.639591770137E+03    0.71283E-06   -0.21191E-05  5475   0.224E-02
  42 F= -.63959177E+03 E0= -.63951891E+03  d E =-.117807E-02
       N       E                     dE             d eps       ncg     rms          rms(c)
DAV:   1    -0.639588638859E+03    0.31320E-02   -0.13329E-01 11172   0.238E+00    0.167E-01
RMM:   2    -0.639594300261E+03   -0.56614E-02   -0.34361E-02 12978   0.580E-01    0.660E-01
RMM:   3    -0.639592403917E+03    0.18963E-02   -0.88363E-03 10979   0.286E-01    0.219E-01
RMM:   4    -0.639592514315E+03   -0.11040E-03   -0.18743E-03 12030   0.128E-01    0.204E-01
RMM:   5    -0.639592349247E+03    0.16507E-03   -0.51153E-04 10145   0.704E-02    0.945E-02
RMM:   6    -0.639592329951E+03    0.19296E-04   -0.20326E-04  8013   0.434E-02    0.683E-02
RMM:   7    -0.639592307163E+03    0.22788E-04   -0.83462E-05  7164   0.281E-02    0.327E-02
RMM:   8    -0.639592336392E+03   -0.29229E-04   -0.65060E-05  7147   0.276E-02    0.777E-02
RMM:   9    -0.639592303688E+03    0.32704E-04   -0.33313E-05  5893   0.235E-02    0.135E-02
RMM:  10    -0.639592309130E+03   -0.54422E-05   -0.18055E-05  5472   0.176E-02
  43 F= -.63959231E+03 E0= -.63951948E+03  d E =-.538993E-03
       N       E                     dE             d eps       ncg     rms          rms(c)
DAV:   1    -0.639588414443E+03    0.38892E-02   -0.15119E-01 11312   0.254E+00    0.175E-01
RMM:   2    -0.639594599335E+03   -0.61849E-02   -0.38388E-02 13003   0.616E-01    0.677E-01
RMM:   3    -0.639592639026E+03    0.19603E-02   -0.10061E-02 10993   0.303E-01    0.228E-01
RMM:   4    -0.639592782427E+03   -0.14340E-03   -0.21561E-03 12164   0.135E-01    0.217E-01
RMM:   5    -0.639592590303E+03    0.19212E-03   -0.56410E-04 10391   0.733E-02    0.949E-02
RMM:   6    -0.639592577289E+03    0.13015E-04   -0.24304E-04  8331   0.449E-02    0.727E-02
RMM:   7    -0.639592551997E+03    0.25291E-04   -0.95882E-05  7604   0.288E-02    0.335E-02
RMM:   8    -0.639592584042E+03   -0.32045E-04   -0.75777E-05  7385   0.284E-02    0.819E-02
RMM:   9    -0.639592549054E+03    0.34988E-04   -0.35986E-05  5925   0.234E-02    0.150E-02
RMM:  10    -0.639592554237E+03   -0.51825E-05   -0.19443E-05  5596   0.179E-02
  44 F= -.63959255E+03 E0= -.63951976E+03  d E =-.784100E-03
       N       E                     dE             d eps       ncg     rms          rms(c)
DAV:   1    -0.639592326258E+03    0.22280E-03   -0.83931E-03 11872   0.598E-01    0.424E-02
RMM:   2    -0.639592685121E+03   -0.35886E-03   -0.21340E-03 12448   0.147E-01    0.167E-01
RMM:   3    -0.639592558871E+03    0.12625E-03   -0.56369E-04  8929   0.777E-02    0.552E-02
RMM:   4    -0.639592568385E+03   -0.95137E-05   -0.13463E-04  8167   0.386E-02    0.524E-02
RMM:   5    -0.639592558893E+03    0.94921E-05   -0.35004E-05  5881   0.230E-02
  45 F= -.63959256E+03 E0= -.63951979E+03  d E =-.788756E-03
       N       E                     dE             d eps       ncg     rms          rms(c)
DAV:   1    -0.639592513165E+03    0.55220E-04   -0.18489E-03 12208   0.283E-01    0.244E-02
RMM:   2    -0.639592644354E+03   -0.13119E-03   -0.45042E-04 10424   0.703E-02    0.133E-01
RMM:   3    -0.639592559299E+03    0.85056E-04   -0.13295E-04  6743   0.452E-02    0.289E-02
RMM:   4    -0.639592560537E+03   -0.12383E-05   -0.34217E-05  6218   0.211E-02
  46 F= -.63959256E+03 E0= -.63951978E+03  d E =-.790400E-03
       N       E                     dE             d eps       ncg     rms          rms(c)
DAV:   1    -0.639592544067E+03    0.15231E-04   -0.75603E-04 12600   0.185E-01    0.209E-02
RMM:   2    -0.639592676055E+03   -0.13199E-03   -0.20061E-04  8018   0.515E-02    0.149E-01
RMM:   3    -0.639592558739E+03    0.11732E-03   -0.70152E-05  6513   0.380E-02    0.146E-02
RMM:   4    -0.639592560409E+03   -0.16707E-05   -0.19009E-05  5677   0.149E-02
  47 F= -.63959256E+03 E0= -.63951979E+03  d E =-.790273E-03
       N       E                     dE             d eps       ncg     rms          rms(c)
DAV:   1    -0.639592556769E+03    0.19697E-05   -0.18836E-04 12684   0.938E-02    0.108E-02
RMM:   2    -0.639592580292E+03   -0.23523E-04   -0.42159E-05  6060   0.254E-02    0.596E-02
RMM:   3    -0.639592560298E+03    0.19994E-04   -0.17111E-05  5500   0.226E-02    0.150E-02
RMM:   4    -0.639592559671E+03    0.62765E-06   -0.44452E-06  4575   0.818E-03
  48 F= -.63959256E+03 E0= -.63951978E+03  d E =-.789534E-03
       N       E                     dE             d eps       ncg     rms          rms(c)
DAV:   1    -0.639592558598E+03    0.17006E-05   -0.41723E-05  7140   0.493E-02    0.873E-03
RMM:   2    -0.639592581830E+03   -0.23232E-04   -0.22953E-05  5650   0.223E-02    0.670E-02
RMM:   3    -0.639592559832E+03    0.21998E-04   -0.95792E-06  5138   0.168E-02    0.704E-03
RMM:   4    -0.639592559862E+03   -0.30333E-07   -0.30417E-06  4461   0.588E-03
  49 F= -.63959256E+03 E0= -.63951978E+03  d E =-.789725E-03
       N       E                     dE             d eps       ncg     rms          rms(c)
DAV:   1    -0.639592509069E+03    0.50762E-04   -0.22206E-02 12236   0.840E-01    0.876E-02
RMM:   2    -0.639593559381E+03   -0.10503E-02   -0.39791E-03 11584   0.217E-01    0.343E-01
RMM:   3    -0.639592807967E+03    0.75141E-03   -0.94733E-04  9822   0.133E-01    0.867E-02
RMM:   4    -0.639592846197E+03   -0.38229E-04   -0.41945E-04 10486   0.623E-02    0.991E-02
RMM:   5    -0.639592801178E+03    0.45018E-04   -0.87273E-05  7148   0.358E-02    0.506E-02
RMM:   6    -0.639592797937E+03    0.32412E-05   -0.45386E-05  6094   0.266E-02
  50 F= -.63959280E+03 E0= -.63952001E+03  d E =-.238075E-03
       N       E                     dE             d eps       ncg     rms          rms(c)
DAV:   1    -0.639591742455E+03    0.10587E-02   -0.93618E-02 12124   0.172E+00    0.181E-01
RMM:   2    -0.639596268244E+03   -0.45258E-02   -0.16891E-02 11755   0.446E-01    0.719E-01
RMM:   3    -0.639593046891E+03    0.32214E-02   -0.40522E-03 10595   0.264E-01    0.199E-01
RMM:   4    -0.639593156368E+03   -0.10948E-03   -0.17529E-03 12477   0.118E-01    0.197E-01
RMM:   5    -0.639593023074E+03    0.13329E-03   -0.45053E-04 10313   0.652E-02    0.134E-01
RMM:   6    -0.639592947752E+03    0.75322E-04   -0.17745E-04  7906   0.486E-02    0.630E-02
RMM:   7    -0.639592933119E+03    0.14633E-04   -0.12250E-04  8717   0.282E-02    0.392E-02
RMM:   8    -0.639592950155E+03   -0.17036E-04   -0.51707E-05  6364   0.275E-02    0.686E-02
RMM:   9    -0.639592927943E+03    0.22211E-04   -0.28287E-05  5800   0.216E-02    0.108E-02
RMM:  10    -0.639592931530E+03   -0.35866E-05   -0.14927E-05  5567   0.146E-02
  51 F= -.63959293E+03 E0= -.63952021E+03  d E =-.371668E-03
       N       E                     dE             d eps       ncg     rms          rms(c)
DAV:   1    -0.639592616191E+03    0.31175E-03   -0.32230E-02 12376   0.108E+00    0.107E-01
RMM:   2    -0.639594381428E+03   -0.17652E-02   -0.61981E-03 11370   0.269E-01    0.454E-01
RMM:   3    -0.639593146855E+03    0.12346E-02   -0.15756E-03 10219   0.164E-01    0.140E-01
RMM:   4    -0.639593148155E+03   -0.13003E-05   -0.65085E-04 10911   0.738E-02    0.101E-01
RMM:   5    -0.639593099704E+03    0.48451E-04   -0.12872E-04  8054   0.382E-02    0.431E-02
RMM:   6    -0.639593100557E+03   -0.85316E-06   -0.54477E-05  6247   0.269E-02
  52 F= -.63959310E+03 E0= -.63952037E+03  d E =-.169027E-03
       N       E                     dE             d eps       ncg     rms          rms(c)
DAV:   1    -0.639592202223E+03    0.89748E-03   -0.65140E-02 12376   0.154E+00    0.159E-01
RMM:   2    -0.639595989671E+03   -0.37874E-02   -0.12679E-02 11338   0.388E-01    0.670E-01
RMM:   3    -0.639593270819E+03    0.27189E-02   -0.33190E-03 10583   0.238E-01    0.206E-01
RMM:   4    -0.639593266209E+03    0.46101E-05   -0.13493E-03 12062   0.102E-01    0.143E-01
RMM:   5    -0.639593167425E+03    0.98784E-04   -0.28551E-04  9713   0.514E-02    0.587E-02
RMM:   6    -0.639593171879E+03   -0.44539E-05   -0.10948E-04  7269   0.347E-02    0.669E-02
RMM:   7    -0.639593144352E+03    0.27527E-04   -0.59572E-05  6798   0.274E-02    0.211E-02
RMM:   8    -0.639593153276E+03   -0.89239E-05   -0.37614E-05  6285   0.230E-02
  53 F= -.63959315E+03 E0= -.63952038E+03  d E =-.221746E-03
       N       E                     dE             d eps       ncg     rms          rms(c)
DAV:   1    -0.639592828721E+03    0.31563E-03   -0.26891E-02  9576   0.915E-01    0.668E-02
RMM:   2    -0.639593385787E+03   -0.55707E-03   -0.52482E-03 13195   0.212E-01    0.150E-01
RMM:   3    -0.639593343226E+03    0.42561E-04   -0.82055E-04 10516   0.999E-02    0.766E-02
RMM:   4    -0.639593397530E+03   -0.54304E-04   -0.28038E-04  9171   0.549E-02    0.115E-01
RMM:   5    -0.639593317557E+03    0.79973E-04   -0.75992E-05  6728   0.370E-02    0.337E-02
RMM:   6    -0.639593328386E+03   -0.10829E-04   -0.54995E-05  6474   0.259E-02    0.582E-02
RMM:   7    -0.639593313814E+03    0.14572E-04   -0.25881E-05  5770   0.220E-02    0.207E-02
RMM:   8    -0.639593318694E+03   -0.48795E-05   -0.19469E-05  5614   0.173E-02
  54 F= -.63959332E+03 E0= -.63952054E+03  d E =-.165418E-03
       N       E                     dE             d eps       ncg     rms          rms(c)
DAV:   1    -0.639592552974E+03    0.76084E-03   -0.46312E-02  9436   0.119E+00    0.861E-02
RMM:   2    -0.639593492349E+03   -0.93938E-03   -0.89838E-03 13354   0.275E-01    0.190E-01
RMM:   3    -0.639593440985E+03    0.51364E-04   -0.14013E-03 11125   0.124E-01    0.975E-02
RMM:   4    -0.639593524082E+03   -0.83097E-04   -0.46514E-04 10373   0.675E-02    0.144E-01
RMM:   5    -0.639593401241E+03    0.12284E-03   -0.12776E-04  7473   0.452E-02    0.480E-02
RMM:   6    -0.639593413879E+03   -0.12638E-04   -0.99368E-05  7297   0.312E-02    0.671E-02
RMM:   7    -0.639593396644E+03    0.17235E-04   -0.47987E-05  6484   0.247E-02    0.347E-02
RMM:   8    -0.639593398961E+03   -0.23172E-05   -0.29730E-05  5876   0.214E-02
  55 F= -.63959340E+03 E0= -.63952061E+03  d E =-.245685E-03
       N       E                     dE             d eps       ncg     rms          rms(c)
DAV:   1    -0.639593162092E+03    0.23455E-03   -0.30767E-02 12488   0.110E+00    0.161E-01
RMM:   2    -0.639596561236E+03   -0.33991E-02   -0.77088E-03 10822   0.349E-01    0.672E-01
RMM:   3    -0.639593626055E+03    0.29352E-02   -0.27408E-03 10096   0.215E-01    0.188E-01
RMM:   4    -0.639593613634E+03    0.12421E-04   -0.90969E-04 11088   0.911E-02    0.149E-01
RMM:   5    -0.639593524092E+03    0.89542E-04   -0.28755E-04  9672   0.497E-02    0.716E-02
RMM:   6    -0.639593520450E+03    0.36425E-05   -0.10079E-04  7105   0.349E-02    0.691E-02
RMM:   7    -0.639593496404E+03    0.24045E-04   -0.48026E-05  6128   0.262E-02    0.222E-02
RMM:   8    -0.639593510803E+03   -0.14399E-04   -0.30380E-05  5810   0.224E-02    0.548E-02
RMM:   9    -0.639593497858E+03    0.12944E-04   -0.18769E-05  5370   0.208E-02    0.113E-02
RMM:  10    -0.639593500414E+03   -0.25558E-05   -0.96081E-06  5107   0.128E-02
  56 F= -.63959350E+03 E0= -.63952074E+03  d E =-.101453E-03
       N       E                     dE             d eps       ncg     rms          rms(c)
DAV:   1    -0.639593427084E+03    0.70775E-04   -0.65739E-03 12488   0.506E-01    0.757E-02
RMM:   2    -0.639594201237E+03   -0.77415E-03   -0.16670E-03 10630   0.162E-01    0.323E-01
RMM:   3    -0.639593531149E+03    0.67009E-03   -0.59172E-04  8819   0.102E-01    0.919E-02
RMM:   4    -0.639593522693E+03    0.84563E-05   -0.19658E-04  9392   0.465E-02    0.664E-02
RMM:   5    -0.639593508252E+03    0.14441E-04   -0.57651E-05  6325   0.250E-02    0.391E-02
RMM:   6    -0.639593504343E+03    0.39090E-05   -0.21999E-05  5612   0.219E-02
  57 F= -.63959350E+03 E0= -.63952074E+03  d E =-.105382E-03
