 running on   24 total cores
 distrk:  each k-point on   24 cores,    1 groups
 distr:  one band on    1 cores,   24 groups
 using from now: INCAR     
 vasp.5.4.4.18Apr17-6-g9f103f2a35 (build Oct 18 2021 20:38:43) complex          
  
 POSCAR found type information on POSCAR  Zr Hf Ti N  C  Cr Nb
 POSCAR found :  7 types and      64 ions
 scaLAPACK will be used

 ----------------------------------------------------------------------------- 
|                                                                             |
|           W    W    AA    RRRRR   N    N  II  N    N   GGGG   !!!           |
|           W    W   A  A   R    R  NN   N  II  NN   N  G    G  !!!           |
|           W    W  A    A  R    R  N N  N  II  N N  N  G       !!!           |
|           W WW W  AAAAAA  RRRRR   N  N N  II  N  N N  G  GGG   !            |
|           WW  WW  A    A  R   R   N   NN  II  N   NN  G    G                |
|           W    W  A    A  R    R  N    N  II  N    N   GGGG   !!!           |
|                                                                             |
|      For optimal performance we recommend to set                            |
|        NCORE= 4 - approx SQRT( number of cores)                             |
|      NCORE specifies how many cores store one orbital (NPAR=cpu/NCORE).     |
|      This setting can  greatly improve the performance of VASP for DFT.     |
|      The default,   NCORE=1            might be grossly inefficient         |
|      on modern multi-core architectures or massively parallel machines.     |
|      Do your own testing !!!!                                               |
|      Unfortunately you need to use the default for GW and RPA calculations. |
|      (for HF NCORE is supported but not extensively tested yet)             |
|                                                                             |
 ----------------------------------------------------------------------------- 


 ----------------------------------------------------------------------------- 
|                                                                             |
|  ADVICE TO THIS USER RUNNING 'VASP/VAMP'   (HEAR YOUR MASTER'S VOICE ...):  |
|                                                                             |
|      You have a (more or less) 'large supercell' and for larger cells       |
|      it might be more efficient to use real space projection operators      |
|      So try LREAL= Auto  in the INCAR   file.                               |
|      Mind: If you want to do a very accurate calculations keep the          |
|      reciprocal projection scheme          (i.e. LREAL=.FALSE.)             |
|                                                                             |
 ----------------------------------------------------------------------------- 

 LDA part: xc-table for Pade appr. of Perdew
 POSCAR, INCAR and KPOINTS ok, starting setup
 FFT: planning ...
 WAVECAR not read
 entering main loop
       N       E                     dE             d eps       ncg     rms          rms(c)
DAV:   1     0.699394746944E+04    0.69939E+04   -0.21076E+05  8904   0.158E+03
DAV:   2     0.602712174282E+03   -0.63912E+04   -0.62092E+04  8736   0.665E+02
DAV:   3    -0.597009682767E+03   -0.11997E+04   -0.11207E+04 14064   0.241E+02
DAV:   4    -0.764384927313E+03   -0.16738E+03   -0.16285E+03 15696   0.106E+02
DAV:   5    -0.785494512232E+03   -0.21110E+02   -0.20743E+02 17376   0.367E+01    0.780E+01
RMM:   6    -0.908202490173E+03   -0.12271E+03   -0.25924E+03 12092   0.140E+02    0.120E+02
RMM:   7    -0.641051066925E+03    0.26715E+03   -0.29686E+02 14408   0.406E+01    0.445E+01
RMM:   8    -0.636386161118E+03    0.46649E+01   -0.67466E+01 14223   0.210E+01    0.254E+01
RMM:   9    -0.635825640439E+03    0.56052E+00   -0.34701E+01 14538   0.117E+01    0.243E+01
RMM:  10    -0.633097210828E+03    0.27284E+01   -0.12479E+01 14502   0.962E+00    0.127E+01
RMM:  11    -0.634458794053E+03   -0.13616E+01   -0.79248E+00 13957   0.650E+00    0.211E+01
RMM:  12    -0.632409498140E+03    0.20493E+01   -0.40406E+00 14022   0.600E+00    0.908E+00
RMM:  13    -0.632739949259E+03   -0.33045E+00   -0.61622E+00 14465   0.421E+00    0.914E+00
RMM:  14    -0.632754504487E+03   -0.14555E-01   -0.19504E+00 12440   0.525E+00    0.761E+00
RMM:  15    -0.632722102426E+03    0.32402E-01   -0.17345E+00 13628   0.309E+00    0.952E+00
RMM:  16    -0.632361151621E+03    0.36095E+00   -0.90617E-01 13602   0.276E+00    0.287E+00
RMM:  17    -0.632459479059E+03   -0.98327E-01   -0.12495E+00 14479   0.183E+00    0.353E+00
RMM:  18    -0.632473401117E+03   -0.13922E-01   -0.42118E-01 14704   0.190E+00    0.286E+00
RMM:  19    -0.632468118740E+03    0.52824E-02   -0.42049E-01 13969   0.982E-01    0.162E+00
RMM:  20    -0.632424034369E+03    0.44084E-01   -0.31539E-01 14126   0.107E+00    0.981E-01
RMM:  21    -0.632423813839E+03    0.22053E-03   -0.12149E-01 13599   0.994E-01    0.260E-01
RMM:  22    -0.632431734196E+03   -0.79204E-02   -0.96278E-02 14201   0.455E-01    0.214E-01
RMM:  23    -0.632433892054E+03   -0.21579E-02   -0.35975E-02 14158   0.432E-01    0.161E-01
RMM:  24    -0.632436217801E+03   -0.23257E-02   -0.30577E-02 13850   0.247E-01    0.147E-01
RMM:  25    -0.632437344047E+03   -0.11262E-02   -0.15818E-02 13373   0.228E-01    0.468E-02
RMM:  26    -0.632438293954E+03   -0.94991E-03   -0.11425E-02 12498   0.159E-01    0.814E-02
RMM:  27    -0.632438859008E+03   -0.56505E-03   -0.69674E-03 11844   0.135E-01    0.421E-02
RMM:  28    -0.632439293456E+03   -0.43445E-03   -0.49720E-03 12046   0.105E-01    0.238E-02
RMM:  29    -0.632439558860E+03   -0.26540E-03   -0.31421E-03 11265   0.909E-02    0.354E-02
RMM:  30    -0.632439745795E+03   -0.18693E-03   -0.22216E-03 11463   0.721E-02    0.146E-02
RMM:  31    -0.632439866752E+03   -0.12096E-03   -0.14482E-03 11085   0.635E-02    0.247E-02
RMM:  32    -0.632439954569E+03   -0.87817E-04   -0.10129E-03 10890   0.477E-02    0.785E-03
RMM:  33    -0.632440013797E+03   -0.59228E-04   -0.68466E-04 10878   0.429E-02    0.138E-02
RMM:  34    -0.632440054057E+03   -0.40260E-04   -0.47836E-04 10639   0.349E-02    0.801E-03
RMM:  35    -0.632440082138E+03   -0.28081E-04   -0.32356E-04 10538   0.316E-02    0.615E-03
WARNING in EDDRMM: call to ZHEGV failed, returncode =   8  4      7
RMM:  36    -0.632440100421E+03   -0.18283E-04   -0.22635E-04 10096   0.252E-02    0.129E-02
WARNING in EDDRMM: call to ZHEGV failed, returncode =   6  3      7
RMM:  37    -0.632440113725E+03   -0.13304E-04   -0.15729E-04  9662   0.221E-02    0.144E-02
RMM:  38    -0.632440123155E+03   -0.94304E-05   -0.11292E-04  9151   0.189E-02    0.212E-02
RMM:  39    -0.632440129285E+03   -0.61293E-05   -0.77726E-05  8736   0.173E-02
   1 F= -.63244013E+03 E0= -.63236175E+03  d E =-.632440E+03
 curvature:   0.00 expect dE= 0.000E+00 dE for cont linesearch  0.000E+00
 trial: gam= 0.00000 g(F)=  0.294E-01 g(S)=  0.571E-02 ort = 0.000E+00 (trialstep = 0.100E+01)
 search vector abs. value=  0.352E-01
 bond charge predicted
       N       E                     dE             d eps       ncg     rms          rms(c)
DAV:   1    -0.632257585334E+03    0.18254E+00   -0.75383E+00 12576   0.179E+01    0.207E+00
RMM:   2    -0.633061484781E+03   -0.80390E+00   -0.29571E+00 12160   0.514E+00    0.973E+00
RMM:   3    -0.632562477113E+03    0.49901E+00   -0.53745E-01 12133   0.241E+00    0.472E+00
RMM:   4    -0.632473718095E+03    0.88759E-01   -0.12672E-01 13151   0.104E+00    0.134E+00
RMM:   5    -0.632471352895E+03    0.23652E-02   -0.42837E-02 13772   0.547E-01    0.161E+00
RMM:   6    -0.632461490045E+03    0.98628E-02   -0.13540E-02 13060   0.383E-01    0.747E-01
RMM:   7    -0.632463232136E+03   -0.17421E-02   -0.12481E-02 13908   0.315E-01    0.117E+00
RMM:   8    -0.632458891395E+03    0.43407E-02   -0.69951E-03 13067   0.289E-01    0.587E-01
RMM:   9    -0.632458674135E+03    0.21726E-03   -0.55204E-03 13877   0.216E-01    0.529E-01
RMM:  10    -0.632457397476E+03    0.12767E-02   -0.25249E-03 12907   0.156E-01    0.157E-01
RMM:  11    -0.632457440959E+03   -0.43483E-04   -0.16016E-03 12664   0.766E-02    0.133E-01
RMM:  12    -0.632457473203E+03   -0.32244E-04   -0.77842E-04 11802   0.687E-02    0.103E-01
WARNING in EDDRMM: call to ZHEGV failed, returncode =   6  3     10
WARNING in EDDRMM: call to ZHEGV failed, returncode =   8  4      9
RMM:  13    -0.632457525571E+03   -0.52368E-04   -0.62502E-04 11639   0.424E-02    0.453E-02
RMM:  14    -0.632457590230E+03   -0.64659E-04   -0.35489E-04 11265   0.393E-02    0.317E-02
RMM:  15    -0.632457640153E+03   -0.49923E-04   -0.26763E-04 11308   0.359E-02    0.129E-02
RMM:  16    -0.632457661831E+03   -0.21678E-04   -0.19238E-04 10948   0.300E-02    0.791E-03
RMM:  17    -0.632457670954E+03   -0.91234E-05   -0.12039E-04 10218   0.252E-02    0.786E-03
RMM:  18    -0.632457675697E+03   -0.47431E-05   -0.67441E-05  9347   0.214E-02
   2 F= -.63245768E+03 E0= -.63238115E+03  d E =-.175464E-01
 trial-energy change:   -0.017546  1 .order   -0.017815   -0.035155   -0.000475
 step:   1.0144(harm=  1.0137)  dis= 0.01759  next Energy=  -632.457679 (dE=-0.175E-01)
 bond charge predicted
       N       E                     dE             d eps       ncg     rms          rms(c)
DAV:   1    -0.632457638968E+03    0.31986E-04   -0.16479E-03 12624   0.258E-01    0.304E-02
RMM:   2    -0.632457818303E+03   -0.17934E-03   -0.60104E-04  9974   0.748E-02    0.149E-01
RMM:   3    -0.632457706566E+03    0.11174E-03   -0.12033E-04  7332   0.411E-02    0.743E-02
RMM:   4    -0.632457685701E+03    0.20865E-04   -0.29914E-05  5857   0.218E-02    0.198E-02
RMM:   5    -0.632457687746E+03   -0.20450E-05   -0.16139E-05  5491   0.186E-02
   3 F= -.63245769E+03 E0= -.63238118E+03  d E =-.175585E-01
 curvature:  -0.51 expect dE=-0.167E-01 dE for cont linesearch -0.596E-06
 trial: gam= 0.94702 g(F)=  0.101E-01 g(S)=  0.230E-01 ort =-0.204E-03 (trialstep = 0.549E+00)
 search vector abs. value=  0.642E-01
 bond charge predicted
       N       E                     dE             d eps       ncg     rms          rms(c)
DAV:   1    -0.632324513386E+03    0.13317E+00   -0.44488E+00 11496   0.139E+01    0.134E+00
RMM:   2    -0.632660859724E+03   -0.33635E+00   -0.18192E+00 13201   0.351E+00    0.518E+00
RMM:   3    -0.632492271764E+03    0.16859E+00   -0.25449E-01 11779   0.160E+00    0.221E+00
RMM:   4    -0.632482721680E+03    0.95501E-02   -0.59343E-02 13436   0.646E-01    0.135E+00
RMM:   5    -0.632474945643E+03    0.77760E-02   -0.14319E-02 13636   0.363E-01    0.770E-01
RMM:   6    -0.632473526724E+03    0.14189E-02   -0.61686E-03 13617   0.215E-01    0.567E-01
RMM:   7    -0.632472539199E+03    0.98753E-03   -0.45627E-03 13839   0.198E-01    0.478E-01
RMM:   8    -0.632472651567E+03   -0.11237E-03   -0.30358E-03 12992   0.187E-01    0.528E-01
RMM:   9    -0.632472668263E+03   -0.16696E-04   -0.28601E-03 13757   0.156E-01    0.571E-01
RMM:  10    -0.632471289621E+03    0.13786E-02   -0.12068E-03 12237   0.118E-01    0.949E-02
RMM:  11    -0.632471313162E+03   -0.23541E-04   -0.91037E-04 12382   0.565E-02    0.683E-02
RMM:  12    -0.632471335835E+03   -0.22672E-04   -0.31164E-04 11506   0.510E-02    0.752E-02
RMM:  13    -0.632471338047E+03   -0.22125E-05   -0.31017E-04 11040   0.300E-02    0.306E-02
RMM:  14    -0.632471350347E+03   -0.12299E-04   -0.17361E-04 10832   0.285E-02    0.204E-02
RMM:  15    -0.632471356607E+03   -0.62602E-05   -0.11486E-04 10588   0.261E-02    0.106E-02
RMM:  16    -0.632471360774E+03   -0.41669E-05   -0.86988E-05  9917   0.208E-02
   4 F= -.63247136E+03 E0= -.63239573E+03  d E =-.136730E-01
 trial-energy change:   -0.013673  1 .order   -0.013264   -0.018056   -0.008471
 step:   0.8914(harm=  1.0340)  dis= 0.02669  next Energy=  -632.474104 (dE=-0.164E-01)
 bond charge predicted
       N       E                     dE             d eps       ncg     rms          rms(c)
DAV:   1    -0.632415215777E+03    0.56141E-01   -0.17015E+00 11424   0.865E+00    0.841E-01
RMM:   2    -0.632550328617E+03   -0.13511E+00   -0.72583E-01 13157   0.224E+00    0.331E+00
RMM:   3    -0.632484011381E+03    0.66317E-01   -0.10580E-01 11723   0.101E+00    0.151E+00
RMM:   4    -0.632478575611E+03    0.54358E-02   -0.23769E-02 13337   0.414E-01    0.795E-01
RMM:   5    -0.632475773822E+03    0.28018E-02   -0.58668E-03 13498   0.225E-01    0.456E-01
RMM:   6    -0.632475331873E+03    0.44195E-03   -0.23888E-03 12777   0.142E-01    0.360E-01
RMM:   7    -0.632474918864E+03    0.41301E-03   -0.17926E-03 13689   0.123E-01    0.277E-01
RMM:   8    -0.632474938851E+03   -0.19987E-04   -0.12373E-03 12484   0.120E-01    0.290E-01
RMM:   9    -0.632474492890E+03    0.44596E-03   -0.97945E-04 13559   0.874E-02    0.107E-01
RMM:  10    -0.632474559712E+03   -0.66822E-04   -0.44612E-04 11925   0.639E-02    0.152E-01
RMM:  11    -0.632474481611E+03    0.78101E-04   -0.26037E-04 11776   0.398E-02    0.342E-02
WARNING in EDDRMM: call to ZHEGV failed, returncode =   6  3      6
RMM:  12    -0.632474501786E+03   -0.20175E-04   -0.17849E-04 10913   0.290E-02    0.554E-02
RMM:  13    -0.632474494196E+03    0.75899E-05   -0.86897E-05 10283   0.248E-02
   5 F= -.63247449E+03 E0= -.63239938E+03  d E =-.168064E-01
 curvature:  -0.92 expect dE=-0.132E-01 dE for cont linesearch -0.121E-03
 ZBRENT: extrapolating
 opt :   0.9710  next Energy=  -632.474610 (dE=-0.169E-01)
 bond charge predicted
       N       E                     dE             d eps       ncg     rms          rms(c)
DAV:   1    -0.632471679111E+03    0.28227E-02   -0.94394E-02 12120   0.201E+00    0.198E-01
RMM:   2    -0.632479228836E+03   -0.75497E-02   -0.37383E-02 12958   0.512E-01    0.817E-01
RMM:   3    -0.632475232085E+03    0.39968E-02   -0.53230E-03 10955   0.243E-01    0.384E-01
RMM:   4    -0.632474806945E+03    0.42514E-03   -0.13522E-03 11781   0.104E-01    0.160E-01
RMM:   5    -0.632474691528E+03    0.11542E-03   -0.35157E-04 11818   0.524E-02    0.100E-01
RMM:   6    -0.632474676804E+03    0.14723E-04   -0.13757E-04 10389   0.390E-02    0.876E-02
RMM:   7    -0.632474661041E+03    0.15763E-04   -0.11402E-04 10750   0.322E-02    0.738E-02
RMM:   8    -0.632474651714E+03    0.93265E-05   -0.70863E-05  9194   0.320E-02
   6 F= -.63247465E+03 E0= -.63239961E+03  d E =-.169640E-01
 curvature:  -0.88 expect dE=-0.139E-01 dE for cont linesearch -0.143E-04
 trial: gam= 0.40263 g(F)=  0.143E-01 g(S)=  0.155E-02 ort = 0.102E-02 (trialstep = 0.633E+00)
 search vector abs. value=  0.271E-01
 bond charge predicted
       N       E                     dE             d eps       ncg     rms          rms(c)
DAV:   1    -0.632384982473E+03    0.89679E-01   -0.25299E+00 10152   0.105E+01    0.468E-01
RMM:   2    -0.632486891509E+03   -0.10191E+00   -0.92369E-01 14298   0.214E+00    0.176E+00
RMM:   3    -0.632483551594E+03    0.33399E-02   -0.11279E-01 11253   0.850E-01    0.542E-01
RMM:   4    -0.632484868472E+03   -0.13169E-02   -0.14415E-02 13720   0.269E-01    0.613E-01
RMM:   5    -0.632483394014E+03    0.14745E-02   -0.27628E-03 12512   0.174E-01    0.200E-01
RMM:   6    -0.632483586792E+03   -0.19278E-03   -0.17729E-03 11956   0.821E-02    0.264E-01
RMM:   7    -0.632483339727E+03    0.24706E-03   -0.90119E-04 12754   0.869E-02    0.196E-01
RMM:   8    -0.632483384475E+03   -0.44748E-04   -0.62678E-04 11907   0.757E-02    0.220E-01
RMM:   9    -0.632483184984E+03    0.19949E-03   -0.60808E-04 12678   0.691E-02    0.479E-02
RMM:  10    -0.632483208927E+03   -0.23943E-04   -0.26039E-04 11082   0.447E-02    0.657E-02
RMM:  11    -0.632483184358E+03    0.24570E-04   -0.13360E-04 10538   0.314E-02    0.281E-02
RMM:  12    -0.632483197811E+03   -0.13454E-04   -0.10947E-04  9751   0.220E-02    0.476E-02
RMM:  13    -0.632483189209E+03    0.86030E-05   -0.61978E-05  9451   0.227E-02
   7 F= -.63248319E+03 E0= -.63240883E+03  d E =-.853749E-02
 trial-energy change:   -0.008537  1 .order   -0.008365   -0.010319   -0.006411
 step:   1.3051(harm=  1.6723)  dis= 0.02655  next Energy=  -632.486796 (dE=-0.121E-01)
 bond charge predicted
       N       E                     dE             d eps       ncg     rms          rms(c)
DAV:   1    -0.632375844783E+03    0.10735E+00   -0.28363E+00  9984   0.112E+01    0.488E-01
RMM:   2    -0.632485218725E+03   -0.10937E+00   -0.10544E+00 14300   0.232E+00    0.132E+00
RMM:   3    -0.632489339031E+03   -0.41203E-02   -0.12564E-01 11353   0.885E-01    0.703E-01
RMM:   4    -0.632489348199E+03   -0.91677E-05   -0.15455E-02 13766   0.275E-01    0.512E-01
RMM:   5    -0.632488473805E+03    0.87439E-03   -0.31213E-03 12734   0.174E-01    0.209E-01
RMM:   6    -0.632488603716E+03   -0.12991E-03   -0.17337E-03 12210   0.835E-02    0.254E-01
RMM:   7    -0.632488413319E+03    0.19040E-03   -0.87278E-04 12616   0.881E-02    0.212E-01
RMM:   8    -0.632488387642E+03    0.25678E-04   -0.77275E-04 12140   0.804E-02    0.200E-01
RMM:   9    -0.632488355511E+03    0.32130E-04   -0.68543E-04 12654   0.768E-02    0.171E-01
RMM:  10    -0.632488228843E+03    0.12667E-03   -0.32313E-04 11052   0.579E-02    0.556E-02
RMM:  11    -0.632488261532E+03   -0.32689E-04   -0.22720E-04 10739   0.349E-02    0.964E-02
RMM:  12    -0.632488221805E+03    0.39727E-04   -0.11691E-04 10269   0.289E-02    0.210E-02
RMM:  13    -0.632488224113E+03   -0.23081E-05   -0.94219E-05  9479   0.198E-02
   8 F= -.63248822E+03 E0= -.63241457E+03  d E =-.135724E-01
 curvature:  -1.22 expect dE=-0.688E-02 dE for cont linesearch -0.654E-03
 ZBRENT: increasing intervall
 opt :   2.6488  next Energy=  -632.484875 (dE=-0.102E-01)
 bond charge predicted
       N       E                     dE             d eps       ncg     rms          rms(c)
DAV:   1    -0.632043126524E+03    0.44510E+00   -0.11482E+01  9744   0.222E+01    0.100E+00
RMM:   2    -0.632508825677E+03   -0.46570E+00   -0.42749E+00 14269   0.476E+00    0.359E+00
RMM:   3    -0.632485049440E+03    0.23776E-01   -0.46483E-01 11248   0.183E+00    0.104E+00
RMM:   4    -0.632494203574E+03   -0.91541E-02   -0.72480E-02 13823   0.609E-01    0.140E+00
RMM:   5    -0.632486419646E+03    0.77839E-02   -0.15140E-02 13744   0.376E-01    0.518E-01
RMM:   6    -0.632486269172E+03    0.15047E-03   -0.86036E-03 13371   0.168E-01    0.405E-01
RMM:   7    -0.632486648266E+03   -0.37909E-03   -0.41612E-03 13500   0.182E-01    0.599E-01
RMM:   8    -0.632485225287E+03    0.14230E-02   -0.33657E-03 13371   0.166E-01    0.297E-01
RMM:   9    -0.632485826518E+03   -0.60123E-03   -0.28477E-03 13285   0.149E-01    0.439E-01
RMM:  10    -0.632484919966E+03    0.90655E-03   -0.15048E-03 12627   0.122E-01    0.717E-02
RMM:  11    -0.632485021997E+03   -0.10203E-03   -0.91817E-04 11403   0.598E-02    0.159E-01
RMM:  12    -0.632484930126E+03    0.91872E-04   -0.40669E-04 11226   0.513E-02    0.505E-02
RMM:  13    -0.632484936599E+03   -0.64732E-05   -0.36987E-04 11144   0.351E-02    0.180E-02
RMM:  14    -0.632484946284E+03   -0.96849E-05   -0.17215E-04 10430   0.322E-02    0.801E-03
RMM:  15    -0.632484955087E+03   -0.88032E-05   -0.11016E-04  9599   0.224E-02    0.640E-03
RMM:  16    -0.632484960547E+03   -0.54601E-05   -0.76501E-05  9445   0.196E-02
   9 F= -.63248496E+03 E0= -.63241274E+03  d E =-.103088E-01
 curvature:   6.24 expect dE= 0.127E+00 dE for cont linesearch  0.217E-01
 ZBRENT: bracketing found
 ZBRENT: interpolating
 opt :   1.6839  next Energy=  -632.488947 (dE=-0.143E-01)
 bond charge predicted
       N       E                     dE             d eps       ncg     rms          rms(c)
DAV:   1    -0.632268218014E+03    0.21674E+00   -0.59958E+00 10296   0.160E+01    0.655E-01
RMM:   2    -0.632471079859E+03   -0.20286E+00   -0.20607E+00 14272   0.336E+00    0.829E-01
RMM:   3    -0.632499790858E+03   -0.28711E-01   -0.24243E-01 11290   0.123E+00    0.167E+00
RMM:   4    -0.632490509846E+03    0.92810E-02   -0.28136E-02 13439   0.432E-01    0.556E-01
RMM:   5    -0.632489830220E+03    0.67963E-03   -0.77347E-03 13560   0.214E-01    0.327E-01
RMM:   6    -0.632489835092E+03   -0.48717E-05   -0.28190E-03 12497   0.121E-01    0.304E-01
RMM:   7    -0.632489464310E+03    0.37078E-03   -0.14807E-03 12948   0.102E-01    0.227E-01
RMM:   8    -0.632489625949E+03   -0.16164E-03   -0.12953E-03 12820   0.105E-01    0.314E-01
RMM:   9    -0.632489351050E+03    0.27490E-03   -0.14989E-03 13120   0.113E-01    0.221E-01
RMM:  10    -0.632489201682E+03    0.14937E-03   -0.58165E-04 11434   0.753E-02    0.109E-01
RMM:  11    -0.632489139752E+03    0.61930E-04   -0.33332E-04 11079   0.434E-02    0.442E-02
RMM:  12    -0.632489165160E+03   -0.25408E-04   -0.19298E-04 10454   0.315E-02    0.789E-02
RMM:  13    -0.632489142900E+03    0.22260E-04   -0.14269E-04 10396   0.287E-02    0.144E-02
RMM:  14    -0.632489147765E+03   -0.48654E-05   -0.84301E-05  9828   0.219E-02
  10 F= -.63248915E+03 E0= -.63241590E+03  d E =-.144961E-01
 curvature:  -0.21 expect dE=-0.139E-02 dE for cont linesearch -0.935E-05
 trial: gam= 0.32381 g(F)=  0.505E-02 g(S)=  0.167E-02 ort = 0.111E-02 (trialstep = 0.843E+00)
 search vector abs. value=  0.103E-01
 bond charge predicted
       N       E                     dE             d eps       ncg     rms          rms(c)
DAV:   1    -0.632455532040E+03    0.33611E-01   -0.16104E+00 11952   0.820E+00    0.842E-01
RMM:   2    -0.632576993280E+03   -0.12146E+00   -0.52484E-01 12560   0.213E+00    0.352E+00
RMM:   3    -0.632504828400E+03    0.72165E-01   -0.84239E-02 11674   0.105E+00    0.166E+00
RMM:   4    -0.632495625540E+03    0.92029E-02   -0.23204E-02 13370   0.427E-01    0.632E-01
RMM:   5    -0.632495051718E+03    0.57382E-03   -0.72901E-03 13581   0.246E-01    0.736E-01
RMM:   6    -0.632493049681E+03    0.20020E-02   -0.24474E-03 12056   0.160E-01    0.304E-01
RMM:   7    -0.632493021049E+03    0.28632E-04   -0.22690E-03 13756   0.134E-01    0.353E-01
RMM:   8    -0.632492719309E+03    0.30174E-03   -0.12710E-03 12162   0.125E-01    0.271E-01
RMM:   9    -0.632492817784E+03   -0.98475E-04   -0.10337E-03 13090   0.961E-02    0.319E-01
RMM:  10    -0.632492350214E+03    0.46757E-03   -0.43814E-04 11059   0.751E-02    0.538E-02
RMM:  11    -0.632492366347E+03   -0.16134E-04   -0.31631E-04 11560   0.358E-02    0.371E-02
RMM:  12    -0.632492379203E+03   -0.12856E-04   -0.11033E-04 10821   0.311E-02    0.457E-02
RMM:  13    -0.632492387161E+03   -0.79581E-05   -0.10437E-04 10062   0.194E-02    0.178E-02
RMM:  14    -0.632492401156E+03   -0.13995E-04   -0.65918E-05  9128   0.191E-02    0.113E-02
RMM:  15    -0.632492410147E+03   -0.89904E-05   -0.44145E-05  8179   0.188E-02
  11 F= -.63249241E+03 E0= -.63241968E+03  d E =-.326238E-02
 trial-energy change:   -0.003262  1 .order   -0.003409   -0.005969   -0.000848
 step:   1.0197(harm=  0.9832)  dis= 0.00720  next Energy=  -632.492497 (dE=-0.335E-02)
 bond charge predicted
       N       E                     dE             d eps       ncg     rms          rms(c)
DAV:   1    -0.632490858345E+03    0.15428E-02   -0.70577E-02 12336   0.171E+00    0.176E-01
RMM:   2    -0.632496120987E+03   -0.52626E-02   -0.22342E-02 12567   0.440E-01    0.732E-01
RMM:   3    -0.632492927589E+03    0.31934E-02   -0.36806E-03 10793   0.223E-01    0.335E-01
RMM:   4    -0.632492575323E+03    0.35227E-03   -0.10246E-03 11555   0.939E-02    0.137E-01
RMM:   5    -0.632492543097E+03    0.32226E-04   -0.31988E-04 11210   0.531E-02    0.148E-01
RMM:   6    -0.632492463403E+03    0.79694E-04   -0.11277E-04  9342   0.381E-02    0.618E-02
WARNING in EDDRMM: call to ZHEGV failed, returncode =   6  3      7
RMM:   7    -0.632492463201E+03    0.20267E-06   -0.99382E-05  9488   0.298E-02
  12 F= -.63249246E+03 E0= -.63241981E+03  d E =-.331544E-02
 curvature:  -0.67 expect dE=-0.329E-02 dE for cont linesearch -0.176E-08
 trial: gam= 0.72815 g(F)=  0.204E-02 g(S)=  0.291E-02 ort =-0.521E-05 (trialstep = 0.869E+00)
 search vector abs. value=  0.104E-01
 bond charge predicted
       N       E                     dE             d eps       ncg     rms          rms(c)
DAV:   1    -0.632456482264E+03    0.35981E-01   -0.16859E+00 11400   0.813E+00    0.713E-01
RMM:   2    -0.632557456660E+03   -0.10097E+00   -0.50916E-01 13313   0.188E+00    0.302E+00
RMM:   3    -0.632502964148E+03    0.54493E-01   -0.62456E-02 11579   0.970E-01    0.135E+00
RMM:   4    -0.632497943340E+03    0.50208E-02   -0.19389E-02 13609   0.371E-01    0.647E-01
RMM:   5    -0.632497004032E+03    0.93931E-03   -0.56465E-03 13098   0.217E-01    0.567E-01
RMM:   6    -0.632495633495E+03    0.13705E-02   -0.20713E-03 12125   0.144E-01    0.242E-01
RMM:   7    -0.632495840534E+03   -0.20704E-03   -0.17121E-03 13373   0.113E-01    0.357E-01
RMM:   8    -0.632495328740E+03    0.51179E-03   -0.97507E-04 12546   0.108E-01    0.183E-01
RMM:   9    -0.632495737536E+03   -0.40880E-03   -0.99011E-04 13224   0.933E-02    0.371E-01
RMM:  10    -0.632495139394E+03    0.59814E-03   -0.46154E-04 11380   0.791E-02    0.501E-02
RMM:  11    -0.632495152857E+03   -0.13463E-04   -0.33237E-04 11514   0.361E-02    0.514E-02
RMM:  12    -0.632495154385E+03   -0.15287E-05   -0.12603E-04 10788   0.329E-02    0.370E-02
RMM:  13    -0.632495155049E+03   -0.66370E-06   -0.10927E-04  9644   0.188E-02    0.146E-02
RMM:  14    -0.632495157548E+03   -0.24992E-05   -0.71011E-05  9377   0.192E-02
  13 F= -.63249516E+03 E0= -.63242266E+03  d E =-.269435E-02
 trial-energy change:   -0.002694  1 .order   -0.002469   -0.004298   -0.000639
 step:   0.9763(harm=  1.0209)  dis= 0.00727  next Energy=  -632.495197 (dE=-0.273E-02)
 bond charge predicted
       N       E                     dE             d eps       ncg     rms          rms(c)
DAV:   1    -0.632494629644E+03    0.52541E-03   -0.25697E-02 11976   0.100E+00    0.887E-02
RMM:   2    -0.632496141032E+03   -0.15114E-02   -0.76828E-03 13159   0.233E-01    0.367E-01
RMM:   3    -0.632495326394E+03    0.81464E-03   -0.96716E-04  9580   0.124E-01    0.166E-01
RMM:   4    -0.632495252498E+03    0.73896E-04   -0.30980E-04 10645   0.507E-02    0.772E-02
RMM:   5    -0.632495242452E+03    0.10046E-04   -0.96577E-05  9676   0.303E-02    0.721E-02
RMM:   6    -0.632495222016E+03    0.20436E-04   -0.38129E-05  7020   0.231E-02    0.293E-02
RMM:   7    -0.632495224060E+03   -0.20442E-05   -0.31200E-05  6760   0.195E-02
  14 F= -.63249522E+03 E0= -.63242279E+03  d E =-.276086E-02
 curvature:  -0.98 expect dE=-0.215E-02 dE for cont linesearch -0.610E-05
 trial: gam= 0.31597 g(F)=  0.196E-02 g(S)=  0.237E-03 ort = 0.254E-03 (trialstep = 0.891E+00)
 search vector abs. value=  0.339E-02
 bond charge predicted
       N       E                     dE             d eps       ncg     rms          rms(c)
DAV:   1    -0.632482803434E+03    0.12419E-01   -0.50393E-01  9072   0.415E+00    0.215E-01
RMM:   2    -0.632496808731E+03   -0.14005E-01   -0.13850E-01 14392   0.969E-01    0.484E-01
RMM:   3    -0.632497240971E+03   -0.43224E-03   -0.14438E-02 11945   0.370E-01    0.411E-01
RMM:   4    -0.632497213824E+03    0.27148E-04   -0.28589E-03 12898   0.155E-01    0.323E-01
RMM:   5    -0.632496716883E+03    0.49694E-03   -0.84901E-04 11594   0.103E-01    0.173E-01
RMM:   6    -0.632496675993E+03    0.40891E-04   -0.63910E-04 11465   0.522E-02    0.113E-01
RMM:   7    -0.632496645866E+03    0.30126E-04   -0.39091E-04 12523   0.594E-02    0.122E-01
RMM:   8    -0.632496637417E+03    0.84489E-05   -0.23761E-04 10980   0.529E-02    0.116E-01
RMM:   9    -0.632496597103E+03    0.40315E-04   -0.16130E-04 11109   0.385E-02    0.653E-02
RMM:  10    -0.632496584351E+03    0.12751E-04   -0.98366E-05 10176   0.294E-02    0.285E-02
RMM:  11    -0.632496581524E+03    0.28269E-05   -0.61581E-05  9308   0.191E-02
  15 F= -.63249658E+03 E0= -.63242429E+03  d E =-.135746E-02
 trial-energy change:   -0.001357  1 .order   -0.001331   -0.002026   -0.000636
 step:   1.2979(harm=  1.2979)  dis= 0.00410  next Energy=  -632.496701 (dE=-0.148E-02)
 bond charge predicted
       N       E                     dE             d eps       ncg     rms          rms(c)
DAV:   1    -0.632493847478E+03    0.27369E-02   -0.10563E-01  9120   0.190E+00    0.104E-01
RMM:   2    -0.632497140535E+03   -0.32931E-02   -0.29381E-02 14365   0.449E-01    0.353E-01
RMM:   3    -0.632496797567E+03    0.34297E-03   -0.31606E-03 11504   0.178E-01    0.133E-01
RMM:   4    -0.632496929699E+03   -0.13213E-03   -0.76930E-04 12101   0.762E-02    0.198E-01
RMM:   5    -0.632496778442E+03    0.15126E-03   -0.22592E-04 10780   0.530E-02    0.844E-02
RMM:   6    -0.632496757014E+03    0.21428E-04   -0.16196E-04 10570   0.297E-02    0.407E-02
RMM:   7    -0.632496776610E+03   -0.19595E-04   -0.96955E-05 10428   0.297E-02    0.889E-02
RMM:   8    -0.632496747850E+03    0.28759E-04   -0.59437E-05  9232   0.269E-02    0.377E-02
RMM:   9    -0.632496754219E+03   -0.63683E-05   -0.47976E-05  8950   0.210E-02
  16 F= -.63249675E+03 E0= -.63242456E+03  d E =-.153016E-02
 curvature:  -0.97 expect dE=-0.144E-02 dE for cont linesearch -0.309E-05
 trial: gam= 0.65322 g(F)=  0.841E-03 g(S)=  0.644E-03 ort = 0.104E-03 (trialstep = 0.972E+00)
 search vector abs. value=  0.307E-02
 bond charge predicted
       N       E                     dE             d eps       ncg     rms          rms(c)
DAV:   1    -0.632485608543E+03    0.11139E-01   -0.59248E-01 11400   0.472E+00    0.543E-01
RMM:   2    -0.632529766101E+03   -0.44158E-01   -0.18313E-01 12397   0.136E+00    0.208E+00
RMM:   3    -0.632499978101E+03    0.29788E-01   -0.33261E-02 11813   0.666E-01    0.736E-01
RMM:   4    -0.632499230845E+03    0.74726E-03   -0.88860E-03 13316   0.254E-01    0.532E-01
RMM:   5    -0.632498154672E+03    0.10762E-02   -0.22611E-03 13092   0.152E-01    0.353E-01
RMM:   6    -0.632497790178E+03    0.36449E-03   -0.98366E-04 11594   0.962E-02    0.225E-01
RMM:   7    -0.632497711572E+03    0.78606E-04   -0.82823E-04 13175   0.863E-02    0.221E-01
RMM:   8    -0.632497589038E+03    0.12253E-03   -0.48090E-04 11399   0.803E-02    0.164E-01
RMM:   9    -0.632497660634E+03   -0.71597E-04   -0.45161E-04 12500   0.637E-02    0.212E-01
RMM:  10    -0.632497462353E+03    0.19828E-03   -0.19482E-04 10735   0.518E-02    0.370E-02
RMM:  11    -0.632497472585E+03   -0.10232E-04   -0.13658E-04 10823   0.255E-02    0.378E-02
RMM:  12    -0.632497472529E+03    0.56032E-07   -0.53975E-05  8528   0.234E-02
  17 F= -.63249747E+03 E0= -.63242565E+03  d E =-.718310E-03
 trial-energy change:   -0.000718  1 .order   -0.000761   -0.001509   -0.000014
 step:   0.9826(harm=  0.9808)  dis= 0.00378  next Energy=  -632.497473 (dE=-0.718E-03)
 bond charge predicted
       N       E                     dE             d eps       ncg     rms          rms(c)
DAV:   1    -0.632497481217E+03   -0.86319E-05   -0.18247E-04 15816   0.628E-02    0.147E-02
RMM:   2    -0.632497503680E+03   -0.22463E-04   -0.29264E-05  5596   0.203E-02    0.474E-02
RMM:   3    -0.632497491492E+03    0.12187E-04   -0.12518E-05  5243   0.209E-02    0.232E-02
RMM:   4    -0.632497491257E+03    0.23562E-06   -0.53640E-06  4710   0.867E-03
  18 F= -.63249749E+03 E0= -.63242568E+03  d E =-.737038E-03
 curvature:  -0.93 expect dE=-0.132E-02 dE for cont linesearch -0.218E-05
 trial: gam= 0.86396 g(F)=  0.784E-03 g(S)=  0.644E-03 ort = 0.850E-04 (trialstep = 0.773E+00)
 search vector abs. value=  0.387E-02
 bond charge predicted
       N       E                     dE             d eps       ncg     rms          rms(c)
DAV:   1    -0.632484294899E+03    0.13197E-01   -0.47783E-01  9312   0.429E+00    0.244E-01
RMM:   2    -0.632502640518E+03   -0.18346E-01   -0.14442E-01 14336   0.917E-01    0.956E-01
RMM:   3    -0.632499396890E+03    0.32436E-02   -0.15432E-02 11146   0.435E-01    0.505E-01
RMM:   4    -0.632498995898E+03    0.40099E-03   -0.36077E-03 12568   0.171E-01    0.308E-01
RMM:   5    -0.632498651180E+03    0.34472E-03   -0.97744E-04 11712   0.102E-01    0.231E-01
RMM:   6    -0.632498457948E+03    0.19323E-03   -0.51040E-04 11379   0.575E-02    0.961E-02
RMM:   7    -0.632498502116E+03   -0.44168E-04   -0.29445E-04 11870   0.508E-02    0.151E-01
RMM:   8    -0.632498413688E+03    0.88428E-04   -0.19842E-04 10666   0.483E-02    0.804E-02
RMM:   9    -0.632498448898E+03   -0.35211E-04   -0.19106E-04 11504   0.424E-02    0.120E-01
RMM:  10    -0.632498378420E+03    0.70479E-04   -0.89281E-05  9773   0.351E-02    0.173E-02
RMM:  11    -0.632498380818E+03   -0.23980E-05   -0.69364E-05  8818   0.188E-02
  19 F= -.63249838E+03 E0= -.63242680E+03  d E =-.889561E-03
 trial-energy change:   -0.000890  1 .order   -0.000845   -0.001161   -0.000528
 step:   1.1669(harm=  1.4194)  dis= 0.00542  next Energy=  -632.498521 (dE=-0.103E-02)
 bond charge predicted
       N       E                     dE             d eps       ncg     rms          rms(c)
DAV:   1    -0.632494907337E+03    0.34711E-02   -0.12366E-01  9288   0.219E+00    0.131E-01
RMM:   2    -0.632500389542E+03   -0.54822E-02   -0.38128E-02 14295   0.473E-01    0.629E-01
RMM:   3    -0.632498826184E+03    0.15634E-02   -0.42303E-03 10548   0.229E-01    0.256E-01
RMM:   4    -0.632498714939E+03    0.11125E-03   -0.10655E-03 11831   0.940E-02    0.161E-01
RMM:   5    -0.632498684371E+03    0.30568E-04   -0.33069E-04 11048   0.550E-02    0.157E-01
RMM:   6    -0.632498577281E+03    0.10709E-03   -0.16270E-04 10432   0.362E-02    0.412E-02
RMM:   7    -0.632498595472E+03   -0.18191E-04   -0.10729E-04 10245   0.274E-02    0.820E-02
RMM:   8    -0.632498572351E+03    0.23122E-04   -0.60419E-05  9062   0.262E-02    0.410E-02
RMM:   9    -0.632498576203E+03   -0.38527E-05   -0.58230E-05  9186   0.224E-02
  20 F= -.63249858E+03 E0= -.63242714E+03  d E =-.108495E-02
 curvature:  -1.55 expect dE=-0.134E-02 dE for cont linesearch -0.354E-04
 ZBRENT: increasing intervall
 opt :   1.9540  next Energy=  -632.498506 (dE=-0.101E-02)
 bond charge predicted
       N       E                     dE             d eps       ncg     rms          rms(c)
DAV:   1    -0.632485050590E+03    0.13522E-01   -0.50657E-01  9576   0.437E+00    0.253E-01
RMM:   2    -0.632504487068E+03   -0.19436E-01   -0.13950E-01 14247   0.889E-01    0.114E+00
RMM:   3    -0.632499407810E+03    0.50793E-02   -0.14128E-02 11022   0.481E-01    0.513E-01
RMM:   4    -0.632498971784E+03    0.43603E-03   -0.43388E-03 12622   0.189E-01    0.306E-01
RMM:   5    -0.632498767258E+03    0.20453E-03   -0.12655E-03 11795   0.108E-01    0.276E-01
RMM:   6    -0.632498457845E+03    0.30941E-03   -0.58905E-04 11311   0.650E-02    0.900E-02
RMM:   7    -0.632498520095E+03   -0.62250E-04   -0.35307E-04 11890   0.510E-02    0.161E-01
RMM:   8    -0.632498429028E+03    0.91067E-04   -0.22500E-04 10937   0.494E-02    0.828E-02
RMM:   9    -0.632498447697E+03   -0.18670E-04   -0.22097E-04 11899   0.434E-02    0.106E-01
RMM:  10    -0.632498393265E+03    0.54433E-04   -0.10569E-04 10234   0.357E-02    0.193E-02
WARNING in EDDRMM: call to ZHEGV failed, returncode =   8  4     10
RMM:  11    -0.632498397475E+03   -0.42105E-05   -0.79153E-05  9200   0.201E-02
  21 F= -.63249840E+03 E0= -.63242715E+03  d E =-.906218E-03
 curvature:   3.07 expect dE= 0.869E-02 dE for cont linesearch  0.349E-03
 ZBRENT: bracketing found
 ZBRENT: interpolating
 opt :   1.4104  next Energy=  -632.498612 (dE=-0.112E-02)
 bond charge predicted
       N       E                     dE             d eps       ncg     rms          rms(c)
DAV:   1    -0.632492191874E+03    0.62014E-02   -0.24136E-01  9528   0.302E+00    0.175E-01
RMM:   2    -0.632501594350E+03   -0.94025E-02   -0.67125E-02 14259   0.622E-01    0.803E-01
RMM:   3    -0.632499132131E+03    0.24622E-02   -0.67869E-03 10680   0.329E-01    0.357E-01
RMM:   4    -0.632498869919E+03    0.26221E-03   -0.18620E-03 12003   0.130E-01    0.202E-01
RMM:   5    -0.632498754558E+03    0.11536E-03   -0.51290E-04 10918   0.722E-02    0.177E-01
RMM:   6    -0.632498625011E+03    0.12955E-03   -0.20724E-04 10530   0.443E-02    0.637E-02
RMM:   7    -0.632498645675E+03   -0.20664E-04   -0.13933E-04 10332   0.357E-02    0.107E-01
RMM:   8    -0.632498603725E+03    0.41949E-04   -0.84879E-05  9000   0.331E-02    0.610E-02
RMM:   9    -0.632498615866E+03   -0.12141E-04   -0.86452E-05  8989   0.303E-02    0.826E-02
RMM:  10    -0.632498581887E+03    0.33979E-04   -0.39424E-05  6516   0.247E-02    0.143E-02
RMM:  11    -0.632498586839E+03   -0.49512E-05   -0.24090E-05  5941   0.185E-02
  22 F= -.63249859E+03 E0= -.63242721E+03  d E =-.109558E-02
 curvature:  -0.32 expect dE=-0.460E-03 dE for cont linesearch -0.500E-06
 trial: gam= 1.12062 g(F)=  0.912E-03 g(S)=  0.535E-03 ort =-0.780E-04 (trialstep = 0.568E+00)
 search vector abs. value=  0.613E-02
 bond charge predicted
       N       E                     dE             d eps       ncg     rms          rms(c)
DAV:   1    -0.632486420342E+03    0.12162E-01   -0.44133E-01  9528   0.421E+00    0.197E-01
RMM:   2    -0.632499966274E+03   -0.13546E-01   -0.12681E-01 14258   0.824E-01    0.518E-01
RMM:   3    -0.632499817907E+03    0.14837E-03   -0.11948E-02 10908   0.394E-01    0.418E-01
RMM:   4    -0.632499827957E+03   -0.10051E-04   -0.28250E-03 12313   0.153E-01    0.321E-01
RMM:   5    -0.632499295258E+03    0.53270E-03   -0.73234E-04 10886   0.905E-02    0.117E-01
RMM:   6    -0.632499285449E+03    0.98087E-05   -0.39373E-04 11257   0.440E-02    0.987E-02
RMM:   7    -0.632499262578E+03    0.22871E-04   -0.17431E-04 10971   0.432E-02    0.949E-02
RMM:   8    -0.632499249598E+03    0.12980E-04   -0.13834E-04 10281   0.370E-02    0.864E-02
RMM:   9    -0.632499234105E+03    0.15493E-04   -0.11509E-04 10426   0.352E-02    0.734E-02
RMM:  10    -0.632499212031E+03    0.22075E-04   -0.54491E-05  8641   0.263E-02    0.221E-02
RMM:  11    -0.632499211121E+03    0.90981E-06   -0.39358E-05  7557   0.179E-02
  23 F= -.63249921E+03 E0= -.63242803E+03  d E =-.624282E-03
 trial-energy change:   -0.000624  1 .order   -0.000620   -0.000773   -0.000468
 step:   1.4393(harm=  1.4393)  dis= 0.00881  next Energy=  -632.499565 (dE=-0.979E-03)
 bond charge predicted
       N       E                     dE             d eps       ncg     rms          rms(c)
DAV:   1    -0.632465988298E+03    0.33224E-01   -0.10019E+00  9216   0.637E+00    0.312E-01
RMM:   2    -0.632501198802E+03   -0.35211E-01   -0.33024E-01 14369   0.133E+00    0.807E-01
RMM:   3    -0.632501140567E+03    0.58235E-04   -0.33750E-02 11325   0.556E-01    0.650E-01
RMM:   4    -0.632501139102E+03    0.14650E-05   -0.63869E-03 12848   0.219E-01    0.514E-01
RMM:   5    -0.632499840719E+03    0.12984E-02   -0.15741E-03 11570   0.136E-01    0.214E-01
RMM:   6    -0.632499757625E+03    0.83094E-04   -0.10669E-03 11643   0.647E-02    0.140E-01
RMM:   7    -0.632499717991E+03    0.39633E-04   -0.43690E-04 12192   0.625E-02    0.143E-01
RMM:   8    -0.632499706792E+03    0.11199E-04   -0.34063E-04 11081   0.566E-02    0.143E-01
RMM:   9    -0.632499655624E+03    0.51169E-04   -0.29986E-04 12229   0.537E-02    0.106E-01
RMM:  10    -0.632499612234E+03    0.43390E-04   -0.15277E-04 10765   0.388E-02    0.364E-02
RMM:  11    -0.632499614512E+03   -0.22783E-05   -0.95216E-05  9786   0.242E-02
  24 F= -.63249961E+03 E0= -.63242877E+03  d E =-.102767E-02
 curvature:  -3.24 expect dE=-0.533E-02 dE for cont linesearch -0.135E-05
 trial: gam= 0.81158 g(F)=  0.866E-03 g(S)=  0.780E-03 ort = 0.505E-04 (trialstep = 0.743E+00)
 search vector abs. value=  0.576E-02
 bond charge predicted
       N       E                     dE             d eps       ncg     rms          rms(c)
DAV:   1    -0.632479515965E+03    0.20096E-01   -0.70331E-01 10632   0.524E+00    0.472E-01
RMM:   2    -0.632522876912E+03   -0.43361E-01   -0.25013E-01 13410   0.134E+00    0.180E+00
RMM:   3    -0.632502892768E+03    0.19984E-01   -0.36503E-02 11616   0.597E-01    0.780E-01
RMM:   4    -0.632501620457E+03    0.12723E-02   -0.80054E-03 12940   0.235E-01    0.462E-01
RMM:   5    -0.632500906225E+03    0.71423E-03   -0.22462E-03 12994   0.136E-01    0.358E-01
RMM:   6    -0.632500475158E+03    0.43107E-03   -0.80943E-04 11389   0.875E-02    0.180E-01
RMM:   7    -0.632500491979E+03   -0.16821E-04   -0.72656E-04 12883   0.770E-02    0.216E-01
RMM:   8    -0.632500325588E+03    0.16639E-03   -0.42195E-04 11059   0.774E-02    0.133E-01
RMM:   9    -0.632500344642E+03   -0.19054E-04   -0.40306E-04 12642   0.564E-02    0.159E-01
RMM:  10    -0.632500232451E+03    0.11219E-03   -0.14909E-04 10471   0.488E-02    0.328E-02
RMM:  11    -0.632500239437E+03   -0.69861E-05   -0.12430E-04 10105   0.221E-02    0.189E-02
RMM:  12    -0.632500247042E+03   -0.76049E-05   -0.46818E-05  8098   0.220E-02
  25 F= -.63250025E+03 E0= -.63242976E+03  d E =-.632530E-03
 trial-energy change:   -0.000633  1 .order   -0.000651   -0.001252   -0.000049
 step:   0.7730(harm=  0.7730)  dis= 0.00478  next Energy=  -632.500266 (dE=-0.652E-03)
 bond charge predicted
       N       E                     dE             d eps       ncg     rms          rms(c)
DAV:   1    -0.632500218415E+03    0.21022E-04   -0.13108E-03 12000   0.221E-01    0.244E-02
RMM:   2    -0.632500334222E+03   -0.11581E-03   -0.42605E-04  9398   0.581E-02    0.107E-01
RMM:   3    -0.632500267051E+03    0.67171E-04   -0.78724E-05  6568   0.349E-02    0.484E-02
RMM:   4    -0.632500259521E+03    0.75300E-05   -0.21115E-05  5754   0.169E-02
  26 F= -.63250026E+03 E0= -.63242981E+03  d E =-.645009E-03
 curvature:  -1.32 expect dE=-0.117E-02 dE for cont linesearch -0.340E-07
 trial: gam= 0.48808 g(F)=  0.591E-03 g(S)=  0.292E-03 ort =-0.122E-04 (trialstep = 0.749E+00)
 search vector abs. value=  0.224E-02
 bond charge predicted
       N       E                     dE             d eps       ncg     rms          rms(c)
DAV:   1    -0.632491824515E+03    0.84425E-02   -0.29338E-01  9984   0.311E+00    0.154E-01
RMM:   2    -0.632502043206E+03   -0.10219E-01   -0.87894E-02 14111   0.650E-01    0.626E-01
RMM:   3    -0.632501128816E+03    0.91439E-03   -0.10153E-02 11005   0.249E-01    0.251E-01
RMM:   4    -0.632501245397E+03   -0.11658E-03   -0.15267E-03 11503   0.102E-01    0.246E-01
RMM:   5    -0.632501026394E+03    0.21900E-03   -0.41657E-04 10173   0.651E-02    0.153E-01
RMM:   6    -0.632500919487E+03    0.10691E-03   -0.19966E-04 10149   0.374E-02    0.529E-02
RMM:   7    -0.632500943082E+03   -0.23595E-04   -0.15107E-04 10267   0.328E-02    0.974E-02
RMM:   8    -0.632500902277E+03    0.40805E-04   -0.81133E-05  8979   0.297E-02    0.452E-02
RMM:   9    -0.632500913112E+03   -0.10835E-04   -0.61880E-05  8407   0.241E-02    0.654E-02
RMM:  10    -0.632500894821E+03    0.18291E-04   -0.28167E-05  5902   0.203E-02    0.156E-02
RMM:  11    -0.632500897896E+03   -0.30749E-05   -0.21116E-05  5843   0.163E-02
  27 F= -.63250090E+03 E0= -.63243063E+03  d E =-.638374E-03
 ZBRENT: can't locate minimum, use default step
 trial-energy change:   -0.000638  1 .order   -0.000578   -0.000656   -0.000499
 step:   2.9944(harm=  3.1231)  dis= 0.01239  next Energy=  -632.501629 (dE=-0.137E-02)
 bond charge predicted
       N       E                     dE             d eps       ncg     rms          rms(c)
DAV:   1    -0.632432604777E+03    0.68290E-01   -0.27776E+00 10080   0.938E+00    0.453E-01
RMM:   2    -0.632513966384E+03   -0.81362E-01   -0.70190E-01 14039   0.173E+00    0.180E+00
RMM:   3    -0.632503268705E+03    0.10698E-01   -0.44355E-02 11497   0.777E-01    0.807E-01
RMM:   4    -0.632504386075E+03   -0.11174E-02   -0.17872E-02 13124   0.318E-01    0.714E-01
RMM:   5    -0.632502276790E+03    0.21093E-02   -0.36752E-03 11850   0.189E-01    0.433E-01
RMM:   6    -0.632501435718E+03    0.84107E-03   -0.18817E-03 11444   0.102E-01    0.145E-01
RMM:   7    -0.632501331888E+03    0.10383E-03   -0.13970E-03 13408   0.800E-02    0.168E-01
RMM:   8    -0.632501378025E+03   -0.46137E-04   -0.52553E-04 11510   0.768E-02    0.202E-01
RMM:   9    -0.632501222079E+03    0.15595E-03   -0.44351E-04 11751   0.535E-02    0.693E-02
RMM:  10    -0.632501243247E+03   -0.21168E-04   -0.25082E-04 10765   0.408E-02    0.801E-02
RMM:  11    -0.632501225379E+03    0.17868E-04   -0.13130E-04 10334   0.289E-02    0.503E-02
RMM:  12    -0.632501223309E+03    0.20701E-05   -0.92245E-05  9636   0.223E-02
  28 F= -.63250122E+03 E0= -.63243144E+03  d E =-.963788E-03
 curvature:  -3.98 expect dE=-0.134E-01 dE for cont linesearch -0.328E-03
 ZBRENT: interpolating
 opt :   2.1139  next Energy=  -632.501413 (dE=-0.115E-02)
 bond charge predicted
       N       E                     dE             d eps       ncg     rms          rms(c)
DAV:   1    -0.632491313244E+03    0.99121E-02   -0.42824E-01 10320   0.368E+00    0.184E-01
RMM:   2    -0.632505378143E+03   -0.14065E-01   -0.10778E-01 13817   0.689E-01    0.954E-01
RMM:   3    -0.632501688897E+03    0.36892E-02   -0.71144E-03 10928   0.306E-01    0.287E-01
RMM:   4    -0.632501821968E+03   -0.13307E-03   -0.26827E-03 11561   0.128E-01    0.258E-01
RMM:   5    -0.632501584356E+03    0.23761E-03   -0.50603E-04  9833   0.738E-02    0.186E-01
RMM:   6    -0.632501415633E+03    0.16872E-03   -0.23353E-04  9281   0.457E-02    0.542E-02
RMM:   7    -0.632501450652E+03   -0.35019E-04   -0.21312E-04 10468   0.343E-02    0.127E-01
RMM:   8    -0.632501387370E+03    0.63282E-04   -0.79714E-05  7740   0.327E-02    0.472E-02
RMM:   9    -0.632501390599E+03   -0.32297E-05   -0.73700E-05  8147   0.238E-02
  29 F= -.63250139E+03 E0= -.63243144E+03  d E =-.113108E-02
 curvature:  -2.30 expect dE=-0.402E-02 dE for cont linesearch -0.491E-05
 trial: gam= 2.20369 g(F)=  0.126E-02 g(S)=  0.491E-03 ort =-0.693E-04 (trialstep = 0.186E+00)
 search vector abs. value=  0.123E-01
 bond charge predicted
       N       E                     dE             d eps       ncg     rms          rms(c)
DAV:   1    -0.632498700179E+03    0.26872E-02   -0.11069E-01 10176   0.192E+00    0.867E-02
RMM:   2    -0.632502223106E+03   -0.35229E-02   -0.30476E-02 13486   0.354E-01    0.361E-01
RMM:   3    -0.632501756819E+03    0.46629E-03   -0.23945E-03  9400   0.148E-01    0.150E-01
RMM:   4    -0.632501782926E+03   -0.26106E-04   -0.60952E-04  9861   0.659E-02    0.125E-01
RMM:   5    -0.632501728910E+03    0.54016E-04   -0.11556E-04  7359   0.369E-02    0.904E-02
RMM:   6    -0.632501692300E+03    0.36609E-04   -0.44587E-05  6431   0.232E-02    0.264E-02
RMM:   7    -0.632501702942E+03   -0.10641E-04   -0.31732E-05  5894   0.182E-02    0.584E-02
RMM:   8    -0.632501686859E+03    0.16083E-04   -0.28301E-05  5811   0.211E-02    0.235E-02
RMM:   9    -0.632501688714E+03   -0.18551E-05   -0.17115E-05  5360   0.151E-02
  30 F= -.63250169E+03 E0= -.63243177E+03  d E =-.298115E-03
 ZBRENT: can't locate minimum, use default step
 trial-energy change:   -0.000298  1 .order   -0.000304   -0.000297   -0.000311
 step:   0.7431(harm=  0.7431)  dis= 0.00710  next Energy=  -632.502695 (dE=-0.130E-02)
 bond charge predicted
       N       E                     dE             d eps       ncg     rms          rms(c)
DAV:   1    -0.632476867893E+03    0.24819E-01   -0.10082E+00 10056   0.582E+00    0.258E-01
RMM:   2    -0.632507589523E+03   -0.30722E-01   -0.26304E-01 13788   0.102E+00    0.111E+00
RMM:   3    -0.632503042662E+03    0.45469E-02   -0.17603E-02 11185   0.437E-01    0.460E-01
RMM:   4    -0.632503283826E+03   -0.24116E-03   -0.61389E-03 11808   0.186E-01    0.362E-01
RMM:   5    -0.632502752373E+03    0.53145E-03   -0.11770E-03 10318   0.102E-01    0.247E-01
RMM:   6    -0.632502518360E+03    0.23401E-03   -0.59389E-04 10636   0.553E-02    0.774E-02
RMM:   7    -0.632502563180E+03   -0.44820E-04   -0.29586E-04 11113   0.393E-02    0.141E-01
RMM:   8    -0.632502492062E+03    0.71118E-04   -0.16545E-04 10036   0.409E-02    0.748E-02
RMM:   9    -0.632502517218E+03   -0.25157E-04   -0.17847E-04 10742   0.351E-02    0.104E-01
RMM:  10    -0.632502465612E+03    0.51606E-04   -0.75394E-05  8728   0.298E-02    0.199E-02
RMM:  11    -0.632502476964E+03   -0.11352E-04   -0.48316E-05  7406   0.197E-02    0.509E-02
RMM:  12    -0.632502466509E+03    0.10455E-04   -0.26161E-05  6017   0.196E-02    0.825E-03
RMM:  13    -0.632502466656E+03   -0.14665E-06   -0.17857E-05  5700   0.136E-02
  31 F= -.63250247E+03 E0= -.63243282E+03  d E =-.107606E-02
 curvature:  -4.40 expect dE=-0.634E-02 dE for cont linesearch -0.438E-03
 ZBRENT: increasing intervall
 opt :   1.8577  next Energy=  -632.503071 (dE=-0.168E-02)
 bond charge predicted
       N       E                     dE             d eps       ncg     rms          rms(c)
DAV:   1    -0.632398869521E+03    0.10360E+00   -0.40409E+00  9936   0.114E+01    0.508E-01
RMM:   2    -0.632514457138E+03   -0.11559E+00   -0.10416E+00 13898   0.204E+00    0.184E+00
RMM:   3    -0.632505721200E+03    0.87359E-02   -0.76313E-02 11380   0.917E-01    0.977E-01
RMM:   4    -0.632507032347E+03   -0.13111E-02   -0.25496E-02 12506   0.378E-01    0.782E-01
RMM:   5    -0.632504547595E+03    0.24848E-02   -0.54264E-03 11405   0.214E-01    0.493E-01
RMM:   6    -0.632503609220E+03    0.93837E-03   -0.26093E-03 11450   0.106E-01    0.153E-01
RMM:   7    -0.632503726854E+03   -0.11763E-03   -0.12233E-03 12538   0.750E-02    0.267E-01
RMM:   8    -0.632503494106E+03    0.23275E-03   -0.65012E-04 11354   0.786E-02    0.157E-01
RMM:   9    -0.632503567899E+03   -0.73793E-04   -0.69542E-04 12621   0.638E-02    0.198E-01
RMM:  10    -0.632503387969E+03    0.17993E-03   -0.29543E-04 10724   0.542E-02    0.425E-02
RMM:  11    -0.632503412084E+03   -0.24116E-04   -0.19152E-04 10551   0.304E-02    0.741E-02
RMM:  12    -0.632503392967E+03    0.19117E-04   -0.90795E-05  9280   0.257E-02    0.187E-02
RMM:  13    -0.632503395070E+03   -0.21028E-05   -0.64471E-05  8210   0.173E-02
  32 F= -.63250340E+03 E0= -.63243428E+03  d E =-.200447E-02
 curvature:  -6.06 expect dE=-0.154E-01 dE for cont linesearch -0.348E-04
 trial: gam= 0.83067 g(F)=  0.167E-02 g(S)=  0.873E-03 ort = 0.266E-03 (trialstep = 0.520E+00)
 search vector abs. value=  0.115E-01
 bond charge predicted
       N       E                     dE             d eps       ncg     rms          rms(c)
DAV:   1    -0.632482013823E+03    0.21379E-01   -0.77795E-01 10056   0.525E+00    0.353E-01
RMM:   2    -0.632512042186E+03   -0.30028E-01   -0.24182E-01 14235   0.109E+00    0.114E+00
RMM:   3    -0.632505632430E+03    0.64098E-02   -0.22643E-02 11187   0.544E-01    0.543E-01
RMM:   4    -0.632505883951E+03   -0.25152E-03   -0.68024E-03 12810   0.209E-01    0.491E-01
RMM:   5    -0.632504690567E+03    0.11934E-02   -0.16792E-03 12136   0.125E-01    0.180E-01
RMM:   6    -0.632504720434E+03   -0.29867E-04   -0.97535E-04 11421   0.643E-02    0.193E-01
RMM:   7    -0.632504603407E+03    0.11703E-03   -0.41588E-04 12208   0.629E-02    0.160E-01
RMM:   8    -0.632504606695E+03   -0.32876E-05   -0.32283E-04 10675   0.555E-02    0.162E-01
RMM:   9    -0.632504489826E+03    0.11687E-03   -0.29380E-04 12660   0.459E-02    0.441E-02
RMM:  10    -0.632504517947E+03   -0.28120E-04   -0.12874E-04 10636   0.351E-02    0.829E-02
RMM:  11    -0.632504493339E+03    0.24608E-04   -0.63919E-05  9104   0.252E-02    0.221E-02
RMM:  12    -0.632504499778E+03   -0.64395E-05   -0.54753E-05  7565   0.191E-02
  33 F= -.63250450E+03 E0= -.63243567E+03  d E =-.110471E-02
 trial-energy change:   -0.001105  1 .order   -0.001072   -0.001438   -0.000707
 step:   1.0235(harm=  1.0235)  dis= 0.00913  next Energy=  -632.504809 (dE=-0.141E-02)
 bond charge predicted
       N       E                     dE             d eps       ncg     rms          rms(c)
DAV:   1    -0.632483763281E+03    0.20730E-01   -0.72913E-01  9984   0.509E+00    0.343E-01
RMM:   2    -0.632512680928E+03   -0.28918E-01   -0.23204E-01 14220   0.105E+00    0.111E+00
RMM:   3    -0.632505939254E+03    0.67417E-02   -0.18457E-02 11149   0.494E-01    0.522E-01
RMM:   4    -0.632506122584E+03   -0.18333E-03   -0.60756E-03 12846   0.189E-01    0.473E-01
RMM:   5    -0.632505005670E+03    0.11169E-02   -0.12878E-03 11949   0.114E-01    0.180E-01
RMM:   6    -0.632505012243E+03   -0.65732E-05   -0.88012E-04 11374   0.610E-02    0.179E-01
RMM:   7    -0.632504936715E+03    0.75528E-04   -0.38514E-04 12234   0.600E-02    0.164E-01
RMM:   8    -0.632504905419E+03    0.31296E-04   -0.29258E-04 10694   0.540E-02    0.139E-01
RMM:   9    -0.632504832969E+03    0.72450E-04   -0.28266E-04 12556   0.438E-02    0.612E-02
RMM:  10    -0.632504833666E+03   -0.69706E-06   -0.11676E-04 10631   0.362E-02    0.547E-02
RMM:  11    -0.632504831395E+03    0.22708E-05   -0.68810E-05  9745   0.230E-02
  34 F= -.63250483E+03 E0= -.63243628E+03  d E =-.143633E-02
 curvature:  -2.13 expect dE=-0.546E-02 dE for cont linesearch -0.142E-05
 trial: gam= 1.20036 g(F)=  0.936E-03 g(S)=  0.163E-02 ort =-0.875E-04 (trialstep = 0.377E+00)
 search vector abs. value=  0.189E-01
 bond charge predicted
       N       E                     dE             d eps       ncg     rms          rms(c)
DAV:   1    -0.632485558988E+03    0.19275E-01   -0.68204E-01 10128   0.490E+00    0.237E-01
RMM:   2    -0.632508907261E+03   -0.23348E-01   -0.20225E-01 14224   0.914E-01    0.919E-01
RMM:   3    -0.632506497987E+03    0.24093E-02   -0.14492E-02 10827   0.416E-01    0.491E-01
RMM:   4    -0.632506365919E+03    0.13207E-03   -0.47508E-03 12221   0.173E-01    0.313E-01
RMM:   5    -0.632505768628E+03    0.59729E-03   -0.95219E-04 10834   0.957E-02    0.121E-01
RMM:   6    -0.632505768973E+03   -0.34460E-06   -0.56921E-04 11071   0.441E-02    0.102E-01
RMM:   7    -0.632505759111E+03    0.98618E-05   -0.22852E-04 10941   0.437E-02    0.110E-01
RMM:   8    -0.632505726522E+03    0.32589E-04   -0.18482E-04 10444   0.383E-02    0.829E-02
RMM:   9    -0.632505709099E+03    0.17423E-04   -0.15600E-04 10762   0.356E-02    0.705E-02
RMM:  10    -0.632505697309E+03    0.11790E-04   -0.69684E-05  9037   0.258E-02    0.382E-02
RMM:  11    -0.632505692237E+03    0.50717E-05   -0.43945E-05  7700   0.178E-02
  35 F= -.63250569E+03 E0= -.63243732E+03  d E =-.860842E-03
 trial-energy change:   -0.000861  1 .order   -0.000810   -0.000928   -0.000693
 step:   1.4905(harm=  1.4905)  dis= 0.01803  next Energy=  -632.506664 (dE=-0.183E-02)
 bond charge predicted
       N       E                     dE             d eps       ncg     rms          rms(c)
DAV:   1    -0.632334114062E+03    0.17158E+00   -0.60118E+00 10272   0.147E+01    0.684E-01
RMM:   2    -0.632520759410E+03   -0.18665E+00   -0.16917E+00 14220   0.267E+00    0.220E+00
RMM:   3    -0.632513223611E+03    0.75358E-02   -0.13449E-01 10870   0.130E+00    0.148E+00
RMM:   4    -0.632512821017E+03    0.40259E-03   -0.42024E-02 13282   0.513E-01    0.101E+00
RMM:   5    -0.632508104727E+03    0.47163E-02   -0.91917E-03 12336   0.282E-01    0.574E-01
RMM:   6    -0.632506945251E+03    0.11595E-02   -0.47573E-03 12437   0.132E-01    0.220E-01
RMM:   7    -0.632506918788E+03    0.26462E-04   -0.19895E-03 13281   0.106E-01    0.290E-01
RMM:   8    -0.632506770923E+03    0.14787E-03   -0.13294E-03 12574   0.995E-02    0.262E-01
RMM:   9    -0.632506694939E+03    0.75984E-04   -0.11937E-03 13212   0.968E-02    0.245E-01
RMM:  10    -0.632506456114E+03    0.23882E-03   -0.60832E-04 11848   0.702E-02    0.847E-02
RMM:  11    -0.632506503594E+03   -0.47480E-04   -0.35758E-04 11447   0.426E-02    0.120E-01
RMM:  12    -0.632506450207E+03    0.53388E-04   -0.17199E-04 10797   0.359E-02    0.316E-02
RMM:  13    -0.632506453548E+03   -0.33410E-05   -0.14003E-04  9858   0.217E-02    0.156E-02
RMM:  14    -0.632506456396E+03   -0.28485E-05   -0.73883E-05  9273   0.200E-02
  36 F= -.63250646E+03 E0= -.63243856E+03  d E =-.162500E-02
 curvature:  -5.74 expect dE=-0.162E-01 dE for cont linesearch -0.142E-03
 ZBRENT: interpolating
 opt :   1.1880  next Energy=  -632.506560 (dE=-0.173E-02)
 bond charge predicted
       N       E                     dE             d eps       ncg     rms          rms(c)
DAV:   1    -0.632494762329E+03    0.11691E-01   -0.44898E-01 10368   0.394E+00    0.193E-01
RMM:   2    -0.632510300379E+03   -0.15538E-01   -0.12054E-01 14083   0.719E-01    0.946E-01
RMM:   3    -0.632506998865E+03    0.33015E-02   -0.94685E-03 10471   0.363E-01    0.370E-01
RMM:   4    -0.632506859857E+03    0.13901E-03   -0.30900E-03 11566   0.146E-01    0.218E-01
RMM:   5    -0.632506566407E+03    0.29345E-03   -0.64193E-04 10041   0.757E-02    0.892E-02
RMM:   6    -0.632506567917E+03   -0.15101E-05   -0.28763E-04 10201   0.359E-02    0.799E-02
RMM:   7    -0.632506525196E+03    0.42721E-04   -0.12152E-04  9490   0.315E-02    0.414E-02
RMM:   8    -0.632506566919E+03   -0.41724E-04   -0.11633E-04  9168   0.319E-02    0.113E-01
RMM:   9    -0.632506510087E+03    0.56833E-04   -0.55629E-05  6675   0.273E-02    0.199E-02
RMM:  10    -0.632506519048E+03   -0.89611E-05   -0.29042E-05  5735   0.197E-02
  37 F= -.63250652E+03 E0= -.63243852E+03  d E =-.168765E-02
 curvature:  -4.18 expect dE=-0.868E-02 dE for cont linesearch -0.221E-05
 trial: gam= 0.51093 g(F)=  0.177E-02 g(S)=  0.306E-03 ort =-0.100E-03 (trialstep = 0.539E+00)
 search vector abs. value=  0.692E-02
 bond charge predicted
       N       E                     dE             d eps       ncg     rms          rms(c)
DAV:   1    -0.632495286756E+03    0.11223E-01   -0.47251E-01  9936   0.399E+00    0.227E-01
RMM:   2    -0.632513105209E+03   -0.17818E-01   -0.12641E-01 14189   0.762E-01    0.115E+00
RMM:   3    -0.632508067426E+03    0.50378E-02   -0.10284E-02 10955   0.394E-01    0.393E-01
RMM:   4    -0.632508002145E+03    0.65282E-04   -0.34005E-03 11767   0.154E-01    0.287E-01
RMM:   5    -0.632507696031E+03    0.30611E-03   -0.85113E-04 10408   0.918E-02    0.217E-01
RMM:   6    -0.632507482235E+03    0.21380E-03   -0.36366E-04 10550   0.508E-02    0.740E-02
RMM:   7    -0.632507527025E+03   -0.44791E-04   -0.25335E-04 11058   0.448E-02    0.147E-01
RMM:   8    -0.632507449668E+03    0.77357E-04   -0.15896E-04 10024   0.401E-02    0.723E-02
RMM:   9    -0.632507436946E+03    0.12722E-04   -0.12807E-04 10328   0.324E-02    0.538E-02
RMM:  10    -0.632507426868E+03    0.10077E-04   -0.57646E-05  7669   0.244E-02    0.232E-02
RMM:  11    -0.632507425775E+03    0.10937E-05   -0.36563E-05  6652   0.177E-02
  38 F= -.63250743E+03 E0= -.63243950E+03  d E =-.906727E-03
 trial-energy change:   -0.000907  1 .order   -0.000869   -0.001094   -0.000644
 step:   1.3127(harm=  1.3127)  dis= 0.01048  next Energy=  -632.507850 (dE=-0.133E-02)
 bond charge predicted
       N       E                     dE             d eps       ncg     rms          rms(c)
DAV:   1    -0.632482815732E+03    0.24611E-01   -0.97128E-01  9936   0.569E+00    0.324E-01
RMM:   2    -0.632518923274E+03   -0.36108E-01   -0.25887E-01 14182   0.109E+00    0.162E+00
RMM:   3    -0.632509124836E+03    0.97984E-02   -0.21451E-02 11113   0.570E-01    0.572E-01
RMM:   4    -0.632508988011E+03    0.13683E-03   -0.72325E-03 12446   0.222E-01    0.406E-01
RMM:   5    -0.632508294391E+03    0.69362E-03   -0.18517E-03 11302   0.131E-01    0.285E-01
RMM:   6    -0.632507956133E+03    0.33826E-03   -0.85772E-04 11081   0.679E-02    0.108E-01
RMM:   7    -0.632507992088E+03   -0.35955E-04   -0.52175E-04 12099   0.600E-02    0.179E-01
RMM:   8    -0.632507911263E+03    0.80825E-04   -0.32542E-04 10757   0.540E-02    0.120E-01
RMM:   9    -0.632507845220E+03    0.66043E-04   -0.24702E-04 11851   0.421E-02    0.269E-02
RMM:  10    -0.632507867582E+03   -0.22362E-04   -0.13107E-04 10085   0.306E-02    0.594E-02
RMM:  11    -0.632507851223E+03    0.16359E-04   -0.56830E-05  8605   0.226E-02    0.155E-02
RMM:  12    -0.632507856934E+03   -0.57101E-05   -0.48687E-05  7610   0.182E-02
  39 F= -.63250786E+03 E0= -.63244010E+03  d E =-.133789E-02
 curvature:  -2.24 expect dE=-0.352E-02 dE for cont linesearch -0.130E-04
 trial: gam= 0.83753 g(F)=  0.775E-03 g(S)=  0.797E-03 ort =-0.200E-03 (trialstep = 0.694E+00)
 search vector abs. value=  0.609E-02
 bond charge predicted
       N       E                     dE             d eps       ncg     rms          rms(c)
DAV:   1    -0.632492386565E+03    0.15465E-01   -0.65539E-01 10392   0.482E+00    0.317E-01
RMM:   2    -0.632516396906E+03   -0.24010E-01   -0.18023E-01 14370   0.974E-01    0.118E+00
RMM:   3    -0.632510234505E+03    0.61624E-02   -0.15284E-02 11347   0.479E-01    0.646E-01
RMM:   4    -0.632509296293E+03    0.93821E-03   -0.52972E-03 12881   0.189E-01    0.344E-01
RMM:   5    -0.632508879502E+03    0.41679E-03   -0.14262E-03 11927   0.113E-01    0.275E-01
RMM:   6    -0.632508601528E+03    0.27797E-03   -0.68731E-04 11169   0.685E-02    0.123E-01
RMM:   7    -0.632508595496E+03    0.60326E-05   -0.44997E-04 12523   0.556E-02    0.158E-01
RMM:   8    -0.632508553667E+03    0.41829E-04   -0.26019E-04 10451   0.569E-02    0.132E-01
RMM:   9    -0.632508524331E+03    0.29335E-04   -0.27710E-04 12147   0.463E-02    0.103E-01
RMM:  10    -0.632508475293E+03    0.49038E-04   -0.11181E-04  9820   0.379E-02    0.291E-02
RMM:  11    -0.632508480527E+03   -0.52335E-05   -0.77298E-05  9275   0.197E-02
  40 F= -.63250848E+03 E0= -.63244086E+03  d E =-.623593E-03
 trial-energy change:   -0.000624  1 .order   -0.000612   -0.000975   -0.000249
 step:   0.9319(harm=  0.9319)  dis= 0.00706  next Energy=  -632.508511 (dE=-0.655E-03)
 bond charge predicted
       N       E                     dE             d eps       ncg     rms          rms(c)
DAV:   1    -0.632506587419E+03    0.18879E-02   -0.76744E-02 10872   0.165E+00    0.112E-01
RMM:   2    -0.632509673628E+03   -0.30862E-02   -0.21624E-02 14127   0.337E-01    0.457E-01
RMM:   3    -0.632508728337E+03    0.94529E-03   -0.18740E-03  9738   0.171E-01    0.223E-01
RMM:   4    -0.632508609716E+03    0.11862E-03   -0.67883E-04 10895   0.713E-02    0.120E-01
RMM:   5    -0.632508592748E+03    0.16968E-04   -0.20667E-04  9884   0.426E-02    0.120E-01
RMM:   6    -0.632508532888E+03    0.59860E-04   -0.93994E-05  8985   0.285E-02    0.366E-02
RMM:   7    -0.632508535403E+03   -0.25153E-05   -0.64314E-05  8521   0.212E-02
  41 F= -.63250854E+03 E0= -.63244096E+03  d E =-.678470E-03
 curvature:  -2.02 expect dE=-0.174E-02 dE for cont linesearch -0.397E-05
 trial: gam= 0.24867 g(F)=  0.659E-03 g(S)=  0.203E-03 ort = 0.109E-03 (trialstep = 0.742E+00)
 search vector abs. value=  0.129E-02
 bond charge predicted
       N       E                     dE             d eps       ncg     rms          rms(c)
DAV:   1    -0.632506107045E+03    0.24258E-02   -0.13627E-01  9456   0.205E+00    0.155E-01
RMM:   2    -0.632510583679E+03   -0.44766E-02   -0.33807E-02 14333   0.488E-01    0.557E-01
RMM:   3    -0.632509334440E+03    0.12492E-02   -0.37578E-03 11398   0.217E-01    0.275E-01
RMM:   4    -0.632509238170E+03    0.96269E-04   -0.11495E-03 11849   0.976E-02    0.199E-01
RMM:   5    -0.632509121266E+03    0.11690E-03   -0.38968E-04 11361   0.644E-02    0.180E-01
RMM:   6    -0.632508995174E+03    0.12609E-03   -0.20308E-04 10466   0.466E-02    0.796E-02
RMM:   7    -0.632508991497E+03    0.36762E-05   -0.18111E-04 11315   0.375E-02    0.934E-02
RMM:   8    -0.632508984299E+03    0.71986E-05   -0.10010E-04  9335   0.389E-02    0.842E-02
RMM:   9    -0.632508957735E+03    0.26564E-04   -0.75927E-05  9579   0.261E-02    0.423E-02
RMM:  10    -0.632508952504E+03    0.52310E-05   -0.46092E-05  7983   0.211E-02
  42 F= -.63250895E+03 E0= -.63244139E+03  d E =-.417100E-03
 trial-energy change:   -0.000417  1 .order   -0.000405   -0.000660   -0.000151
 step:   0.9626(harm=  0.9626)  dis= 0.00223  next Energy=  -632.508963 (dE=-0.428E-03)
 bond charge predicted
       N       E                     dE             d eps       ncg     rms          rms(c)
DAV:   1    -0.632508718291E+03    0.23944E-03   -0.12071E-02 10176   0.613E-01    0.532E-02
RMM:   2    -0.632509376372E+03   -0.65808E-03   -0.32040E-03 13884   0.154E-01    0.281E-01
RMM:   3    -0.632509001214E+03    0.37516E-03   -0.43386E-04  9555   0.770E-02    0.729E-02
RMM:   4    -0.632509001134E+03    0.80778E-07   -0.14482E-04  9828   0.340E-02    0.680E-02
RMM:   5    -0.632509001165E+03   -0.31709E-07   -0.52787E-05  7901   0.254E-02
  43 F= -.63250900E+03 E0= -.63244147E+03  d E =-.465762E-03
 curvature:  -0.70 expect dE=-0.824E-03 dE for cont linesearch -0.443E-05
 trial: gam= 1.16230 g(F)=  0.201E-03 g(S)=  0.976E-03 ort = 0.905E-04 (trialstep = 0.324E+00)
 search vector abs. value=  0.313E-02
 bond charge predicted
       N       E                     dE             d eps       ncg     rms          rms(c)
DAV:   1    -0.632509271620E+03   -0.27049E-03   -0.67745E-02 12024   0.144E+00    0.336E-01
RMM:   2    -0.632523086506E+03   -0.13815E-01   -0.25954E-02 11742   0.633E-01    0.141E+00
RMM:   3    -0.632511014306E+03    0.12072E-01   -0.76005E-03 11164   0.349E-01    0.657E-01
RMM:   4    -0.632509364976E+03    0.16493E-02   -0.17314E-03 11435   0.151E-01    0.232E-01
RMM:   5    -0.632509295659E+03    0.69316E-04   -0.69554E-04 11919   0.844E-02    0.265E-01
RMM:   6    -0.632509019920E+03    0.27574E-03   -0.33228E-04 10069   0.705E-02    0.125E-01
RMM:   7    -0.632508977762E+03    0.42158E-04   -0.31345E-04 12096   0.511E-02    0.123E-01
RMM:   8    -0.632508939105E+03    0.38657E-04   -0.12373E-04  8886   0.456E-02    0.815E-02
RMM:   9    -0.632508910684E+03    0.28421E-04   -0.76513E-05  9335   0.270E-02    0.295E-02
RMM:  10    -0.632508912660E+03   -0.19764E-05   -0.32564E-05  6054   0.219E-02
  44 F= -.63250891E+03 E0= -.63244129E+03  d E =0.885051E-04
 trial-energy change:    0.000089  1 .order   -0.000045   -0.000416    0.000325
 step:   0.1050(harm=  0.1819)  dis= 0.00034  next Energy=  -632.509064 (dE=-0.628E-04)
 bond charge predicted
       N       E                     dE             d eps       ncg     rms          rms(c)
DAV:   1    -0.632509177310E+03   -0.26663E-03   -0.31466E-02 12120   0.984E-01    0.227E-01
RMM:   2    -0.632515796919E+03   -0.66196E-02   -0.12192E-02 11738   0.436E-01    0.993E-01
RMM:   3    -0.632510096394E+03    0.57005E-02   -0.35161E-03 10980   0.236E-01    0.473E-01
RMM:   4    -0.632509196769E+03    0.89963E-03   -0.82389E-04 10455   0.110E-01    0.149E-01
RMM:   5    -0.632509223861E+03   -0.27092E-04   -0.35046E-04 11133   0.612E-02    0.205E-01
RMM:   6    -0.632509036656E+03    0.18721E-03   -0.15505E-04  9011   0.515E-02    0.752E-02
RMM:   7    -0.632509045829E+03   -0.91731E-05   -0.14979E-04 10492   0.366E-02    0.106E-01
RMM:   8    -0.632509000669E+03    0.45160E-04   -0.49748E-05  6371   0.337E-02    0.459E-02
RMM:   9    -0.632509012134E+03   -0.11465E-04   -0.34042E-05  5555   0.242E-02    0.621E-02
RMM:  10    -0.632508994070E+03    0.18064E-04   -0.17751E-05  5329   0.231E-02    0.122E-02
RMM:  11    -0.632508996085E+03   -0.20155E-05   -0.73102E-06  4796   0.110E-02
  45 F= -.63250900E+03 E0= -.63244140E+03  d E =0.507993E-05
 curvature:  -0.16 expect dE=-0.752E-04 dE for cont linesearch -0.173E-06
 trial: gam= 0.31083 g(F)=  0.207E-03 g(S)=  0.271E-03 ort =-0.587E-04 (trialstep = 0.280E+00)
 search vector abs. value=  0.744E-03
 bond charge predicted
       N       E                     dE             d eps       ncg     rms          rms(c)
DAV:   1    -0.632508900551E+03    0.93519E-04   -0.11571E-02 11424   0.643E-01    0.636E-02
RMM:   2    -0.632509522320E+03   -0.62177E-03   -0.31223E-03 13831   0.157E-01    0.269E-01
RMM:   3    -0.632509185112E+03    0.33721E-03   -0.42080E-04  9051   0.795E-02    0.122E-01
RMM:   4    -0.632509136869E+03    0.48243E-04   -0.11864E-04  8873   0.397E-02    0.589E-02
RMM:   5    -0.632509147152E+03   -0.10283E-04   -0.58248E-05  7409   0.276E-02    0.863E-02
RMM:   6    -0.632509111924E+03    0.35228E-04   -0.27023E-05  5496   0.231E-02    0.243E-02
RMM:   7    -0.632509116611E+03   -0.46874E-05   -0.20302E-05  5423   0.184E-02
  46 F= -.63250912E+03 E0= -.63244155E+03  d E =-.120526E-03
 trial-energy change:   -0.000121  1 .order   -0.000112   -0.000129   -0.000095
 step:   1.0659(harm=  1.0659)  dis= 0.00164  next Energy=  -632.509241 (dE=-0.245E-03)
 bond charge predicted
       N       E                     dE             d eps       ncg     rms          rms(c)
DAV:   1    -0.632507670537E+03    0.14414E-02   -0.91487E-02 11280   0.180E+00    0.180E-01
RMM:   2    -0.632512832718E+03   -0.51622E-02   -0.23683E-02 13991   0.423E-01    0.793E-01
RMM:   3    -0.632509802483E+03    0.30302E-02   -0.30831E-03 10891   0.222E-01    0.350E-01
RMM:   4    -0.632509384916E+03    0.41757E-03   -0.10787E-03 11811   0.995E-02    0.154E-01
RMM:   5    -0.632509501473E+03   -0.11656E-03   -0.46169E-04 11405   0.669E-02    0.258E-01
RMM:   6    -0.632509196301E+03    0.30517E-03   -0.22157E-04 10149   0.545E-02    0.628E-02
RMM:   7    -0.632509268800E+03   -0.72499E-04   -0.18957E-04 10936   0.407E-02    0.148E-01
RMM:   8    -0.632509172241E+03    0.96559E-04   -0.95078E-05  9185   0.388E-02    0.368E-02
RMM:   9    -0.632509178852E+03   -0.66111E-05   -0.70236E-05  9287   0.233E-02
  47 F= -.63250918E+03 E0= -.63244160E+03  d E =-.182767E-03
 curvature:  -0.86 expect dE=-0.626E-03 dE for cont linesearch -0.202E-04
 ZBRENT: interpolating
 opt :   0.8456  next Energy=  -632.509193 (dE=-0.197E-03)
 bond charge predicted
       N       E                     dE             d eps       ncg     rms          rms(c)
DAV:   1    -0.632509067896E+03    0.10434E-03   -0.73670E-03 11640   0.509E-01    0.520E-02
RMM:   2    -0.632509476965E+03   -0.40907E-03   -0.19337E-03 13160   0.126E-01    0.222E-01
RMM:   3    -0.632509235473E+03    0.24149E-03   -0.26432E-04  8067   0.654E-02    0.938E-02
RMM:   4    -0.632509206425E+03    0.29048E-04   -0.65154E-05  6676   0.321E-02    0.494E-02
RMM:   5    -0.632509217016E+03   -0.10591E-04   -0.33617E-05  5700   0.251E-02    0.772E-02
RMM:   6    -0.632509188041E+03    0.28975E-04   -0.19665E-05  5387   0.220E-02    0.200E-02
RMM:   7    -0.632509194714E+03   -0.66730E-05   -0.12575E-05  5239   0.154E-02
  48 F= -.63250919E+03 E0= -.63244157E+03  d E =-.198629E-03
 curvature:  -0.62 expect dE=-0.347E-03 dE for cont linesearch -0.280E-05
 trial: gam= 1.01289 g(F)=  0.150E-03 g(S)=  0.408E-03 ort =-0.579E-04 (trialstep = 0.243E+00)
 search vector abs. value=  0.120E-02
 bond charge predicted
       N       E                     dE             d eps       ncg     rms          rms(c)
DAV:   1    -0.632508984469E+03    0.20357E-03   -0.15832E-02 12216   0.809E-01    0.893E-02
RMM:   2    -0.632510190238E+03   -0.12058E-02   -0.47731E-03 12402   0.208E-01    0.355E-01
RMM:   3    -0.632509371786E+03    0.81845E-03   -0.78058E-04  9423   0.107E-01    0.143E-01
RMM:   4    -0.632509311336E+03    0.60450E-04   -0.21074E-04  9925   0.454E-02    0.726E-02
RMM:   5    -0.632509294542E+03    0.16795E-04   -0.68357E-05  7404   0.266E-02    0.631E-02
RMM:   6    -0.632509281591E+03    0.12951E-04   -0.22209E-05  5381   0.220E-02    0.375E-02
RMM:   7    -0.632509282279E+03   -0.68826E-06   -0.20868E-05  5375   0.189E-02
  49 F= -.63250928E+03 E0= -.63244168E+03  d E =-.875652E-04
 trial-energy change:   -0.000088  1 .order   -0.000105   -0.000121   -0.000089
 step:   0.9086(harm=  0.9086)  dis= 0.00229  next Energy=  -632.509422 (dE=-0.227E-03)
 bond charge predicted
       N       E                     dE             d eps       ncg     rms          rms(c)
DAV:   1    -0.632507125641E+03    0.21559E-02   -0.11840E-01 11880   0.221E+00    0.244E-01
RMM:   2    -0.632515507185E+03   -0.83815E-02   -0.35925E-02 12486   0.570E-01    0.892E-01
RMM:   3    -0.632509650713E+03    0.58565E-02   -0.57688E-03 11144   0.294E-01    0.261E-01
RMM:   4    -0.632509693523E+03   -0.42810E-04   -0.17303E-03 12623   0.106E-01    0.255E-01
RMM:   5    -0.632509408834E+03    0.28469E-03   -0.40621E-04 11455   0.679E-02    0.144E-01
RMM:   6    -0.632509365885E+03    0.42949E-04   -0.21497E-04 10394   0.470E-02    0.113E-01
RMM:   7    -0.632509337385E+03    0.28500E-04   -0.17575E-04 11414   0.397E-02    0.103E-01
RMM:   8    -0.632509318740E+03    0.18646E-04   -0.93611E-05  8894   0.391E-02    0.827E-02
RMM:   9    -0.632509311036E+03    0.77041E-05   -0.78997E-05  9306   0.282E-02
  50 F= -.63250931E+03 E0= -.63244175E+03  d E =-.116322E-03
 curvature:  -1.09 expect dE=-0.468E-03 dE for cont linesearch -0.865E-05
 ZBRENT: interpolating
 opt :   0.7686  next Energy=  -632.509318 (dE=-0.123E-03)
 bond charge predicted
       N       E                     dE             d eps       ncg     rms          rms(c)
DAV:   1    -0.632509223458E+03    0.95281E-04   -0.54708E-03 12360   0.472E-01    0.537E-02
RMM:   2    -0.632509656010E+03   -0.43255E-03   -0.16967E-03 11749   0.130E-01    0.217E-01
RMM:   3    -0.632509350472E+03    0.30554E-03   -0.30114E-04  8878   0.668E-02    0.614E-02
RMM:   4    -0.632509346488E+03    0.39847E-05   -0.76231E-05  7773   0.310E-02
  51 F= -.63250935E+03 E0= -.63244180E+03  d E =-.151774E-03
 curvature:  -0.86 expect dE=-0.941E-03 dE for cont linesearch -0.358E-04
 ZBRENT: bisectioning
 opt :   0.5058  next Energy=  -632.509436 (dE=-0.242E-03)
 bond charge predicted
       N       E                     dE             d eps       ncg     rms          rms(c)
DAV:   1    -0.632509031345E+03    0.31913E-03   -0.18578E-02 12072   0.871E-01    0.126E-01
RMM:   2    -0.632512149962E+03   -0.31186E-02   -0.68098E-03 12126   0.266E-01    0.706E-01
RMM:   3    -0.632509746190E+03    0.24038E-02   -0.14711E-03  9902   0.147E-01    0.281E-01
RMM:   4    -0.632509386465E+03    0.35973E-03   -0.36921E-04  9579   0.705E-02    0.767E-02
RMM:   5    -0.632509402159E+03   -0.15694E-04   -0.15919E-04  9507   0.381E-02    0.103E-01
RMM:   6    -0.632509342690E+03    0.59469E-04   -0.54751E-05  6574   0.302E-02    0.368E-02
RMM:   7    -0.632509364337E+03   -0.21647E-04   -0.42721E-05  5963   0.232E-02    0.837E-02
RMM:   8    -0.632509332627E+03    0.31710E-04   -0.29626E-05  5646   0.269E-02    0.198E-02
RMM:   9    -0.632509340180E+03   -0.75536E-05   -0.19232E-05  5269   0.178E-02
  52 F= -.63250934E+03 E0= -.63244182E+03  d E =-.145466E-03
 curvature:  -2.17 expect dE=-0.516E-03 dE for cont linesearch -0.101E-04
 ZBRENT: interpolating
 opt :   0.5717  next Energy=  -632.509343 (dE=-0.148E-03)
 bond charge predicted
       N       E                     dE             d eps       ncg     rms          rms(c)
DAV:   1    -0.632509318356E+03    0.14270E-04   -0.12918E-03 12312   0.227E-01    0.262E-02
RMM:   2    -0.632509404715E+03   -0.86359E-04   -0.36274E-04  9823   0.605E-02    0.992E-02
RMM:   3    -0.632509342721E+03    0.61994E-04   -0.57311E-05  6007   0.354E-02    0.375E-02
RMM:   4    -0.632509339056E+03    0.36646E-05   -0.16662E-05  5290   0.185E-02
  53 F= -.63250934E+03 E0= -.63244179E+03  d E =-.144342E-03
 curvature:  -0.53 expect dE=-0.136E-03 dE for cont linesearch -0.249E-05
 ZBRENT: bisectioning
 opt :   0.6701  next Energy=  -632.509346 (dE=-0.152E-03)
 bond charge predicted
       N       E                     dE             d eps       ncg     rms          rms(c)
DAV:   1    -0.632509290785E+03    0.51936E-04   -0.26386E-03 12048   0.328E-01    0.477E-02
RMM:   2    -0.632509813716E+03   -0.52293E-03   -0.97962E-04 10509   0.100E-01    0.305E-01
RMM:   3    -0.632509390964E+03    0.42275E-03   -0.21718E-04  7596   0.628E-02    0.979E-02
RMM:   4    -0.632509341960E+03    0.49004E-04   -0.49759E-05  6243   0.288E-02    0.297E-02
RMM:   5    -0.632509343971E+03   -0.20115E-05   -0.19462E-05  5436   0.212E-02
  54 F= -.63250934E+03 E0= -.63244177E+03  d E =-.149257E-03
 curvature:  -1.58 expect dE=-0.454E-03 dE for cont linesearch -0.522E-05
 ZBRENT: bisectioning
 opt :   0.7194  next Energy=  -632.509347 (dE=-0.152E-03)
 bond charge predicted
       N       E                     dE             d eps       ncg     rms          rms(c)
DAV:   1    -0.632509324324E+03    0.17636E-04   -0.71935E-04 12912   0.168E-01    0.242E-02
RMM:   2    -0.632509394406E+03   -0.70083E-04   -0.20969E-04  8292   0.456E-02    0.990E-02
RMM:   3    -0.632509339042E+03    0.55364E-04   -0.37343E-05  5659   0.304E-02    0.347E-02
RMM:   4    -0.632509335204E+03    0.38386E-05   -0.12969E-05  5224   0.167E-02
  55 F= -.63250934E+03 E0= -.63244178E+03  d E =-.140490E-03
 curvature:  -0.90 expect dE=-0.239E-03 dE for cont linesearch -0.215E-06
 trial: gam= 0.08585 g(F)=  0.163E-03 g(S)=  0.103E-03 ort = 0.170E-04 (trialstep = 0.338E+00)
 search vector abs. value=  0.278E-03
 bond charge predicted
       N       E                     dE             d eps       ncg     rms          rms(c)
DAV:   1    -0.632509351636E+03   -0.12593E-04   -0.55856E-03 11136   0.363E-01    0.691E-02
RMM:   2    -0.632510041733E+03   -0.69010E-03   -0.14854E-03 11985   0.141E-01    0.340E-01
RMM:   3    -0.632509463179E+03    0.57855E-03   -0.34381E-04  8767   0.751E-02    0.129E-01
RMM:   4    -0.632509396039E+03    0.67140E-04   -0.95701E-05  7824   0.418E-02    0.579E-02
RMM:   5    -0.632509412796E+03   -0.16757E-04   -0.46639E-05  6360   0.260E-02    0.902E-02
RMM:   6    -0.632509374747E+03    0.38049E-04   -0.24978E-05  5433   0.238E-02    0.239E-02
RMM:   7    -0.632509383792E+03   -0.90447E-05   -0.18465E-05  5292   0.173E-02
  56 F= -.63250938E+03 E0= -.63244182E+03  d E =-.485877E-04
 trial-energy change:   -0.000049  1 .order   -0.000067   -0.000091   -0.000043
 step:   0.6427(harm=  0.6427)  dis= 0.00077  next Energy=  -632.509421 (dE=-0.862E-04)
 bond charge predicted
       N       E                     dE             d eps       ncg     rms          rms(c)
DAV:   1    -0.632509356440E+03    0.18307E-04   -0.44890E-03 11592   0.331E-01    0.615E-02
RMM:   2    -0.632509875836E+03   -0.51940E-03   -0.11487E-03 11618   0.125E-01    0.287E-01
RMM:   3    -0.632509441508E+03    0.43433E-03   -0.27856E-04  8376   0.696E-02    0.115E-01
RMM:   4    -0.632509387772E+03    0.53737E-04   -0.77839E-05  7875   0.361E-02    0.423E-02
RMM:   5    -0.632509401910E+03   -0.14138E-04   -0.36127E-05  6307   0.235E-02    0.794E-02
RMM:   6    -0.632509376237E+03    0.25672E-04   -0.20976E-05  5393   0.217E-02    0.226E-02
RMM:   7    -0.632509382602E+03   -0.63650E-05   -0.15567E-05  5290   0.160E-02
  57 F= -.63250938E+03 E0= -.63244185E+03  d E =-.473983E-04
 curvature:  -0.33 expect dE=-0.972E-04 dE for cont linesearch -0.851E-08
 trial: gam= 1.06898 g(F)=  0.612E-04 g(S)=  0.230E-03 ort = 0.266E-05 (trialstep = 0.181E+00)
 search vector abs. value=  0.615E-03
 bond charge predicted
       N       E                     dE             d eps       ncg     rms          rms(c)
DAV:   1    -0.632509397776E+03   -0.21538E-04   -0.35314E-03 10320   0.298E-01    0.490E-02
RMM:   2    -0.632509643667E+03   -0.24589E-03   -0.90492E-04 12469   0.106E-01    0.181E-01
RMM:   3    -0.632509460909E+03    0.18276E-03   -0.18605E-04  8582   0.540E-02    0.871E-02
RMM:   4    -0.632509439749E+03    0.21160E-04   -0.57856E-05  7813   0.314E-02    0.514E-02
RMM:   5    -0.632509436931E+03    0.28180E-05   -0.26544E-05  5865   0.217E-02
  58 F= -.63250944E+03 E0= -.63244188E+03  d E =-.543289E-04
 ZBRENT: can't locate minimum, use default step
 trial-energy change:   -0.000054  1 .order   -0.000052   -0.000053   -0.000050
 step:   0.7229(harm=  3.5601)  dis= 0.00163  next Energy=  -632.509906 (dE=-0.523E-03)
 bond charge predicted
       N       E                     dE             d eps       ncg     rms          rms(c)
DAV:   1    -0.632509274470E+03    0.16528E-03   -0.31518E-02 10008   0.887E-01    0.153E-01
RMM:   2    -0.632511430732E+03   -0.21563E-02   -0.81384E-03 12923   0.318E-01    0.519E-01
RMM:   3    -0.632509725699E+03    0.17050E-02   -0.16850E-03 10842   0.157E-01    0.227E-01
RMM:   4    -0.632509639046E+03    0.86653E-04   -0.52864E-04 11139   0.764E-02    0.179E-01
RMM:   5    -0.632509545682E+03    0.93364E-04   -0.22346E-04 10621   0.512E-02    0.147E-01
RMM:   6    -0.632509472820E+03    0.72862E-04   -0.12492E-04  9242   0.430E-02    0.888E-02
[...]
RMM:   7    -0.632384227139E+03   -0.57760E-01   -0.13489E-03 11337   0.696E-02    0.306E-01
RMM:   8    -0.632512814731E+03   -0.12859E+00   -0.13294E+00 10843   0.848E-02    0.179E-01
RMM:   9    -0.632499493205E+03    0.13322E-01   -0.55822E-02 10520   0.538E-02    0.142E-01
WARNING in EDDRMM: call to ZHEGV failed, returncode =   8  4      7
RMM:  10    -0.632507214451E+03   -0.77212E-02   -0.80082E-02  9829   0.285E-02    0.133E-01
RMM:  11    -0.632508118265E+03   -0.90381E-03   -0.12906E-02  9602   0.268E-02    0.132E-01
RMM:  12    -0.632509738621E+03   -0.16204E-02   -0.16721E-02  8554   0.227E-02    0.108E-01
RMM:  13    -0.632509650092E+03    0.88529E-04   -0.20378E-03  9886   0.260E-02    0.678E-02
RMM:  14    -0.632509928307E+03   -0.27822E-03   -0.32623E-03 10509   0.305E-02    0.273E-02
RMM:  15    -0.632509896496E+03    0.31811E-04   -0.39114E-04  9224   0.221E-02    0.162E-02
RMM:  16    -0.632509940858E+03   -0.44362E-04   -0.52612E-04  5966   0.194E-02    0.623E-03
RMM:  17    -0.632509942016E+03   -0.11575E-05   -0.11117E-04  5469   0.151E-02    0.720E-03
RMM:  18    -0.632509947473E+03   -0.54572E-05   -0.69928E-05  5210   0.130E-02
  74 F= -.63250995E+03 E0= -.63244247E+03  d E =-.146912E-03
 curvature:  -6.50 expect dE=-0.555E-02 dE for cont linesearch -0.218E-03
 ZBRENT: bracketing found
 ZBRENT: interpolating
 opt :   1.9681  next Energy=  -632.510000 (dE=-0.199E-03)
 bond charge predicted
       N       E                     dE             d eps       ncg     rms          rms(c)
DAV:   1    -0.632508575630E+03    0.13664E-02   -0.67125E-02  9432   0.148E+00    0.801E-02
RMM:   2    -0.632510831844E+03   -0.22562E-02   -0.15322E-02 14134   0.302E-01    0.437E-01
RMM:   3    -0.632510100622E+03    0.73122E-03   -0.14502E-03  9852   0.145E-01    0.119E-01
RMM:   4    -0.632510097060E+03    0.35624E-05   -0.40401E-04 10758   0.596E-02    0.929E-02
RMM:   5    -0.632510053420E+03    0.43639E-04   -0.10667E-04  9155   0.351E-02    0.636E-02
RMM:   6    -0.632510040131E+03    0.13289E-04   -0.46879E-05  7442   0.220E-02    0.320E-02
RMM:   7    -0.632510035324E+03    0.48074E-05   -0.40057E-05  7231   0.209E-02
  75 F= -.63251004E+03 E0= -.63244252E+03  d E =-.234763E-03
 curvature:  -1.55 expect dE=-0.969E-03 dE for cont linesearch -0.371E-04
 ZBRENT: bisectioning
 opt :   1.4822  next Energy=  -632.510117 (dE=-0.316E-03)
 bond charge predicted
       N       E                     dE             d eps       ncg     rms          rms(c)
DAV:   1    -0.632508536956E+03    0.15032E-02   -0.69169E-02  9408   0.151E+00    0.920E-02
RMM:   2    -0.632511606961E+03   -0.30700E-02   -0.16491E-02 14184   0.309E-01    0.595E-01
RMM:   3    -0.632510121495E+03    0.14855E-02   -0.16936E-03  9798   0.162E-01    0.122E-01
RMM:   4    -0.632510128467E+03   -0.69721E-05   -0.52885E-04 11375   0.614E-02    0.116E-01
RMM:   5    -0.632510117424E+03    0.11043E-04   -0.15858E-04 10090   0.398E-02    0.112E-01
RMM:   6    -0.632510057641E+03    0.59784E-04   -0.66198E-05  8888   0.277E-02    0.268E-02
RMM:   7    -0.632510083846E+03   -0.26206E-04   -0.65948E-05  8662   0.235E-02    0.790E-02
RMM:   8    -0.632510053570E+03    0.30276E-04   -0.41788E-05  7120   0.233E-02    0.260E-02
RMM:   9    -0.632510053724E+03   -0.15397E-06   -0.23826E-05  6233   0.165E-02
  76 F= -.63251005E+03 E0= -.63244253E+03  d E =-.253163E-03
 curvature:  -3.40 expect dE=-0.926E-03 dE for cont linesearch -0.238E-05
 trial: gam= 1.10428 g(F)=  0.186E-03 g(S)=  0.864E-04 ort =-0.316E-04 (trialstep = 0.377E+00)
 search vector abs. value=  0.194E-02
 bond charge predicted
       N       E                     dE             d eps       ncg     rms          rms(c)
DAV:   1    -0.632508855302E+03    0.11983E-02   -0.59056E-02  9744   0.135E+00    0.581E-02
RMM:   2    -0.632510388559E+03   -0.15333E-02   -0.12965E-02 13428   0.270E-01    0.271E-01
RMM:   3    -0.632510152306E+03    0.23625E-03   -0.10673E-03  9815   0.112E-01    0.613E-02
RMM:   4    -0.632510173490E+03   -0.21184E-04   -0.24451E-04  9547   0.408E-02    0.732E-02
RMM:   5    -0.632510148346E+03    0.25144E-04   -0.46674E-05  6514   0.255E-02    0.247E-02
RMM:   6    -0.632510150719E+03   -0.23732E-05   -0.20688E-05  5616   0.179E-02
  77 F= -.63251015E+03 E0= -.63244265E+03  d E =-.969951E-04
 trial-energy change:   -0.000097  1 .order   -0.000070   -0.000090   -0.000051
 step:   0.8728(harm=  0.8728)  dis= 0.00517  next Energy=  -632.510158 (dE=-0.104E-03)
 bond charge predicted
       N       E                     dE             d eps       ncg     rms          rms(c)
DAV:   1    -0.632507999830E+03    0.21485E-02   -0.10103E-01  9768   0.177E+00    0.787E-02
RMM:   2    -0.632510949216E+03   -0.29494E-02   -0.22489E-02 13827   0.357E-01    0.443E-01
RMM:   3    -0.632510233529E+03    0.71569E-03   -0.19475E-03 10670   0.153E-01    0.811E-02
RMM:   4    -0.632510323160E+03   -0.89631E-04   -0.57022E-04 11184   0.589E-02    0.137E-01
RMM:   5    -0.632510234836E+03    0.88324E-04   -0.12420E-04  8952   0.389E-02    0.417E-02
RMM:   6    -0.632510235673E+03   -0.83644E-06   -0.72733E-05  8624   0.215E-02
  78 F= -.63251024E+03 E0= -.63244277E+03  d E =-.181949E-03
 curvature:  -3.56 expect dE=-0.713E-03 dE for cont linesearch -0.890E-05
 ZBRENT: increasing intervall
 opt :   1.8635  next Energy=  -632.510240 (dE=-0.186E-03)
 bond charge predicted
       N       E                     dE             d eps       ncg     rms          rms(c)
DAV:   1    -0.632501376163E+03    0.88587E-02   -0.40392E-01  9744   0.353E+00    0.158E-01
RMM:   2    -0.632512957494E+03   -0.11581E-01   -0.91328E-02 13984   0.721E-01    0.818E-01
RMM:   3    -0.632510401516E+03    0.25560E-02   -0.79052E-03 11964   0.292E-01    0.205E-01
RMM:   4    -0.632510640272E+03   -0.23876E-03   -0.21495E-03 12079   0.116E-01    0.245E-01
RMM:   5    -0.632510353106E+03    0.28717E-03   -0.49142E-04 10981   0.716E-02    0.103E-01
RMM:   6    -0.632510327596E+03    0.25510E-04   -0.30072E-04 10888   0.385E-02    0.682E-02
RMM:   7    -0.632510353418E+03   -0.25822E-04   -0.15286E-04 10599   0.349E-02    0.106E-01
RMM:   8    -0.632510298052E+03    0.55366E-04   -0.14156E-04 10186   0.368E-02    0.480E-02
RMM:   9    -0.632510318310E+03   -0.20258E-04   -0.88617E-05  9524   0.276E-02    0.811E-02
RMM:  10    -0.632510290545E+03    0.27765E-04   -0.45950E-05  7874   0.237E-02    0.122E-02
RMM:  11    -0.632510293106E+03   -0.25601E-05   -0.30882E-05  6941   0.158E-02
  79 F= -.63251029E+03 E0= -.63244291E+03  d E =-.239381E-03
 curvature:  -1.70 expect dE=-0.542E-03 dE for cont linesearch -0.326E-07
 trial: gam= 0.90663 g(F)=  0.244E-03 g(S)=  0.735E-04 ort =-0.609E-05 (trialstep = 0.675E+00)
 search vector abs. value=  0.190E-02
 bond charge predicted
       N       E                     dE             d eps       ncg     rms          rms(c)
DAV:   1    -0.632506570858E+03    0.37197E-02   -0.18226E-01  9744   0.228E+00    0.148E-01
RMM:   2    -0.632512946974E+03   -0.63761E-02   -0.41719E-02 14405   0.470E-01    0.702E-01
RMM:   3    -0.632510880491E+03    0.20665E-02   -0.40667E-03 10612   0.248E-01    0.314E-01
RMM:   4    -0.632510583729E+03    0.29676E-03   -0.12263E-03 11647   0.993E-02    0.135E-01
RMM:   5    -0.632510489282E+03    0.94447E-04   -0.34440E-04 11374   0.527E-02    0.848E-02
RMM:   6    -0.632510475892E+03    0.13390E-04   -0.14508E-04 10655   0.330E-02    0.630E-02
RMM:   7    -0.632510473706E+03    0.21851E-05   -0.96483E-05 10114   0.299E-02
  80 F= -.63251047E+03 E0= -.63244309E+03  d E =-.180601E-03
 trial-energy change:   -0.000181  1 .order   -0.000161   -0.000211   -0.000111
 step:   1.4246(harm=  1.4246)  dis= 0.00862  next Energy=  -632.510516 (dE=-0.222E-03)
 bond charge predicted
       N       E                     dE             d eps       ncg     rms          rms(c)
DAV:   1    -0.632505691760E+03    0.47841E-02   -0.22405E-01  9744   0.254E+00    0.171E-01
RMM:   2    -0.632514293154E+03   -0.86014E-02   -0.51813E-02 14381   0.527E-01    0.870E-01
RMM:   3    -0.632510949477E+03    0.33437E-02   -0.52129E-03 10741   0.277E-01    0.339E-01
RMM:   4    -0.632510601202E+03    0.34828E-03   -0.16274E-03 11881   0.110E-01    0.155E-01
RMM:   5    -0.632510617237E+03   -0.16035E-04   -0.51017E-04 11420   0.647E-02    0.192E-01
RMM:   6    -0.632510459918E+03    0.15732E-03   -0.18681E-04 10372   0.438E-02    0.551E-02
RMM:   7    -0.632510521269E+03   -0.61351E-04   -0.18227E-04 10667   0.360E-02    0.125E-01
RMM:   8    -0.632510436470E+03    0.84799E-04   -0.14977E-04 10737   0.389E-02    0.374E-02
RMM:   9    -0.632510454040E+03   -0.17570E-04   -0.79684E-05  9845   0.266E-02    0.685E-02
RMM:  10    -0.632510433383E+03    0.20657E-04   -0.35703E-05  6681   0.221E-02    0.955E-03
RMM:  11    -0.632510433574E+03   -0.19096E-06   -0.27663E-05  6132   0.180E-02
  81 F= -.63251043E+03 E0= -.63244306E+03  d E =-.140469E-03
 curvature:  -4.33 expect dE=-0.175E-02 dE for cont linesearch -0.573E-04
 ZBRENT: interpolating
 opt :   1.0565  next Energy=  -632.510463 (dE=-0.170E-03)
 bond charge predicted
       N       E                     dE             d eps       ncg     rms          rms(c)
DAV:   1    -0.632509331630E+03    0.11018E-02   -0.54384E-02  9744   0.125E+00    0.830E-02
RMM:   2    -0.632511344857E+03   -0.20132E-02   -0.12388E-02 14104   0.259E-01    0.416E-01
RMM:   3    -0.632510584254E+03    0.76060E-03   -0.12164E-03  9358   0.140E-01    0.160E-01
RMM:   4    -0.632510510130E+03    0.74124E-04   -0.35052E-04 10413   0.577E-02    0.830E-02
RMM:   5    -0.632510506503E+03    0.36274E-05   -0.10520E-04  7945   0.327E-02    0.897E-02
RMM:   6    -0.632510465644E+03    0.40859E-04   -0.30464E-05  5613   0.240E-02    0.251E-02
RMM:   7    -0.632510467751E+03   -0.21071E-05   -0.27223E-05  5644   0.191E-02
  82 F= -.63251047E+03 E0= -.63244308E+03  d E =-.174645E-03
 curvature:  -2.21 expect dE=-0.888E-03 dE for cont linesearch -0.149E-04
 ZBRENT: bisectioning
 opt :   0.8656  next Energy=  -632.510487 (dE=-0.194E-03)
 bond charge predicted
       N       E                     dE             d eps       ncg     rms          rms(c)
DAV:   1    -0.632510156566E+03    0.30908E-03   -0.14476E-02  9840   0.648E-01    0.502E-02
RMM:   2    -0.632510922684E+03   -0.76612E-03   -0.34092E-03 13188   0.138E-01    0.308E-01
RMM:   3    -0.632510488973E+03    0.43371E-03   -0.40069E-04  8077   0.840E-02    0.867E-02
RMM:   4    -0.632510461636E+03    0.27338E-04   -0.11793E-04  8536   0.331E-02    0.408E-02
RMM:   5    -0.632510469841E+03   -0.82048E-05   -0.41640E-05  6532   0.220E-02
  83 F= -.63251047E+03 E0= -.63244306E+03  d E =-.176735E-03
 curvature:  -2.87 expect dE=-0.251E-02 dE for cont linesearch -0.132E-05
 trial: gam= 3.05151 g(F)=  0.139E-03 g(S)=  0.734E-03 ort = 0.295E-04 (trialstep = 0.722E-01)
 search vector abs. value=  0.188E-01
 bond charge predicted
       N       E                     dE             d eps       ncg     rms          rms(c)
DAV:   1    -0.632510018540E+03    0.44310E-03   -0.21154E-02  9744   0.787E-01    0.430E-02
RMM:   2    -0.632510568855E+03   -0.55031E-03   -0.46827E-03 13091   0.158E-01    0.162E-01
RMM:   3    -0.632510489652E+03    0.79203E-04   -0.39091E-04  8168   0.773E-02    0.621E-02
RMM:   4    -0.632510502074E+03   -0.12422E-04   -0.10610E-04  7163   0.350E-02    0.637E-02
RMM:   5    -0.632510482406E+03    0.19668E-04   -0.26308E-05  5510   0.231E-02    0.352E-02
RMM:   6    -0.632510477197E+03    0.52085E-05   -0.10163E-05  5119   0.150E-02
  84 F= -.63251048E+03 E0= -.63244310E+03  d E =-.735670E-05
 trial-energy change:   -0.000007  1 .order   -0.000030   -0.000070    0.000009
 step:   0.0636(harm=  0.0636)  dis= 0.00121  next Energy=  -632.510500 (dE=-0.306E-04)
 bond charge predicted
       N       E                     dE             d eps       ncg     rms          rms(c)
DAV:   1    -0.632510470215E+03    0.12191E-04   -0.31466E-04 10920   0.976E-02    0.163E-02
RMM:   2    -0.632510555942E+03   -0.85726E-04   -0.99015E-05  6929   0.294E-02    0.133E-01
RMM:   3    -0.632510475737E+03    0.80205E-04   -0.25493E-05  5481   0.244E-02    0.105E-02
RMM:   4    -0.632510476669E+03   -0.93276E-06   -0.57038E-06  4534   0.959E-03
  85 F= -.63251048E+03 E0= -.63244309E+03  d E =-.682873E-05
 curvature:  -0.62 expect dE=-0.152E-03 dE for cont linesearch -0.174E-04
 ZBRENT: interpolating
 opt :   0.0709  next Energy=  -632.510477 (dE=-0.744E-05)
 bond charge predicted
       N       E                     dE             d eps       ncg     rms          rms(c)
DAV:   1    -0.632510473576E+03    0.21610E-05   -0.20950E-04 10728   0.817E-02    0.914E-03
RMM:   2    -0.632510503942E+03   -0.30366E-04   -0.45548E-05  5730   0.203E-02    0.777E-02
RMM:   3    -0.632510478425E+03    0.25517E-04   -0.13929E-05  5177   0.198E-02    0.128E-02
RMM:   4    -0.632510477631E+03    0.79395E-06   -0.31385E-06  4155   0.720E-03
  86 F= -.63251048E+03 E0= -.63244310E+03  d E =-.779003E-05
 curvature:  -0.00 expect dE=-0.525E-06 dE for cont linesearch -0.334E-08
 ZBRENT: bisectioning
 opt :   0.0673  next Energy=  -632.510478 (dE=-0.838E-05)
 bond charge predicted
       N       E                     dE             d eps       ncg     rms          rms(c)
DAV:   1    -0.632510476197E+03    0.22280E-05   -0.49726E-05  8376   0.414E-02    0.699E-03
RMM:   2    -0.632510491808E+03   -0.15611E-04   -0.14150E-05  5372   0.144E-02    0.554E-02
RMM:   3    -0.632510477416E+03    0.14392E-04   -0.63408E-06  4518   0.137E-02    0.776E-03
RMM:   4    -0.632510477140E+03    0.27580E-06   -0.16662E-06  4012   0.447E-03
  87 F= -.63251048E+03 E0= -.63244310E+03  d E =-.729937E-05
 curvature:  -0.54 expect dE=-0.935E-04 dE for cont linesearch -0.693E-05
 ZBRENT: interpolating
 opt :   0.0701  next Energy=  -632.510478 (dE=-0.785E-05)
 bond charge predicted
       N       E                     dE             d eps       ncg     rms          rms(c)
DAV:   1    -0.632510477349E+03    0.66822E-07   -0.29535E-05  7872   0.316E-02    0.622E-03
RMM:   2    -0.632510492577E+03   -0.15228E-04   -0.10385E-05  5029   0.120E-02    0.577E-02
RMM:   3    -0.632510478483E+03    0.14094E-04   -0.49830E-06  4059   0.119E-02    0.852E-03
RMM:   4    -0.632510478000E+03    0.48276E-06   -0.11234E-06  3575   0.383E-03
  88 F= -.63251048E+03 E0= -.63244310E+03  d E =-.815982E-05
 curvature:  -0.00 expect dE=-0.709E-06 dE for cont linesearch -0.261E-09
 ZBRENT: interpolating
 opt :   0.0703  next Energy=  -632.510478 (dE=-0.816E-05)
 bond charge predicted
       N       E                     dE             d eps       ncg     rms          rms(c)
DAV:   1    -0.632510478059E+03    0.42425E-06   -0.12494E-06  5376   0.573E-03    0.326E-03
RMM:   2    -0.632510481614E+03   -0.35547E-05   -0.18571E-06  3791   0.611E-03
  89 F= -.63251048E+03 E0= -.63244312E+03  d E =-.117730E-04
 curvature:  -0.04 expect dE=-0.494E-05 dE for cont linesearch -0.440E-09
 trial: gam=-0.01985 g(F)=  0.974E-04 g(S)=  0.152E-04 ort =-0.137E-04 (trialstep = 0.719E-01)
 search vector abs. value=  0.121E-03
 bond charge predicted
       N       E                     dE             d eps       ncg     rms          rms(c)
DAV:   1    -0.632510483351E+03   -0.52916E-05   -0.13222E-04 11904   0.661E-02    0.450E-03
RMM:   2    -0.632510487186E+03   -0.38358E-05   -0.20171E-05  4968   0.144E-02
  90 F= -.63251049E+03 E0= -.63244311E+03  d E =-.557276E-05
 trial-energy change:   -0.000006  1 .order   -0.000007   -0.000008   -0.000005
 step:   0.2060(harm=  0.2060)  dis= 0.00011  next Energy=  -632.510493 (dE=-0.116E-04)
 bond charge predicted
       N       E                     dE             d eps       ncg     rms          rms(c)
DAV:   1    -0.632510490476E+03   -0.71254E-05   -0.48071E-04 12240   0.119E-01    0.983E-03
RMM:   2    -0.632510504077E+03   -0.13601E-04   -0.89112E-05  7141   0.268E-02    0.340E-02
RMM:   3    -0.632510498405E+03    0.56713E-05   -0.13183E-05  4663   0.224E-02
  91 F= -.63251050E+03 E0= -.63244313E+03  d E =-.167919E-04
 curvature:  -0.11 expect dE=-0.106E-04 dE for cont linesearch -0.401E-05
 ZBRENT: increasing intervall
 opt :   0.4743  next Energy=  -632.510514 (dE=-0.326E-04)
 bond charge predicted
       N       E                     dE             d eps       ncg     rms          rms(c)
DAV:   1    -0.632510485601E+03    0.18476E-04   -0.17498E-03 10200   0.234E-01    0.221E-02
RMM:   2    -0.632510578092E+03   -0.92491E-04   -0.43415E-04 11852   0.574E-02    0.102E-01
RMM:   3    -0.632510525290E+03    0.52802E-04   -0.53392E-05  5946   0.370E-02    0.408E-02
RMM:   4    -0.632510519487E+03    0.58027E-05   -0.16582E-05  5291   0.181E-02
  92 F= -.63251052E+03 E0= -.63244314E+03  d E =-.378738E-04
 curvature:  -0.43 expect dE=-0.753E-04 dE for cont linesearch -0.549E-05
 ZBRENT: increasing intervall
 opt :   1.0110  next Energy=  -632.510526 (dE=-0.442E-04)
 bond charge predicted
       N       E                     dE             d eps       ncg     rms          rms(c)
DAV:   1    -0.632510405118E+03    0.12017E-03   -0.68300E-03  9744   0.467E-01    0.536E-02
RMM:   2    -0.632511318750E+03   -0.91363E-03   -0.20314E-03 13389   0.128E-01    0.414E-01
RMM:   3    -0.632510568281E+03    0.75047E-03   -0.34407E-04  8257   0.776E-02    0.682E-02
RMM:   4    -0.632510550331E+03    0.17950E-04   -0.95022E-05  8525   0.317E-02    0.481E-02
RMM:   5    -0.632510554451E+03   -0.41206E-05   -0.38722E-05  6619   0.216E-02
  93 F= -.63251055E+03 E0= -.63244315E+03  d E =-.728378E-04
 curvature:  -0.50 expect dE=-0.315E-03 dE for cont linesearch -0.123E-05
 trial: gam= 5.32602 g(F)=  0.610E-04 g(S)=  0.570E-03 ort = 0.172E-04 (trialstep = 0.739E-02)
 search vector abs. value=  0.423E-02
 bond charge predicted
       N       E                     dE             d eps       ncg     rms          rms(c)
DAV:   1    -0.632510540011E+03    0.10320E-04   -0.12864E-04 12768   0.555E-02    0.146E-02
RMM:   2    -0.632510563736E+03   -0.23725E-04   -0.25245E-05  5513   0.199E-02    0.762E-02
RMM:   3    -0.632510539089E+03    0.24647E-04   -0.13119E-05  5279   0.197E-02    0.132E-02
RMM:   4    -0.632510539247E+03   -0.15756E-06   -0.50820E-06  4540   0.854E-03
  94 F= -.63251054E+03 E0= -.63244316E+03  d E =0.152047E-04
 trial-energy change:    0.000015  1 .order   -0.000004   -0.000005   -0.000003
 step:   0.0198(harm=  0.0198)  dis= 0.00006  next Energy=  -632.510562 (dE=-0.716E-05)
 bond charge predicted
       N       E                     dE             d eps       ncg     rms          rms(c)
DAV:   1    -0.632510537794E+03    0.12950E-05   -0.12167E-04 11832   0.606E-02    0.126E-02
RMM:   2    -0.632510563368E+03   -0.25574E-04   -0.33410E-05  5726   0.224E-02    0.703E-02
RMM:   3    -0.632510539834E+03    0.23535E-04   -0.14097E-05  5260   0.224E-02    0.169E-02
RMM:   4    -0.632510539360E+03    0.47389E-06   -0.44382E-06  4437   0.827E-03
  95 F= -.63251054E+03 E0= -.63244317E+03  d E =0.150918E-04
 curvature:  -0.06 expect dE=-0.567E-05 dE for cont linesearch -0.285E-06
 ZBRENT: extrapolating
 opt :   0.0256  next Energy=  -632.510540 (dE= 0.147E-04)
 bond charge predicted
       N       E                     dE             d eps       ncg     rms          rms(c)
DAV:   1    -0.632510538221E+03    0.16129E-05   -0.34885E-05  8424   0.339E-02    0.153E-02
RMM:   2    -0.632510613398E+03   -0.75177E-04   -0.45812E-05  6100   0.270E-02    0.127E-01
RMM:   3    -0.632510542130E+03    0.71268E-04   -0.20644E-05  5423   0.221E-02    0.243E-02
RMM:   4    -0.632510538391E+03    0.37387E-05   -0.37957E-06  4137   0.776E-03
  96 F= -.63251054E+03 E0= -.63244317E+03  d E =0.160606E-04
 curvature:  -0.09 expect dE=-0.576E-05 dE for cont linesearch -0.215E-07
 trial: gam=-0.06742 g(F)=  0.481E-04 g(S)=  0.196E-04 ort =-0.327E-04 (trialstep = 0.110E-01)
 search vector abs. value=  0.914E-04
 reached required accuracy - stopping structural energy minimisation
