<?xml version="1.0" encoding="ISO-8859-1"?>
<modeling>
 <generator>
  <i name="program" type="string">vasp </i>
  <i name="version" type="string">5.4.4.18Apr17-6-g9f103f2a35  </i>
  <i name="subversion" type="string">(build Oct 18 2021 20:38:43) complex            parallel </i>
  <i name="platform" type="string">LinuxIFC </i>
  <i name="date" type="string">2024 06 24 </i>
  <i name="time" type="string">10:47:08 </i>
 </generator>
 <incar>
  <i type="string" name="SYSTEM">HECN</i>
  <i type="int" name="ISTART">     0</i>
  <i type="string" name="PREC">normal</i>
  <i type="string" name="ALGO">Fast</i>
  <i type="int" name="ICHARG">     2</i>
  <i type="int" name="NELM">    60</i>
  <i type="int" name="IBRION">     2</i>
  <i name="EDIFF">      0.00001000</i>
  <i name="EDIFFG">     -0.01000000</i>
  <i type="int" name="NSW">   100</i>
  <i type="int" name="ISIF">     3</i>
  <i name="ENCUT">    400.00000000</i>
  <i name="POTIM">      0.50000000</i>
  <i type="logical" name="LREAL"> F  </i>
  <i type="int" name="ISMEAR">     0</i>
  <i name="SIGMA">      0.10000000</i>
  <i type="logical" name="LWAVE"> F  </i>
  <i type="logical" name="LCHARG"> F  </i>
  <v type="int" name="KPOINT_BSE">    -1     0     0     0</v>
  <i type="int" name="NELM">    60</i>
 </incar>
 <structure name="primitive_cell" >
  <crystal>
   <varray name="basis" >
    <v>       8.88806300       0.01574986      -0.00807610 </v>
    <v>       0.02196032       8.89905901      -0.01238645 </v>
    <v>       0.02394101      -0.02775689       8.91754266 </v>
   </varray>
   <i name="volume">    705.33215903 </i>
   <varray name="rec_basis" >
    <v>       0.11251067      -0.00027807      -0.00030292 </v>
    <v>      -0.00019881       0.11237241       0.00035031 </v>
    <v>       0.00010162       0.00015583       0.11213873 </v>
   </varray>
  </crystal>
  <varray name="positions" >
   <v>       0.00365034      -0.00694934      -0.00092493 </v>
   <v>       0.00374569      -0.25741501       0.00167107 </v>
   <v>      -0.00189895      -0.00289507       0.25210134 </v>
   <v>      -0.00043722       0.00319949      -0.25499300 </v>
   <v>      -0.00172824       0.24827182      -0.00046678 </v>
   <v>       0.26092021       0.00123641      -0.00640697 </v>
   <v>      -0.25951630       0.00418348       0.00181554 </v>
   <v>       0.00077877      -0.24281222      -0.25032049 </v>
   <v>       0.25232987      -0.24958582      -0.00018286 </v>
   <v>       0.00786589      -0.24694437       0.25144074 </v>
   <v>      -0.00279283       0.24555891      -0.24293197 </v>
   <v>      -0.00058699       0.24596874       0.24343934 </v>
   <v>      -0.27187324      -0.01837580      -0.22227771 </v>
   <v>      -0.25785050      -0.24601208       0.00654330 </v>
   <v>       0.25938122       0.23941233      -0.00808733 </v>
   <v>       0.24271224       0.00253587      -0.26604342 </v>
   <v>      -0.25877752       0.24649318       0.00072971 </v>
   <v>       0.27131110      -0.00134328       0.24951536 </v>
   <v>      -0.26680636      -0.00788342       0.25440472 </v>
   <v>       0.24634033      -0.24005254      -0.24829334 </v>
   <v>      -0.25173957      -0.23969461      -0.24737126 </v>
   <v>       0.24874524       0.24033460      -0.25073882 </v>
   <v>       0.25554878      -0.25159057       0.24824516 </v>
   <v>       0.25344811       0.24637312       0.24540247 </v>
   <v>      -0.24807970       0.24558138      -0.24676297 </v>
   <v>      -0.25565560      -0.24652572       0.25376996 </v>
   <v>      -0.25410870       0.24505222       0.24763117 </v>
   <v>       0.00219865      -0.48111202      -0.01289521 </v>
   <v>      -0.48402003       0.01286280      -0.02829161 </v>
   <v>       0.01738246       0.00009472       0.49997857 </v>
   <v>       0.49512448      -0.23618489       0.00667258 </v>
   <v>      -0.00349477      -0.49810691      -0.23835079 </v>
   <v>       0.23903627      -0.49991982      -0.00151014 </v>
   <v>       0.00106464      -0.24380137       0.49739874 </v>
   <v>       0.25970319      -0.00029514      -0.49180576 </v>
   <v>      -0.23969081       0.49538173       0.00262821 </v>
   <v>      -0.48750931       0.00506264       0.25854232 </v>
   <v>      -0.00471325       0.49666216       0.24431175 </v>
   <v>      -0.49749489       0.23889547       0.00439335 </v>
   <v>      -0.49220506       0.00179791      -0.25492256 </v>
   <v>      -0.25340433      -0.00008683       0.49626378 </v>
   <v>       0.00309894       0.24475181       0.49988902 </v>
   <v>       0.49459260      -0.24002527      -0.25121406 </v>
   <v>      -0.25093998      -0.48720280      -0.24684025 </v>
   <v>       0.24863369      -0.49981238      -0.24825119 </v>
   <v>       0.25308674      -0.24641945       0.49958376 </v>
   <v>      -0.25344342      -0.24169701       0.49416373 </v>
   <v>       0.24812915       0.49615969       0.24796613 </v>
   <v>      -0.25295219      -0.49386419       0.25250693 </v>
   <v>       0.25487537       0.24596311      -0.49384521 </v>
   <v>      -0.49828122       0.24443732      -0.25351862 </v>
   <v>      -0.25270905       0.24077578       0.49941327 </v>
   <v>      -0.49627375       0.25776475       0.24994260 </v>
   <v>       0.49761588      -0.27220176       0.25990185 </v>
   <v>       0.48239244      -0.01153258      -0.48725720 </v>
   <v>       0.49832573       0.49961321       0.00084482 </v>
   <v>       0.00010624       0.49974505      -0.49465360 </v>
   <v>       0.49545010      -0.23844523       0.48745476 </v>
   <v>      -0.49809704      -0.49802539      -0.25397749 </v>
   <v>       0.49804549       0.24500242       0.49157516 </v>
   <v>       0.25491157       0.49733677      -0.49964935 </v>
   <v>      -0.25449004      -0.49803982      -0.49964650 </v>
   <v>      -0.49735884       0.49711540       0.25355902 </v>
   <v>       0.49837863      -0.48877182       0.49873132 </v>
  </varray>
 </structure>
 <varray name="primitive_index" >
  <v type="int" >        1 </v>
  <v type="int" >       38 </v>
  <v type="int" >       34 </v>
  <v type="int" >       29 </v>
  <v type="int" >       23 </v>
  <v type="int" >       22 </v>
  <v type="int" >       25 </v>
  <v type="int" >       12 </v>
  <v type="int" >       18 </v>
  <v type="int" >       59 </v>
  <v type="int" >       10 </v>
  <v type="int" >        8 </v>
  <v type="int" >       58 </v>
  <v type="int" >        9 </v>
  <v type="int" >       14 </v>
  <v type="int" >       56 </v>
  <v type="int" >       17 </v>
  <v type="int" >        2 </v>
  <v type="int" >       16 </v>
  <v type="int" >       45 </v>
  <v type="int" >       49 </v>
  <v type="int" >       42 </v>
  <v type="int" >       36 </v>
  <v type="int" >       21 </v>
  <v type="int" >       30 </v>
  <v type="int" >       39 </v>
  <v type="int" >       24 </v>
  <v type="int" >       54 </v>
  <v type="int" >       53 </v>
  <v type="int" >       61 </v>
  <v type="int" >       28 </v>
  <v type="int" >       48 </v>
  <v type="int" >       37 </v>
  <v type="int" >       47 </v>
  <v type="int" >       43 </v>
  <v type="int" >       40 </v>
  <v type="int" >       26 </v>
  <v type="int" >       27 </v>
  <v type="int" >       35 </v>
  <v type="int" >       33 </v>
  <v type="int" >       31 </v>
  <v type="int" >       44 </v>
  <v type="int" >        7 </v>
  <v type="int" >       63 </v>
  <v type="int" >       13 </v>
  <v type="int" >       20 </v>
  <v type="int" >       64 </v>
  <v type="int" >        3 </v>
  <v type="int" >       60 </v>
  <v type="int" >       19 </v>
  <v type="int" >        5 </v>
  <v type="int" >       11 </v>
  <v type="int" >       15 </v>
  <v type="int" >       55 </v>
  <v type="int" >       57 </v>
  <v type="int" >        4 </v>
  <v type="int" >        6 </v>
  <v type="int" >       51 </v>
  <v type="int" >       52 </v>
  <v type="int" >       32 </v>
  <v type="int" >       46 </v>
  <v type="int" >       50 </v>
  <v type="int" >       41 </v>
  <v type="int" >       62 </v>
 </varray>
 <kpoints>
  <generation param="Gamma">
   <v type="int" name="divisions">       3        3        3 </v>
   <v name="usershift">      0.00000000       0.00000000       0.00000000 </v>
   <v name="genvec1">      0.33333333      -0.00000000       0.00000000 </v>
   <v name="genvec2">     -0.00000000       0.33333333       0.00000000 </v>
   <v name="genvec3">     -0.00000000      -0.00000000       0.33333333 </v>
   <v name="shift">      0.00000000       0.00000000       0.00000000 </v>
  </generation>
  <varray name="kpointlist" >
   <v>       0.00000000       0.00000000       0.00000000 </v>
   <v>       0.33333333       0.00000000       0.00000000 </v>
   <v>       0.00000000       0.33333333       0.00000000 </v>
   <v>       0.33333333       0.33333333      -0.00000000 </v>
   <v>      -0.33333333       0.33333333       0.00000000 </v>
   <v>      -0.00000000      -0.00000000       0.33333333 </v>
   <v>       0.33333333       0.00000000       0.33333333 </v>
   <v>      -0.33333333      -0.00000000       0.33333333 </v>
   <v>       0.00000000       0.33333333       0.33333333 </v>
   <v>       0.33333333       0.33333333       0.33333333 </v>
   <v>      -0.33333333       0.33333333       0.33333333 </v>
   <v>      -0.00000000      -0.33333333       0.33333333 </v>
   <v>       0.33333333      -0.33333333       0.33333333 </v>
   <v>      -0.33333333      -0.33333333       0.33333333 </v>
  </varray>
  <varray name="weights" >
   <v>       0.03703704 </v>
   <v>       0.07407407 </v>
   <v>       0.07407407 </v>
   <v>       0.07407407 </v>
   <v>       0.07407407 </v>
   <v>       0.07407407 </v>
   <v>       0.07407407 </v>
   <v>       0.07407407 </v>
   <v>       0.07407407 </v>
   <v>       0.07407407 </v>
   <v>       0.07407407 </v>
   <v>       0.07407407 </v>
   <v>       0.07407407 </v>
   <v>       0.07407407 </v>
  </varray>
 </kpoints>
 <parameters>
  <separator name="general" >
   <i type="string" name="SYSTEM">HECN</i>
   <i type="logical" name="LCOMPAT"> F  </i>
  </separator>
  <separator name="electronic" >
   <i type="string" name="PREC">normal</i>
   <i name="ENMAX">    400.00000000</i>
   <i name="ENAUG">    644.87300000</i>
   <i name="EDIFF">      0.00001000</i>
   <i type="int" name="IALGO">    68</i>
   <i type="int" name="IWAVPR">    11</i>
   <i type="int" name="NBANDS">   312</i>
   <i name="NELECT">    519.00000000</i>
   <i type="int" name="TURBO">     0</i>
   <i type="int" name="IRESTART">     0</i>
   <i type="int" name="NREBOOT">     0</i>
   <i type="int" name="NMIN">     0</i>
   <i name="EREF">      0.00000000</i>
   <separator name="electronic smearing" >
    <i type="int" name="ISMEAR">     0</i>
    <i name="SIGMA">      0.10000000</i>
    <i name="KSPACING">      0.50000000</i>
    <i type="logical" name="KGAMMA"> T  </i>
   </separator>
   <separator name="electronic projectors" >
    <i type="logical" name="LREAL"> F  </i>
    <v name="ROPT">      0.00000000      0.00000000      0.00000000      0.00000000      0.00000000      0.00000000      0.00000000</v>
    <i type="int" name="LMAXPAW">  -100</i>
    <i type="int" name="LMAXMIX">     2</i>
    <i type="logical" name="NLSPLINE"> F  </i>
   </separator>
   <separator name="electronic startup" >
    <i type="int" name="ISTART">     0</i>
    <i type="int" name="ICHARG">     2</i>
    <i type="int" name="INIWAV">     1</i>
   </separator>
   <separator name="electronic spin" >
    <i type="int" name="ISPIN">     1</i>
    <i type="logical" name="LNONCOLLINEAR"> F  </i>
    <v name="MAGMOM">      1.00000000      1.00000000      1.00000000      1.00000000      1.00000000      1.00000000      1.00000000      1.00000000      1.00000000      1.00000000      1.00000000      1.00000000      1.00000000      1.00000000      1.00000000      1.00000000      1.00000000      1.00000000      1.00000000      1.00000000
      1.00000000      1.00000000      1.00000000      1.00000000      1.00000000      1.00000000      1.00000000      1.00000000      1.00000000      1.00000000      1.00000000      1.00000000      1.00000000      1.00000000      1.00000000      1.00000000      1.00000000      1.00000000      1.00000000      1.00000000
      1.00000000      1.00000000      1.00000000      1.00000000      1.00000000      1.00000000      1.00000000      1.00000000      1.00000000      1.00000000      1.00000000      1.00000000      1.00000000      1.00000000      1.00000000      1.00000000      1.00000000      1.00000000      1.00000000      1.00000000
      1.00000000      1.00000000      1.00000000      1.00000000</v>
    <i name="NUPDOWN">     -1.00000000</i>
    <i type="logical" name="LSORBIT"> F  </i>
    <v name="SAXIS">      0.00000000      0.00000000      1.00000000</v>
    <i type="logical" name="LSPIRAL"> F  </i>
    <v name="QSPIRAL">      0.00000000      0.00000000      0.00000000</v>
    <i type="logical" name="LZEROZ"> F  </i>
   </separator>
   <separator name="electronic exchange-correlation" >
    <i type="logical" name="LASPH"> F  </i>
    <i type="logical" name="LMETAGGA"> F  </i>
   </separator>
   <separator name="electronic convergence" >
    <i type="int" name="NELM">    60</i>
    <i type="int" name="NELMDL">    -5</i>
    <i type="int" name="NELMIN">     2</i>
    <i name="ENINI">    400.00000000</i>
    <separator name="electronic convergence detail" >
     <i type="logical" name="LDIAG"> T  </i>
     <i type="logical" name="LSUBROT"> F  </i>
     <i name="WEIMIN">      0.00100000</i>
     <i name="EBREAK">      0.00000001</i>
     <i name="DEPER">      0.30000000</i>
     <i type="int" name="NRMM">     4</i>
     <i name="TIME">      0.40000000</i>
    </separator>
   </separator>
   <separator name="electronic mixer" >
    <i name="AMIX">      0.40000000</i>
    <i name="BMIX">      1.00000000</i>
    <i name="AMIN">      0.10000000</i>
    <i name="AMIX_MAG">      1.60000000</i>
    <i name="BMIX_MAG">      1.00000000</i>
    <separator name="electronic mixer details" >
     <i type="int" name="IMIX">     4</i>
     <i type="logical" name="MIXFIRST"> F  </i>
     <i type="int" name="MAXMIX">   -45</i>
     <i name="WC">    100.00000000</i>
     <i type="int" name="INIMIX">     1</i>
     <i type="int" name="MIXPRE">     1</i>
     <i type="int" name="MREMOVE">     5</i>
    </separator>
   </separator>
   <separator name="electronic dipolcorrection" >
    <i type="logical" name="LDIPOL"> F  </i>
    <i type="logical" name="LMONO"> F  </i>
    <i type="int" name="IDIPOL">     0</i>
    <i name="EPSILON">      1.00000000</i>
    <v name="DIPOL">   -100.00000000   -100.00000000   -100.00000000</v>
    <i name="EFIELD">      0.00000000</i>
   </separator>
  </separator>
  <separator name="grids" >
   <i type="int" name="NGX">    48</i>
   <i type="int" name="NGY">    48</i>
   <i type="int" name="NGZ">    48</i>
   <i type="int" name="NGXF">    96</i>
   <i type="int" name="NGYF">    96</i>
   <i type="int" name="NGZF">    96</i>
   <i type="logical" name="ADDGRID"> F  </i>
  </separator>
  <separator name="ionic" >
   <i type="int" name="NSW">   100</i>
   <i type="int" name="IBRION">     2</i>
   <i type="int" name="MDALGO">     0</i>
   <i type="int" name="ISIF">     3</i>
   <i name="PSTRESS">      0.00000000</i>
   <i name="EDIFFG">     -0.01000000</i>
   <i type="int" name="NFREE">     1</i>
   <i name="POTIM">      0.50000000</i>
   <i name="SMASS">     -3.00000000</i>
   <i name="SCALEE">      1.00000000</i>
  </separator>
  <separator name="ionic md" >
   <i name="TEBEG">      0.00010000</i>
   <i name="TEEND">      0.00010000</i>
   <i type="int" name="NBLOCK">     1</i>
   <i type="int" name="KBLOCK">   100</i>
   <i type="int" name="NPACO">   256</i>
   <i name="APACO">     16.00000000</i>
  </separator>
  <separator name="symmetry" >
   <i type="int" name="ISYM">     2</i>
   <i name="SYMPREC">      0.00001000</i>
  </separator>
  <separator name="dos" >
   <i type="int" name="LORBIT">     0</i>
   <v name="RWIGS">     -1.00000000     -1.00000000     -1.00000000     -1.00000000     -1.00000000     -1.00000000     -1.00000000</v>
   <i type="int" name="NEDOS">   301</i>
   <i name="EMIN">     10.00000000</i>
   <i name="EMAX">    -10.00000000</i>
   <i name="EFERMI">      0.00000000</i>
  </separator>
  <separator name="writing" >
   <i type="int" name="NWRITE">     2</i>
   <i type="logical" name="LWAVE"> F  </i>
   <i type="logical" name="LDOWNSAMPLE"> F  </i>
   <i type="logical" name="LCHARG"> F  </i>
   <i type="logical" name="LPARD"> F  </i>
   <i type="logical" name="LVTOT"> F  </i>
   <i type="logical" name="LVHAR"> F  </i>
   <i type="logical" name="LELF"> F  </i>
   <i type="logical" name="LOPTICS"> F  </i>
   <v name="STM">      0.00000000      0.00000000      0.00000000      0.00000000      0.00000000      0.00000000      0.00000000</v>
  </separator>
  <separator name="performance" >
   <i type="int" name="NPAR">    24</i>
   <i type="int" name="NSIM">     4</i>
   <i type="int" name="NBLK">    -1</i>
   <i type="logical" name="LPLANE"> T  </i>
   <i type="logical" name="LSCALAPACK"> T  </i>
   <i type="logical" name="LSCAAWARE"> F  </i>
   <i type="logical" name="LSCALU"> F  </i>
   <i type="logical" name="LASYNC"> F  </i>
   <i type="logical" name="LORBITALREAL"> F  </i>
  </separator>
  <separator name="miscellaneous" >
   <i type="int" name="IDIOT">     3</i>
   <i type="int" name="ISPECIAL">     0</i>
   <i type="logical" name="LMUSIC"> F  </i>
   <v name="POMASS">     91.22400000    178.49000000     47.88000000     14.00100000     12.01100000     51.99600000     92.91000000</v>
   <v name="DARWINR">      0.00000000      0.00000000      0.00000000      0.00000000      0.00000000      0.00000000      0.00000000</v>
   <v name="DARWINV">      1.00000000      1.00000000      1.00000000      1.00000000      1.00000000      1.00000000      1.00000000</v>
   <i type="logical" name="LCORR"> T  </i>
  </separator>
  <i type="logical" name="GGA_COMPAT"> T  </i>
  <i type="logical" name="LBERRY"> F  </i>
  <i type="int" name="ICORELEVEL">     0</i>
  <i type="logical" name="LDAU"> F  </i>
  <i type="int" name="I_CONSTRAINED_M">     0</i>
  <separator name="electronic exchange-correlation" >
   <i type="string" name="GGA">--</i>
   <i type="int" name="VOSKOWN">     0</i>
   <i type="logical" name="LHFCALC"> F  </i>
   <i type="string" name="PRECFOCK"></i>
   <i type="logical" name="LSYMGRAD"> F  </i>
   <i type="logical" name="LHFONE"> F  </i>
   <i type="logical" name="LRHFCALC"> F  </i>
   <i type="logical" name="LTHOMAS"> F  </i>
   <i type="logical" name="LMODELHF"> F  </i>
   <i name="ENCUT4O">     -1.00000000</i>
   <i type="int" name="EXXOEP">     0</i>
   <i type="int" name="FOURORBIT">     0</i>
   <i name="AEXX">      0.00000000</i>
   <i name="HFALPHA">      0.00000000</i>
   <i name="MCALPHA">      0.00000000</i>
   <i name="ALDAX">      1.00000000</i>
   <i name="AGGAX">      1.00000000</i>
   <i name="ALDAC">      1.00000000</i>
   <i name="AGGAC">      1.00000000</i>
   <i type="int" name="NKREDX">     1</i>
   <i type="int" name="NKREDY">     1</i>
   <i type="int" name="NKREDZ">     1</i>
   <i type="logical" name="SHIFTRED"> F  </i>
   <i type="logical" name="ODDONLY"> F  </i>
   <i type="logical" name="EVENONLY"> F  </i>
   <i type="int" name="LMAXFOCK">     0</i>
   <i type="int" name="NMAXFOCKAE">     0</i>
   <i type="logical" name="LFOCKAEDFT"> F  </i>
   <i name="HFSCREEN">      0.00000000</i>
   <i name="HFSCREENC">      0.00000000</i>
   <i type="int" name="NBANDSGWLOW">     0</i>
  </separator>
  <separator name="vdW DFT" >
   <i type="logical" name="LUSE_VDW"> F  </i>
   <i name="Zab_VDW">     -0.84910000</i>
   <i name="PARAM1">      0.12340000</i>
   <i name="PARAM2">      1.00000000</i>
   <i name="PARAM3">      0.00000000</i>
  </separator>
  <separator name="model GW" >
   <i type="int" name="MODEL_GW">     0</i>
   <i name="MODEL_EPS0">      6.61248899</i>
   <i name="MODEL_ALPHA">      1.00000000</i>
  </separator>
  <separator name="linear response parameters" >
   <i type="logical" name="LEPSILON"> F  </i>
   <i type="logical" name="LRPA"> F  </i>
   <i type="logical" name="LNABLA"> F  </i>
   <i type="logical" name="LVEL"> F  </i>
   <i type="int" name="KINTER">     0</i>
   <i name="CSHIFT">      0.10000000</i>
   <i name="OMEGAMAX">     -1.00000000</i>
   <i name="DEG_THRESHOLD">      0.00200000</i>
   <i name="RTIME">     -0.10000000</i>
   <i name="WPLASMAI">      0.00000000</i>
   <v name="DFIELD">      0.00000000      0.00000000      0.00000000</v>
   <v name="WPLASMA">      0.00000000      0.00000000      0.00000000      0.00000000      0.00000000      0.00000000      0.00000000      0.00000000      0.00000000</v>
  </separator>
  <separator name="orbital magnetization" >
   <i type="logical" name="NUCIND"> F  </i>
   <v name="MAGPOS">      0.00000000      0.00000000      0.00000000</v>
   <i type="logical" name="LNICSALL"> T  </i>
   <i type="logical" name="ORBITALMAG"> F  </i>
   <i type="logical" name="LMAGBLOCH"> F  </i>
   <i type="logical" name="LCHIMAG"> F  </i>
   <i type="logical" name="LGAUGE"> T  </i>
   <i type="int" name="MAGATOM">     0</i>
   <v name="MAGDIPOL">      0.00000000      0.00000000      0.00000000</v>
   <v name="AVECCONST">      0.00000000      0.00000000      0.00000000</v>
  </separator>
  <separator name="response functions" >
   <i type="logical" name="LADDER"> F  </i>
   <i type="logical" name="LRPAFORCE"> F  </i>
   <i type="logical" name="LFXC"> F  </i>
   <i type="logical" name="LHARTREE"> T  </i>
   <i type="int" name="IBSE">     0</i>
   <v type="int" name="KPOINT">    -1     0     0     0</v>
   <i type="logical" name="LTCTE"> F  </i>
   <i type="logical" name="LTETE"> F  </i>
   <i type="logical" name="LTRIPLET"> F  </i>
   <i type="logical" name="LFXCEPS"> F  </i>
   <i type="logical" name="LFXHEG"> F  </i>
   <i type="int" name="NATURALO">     2</i>
   <i type="logical" name="L2ORDER"> F  </i>
   <i type="logical" name="LMP2LT"> F  </i>
   <i type="logical" name="LUSEW"> F  </i>
   <i name="ENCUTGW">     -2.00000000</i>
   <i name="ENCUTGWSOFT">     -2.00000000</i>
   <i name="ENCUTLF">     -1.00000000</i>
   <i type="int" name="LMAXMP2">    -1</i>
   <i name="SCISSOR">      0.00000000</i>
   <i type="int" name="NOMEGA">     0</i>
   <i type="int" name="NOMEGAR">     0</i>
   <i type="int" name="NBANDSGW">    -1</i>
   <i type="int" name="NBANDSO">    -1</i>
   <i type="int" name="NBANDSV">    -1</i>
   <i type="int" name="NELM">    60</i>
   <i type="int" name="NELMHF">     1</i>
   <i type="int" name="DIM">     3</i>
   <i type="int" name="ANTIRES">     0</i>
   <i name="OMEGAMAX">    -30.00000000</i>
   <i name="OMEGAMIN">    -30.00000000</i>
   <i name="OMEGATL">   -200.00000000</i>
   <i type="int" name="OMEGAGRID">   140</i>
   <i name="CSHIFT">     -0.10000000</i>
   <i type="logical" name="SELFENERGY"> F  </i>
   <i type="logical" name="LSPECTRAL"> F  </i>
   <i type="logical" name="LSPECTRALGW"> F  </i>
   <i type="logical" name="LSINGLES"> F  </i>
   <i type="logical" name="LFERMIGW"> F  </i>
   <i type="logical" name="ODDONLYGW"> F  </i>
   <i type="logical" name="EVENONLYGW"> F  </i>
   <i type="int" name="NKREDLFX">     1</i>
   <i type="int" name="NKREDLFY">     1</i>
   <i type="int" name="NKREDLFZ">     1</i>
   <i type="int" name="MAXMEM">  2800</i>
   <i type="int" name="TELESCOPE">     0</i>
   <i type="int" name="TAUPAR">     1</i>
   <i type="int" name="OMEGAPAR">    -1</i>
   <i name="LAMBDA">      1.00000000</i>
  </separator>
  <separator name="External order field" >
   <i name="OFIELD_KAPPA">      0.00000000</i>
   <v name="OFIELD_K">      0.00000000      0.00000000      0.00000000</v>
   <i name="OFIELD_Q6_NEAR">      0.00000000</i>
   <i name="OFIELD_Q6_FAR">      0.00000000</i>
   <i name="OFIELD_A">      0.00000000</i>
  </separator>
 </parameters>
 <atominfo>
  <atoms>      64 </atoms>
  <types>       7 </types>
  <array name="atoms" >
   <dimension dim="1">ion</dimension>
   <field type="string">element</field>
   <field type="int">atomtype</field>
   <set>
    <rc><c>Zr</c><c>   1</c></rc>
    <rc><c>Zr</c><c>   1</c></rc>
    <rc><c>Zr</c><c>   1</c></rc>
    <rc><c>Zr</c><c>   1</c></rc>
    <rc><c>Zr</c><c>   1</c></rc>
    <rc><c>Zr</c><c>   1</c></rc>
    <rc><c>Zr</c><c>   1</c></rc>
    <rc><c>Hf</c><c>   2</c></rc>
    <rc><c>Hf</c><c>   2</c></rc>
    <rc><c>Hf</c><c>   2</c></rc>
    <rc><c>Hf</c><c>   2</c></rc>
    <rc><c>Hf</c><c>   2</c></rc>
    <rc><c>Hf</c><c>   2</c></rc>
    <rc><c>Ti</c><c>   3</c></rc>
    <rc><c>Ti</c><c>   3</c></rc>
    <rc><c>Ti</c><c>   3</c></rc>
    <rc><c>Ti</c><c>   3</c></rc>
    <rc><c>Ti</c><c>   3</c></rc>
    <rc><c>Ti</c><c>   3</c></rc>
    <rc><c>Ti</c><c>   3</c></rc>
    <rc><c>N </c><c>   4</c></rc>
    <rc><c>N </c><c>   4</c></rc>
    <rc><c>N </c><c>   4</c></rc>
    <rc><c>N </c><c>   4</c></rc>
    <rc><c>N </c><c>   4</c></rc>
    <rc><c>N </c><c>   4</c></rc>
    <rc><c>N </c><c>   4</c></rc>
    <rc><c>N </c><c>   4</c></rc>
    <rc><c>N </c><c>   4</c></rc>
    <rc><c>N </c><c>   4</c></rc>
    <rc><c>N </c><c>   4</c></rc>
    <rc><c>N </c><c>   4</c></rc>
    <rc><c>N </c><c>   4</c></rc>
    <rc><c>C </c><c>   5</c></rc>
    <rc><c>C </c><c>   5</c></rc>
    <rc><c>C </c><c>   5</c></rc>
    <rc><c>C </c><c>   5</c></rc>
    <rc><c>C </c><c>   5</c></rc>
    <rc><c>C </c><c>   5</c></rc>
    <rc><c>C </c><c>   5</c></rc>
    <rc><c>C </c><c>   5</c></rc>
    <rc><c>C </c><c>   5</c></rc>
    <rc><c>C </c><c>   5</c></rc>
    <rc><c>C </c><c>   5</c></rc>
    <rc><c>C </c><c>   5</c></rc>
    <rc><c>C </c><c>   5</c></rc>
    <rc><c>C </c><c>   5</c></rc>
    <rc><c>C </c><c>   5</c></rc>
    <rc><c>C </c><c>   5</c></rc>
    <rc><c>C </c><c>   5</c></rc>
    <rc><c>C </c><c>   5</c></rc>
    <rc><c>C </c><c>   5</c></rc>
    <rc><c>Cr</c><c>   6</c></rc>
    <rc><c>Cr</c><c>   6</c></rc>
    <rc><c>Cr</c><c>   6</c></rc>
    <rc><c>Cr</c><c>   6</c></rc>
    <rc><c>Cr</c><c>   6</c></rc>
    <rc><c>Cr</c><c>   6</c></rc>
    <rc><c>Nb</c><c>   7</c></rc>
    <rc><c>Nb</c><c>   7</c></rc>
    <rc><c>Nb</c><c>   7</c></rc>
    <rc><c>Nb</c><c>   7</c></rc>
    <rc><c>Nb</c><c>   7</c></rc>
    <rc><c>Nb</c><c>   7</c></rc>
   </set>
  </array>
  <array name="atomtypes" >
   <dimension dim="1">type</dimension>
   <field type="int">atomspertype</field>
   <field type="string">element</field>
   <field>mass</field>
   <field>valence</field>
   <field type="string">pseudopotential</field>
   <set>
    <rc><c>   7</c><c>Zr</c><c>     91.22400000</c><c>     12.00000000</c><c> PAW_PBE Zr_sv 07Sep2000                </c></rc>
    <rc><c>   6</c><c>Hf</c><c>    178.49000000</c><c>     10.00000000</c><c> PAW_PBE Hf_pv 06Sep2000                </c></rc>
    <rc><c>   7</c><c>Ti</c><c>     47.88000000</c><c>     12.00000000</c><c> PAW_PBE Ti_sv 07Sep2000                </c></rc>
    <rc><c>  13</c><c>N </c><c>     14.00100000</c><c>      5.00000000</c><c> PAW_PBE N 08Apr2002                    </c></rc>
    <rc><c>  19</c><c>C </c><c>     12.01100000</c><c>      4.00000000</c><c> PAW_PBE C 08Apr2002                    </c></rc>
    <rc><c>   6</c><c>Cr</c><c>     51.99600000</c><c>     12.00000000</c><c> PAW_PBE Cr_pv 07Sep2000                </c></rc>
    <rc><c>   6</c><c>Nb</c><c>     92.91000000</c><c>     13.00000000</c><c> PAW_PBE Nb_sv 17Jan2003                </c></rc>
   </set>
  </array>
 </atominfo>
 <structure name="initialpos" >
  <crystal>
   <varray name="basis" >
    <v>       8.88806300       0.01574986      -0.00807610 </v>
    <v>       0.02196032       8.89905901      -0.01238645 </v>
    <v>       0.02394101      -0.02775689       8.91754266 </v>
   </varray>
   <i name="volume">    705.33215903 </i>
   <varray name="rec_basis" >
    <v>       0.11251067      -0.00027807      -0.00030292 </v>
    <v>      -0.00019881       0.11237241       0.00035031 </v>
    <v>       0.00010162       0.00015583       0.11213873 </v>
   </varray>
  </crystal>
  <varray name="positions" >
   <v>       0.00365034       0.99305066       0.99907507 </v>
   <v>       0.27131110       0.99865672       0.24951536 </v>
   <v>       0.24812915       0.49615969       0.24796613 </v>
   <v>       0.49832573       0.49961321       0.00084482 </v>
   <v>       0.50171878       0.24443732       0.74648138 </v>
   <v>       0.00010624       0.49974505       0.50534640 </v>
   <v>       0.49459260       0.75997473       0.74878594 </v>
   <v>       0.99941301       0.24596874       0.24343934 </v>
   <v>       0.74214950       0.75398792       0.00654330 </v>
   <v>       0.99720717       0.24555891       0.75706803 </v>
   <v>       0.74729095       0.24077578       0.49941327 </v>
   <v>       0.00077877       0.75718778       0.74967951 </v>
   <v>       0.24863369       0.50018762       0.75174881 </v>
   <v>       0.25938122       0.23941233       0.99191267 </v>
   <v>       0.50372625       0.25776475       0.24994260 </v>
   <v>       0.73319364       0.99211658       0.25440472 </v>
   <v>       0.74122248       0.24649318       0.00072971 </v>
   <v>       0.25232987       0.75041418       0.99981714 </v>
   <v>       0.25487537       0.24596311       0.50615479 </v>
   <v>       0.25308674       0.75358055       0.49958376 </v>
   <v>       0.25344811       0.24637312       0.24540247 </v>
   <v>       0.26092021       0.00123641       0.99359303 </v>
   <v>       0.99827176       0.24827182       0.99953322 </v>
   <v>       0.74589130       0.24505222       0.24763117 </v>
   <v>       0.74048370       0.00418348       0.00181554 </v>
   <v>       0.51249069       0.00506264       0.25854232 </v>
   <v>       0.99528675       0.49666216       0.24431175 </v>
   <v>       0.49512448       0.76381511       0.00667258 </v>
   <v>       0.99956278       0.00319949       0.74500700 </v>
   <v>       0.75192030       0.24558138       0.75323703 </v>
   <v>       0.74659567       0.99991317       0.49626378 </v>
   <v>       0.49804549       0.24500242       0.49157516 </v>
   <v>       0.50779494       0.00179791       0.74507744 </v>
   <v>       0.99810105       0.99710493       0.25210134 </v>
   <v>       0.50250511       0.23889547       0.00439335 </v>
   <v>       0.25554878       0.74840943       0.24824516 </v>
   <v>       0.23903627       0.50008018       0.99848986 </v>
   <v>       0.00374569       0.74258499       0.00167107 </v>
   <v>       0.74434440       0.75347428       0.25376996 </v>
   <v>       0.76030919       0.49538173       0.00262821 </v>
   <v>       0.50264116       0.49711540       0.25355902 </v>
   <v>       0.24874524       0.24033460       0.74926118 </v>
   <v>       0.25970319       0.99970486       0.50819424 </v>
   <v>       0.00309894       0.24475181       0.49988902 </v>
   <v>       0.24634033       0.75994746       0.75170666 </v>
   <v>       0.25491157       0.49733677       0.50035065 </v>
   <v>       0.00106464       0.75619863       0.49739874 </v>
   <v>       0.99650523       0.50189309       0.76164921 </v>
   <v>       0.74826043       0.76030539       0.75262874 </v>
   <v>       0.74550996       0.50196018       0.50035350 </v>
   <v>       0.49545010       0.76155477       0.48745476 </v>
   <v>       0.50190296       0.50197461       0.74602251 </v>
   <v>       0.51597997       0.01286280       0.97170839 </v>
   <v>       0.00219865       0.51888798       0.98710479 </v>
   <v>       0.49761588       0.72779824       0.25990185 </v>
   <v>       0.24271224       0.00253587       0.73395658 </v>
   <v>       0.48239244       0.98846742       0.51274280 </v>
   <v>       0.72812676       0.98162420       0.77772229 </v>
   <v>       0.00786589       0.75305563       0.25144074 </v>
   <v>       0.74704781       0.50613581       0.25250693 </v>
   <v>       0.01738246       0.00009472       0.49997857 </v>
   <v>       0.49837863       0.51122818       0.49873132 </v>
   <v>       0.74906002       0.51279720       0.75315975 </v>
   <v>       0.74655658       0.75830299       0.49416373 </v>
  </varray>
 </structure>
 <calculation>
  <scstep>
   <time name="dav">   20.99   21.05</time>
   <time name="total">   21.03   21.10</time>
   <energy>
    <i name="alphaZ">   4179.29868789 </i>
    <i name="ewald"> -43413.63472641 </i>
    <i name="hartreedc">  -9044.10943278 </i>
    <i name="XCdc">   2119.49530052 </i>
    <i name="pawpsdc">  31948.49540927 </i>
    <i name="pawaedc"> -31822.89062213 </i>
    <i name="eentropy">     -0.07350024 </i>
    <i name="bandstr">   2323.67038219 </i>
    <i name="atom">  50703.69597113 </i>
    <i name="e_fr_energy">   6993.94746944 </i>
    <i name="e_wo_entrp">   6994.02096968 </i>
    <i name="e_0_energy">   6993.98421956 </i>
   </energy>
  </scstep>
  <scstep>
   <time name="dav">   21.65   21.70</time>
   <time name="total">   21.65   21.70</time>
   <energy>
    <i name="e_fr_energy">    602.71217428 </i>
    <i name="e_wo_entrp">    602.82556709 </i>
    <i name="e_0_energy">    602.76887069 </i>
   </energy>
  </scstep>
  <scstep>
   <time name="dav">   32.50   32.58</time>
   <time name="total">   32.50   32.59</time>
   <energy>
    <i name="e_fr_energy">   -597.00968277 </i>
    <i name="e_wo_entrp">   -596.92440672 </i>
    <i name="e_0_energy">   -596.96704474 </i>
   </energy>
  </scstep>
  <scstep>
   <time name="dav">   35.17   35.23</time>
   <time name="total">   35.17   35.23</time>
   <energy>
    <i name="e_fr_energy">   -764.38492731 </i>
    <i name="e_wo_entrp">   -764.30842238 </i>
    <i name="e_0_energy">   -764.34667485 </i>
   </energy>
  </scstep>
  <scstep>
   <time name="dav">   38.78   38.80</time>
   <time name="total">   39.04   39.07</time>
   <energy>
    <i name="e_fr_energy">   -785.49451223 </i>
    <i name="e_wo_entrp">   -785.41283962 </i>
    <i name="e_0_energy">   -785.45367593 </i>
   </energy>
  </scstep>
  <scstep>
   <time name="diag">    1.83    1.83</time>
   <time name="diis">   19.85   19.90</time>
   <time name="orth">    0.43    0.43</time>
   <time name="total">   22.41   22.46</time>
   <energy>
    <i name="e_fr_energy">   -908.20249017 </i>
    <i name="e_wo_entrp">   -907.98012225 </i>
    <i name="e_0_energy">   -908.09130621 </i>
   </energy>
  </scstep>
  <scstep>
   <time name="diag">    1.84    1.84</time>
   <time name="diis">   23.00   23.18</time>
   <time name="orth">    0.43    0.43</time>
   <time name="total">   25.57   25.75</time>
   <energy>
    <i name="e_fr_energy">   -641.05106692 </i>
    <i name="e_wo_entrp">   -640.93632242 </i>
    <i name="e_0_energy">   -640.99369467 </i>
   </energy>
  </scstep>
  <scstep>
   <time name="diag">    1.84    1.84</time>
   <time name="diis">   22.41   22.44</time>
   <time name="orth">    0.43    0.43</time>
   <time name="total">   24.98   25.01</time>
   <energy>
    <i name="e_fr_energy">   -636.38616112 </i>
    <i name="e_wo_entrp">   -636.25683119 </i>
    <i name="e_0_energy">   -636.32149615 </i>
   </energy>
  </scstep>
  <scstep>
   <time name="diag">    1.84    1.84</time>
   <time name="diis">   23.72   23.74</time>
   <time name="orth">    0.43    0.43</time>
   <time name="total">   26.28   26.31</time>
   <energy>
    <i name="e_fr_energy">   -635.82564044 </i>
    <i name="e_wo_entrp">   -635.69555313 </i>
    <i name="e_0_energy">   -635.76059678 </i>
   </energy>
  </scstep>
  <scstep>
   <time name="diag">    1.83    1.83</time>
   <time name="diis">   23.53   23.58</time>
   <time name="orth">    0.43    0.43</time>
   <time name="total">   26.08   26.14</time>
   <energy>
    <i name="e_fr_energy">   -633.09721083 </i>
    <i name="e_wo_entrp">   -632.97339433 </i>
    <i name="e_0_energy">   -633.03530258 </i>
   </energy>
  </scstep>
  <scstep>
   <time name="diag">    1.83    1.83</time>
   <time name="diis">   22.50   22.63</time>
   <time name="orth">    0.43    0.43</time>
   <time name="total">   25.06   25.19</time>
   <energy>
    <i name="e_fr_energy">   -634.45879405 </i>
    <i name="e_wo_entrp">   -634.33634691 </i>
    <i name="e_0_energy">   -634.39757048 </i>
   </energy>
  </scstep>
  <scstep>
   <time name="diag">    1.83    1.83</time>
   <time name="diis">   22.59   22.64</time>
   <time name="orth">    0.43    0.43</time>
   <time name="total">   25.15   25.21</time>
   <energy>
    <i name="e_fr_energy">   -632.40949814 </i>
    <i name="e_wo_entrp">   -632.27377144 </i>
    <i name="e_0_energy">   -632.34163479 </i>
   </energy>
  </scstep>
  <scstep>
   <time name="diag">    1.86    1.86</time>
   <time name="diis">   23.26   23.30</time>
   <time name="orth">    0.43    0.43</time>
   <time name="total">   25.84   25.88</time>
   <energy>
    <i name="e_fr_energy">   -632.73994926 </i>
    <i name="e_wo_entrp">   -632.58171679 </i>
    <i name="e_0_energy">   -632.66083303 </i>
   </energy>
  </scstep>
  <scstep>
   <time name="diag">    1.85    1.85</time>
   <time name="diis">   19.81   19.91</time>
   <time name="orth">    0.43    0.43</time>
   <time name="total">   22.39   22.50</time>
   <energy>
    <i name="e_fr_energy">   -632.75450449 </i>
    <i name="e_wo_entrp">   -632.60652149 </i>
    <i name="e_0_energy">   -632.68051299 </i>
   </energy>
  </scstep>
  <scstep>
   <time name="diag">    1.83    1.83</time>
   <time name="diis">   21.74   21.79</time>
   <time name="orth">    0.43    0.43</time>
   <time name="total">   24.30   24.35</time>
   <energy>
    <i name="e_fr_energy">   -632.72210243 </i>
    <i name="e_wo_entrp">   -632.56018723 </i>
    <i name="e_0_energy">   -632.64114483 </i>
   </energy>
  </scstep>
  <scstep>
   <time name="diag">    1.84    1.84</time>
   <time name="diis">   21.96   22.06</time>
   <time name="orth">    0.43    0.43</time>
   <time name="total">   24.52   24.62</time>
   <energy>
    <i name="e_fr_energy">   -632.36115162 </i>
    <i name="e_wo_entrp">   -632.21073683 </i>
    <i name="e_0_energy">   -632.28594422 </i>
   </energy>
  </scstep>
  <scstep>
   <time name="diag">    1.85    1.86</time>
   <time name="diis">   23.61   23.65</time>
   <time name="orth">    0.43    0.43</time>
   <time name="total">   26.18   26.23</time>
   <energy>
    <i name="e_fr_energy">   -632.45947906 </i>
    <i name="e_wo_entrp">   -632.30138702 </i>
    <i name="e_0_energy">   -632.38043304 </i>
   </energy>
  </scstep>
  <scstep>
   <time name="diag">    1.82    1.83</time>
   <time name="diis">   23.68   23.77</time>
   <time name="orth">    0.44    0.44</time>
   <time name="total">   26.23   26.34</time>
   <energy>
    <i name="e_fr_energy">   -632.47340112 </i>
    <i name="e_wo_entrp">   -632.31977233 </i>
    <i name="e_0_energy">   -632.39658672 </i>
   </energy>
  </scstep>
  <scstep>
   <time name="diag">    1.82    1.85</time>
   <time name="diis">   21.95   22.02</time>
   <time name="orth">    0.43    0.43</time>
   <time name="total">   24.51   24.61</time>
   <energy>
    <i name="e_fr_energy">   -632.46811874 </i>
    <i name="e_wo_entrp">   -632.31264487 </i>
    <i name="e_0_energy">   -632.39038181 </i>
   </energy>
  </scstep>
  <scstep>
   <time name="diag">    1.84    1.84</time>
   <time name="diis">   22.26   22.29</time>
   <time name="orth">    0.44    0.44</time>
   <time name="total">   24.84   24.87</time>
   <energy>
    <i name="e_fr_energy">   -632.42403437 </i>
    <i name="e_wo_entrp">   -632.26884604 </i>
    <i name="e_0_energy">   -632.34644020 </i>
   </energy>
  </scstep>
  <scstep>
   <time name="diag">    1.91    1.93</time>
   <time name="diis">   21.81   21.83</time>
   <time name="orth">    0.43    0.43</time>
   <time name="total">   24.44   24.49</time>
   <energy>
    <i name="e_fr_energy">   -632.42381384 </i>
    <i name="e_wo_entrp">   -632.26724607 </i>
    <i name="e_0_energy">   -632.34552996 </i>
   </energy>
  </scstep>
  <scstep>
   <time name="diag">    1.82    1.83</time>
   <time name="diis">   22.58   22.61</time>
   <time name="orth">    0.43    0.43</time>
   <time name="total">   25.13   25.17</time>
   <energy>
    <i name="e_fr_energy">   -632.43173420 </i>
    <i name="e_wo_entrp">   -632.27503363 </i>
    <i name="e_0_energy">   -632.35338391 </i>
   </energy>
  </scstep>
  <scstep>
   <time name="diag">    1.84    1.84</time>
   <time name="diis">   22.99   23.02</time>
   <time name="orth">    0.43    0.43</time>
   <time name="total">   25.55   25.59</time>
   <energy>
    <i name="e_fr_energy">   -632.43389205 </i>
    <i name="e_wo_entrp">   -632.27710004 </i>
    <i name="e_0_energy">   -632.35549605 </i>
   </energy>
  </scstep>
  <scstep>
   <time name="diag">    1.83    1.83</time>
   <time name="diis">   22.03   22.07</time>
   <time name="orth">    0.43    0.43</time>
   <time name="total">   24.59   24.63</time>
   <energy>
    <i name="e_fr_energy">   -632.43621780 </i>
    <i name="e_wo_entrp">   -632.27961998 </i>
    <i name="e_0_energy">   -632.35791889 </i>
   </energy>
  </scstep>
  <scstep>
   <time name="diag">    1.85    1.86</time>
   <time name="diis">   21.39   21.45</time>
   <time name="orth">    0.44    0.44</time>
   <time name="total">   23.99   24.05</time>
   <energy>
    <i name="e_fr_energy">   -632.43734405 </i>
    <i name="e_wo_entrp">   -632.28066292 </i>
    <i name="e_0_energy">   -632.35900348 </i>
   </energy>
  </scstep>
  <scstep>
   <time name="diag">    1.84    1.85</time>
   <time name="diis">   20.11   20.17</time>
   <time name="orth">    0.43    0.43</time>
   <time name="total">   22.68   22.75</time>
   <energy>
    <i name="e_fr_energy">   -632.43829395 </i>
    <i name="e_wo_entrp">   -632.28157659 </i>
    <i name="e_0_energy">   -632.35993527 </i>
   </energy>
  </scstep>
  <scstep>
   <time name="diag">    1.83    1.85</time>
   <time name="diis">   19.39   19.43</time>
   <time name="orth">    0.43    0.43</time>
   <time name="total">   21.94   22.01</time>
   <energy>
    <i name="e_fr_energy">   -632.43885901 </i>
    <i name="e_wo_entrp">   -632.28210257 </i>
    <i name="e_0_energy">   -632.36048079 </i>
   </energy>
  </scstep>
  <scstep>
   <time name="diag">    1.84    1.84</time>
   <time name="diis">   19.51   19.54</time>
   <time name="orth">    0.44    0.44</time>
   <time name="total">   22.07   22.11</time>
   <energy>
    <i name="e_fr_energy">   -632.43929346 </i>
    <i name="e_wo_entrp">   -632.28255225 </i>
    <i name="e_0_energy">   -632.36092285 </i>
   </energy>
  </scstep>
  <scstep>
   <time name="diag">    1.84    1.86</time>
   <time name="diis">   18.29   18.31</time>
   <time name="orth">    0.43    0.43</time>
   <time name="total">   20.85   20.89</time>
   <energy>
    <i name="e_fr_energy">   -632.43955886 </i>
    <i name="e_wo_entrp">   -632.28280407 </i>
    <i name="e_0_energy">   -632.36118146 </i>
   </energy>
  </scstep>
  <scstep>
   <time name="diag">    1.84    1.84</time>
   <time name="diis">   19.11   19.14</time>
   <time name="orth">    0.43    0.43</time>
   <time name="total">   21.67   21.70</time>
   <energy>
    <i name="e_fr_energy">   -632.43974579 </i>
    <i name="e_wo_entrp">   -632.28300045 </i>
    <i name="e_0_energy">   -632.36137312 </i>
   </energy>
  </scstep>
  <scstep>
   <time name="diag">    1.84    1.84</time>
   <time name="diis">   18.07   18.48</time>
   <time name="orth">    1.03    1.06</time>
   <time name="total">   21.27   21.72</time>
   <energy>
    <i name="e_fr_energy">   -632.43986675 </i>
    <i name="e_wo_entrp">   -632.28311494 </i>
    <i name="e_0_energy">   -632.36149085 </i>
   </energy>
  </scstep>
  <scstep>
   <time name="diag">    3.36    3.51</time>
   <time name="diis">   17.71   17.75</time>
   <time name="orth">    0.43    0.43</time>
   <time name="total">   21.89   22.10</time>
   <energy>
    <i name="e_fr_energy">   -632.43995457 </i>
    <i name="e_wo_entrp">   -632.28320148 </i>
    <i name="e_0_energy">   -632.36157803 </i>
   </energy>
  </scstep>
  <scstep>
   <time name="diag">    1.84    1.84</time>
   <time name="diis">   18.03   18.10</time>
   <time name="orth">    0.43    0.43</time>
   <time name="total">   20.59   20.66</time>
   <energy>
    <i name="e_fr_energy">   -632.44001380 </i>
    <i name="e_wo_entrp">   -632.28325862 </i>
    <i name="e_0_energy">   -632.36163621 </i>
   </energy>
  </scstep>
  <scstep>
   <time name="diag">    1.84    1.84</time>
   <time name="diis">   17.54   17.62</time>
   <time name="orth">    0.43    0.43</time>
   <time name="total">   20.09   20.19</time>
   <energy>
    <i name="e_fr_energy">   -632.44005406 </i>
    <i name="e_wo_entrp">   -632.28330189 </i>
    <i name="e_0_energy">   -632.36167798 </i>
   </energy>
  </scstep>
  <scstep>
   <time name="diag">    1.85    1.86</time>
   <time name="diis">   17.22   17.26</time>
   <time name="orth">    0.44    0.44</time>
   <time name="total">   19.81   19.85</time>
   <energy>
    <i name="e_fr_energy">   -632.44008214 </i>
    <i name="e_wo_entrp">   -632.28332882 </i>
    <i name="e_0_energy">   -632.36170548 </i>
   </energy>
  </scstep>
  <scstep>
   <time name="diag">    1.83    1.83</time>
   <time name="diis">   16.64   16.65</time>
   <time name="orth">    0.45    0.46</time>
   <time name="total">   19.22   19.24</time>
   <energy>
    <i name="e_fr_energy">   -632.44010042 </i>
    <i name="e_wo_entrp">   -632.28334820 </i>
    <i name="e_0_energy">   -632.36172431 </i>
   </energy>
  </scstep>
  <scstep>
   <time name="diag">    1.83    1.83</time>
   <time name="diis">   16.19   16.23</time>
   <time name="orth">    0.43    0.43</time>
   <time name="total">   18.74   18.79</time>
   <energy>
    <i name="e_fr_energy">   -632.44011372 </i>
    <i name="e_wo_entrp">   -632.28336139 </i>
    <i name="e_0_energy">   -632.36173756 </i>
   </energy>
  </scstep>
  <scstep>
   <time name="diag">    1.84    1.84</time>
   <time name="diis">   15.62   15.63</time>
   <time name="orth">    0.43    0.43</time>
   <time name="total">   18.19   18.20</time>
   <energy>
    <i name="e_fr_energy">   -632.44012316 </i>
    <i name="e_wo_entrp">   -632.28337051 </i>
    <i name="e_0_energy">   -632.36174683 </i>
   </energy>
  </scstep>
  <scstep>
   <time name="diag">    1.84    1.84</time>
   <time name="diis">   15.07   15.15</time>
   <time name="orth">    0.43    0.43</time>
   <time name="total">   17.37   17.46</time>
   <energy>
    <i name="alphaZ">   4179.29868789 </i>
    <i name="ewald"> -43413.63472641 </i>
    <i name="hartreedc">  -8493.03393654 </i>
    <i name="XCdc">   2106.30181896 </i>
    <i name="pawpsdc">  33341.56814391 </i>
    <i name="pawaedc"> -33217.41541760 </i>
    <i name="eentropy">     -0.15675160 </i>
    <i name="bandstr">  -5839.06391904 </i>
    <i name="atom">  50703.69597113 </i>
    <i name="e_fr_energy">   -632.44012928 </i>
    <i name="e_wo_entrp">   -632.28337769 </i>
    <i name="e_0_energy">   -632.36175349 </i>
   </energy>
  </scstep>
  <structure>
   <crystal>
    <varray name="basis" >
     <v>       8.88806300       0.01574986      -0.00807610 </v>
     <v>       0.02196032       8.89905901      -0.01238645 </v>
     <v>       0.02394101      -0.02775689       8.91754266 </v>
    </varray>
    <i name="volume">    705.33215903 </i>
    <varray name="rec_basis" >
     <v>       0.11251067      -0.00027807      -0.00030292 </v>
     <v>      -0.00019881       0.11237241       0.00035031 </v>
     <v>       0.00010162       0.00015583       0.11213873 </v>
    </varray>
   </crystal>
   <varray name="positions" >
    <v>       0.00365034       0.99305066       0.99907507 </v>
    <v>       0.27131110       0.99865672       0.24951536 </v>
    <v>       0.24812915       0.49615969       0.24796613 </v>
    <v>       0.49832573       0.49961321       0.00084482 </v>
    <v>       0.50171878       0.24443732       0.74648138 </v>
    <v>       0.00010624       0.49974505       0.50534640 </v>
    <v>       0.49459260       0.75997473       0.74878594 </v>
    <v>       0.99941301       0.24596874       0.24343934 </v>
    <v>       0.74214950       0.75398792       0.00654330 </v>
    <v>       0.99720717       0.24555891       0.75706803 </v>
    <v>       0.74729095       0.24077578       0.49941327 </v>
    <v>       0.00077877       0.75718778       0.74967951 </v>
    <v>       0.24863369       0.50018762       0.75174881 </v>
    <v>       0.25938122       0.23941233       0.99191267 </v>
    <v>       0.50372625       0.25776475       0.24994260 </v>
    <v>       0.73319364       0.99211658       0.25440472 </v>
    <v>       0.74122248       0.24649318       0.00072971 </v>
    <v>       0.25232987       0.75041418       0.99981714 </v>
    <v>       0.25487537       0.24596311       0.50615479 </v>
    <v>       0.25308674       0.75358055       0.49958376 </v>
    <v>       0.25344811       0.24637312       0.24540247 </v>
    <v>       0.26092021       0.00123641       0.99359303 </v>
    <v>       0.99827176       0.24827182       0.99953322 </v>
    <v>       0.74589130       0.24505222       0.24763117 </v>
    <v>       0.74048370       0.00418348       0.00181554 </v>
    <v>       0.51249069       0.00506264       0.25854232 </v>
    <v>       0.99528675       0.49666216       0.24431175 </v>
    <v>       0.49512448       0.76381511       0.00667258 </v>
    <v>       0.99956278       0.00319949       0.74500700 </v>
    <v>       0.75192030       0.24558138       0.75323703 </v>
    <v>       0.74659567       0.99991317       0.49626378 </v>
    <v>       0.49804549       0.24500242       0.49157516 </v>
    <v>       0.50779494       0.00179791       0.74507744 </v>
    <v>       0.99810105       0.99710493       0.25210134 </v>
    <v>       0.50250511       0.23889547       0.00439335 </v>
    <v>       0.25554878       0.74840943       0.24824516 </v>
    <v>       0.23903627       0.50008018       0.99848986 </v>
    <v>       0.00374569       0.74258499       0.00167107 </v>
    <v>       0.74434440       0.75347428       0.25376996 </v>
    <v>       0.76030919       0.49538173       0.00262821 </v>
    <v>       0.50264116       0.49711540       0.25355902 </v>
    <v>       0.24874524       0.24033460       0.74926118 </v>
    <v>       0.25970319       0.99970486       0.50819424 </v>
    <v>       0.00309894       0.24475181       0.49988902 </v>
    <v>       0.24634033       0.75994746       0.75170666 </v>
    <v>       0.25491157       0.49733677       0.50035065 </v>
    <v>       0.00106464       0.75619863       0.49739874 </v>
    <v>       0.99650523       0.50189309       0.76164921 </v>
    <v>       0.74826043       0.76030539       0.75262874 </v>
    <v>       0.74550996       0.50196018       0.50035350 </v>
    <v>       0.49545010       0.76155477       0.48745476 </v>
    <v>       0.50190296       0.50197461       0.74602251 </v>
    <v>       0.51597997       0.01286280       0.97170839 </v>
    <v>       0.00219865       0.51888798       0.98710479 </v>
    <v>       0.49761588       0.72779824       0.25990185 </v>
    <v>       0.24271224       0.00253587       0.73395658 </v>
    <v>       0.48239244       0.98846742       0.51274280 </v>
    <v>       0.72812676       0.98162420       0.77772229 </v>
    <v>       0.00786589       0.75305563       0.25144074 </v>
    <v>       0.74704781       0.50613581       0.25250693 </v>
    <v>       0.01738246       0.00009472       0.49997857 </v>
    <v>       0.49837863       0.51122818       0.49873132 </v>
    <v>       0.74906002       0.51279720       0.75315975 </v>
    <v>       0.74655658       0.75830299       0.49416373 </v>
   </varray>
  </structure>
  <varray name="forces" >
   <v>       0.04671911      -0.02846433       0.05652425 </v>
   <v>       0.09977772      -0.01643957       0.07112904 </v>
   <v>       0.00302050       0.03633779       0.05977591 </v>
   <v>      -0.03144325      -0.05960914       0.01341047 </v>
   <v>       0.04764721      -0.00789568      -0.02983224 </v>
   <v>      -0.05205181       0.04479473      -0.06880205 </v>
   <v>       0.05021298      -0.00439953      -0.03617171 </v>
   <v>      -0.01549382      -0.00168750       0.04239852 </v>
   <v>       0.00716473      -0.03825821       0.03819141 </v>
   <v>      -0.03103740      -0.03206462      -0.01095118 </v>
   <v>      -0.07176898      -0.01756065       0.04708731 </v>
   <v>      -0.01008347       0.08474582      -0.04548335 </v>
   <v>       0.03488611      -0.02305885      -0.03791795 </v>
   <v>       0.09673400      -0.08811917       0.01643690 </v>
   <v>      -0.02135771       0.09261804      -0.00592994 </v>
   <v>      -0.03059203       0.00019193      -0.11876050 </v>
   <v>      -0.07787467      -0.09588717      -0.00060342 </v>
   <v>       0.07795943       0.01905555       0.02668181 </v>
   <v>       0.01519899       0.01812587      -0.00117902 </v>
   <v>      -0.03290770       0.00476703      -0.00347172 </v>
   <v>      -0.02157281       0.00261507      -0.04045912 </v>
   <v>       0.00417016       0.04240114       0.07826050 </v>
   <v>       0.00845573      -0.03722353       0.03306254 </v>
   <v>       0.07340809       0.00363636      -0.01146297 </v>
   <v>       0.04024965       0.01520362      -0.06808777 </v>
   <v>      -0.07496815       0.05478863       0.00238148 </v>
   <v>      -0.00382268       0.02702925      -0.03002418 </v>
   <v>      -0.02884874      -0.03247247      -0.00488778 </v>
   <v>       0.01977951       0.00306520      -0.06562549 </v>
   <v>      -0.01315346      -0.02838001      -0.00746650 </v>
   <v>       0.05212113       0.04355610      -0.05247323 </v>
   <v>       0.03746974       0.05028252       0.04822306 </v>
   <v>       0.21488374       0.00771272       0.04400943 </v>
   <v>       0.07839809       0.02032133       0.02389334 </v>
   <v>      -0.06370334       0.03387083       0.00852854 </v>
   <v>       0.03156195      -0.03707489      -0.05245536 </v>
   <v>       0.00112280      -0.02948585      -0.03132910 </v>
   <v>      -0.06938871      -0.00457119       0.00742154 </v>
   <v>      -0.04096390      -0.03967887      -0.01241522 </v>
   <v>      -0.04248732       0.05339047      -0.00952669 </v>
   <v>       0.00844025      -0.02837880       0.01486238 </v>
   <v>       0.00803393      -0.00248830       0.03308721 </v>
   <v>       0.02987426       0.02613439      -0.08658665 </v>
   <v>      -0.03050494      -0.07776056      -0.07252852 </v>
   <v>       0.01758801       0.05820291       0.01526370 </v>
   <v>       0.05061564       0.00820771       0.02551537 </v>
   <v>      -0.01295708       0.02239798      -0.01721111 </v>
   <v>      -0.00484718       0.01524387       0.04450630 </v>
   <v>       0.01042935      -0.02311029       0.03293656 </v>
   <v>      -0.00994974       0.00161685       0.00831111 </v>
   <v>       0.02683306      -0.02542250       0.06570306 </v>
   <v>       0.00872905      -0.01300310      -0.03682108 </v>
   <v>      -0.10994681      -0.02041905      -0.16601181 </v>
   <v>       0.02619627       0.05170811      -0.00467032 </v>
   <v>      -0.01302911      -0.04115023       0.03783262 </v>
   <v>       0.05003525      -0.02846827      -0.12157613 </v>
   <v>      -0.13737000       0.03027866       0.35938435 </v>
   <v>      -0.12252390       0.01035359       0.16351447 </v>
   <v>      -0.02849018      -0.09027354       0.00314814 </v>
   <v>       0.03609735       0.09504523      -0.04771172 </v>
   <v>      -0.04670398      -0.03143769      -0.01604482 </v>
   <v>      -0.03185276      -0.00003812      -0.04393602 </v>
   <v>       0.01654792       0.03387800      -0.01757955 </v>
   <v>      -0.04866607      -0.00729560      -0.04548710 </v>
  </varray>
  <varray name="stress" >
   <v>      -4.14798618      -0.73302302       0.12303947 </v>
   <v>      -0.73302435      -2.97382050       0.77971371 </v>
   <v>       0.12303967       0.77971310      -3.27547969 </v>
  </varray>
  <energy>
   <i name="e_fr_energy">   -632.44012928 </i>
   <i name="e_wo_entrp">   -632.36175349 </i>
   <i name="e_0_energy">     -0.15675160 </i>
  </energy>
  <time name="totalsc">  978.24  981.25</time>
 </calculation>
 <calculation>
  <scstep>
   <time name="dav">   29.15   29.20</time>
   <time name="total">   29.44   29.50</time>
   <energy>
    <i name="alphaZ">   4193.75237918 </i>
    <i name="ewald"> -43452.92075179 </i>
    <i name="hartreedc">  -8512.77736632 </i>
    <i name="XCdc">   2108.80361432 </i>
    <i name="pawpsdc">  33341.59029153 </i>
    <i name="pawaedc"> -33217.42501762 </i>
    <i name="eentropy">     -0.15204935 </i>
    <i name="bandstr">  -5796.82465642 </i>
    <i name="atom">  50703.69597113 </i>
    <i name="e_fr_energy">   -632.25758533 </i>
    <i name="e_wo_entrp">   -632.10553599 </i>
    <i name="e_0_energy">   -632.18156066 </i>
   </energy>
  </scstep>
  <scstep>
   <time name="diag">    1.89    1.89</time>
   <time name="diis">   19.67   19.74</time>
   <time name="orth">    0.43    0.43</time>
   <time name="total">   22.28   22.35</time>
   <energy>
    <i name="e_fr_energy">   -633.06148478 </i>
    <i name="e_wo_entrp">   -632.93319230 </i>
    <i name="e_0_energy">   -632.99733854 </i>
   </energy>
  </scstep>
  <scstep>
   <time name="diag">    1.83    1.83</time>
   <time name="diis">   19.37   19.38</time>
   <time name="orth">    0.43    0.43</time>
   <time name="total">   21.93   21.94</time>
   <energy>
    <i name="e_fr_energy">   -632.56247711 </i>
    <i name="e_wo_entrp">   -632.42090853 </i>
    <i name="e_0_energy">   -632.49169282 </i>
   </energy>
  </scstep>
  <scstep>
   <time name="diag">    1.84    1.85</time>
   <time name="diis">   21.24   21.29</time>
   <time name="orth">    0.43    0.43</time>
   <time name="total">   23.82   23.86</time>
   <energy>
    <i name="e_fr_energy">   -632.47371809 </i>
    <i name="e_wo_entrp">   -632.31982418 </i>
    <i name="e_0_energy">   -632.39677114 </i>
   </energy>
  </scstep>
  <scstep>
   <time name="diag">    1.83    1.83</time>
   <time name="diis">   22.04   22.05</time>
   <time name="orth">    0.43    0.43</time>
   <time name="total">   24.59   24.61</time>
   <energy>
    <i name="e_fr_energy">   -632.47135289 </i>
    <i name="e_wo_entrp">   -632.31834150 </i>
    <i name="e_0_energy">   -632.39484720 </i>
   </energy>
  </scstep>
  <scstep>
   <time name="diag">    1.84    1.84</time>
   <time name="diis">   21.50   21.62</time>
   <time name="orth">    0.44    0.44</time>
   <time name="total">   24.07   24.19</time>
   <energy>
    <i name="e_fr_energy">   -632.46149004 </i>
    <i name="e_wo_entrp">   -632.30944804 </i>
    <i name="e_0_energy">   -632.38546904 </i>
   </energy>
  </scstep>
  <scstep>
   <time name="diag">    1.84    1.84</time>
   <time name="diis">   22.37   22.43</time>
   <time name="orth">    0.43    0.43</time>
   <time name="total">   24.92   24.99</time>
   <energy>
    <i name="e_fr_energy">   -632.46323214 </i>
    <i name="e_wo_entrp">   -632.30811638 </i>
    <i name="e_0_energy">   -632.38567426 </i>
   </energy>
  </scstep>
  <scstep>
   <time name="diag">    1.83    1.83</time>
   <time name="diis">   20.91   20.94</time>
   <time name="orth">    0.43    0.43</time>
   <time name="total">   23.47   23.51</time>
   <energy>
    <i name="e_fr_energy">   -632.45889140 </i>
    <i name="e_wo_entrp">   -632.30682509 </i>
    <i name="e_0_energy">   -632.38285824 </i>
   </energy>
  </scstep>
  <scstep>
   <time name="diag">    1.84    1.84</time>
   <time name="diis">   22.30   22.44</time>
   <time name="orth">    0.43    0.43</time>
   <time name="total">   24.86   25.00</time>
   <energy>
    <i name="e_fr_energy">   -632.45867414 </i>
    <i name="e_wo_entrp">   -632.30560763 </i>
    <i name="e_0_energy">   -632.38214088 </i>
   </energy>
  </scstep>
  <scstep>
   <time name="diag">    1.82    1.83</time>
   <time name="diis">   21.56   21.62</time>
   <time name="orth">    0.43    0.43</time>
   <time name="total">   24.11   24.17</time>
   <energy>
    <i name="e_fr_energy">   -632.45739748 </i>
    <i name="e_wo_entrp">   -632.30436031 </i>
    <i name="e_0_energy">   -632.38087889 </i>
   </energy>
  </scstep>
  <scstep>
   <time name="diag">    1.85    1.85</time>
   <time name="diis">   21.37   21.47</time>
   <time name="orth">    0.43    0.43</time>
   <time name="total">   23.95   24.06</time>
   <energy>
    <i name="e_fr_energy">   -632.45744096 </i>
    <i name="e_wo_entrp">   -632.30437246 </i>
    <i name="e_0_energy">   -632.38090671 </i>
   </energy>
  </scstep>
  <scstep>
   <time name="diag">    1.85    1.85</time>
   <time name="diis">   19.62   19.66</time>
   <time name="orth">    0.43    0.43</time>
   <time name="total">   22.21   22.26</time>
   <energy>
    <i name="e_fr_energy">   -632.45747320 </i>
    <i name="e_wo_entrp">   -632.30438817 </i>
    <i name="e_0_energy">   -632.38093068 </i>
   </energy>
  </scstep>
  <scstep>
   <time name="diag">    1.83    1.83</time>
   <time name="diis">   18.83   18.89</time>
   <time name="orth">    0.43    0.43</time>
   <time name="total">   21.39   21.45</time>
   <energy>
    <i name="e_fr_energy">   -632.45752557 </i>
    <i name="e_wo_entrp">   -632.30447397 </i>
    <i name="e_0_energy">   -632.38099977 </i>
   </energy>
  </scstep>
  <scstep>
   <time name="diag">    1.84    1.84</time>
   <time name="diis">   18.15   18.20</time>
   <time name="orth">    0.43    0.43</time>
   <time name="total">   20.71   20.75</time>
   <energy>
    <i name="e_fr_energy">   -632.45759023 </i>
    <i name="e_wo_entrp">   -632.30454529 </i>
    <i name="e_0_energy">   -632.38106776 </i>
   </energy>
  </scstep>
  <scstep>
   <time name="diag">    1.84    1.84</time>
   <time name="diis">   18.36   18.37</time>
   <time name="orth">    0.43    0.43</time>
   <time name="total">   20.92   20.94</time>
   <energy>
    <i name="e_fr_energy">   -632.45764015 </i>
    <i name="e_wo_entrp">   -632.30458201 </i>
    <i name="e_0_energy">   -632.38111108 </i>
   </energy>
  </scstep>
  <scstep>
   <time name="diag">    1.82    1.83</time>
   <time name="diis">   17.62   17.64</time>
   <time name="orth">    0.43    0.43</time>
   <time name="total">   20.17   20.19</time>
   <energy>
    <i name="e_fr_energy">   -632.45766183 </i>
    <i name="e_wo_entrp">   -632.30461123 </i>
    <i name="e_0_energy">   -632.38113653 </i>
   </energy>
  </scstep>
  <scstep>
   <time name="diag">    1.84    1.84</time>
   <time name="diis">   17.04   17.08</time>
   <time name="orth">    0.43    0.43</time>
   <time name="total">   19.59   19.64</time>
   <energy>
    <i name="e_fr_energy">   -632.45767095 </i>
    <i name="e_wo_entrp">   -632.30462451 </i>
    <i name="e_0_energy">   -632.38114773 </i>
   </energy>
  </scstep>
  <scstep>
   <time name="diag">    1.84    1.85</time>
   <time name="diis">   15.96   16.04</time>
   <time name="orth">    0.44    0.44</time>
   <time name="total">   18.27   18.36</time>
   <energy>
    <i name="alphaZ">   4193.75237918 </i>
    <i name="ewald"> -43452.92075179 </i>
    <i name="hartreedc">  -8486.67812324 </i>
    <i name="XCdc">   2107.30892005 </i>
    <i name="pawpsdc">  33386.41279671 </i>
    <i name="pawaedc"> -33261.42453253 </i>
    <i name="eentropy">     -0.15304746 </i>
    <i name="bandstr">  -5822.45128776 </i>
    <i name="atom">  50703.69597113 </i>
    <i name="e_fr_energy">   -632.45767570 </i>
    <i name="e_wo_entrp">   -632.30462824 </i>
    <i name="e_0_energy">   -632.38115197 </i>
   </energy>
  </scstep>
  <structure>
   <crystal>
    <varray name="basis" >
     <v>       8.87582455       0.01357021      -0.00770035 </v>
     <v>       0.01976489       8.89026847      -0.01006951 </v>
     <v>       0.02427891      -0.02542797       8.90784354 </v>
    </varray>
    <i name="volume">    702.90124457 </i>
    <varray name="rec_basis" >
     <v>       0.11266571      -0.00025083      -0.00030779 </v>
     <v>      -0.00017170       0.11248329       0.00032156 </v>
     <v>       0.00009720       0.00012694       0.11226071 </v>
    </varray>
   </crystal>
   <varray name="positions" >
    <v>       0.00390348       0.99289686       0.99938088 </v>
    <v>       0.27185186       0.99856785       0.24990052 </v>
    <v>       0.24814419       0.49635767       0.24828980 </v>
    <v>       0.49815567       0.49929058       0.00091676 </v>
    <v>       0.50197794       0.24439355       0.74632016 </v>
    <v>      -0.00017588       0.49998722       0.50497427 </v>
    <v>       0.49486573       0.75994978       0.74859046 </v>
    <v>       0.99932831       0.24596045       0.24366863 </v>
    <v>       0.74218835       0.75378109       0.00674966 </v>
    <v>       0.99703929       0.24538519       0.75700839 </v>
    <v>       0.74690095       0.24068207       0.49966753 </v>
    <v>       0.00072357       0.75764653       0.74943404 </v>
    <v>       0.24882391       0.50006164       0.75154368 </v>
    <v>       0.25990722       0.23893397       0.99200140 </v>
    <v>       0.50360917       0.25826695       0.24991111 </v>
    <v>       0.73302932       0.99211591       0.25376210 </v>
    <v>       0.74080109       0.24597410       0.00072534 </v>
    <v>       0.25275238       0.75051719       0.99996201 </v>
    <v>       0.25495764       0.24606120       0.50614862 </v>
    <v>       0.25290811       0.75360665       0.49956486 </v>
    <v>       0.25333157       0.24638682       0.24518350 </v>
    <v>       0.26094114       0.00146756       0.99401675 </v>
    <v>       0.99831767       0.24807050       0.99971185 </v>
    <v>       0.74628987       0.24507104       0.24756954 </v>
    <v>       0.74070295       0.00426436       0.00144751 </v>
    <v>       0.51208301       0.00536041       0.25855525 </v>
    <v>       0.99526608       0.49680822       0.24414950 </v>
    <v>       0.49496840       0.76363926       0.00664575 </v>
    <v>       0.99967106       0.00321481       0.74465210 </v>
    <v>       0.75184940       0.24542753       0.75319635 </v>
    <v>       0.74687876       0.00014791       0.49598049 </v>
    <v>       0.49824749       0.24527547       0.49183660 </v>
    <v>       0.50896055       0.00183840       0.74531663 </v>
    <v>       0.99852595       0.99721475       0.25223114 </v>
    <v>       0.50215876       0.23907984       0.00443943 </v>
    <v>       0.25572135       0.74820725       0.24796126 </v>
    <v>       0.23904322       0.49991980       0.99832015 </v>
    <v>       0.00336901       0.74256100       0.00171084 </v>
    <v>       0.74412277       0.75325936       0.25370229 </v>
    <v>       0.76007800       0.49567142       0.00257686 </v>
    <v>       0.50268713       0.49696173       0.25363926 </v>
    <v>       0.24878839       0.24032159       0.74944020 </v>
    <v>       0.25986626       0.99984479       0.50772616 </v>
    <v>       0.00293547       0.24432932       0.49949592 </v>
    <v>       0.24643479       0.76026307       0.75178976 </v>
    <v>       0.25518582       0.49738121       0.50048899 </v>
    <v>       0.00099426       0.75631989       0.49730574 </v>
    <v>       0.99647807       0.50197653       0.76189007 </v>
    <v>       0.74831687       0.76018056       0.75280680 </v>
    <v>       0.74545581       0.50196918       0.50039843 </v>
    <v>       0.49559513       0.76141780       0.48781014 </v>
    <v>       0.50195106       0.50190341       0.74582325 </v>
    <v>       0.51538590       0.01275035       0.97080959 </v>
    <v>       0.00234021       0.51916796       0.98708004 </v>
    <v>       0.49754516       0.72757593       0.26010614 </v>
    <v>       0.24298598       0.00237900       0.73329890 </v>
    <v>       0.48164116       0.98863896       0.51468657 </v>
    <v>       0.72745919       0.98168426       0.77860636 </v>
    <v>       0.00771241       0.75256657       0.25145696 </v>
    <v>       0.74724316       0.50664991       0.25224970 </v>
    <v>       0.01712962      -0.00007553       0.49989131 </v>
    <v>       0.49820638       0.51122753       0.49849348 </v>
    <v>       0.74914964       0.51298040       0.75306499 </v>
    <v>       0.74629319       0.75826314       0.49391735 </v>
   </varray>
  </structure>
  <varray name="forces" >
   <v>       0.05579858       0.00096344       0.03766676 </v>
   <v>       0.01617959      -0.00894437       0.02035833 </v>
   <v>      -0.00719368      -0.01672402      -0.00979796 </v>
   <v>      -0.02282889      -0.00287093      -0.02020913 </v>
   <v>      -0.01384678       0.07945055      -0.00190157 </v>
   <v>      -0.00678581      -0.00792343       0.01461155 </v>
   <v>       0.00854875      -0.07744636       0.00378377 </v>
   <v>      -0.00294091      -0.01343921      -0.01039622 </v>
   <v>      -0.02222011      -0.00273077      -0.00991691 </v>
   <v>       0.00152328      -0.00743649       0.00518843 </v>
   <v>      -0.00105321      -0.01287802      -0.02341001 </v>
   <v>       0.00778484       0.01029535      -0.00656184 </v>
   <v>      -0.01826179       0.00404092       0.00238163 </v>
   <v>       0.03827291      -0.04681848       0.02043784 </v>
   <v>      -0.00289813       0.03924346       0.01440876 </v>
   <v>      -0.02646097       0.01726755      -0.08828027 </v>
   <v>      -0.03086924      -0.05036664       0.00949321 </v>
   <v>       0.04300999       0.00907614       0.01135774 </v>
   <v>      -0.00142358       0.01831677      -0.01409732 </v>
   <v>       0.00687753      -0.00001384       0.00536438 </v>
   <v>       0.01540842       0.01041619      -0.01211207 </v>
   <v>       0.03063166      -0.00097763       0.03039291 </v>
   <v>      -0.00404668      -0.02343707      -0.00471639 </v>
   <v>       0.00335387      -0.00109758      -0.01888035 </v>
   <v>       0.00412059      -0.00682006       0.00585812 </v>
   <v>       0.02104315       0.03839713       0.01592195 </v>
   <v>       0.00022559       0.02528704      -0.02899190 </v>
   <v>      -0.02872954      -0.01440931       0.00612098 </v>
   <v>       0.02363738       0.00988552      -0.01470294 </v>
   <v>      -0.00026080      -0.03408926       0.00322499 </v>
   <v>       0.02863207      -0.00155616      -0.06109804 </v>
   <v>      -0.01600174       0.01023026       0.01256266 </v>
   <v>       0.10561815      -0.01276065      -0.02846233 </v>
   <v>       0.02458381      -0.01810287       0.00226594 </v>
   <v>      -0.02384061      -0.00393946       0.00190597 </v>
   <v>       0.02940140      -0.00536100      -0.01663735 </v>
   <v>      -0.01615672      -0.01161148       0.00086746 </v>
   <v>      -0.00277673      -0.00799700      -0.00782878 </v>
   <v>      -0.03597946       0.01946134      -0.01596413 </v>
   <v>      -0.01480871       0.00250944      -0.01620644 </v>
   <v>      -0.00235147      -0.00567195      -0.01538979 </v>
   <v>       0.00446168      -0.02460172       0.00390369 </v>
   <v>      -0.04154380       0.01600576      -0.02070354 </v>
   <v>      -0.01114939       0.00469980      -0.00666203 </v>
   <v>       0.01339348       0.04951737       0.00415752 </v>
   <v>      -0.02214340       0.00283319       0.00198132 </v>
   <v>      -0.01452759      -0.01377729      -0.01189898 </v>
   <v>       0.01131667       0.01416800      -0.00075920 </v>
   <v>       0.00991182       0.01360672       0.01140729 </v>
   <v>      -0.00779927       0.01282635      -0.00742041 </v>
   <v>      -0.02492796       0.02647014       0.02906422 </v>
   <v>       0.01461064      -0.00520838      -0.00940156 </v>
   <v>      -0.12683064      -0.01716614      -0.01191590 </v>
   <v>       0.01369598       0.02339894       0.01237505 </v>
   <v>      -0.00028682      -0.00962695       0.02212147 </v>
   <v>       0.04115354      -0.01409605      -0.09044305 </v>
   <v>      -0.02376533       0.04031924       0.29341688 </v>
   <v>       0.03338498       0.00504796       0.07645261 </v>
   <v>      -0.01395055      -0.00859114      -0.01703709 </v>
   <v>       0.02011535      -0.01599679      -0.02592355 </v>
   <v>      -0.04474756       0.00713925      -0.06601097 </v>
   <v>       0.02151948      -0.02024308       0.01494620 </v>
   <v>      -0.00172279      -0.00300851       0.01136471 </v>
   <v>      -0.01308454       0.01686628      -0.01162636 </v>
  </varray>
  <varray name="stress" >
   <v>       7.61674993      -0.07049864      -0.06995791 </v>
   <v>      -0.07049732       6.85128827      -0.26264989 </v>
   <v>      -0.06995849      -0.26264992       7.49387467 </v>
  </varray>
  <energy>
   <i name="e_fr_energy">   -632.45767570 </i>
   <i name="e_wo_entrp">   -632.38115197 </i>
   <i name="e_0_energy">     -0.15304746 </i>
  </energy>
  <time name="totalsc">  455.00  456.16</time>
 </calculation>
 <calculation>
  <scstep>
   <time name="dav">   29.40   29.43</time>
   <time name="total">   29.71   29.75</time>
   <energy>
    <i name="alphaZ">   4193.96061002 </i>
    <i name="ewald"> -43453.48046150 </i>
    <i name="hartreedc">  -8487.03222145 </i>
    <i name="XCdc">   2107.34811158 </i>
    <i name="pawpsdc">  33386.50500768 </i>
    <i name="pawaedc"> -33261.45241484 </i>
    <i name="eentropy">     -0.15298675 </i>
    <i name="bandstr">  -5821.84925484 </i>
    <i name="atom">  50703.69597113 </i>
    <i name="e_fr_energy">   -632.45763897 </i>
    <i name="e_wo_entrp">   -632.30465222 </i>
    <i name="e_0_energy">   -632.38114559 </i>
   </energy>
  </scstep>
  <scstep>
   <time name="diag">    1.82    1.83</time>
   <time name="diis">   16.85   16.90</time>
   <time name="orth">    0.46    0.46</time>
   <time name="total">   19.42   19.48</time>
   <energy>
    <i name="e_fr_energy">   -632.45781830 </i>
    <i name="e_wo_entrp">   -632.30475574 </i>
    <i name="e_0_energy">   -632.38128702 </i>
   </energy>
  </scstep>
  <scstep>
   <time name="diag">    1.83    1.83</time>
   <time name="diis">   12.60   12.62</time>
   <time name="orth">    0.43    0.43</time>
   <time name="total">   15.15   15.17</time>
   <energy>
    <i name="e_fr_energy">   -632.45770657 </i>
    <i name="e_wo_entrp">   -632.30481547 </i>
    <i name="e_0_energy">   -632.38126102 </i>
   </energy>
  </scstep>
  <scstep>
   <time name="diag">    1.83    1.83</time>
   <time name="diis">   10.40   10.41</time>
   <time name="orth">    0.43    0.43</time>
   <time name="total">   12.95   12.96</time>
   <energy>
    <i name="e_fr_energy">   -632.45768570 </i>
    <i name="e_wo_entrp">   -632.30467518 </i>
    <i name="e_0_energy">   -632.38118044 </i>
   </energy>
  </scstep>
  <scstep>
   <time name="diag">    1.83    1.83</time>
   <time name="diis">    9.79    9.79</time>
   <time name="orth">    0.44    0.45</time>
   <time name="total">   12.08   12.10</time>
   <energy>
    <i name="alphaZ">   4193.96061002 </i>
    <i name="ewald"> -43453.48046150 </i>
    <i name="hartreedc">  -8486.76635329 </i>
    <i name="XCdc">   2107.33304059 </i>
    <i name="pawpsdc">  33386.73097155 </i>
    <i name="pawaedc"> -33261.62577093 </i>
    <i name="eentropy">     -0.15301392 </i>
    <i name="bandstr">  -5822.15268140 </i>
    <i name="atom">  50703.69597113 </i>
    <i name="e_fr_energy">   -632.45768775 </i>
    <i name="e_wo_entrp">   -632.30467382 </i>
    <i name="e_0_energy">   -632.38118078 </i>
   </energy>
  </scstep>
  <structure>
   <crystal>
    <varray name="basis" >
     <v>       8.87564865       0.01353889      -0.00769495 </v>
     <v>       0.01973334       8.89014213      -0.01003621 </v>
     <v>       0.02428377      -0.02539449       8.90770414 </v>
    </varray>
    <i name="volume">    702.86634541 </i>
    <varray name="rec_basis" >
     <v>       0.11266794      -0.00025044      -0.00030786 </v>
     <v>      -0.00017131       0.11248488       0.00032114 </v>
     <v>       0.00009714       0.00012652       0.11226247 </v>
    </varray>
   </crystal>
   <varray name="positions" >
    <v>       0.00390712       0.99289465       0.99938528 </v>
    <v>       0.27185964       0.99856657       0.24990607 </v>
    <v>       0.24814440       0.49636051       0.24829446 </v>
    <v>       0.49815322       0.49928594       0.00091780 </v>
    <v>       0.50198167       0.24439292       0.74631784 </v>
    <v>      -0.00017994       0.49999071       0.50496892 </v>
    <v>       0.49486966       0.75994943       0.74858765 </v>
    <v>       0.99932709       0.24596033       0.24367192 </v>
    <v>       0.74218890       0.75377812       0.00675263 </v>
    <v>       0.99703688       0.24538269       0.75700754 </v>
    <v>       0.74689534       0.24068072       0.49967118 </v>
    <v>       0.00072278       0.75765313       0.74943051 </v>
    <v>       0.24882665       0.50005983       0.75154073 </v>
    <v>       0.25991479       0.23892709       0.99200268 </v>
    <v>       0.50360748       0.25827418       0.24991066 </v>
    <v>       0.73302696       0.99211590       0.25375285 </v>
    <v>       0.74079502       0.24596663       0.00072528 </v>
    <v>       0.25275846       0.75051867       0.99996409 </v>
    <v>       0.25495883       0.24606261       0.50614853 </v>
    <v>       0.25290554       0.75360702       0.49956458 </v>
    <v>       0.25332989       0.24638702       0.24518035 </v>
    <v>       0.26094144       0.00147088       0.99402285 </v>
    <v>       0.99831833       0.24806761       0.99971442 </v>
    <v>       0.74629560       0.24507131       0.24756865 </v>
    <v>       0.74070611       0.00426553       0.00144221 </v>
    <v>       0.51207714       0.00536470       0.25855543 </v>
    <v>       0.99526578       0.49681032       0.24414717 </v>
    <v>       0.49496615       0.76363673       0.00664536 </v>
    <v>       0.99967262       0.00321503       0.74464699 </v>
    <v>       0.75184838       0.24542531       0.75319577 </v>
    <v>       0.74688283       0.00015128       0.49597641 </v>
    <v>       0.49825040       0.24527939       0.49184036 </v>
    <v>       0.50897732       0.00183899       0.74532007 </v>
    <v>       0.99853207       0.99721633       0.25223300 </v>
    <v>       0.50215378       0.23908249       0.00444009 </v>
    <v>       0.25572384       0.74820435       0.24795718 </v>
    <v>       0.23904332       0.49991749       0.99831771 </v>
    <v>       0.00336359       0.74256065       0.00171142 </v>
    <v>       0.74411958       0.75325627       0.25370132 </v>
    <v>       0.76007468       0.49567558       0.00257612 </v>
    <v>       0.50268779       0.49695951       0.25364041 </v>
    <v>       0.24878902       0.24032141       0.74944277 </v>
    <v>       0.25986861       0.99984680       0.50771943 </v>
    <v>       0.00293311       0.24432324       0.49949026 </v>
    <v>       0.24643615       0.76026762       0.75179095 </v>
    <v>       0.25518976       0.49738185       0.50049098 </v>
    <v>       0.00099325       0.75632163       0.49730440 </v>
    <v>       0.99647768       0.50197772       0.76189354 </v>
    <v>       0.74831768       0.76017876       0.75280936 </v>
    <v>       0.74545503       0.50196931       0.50039908 </v>
    <v>       0.49559722       0.76141583       0.48781526 </v>
    <v>       0.50195175       0.50190239       0.74582039 </v>
    <v>       0.51537735       0.01274874       0.97079666 </v>
    <v>       0.00234225       0.51917199       0.98707968 </v>
    <v>       0.49754414       0.72757273       0.26010908 </v>
    <v>       0.24298992       0.00237675       0.73328943 </v>
    <v>       0.48163035       0.98864142       0.51471454 </v>
    <v>       0.72744959       0.98168512       0.77861908 </v>
    <v>       0.00771020       0.75255954       0.25145719 </v>
    <v>       0.74724597       0.50665731       0.25224600 </v>
    <v>       0.01712598      -0.00007798       0.49989005 </v>
    <v>       0.49820390       0.51122752       0.49849006 </v>
[...]
      </set>
     </set>
    </set>
   </array>
  </eigenvalues>
  <separator name="orbital magnetization" >
   <v name="MAGDIPOLOUT">      0.00000000      0.00000000      0.00000000</v>
  </separator>
  <dos>
   <i name="efermi">      8.25833948 </i>
   <total>
    <array>
     <dimension dim="1">gridpoints</dimension>
     <dimension dim="2">spin</dimension>
     <field>energy</field>
     <field>total</field>
     <field>integrated</field>
     <set>
      <set comment="spin 1">
       <r>   -52.4103     0.0000     0.0000 </r>
       <r>   -52.1894     0.0000     0.0000 </r>
       <r>   -51.9684     0.0000     0.0000 </r>
       <r>   -51.7475     0.0000     0.0000 </r>
       <r>   -51.5265     0.0000     0.0000 </r>
       <r>   -51.3056     0.0000     0.0000 </r>
       <r>   -51.0846     0.0000     0.0000 </r>
       <r>   -50.8637     0.0000     0.0000 </r>
       <r>   -50.6427     0.0000     0.0000 </r>
       <r>   -50.4218     0.0000     0.0000 </r>
       <r>   -50.2008     0.0000     0.0000 </r>
       <r>   -49.9799     0.0000     0.0000 </r>
       <r>   -49.7589     0.0000     0.0000 </r>
       <r>   -49.5380     0.2122     0.0469 </r>
       <r>   -49.3170    11.4986     2.5875 </r>
       <r>   -49.0961    28.9018     8.9733 </r>
       <r>   -48.8751    16.3100    12.5770 </r>
       <r>   -48.6542     6.4034    13.9919 </r>
       <r>   -48.4332     0.0368    14.0000 </r>
       <r>   -48.2123     0.0000    14.0000 </r>
       <r>   -47.9913     0.0000    14.0000 </r>
       <r>   -47.7704     0.0022    14.0005 </r>
       <r>   -47.5494     3.7964    14.8393 </r>
       <r>   -47.3285    24.4337    20.2379 </r>
       <r>   -47.1075    25.2410    25.8149 </r>
       <r>   -46.8866     0.8377    26.0000 </r>
       <r>   -46.6656     0.0000    26.0000 </r>
       <r>   -46.4447     0.0000    26.0000 </r>
       <r>   -46.2237     0.0000    26.0000 </r>
       <r>   -46.0028     0.0000    26.0000 </r>
       <r>   -45.7818     0.0000    26.0000 </r>
       <r>   -45.5609     0.0000    26.0000 </r>
       <r>   -45.3399     0.0000    26.0000 </r>
       <r>   -45.1190     0.0000    26.0000 </r>
       <r>   -44.8980     0.0000    26.0000 </r>
       <r>   -44.6771     0.0000    26.0000 </r>
       <r>   -44.4561     0.0000    26.0000 </r>
       <r>   -44.2352     0.0000    26.0000 </r>
       <r>   -44.0142     0.0000    26.0000 </r>
       <r>   -43.7933     0.0000    26.0000 </r>
       <r>   -43.5723     0.0000    26.0000 </r>
       <r>   -43.3514     0.0000    26.0000 </r>
       <r>   -43.1304     0.0000    26.0000 </r>
       <r>   -42.9095     0.0000    26.0000 </r>
       <r>   -42.6885     0.0000    26.0000 </r>
       <r>   -42.4676     0.0000    26.0000 </r>
       <r>   -42.2466     0.0000    26.0000 </r>
       <r>   -42.0257     0.0000    26.0000 </r>
       <r>   -41.8047     0.0000    26.0000 </r>
       <r>   -41.5838     0.0000    26.0000 </r>
       <r>   -41.3628     0.0000    26.0000 </r>
       <r>   -41.1419     0.0000    26.0000 </r>
       <r>   -40.9209     0.0002    26.0000 </r>
       <r>   -40.7000     1.5517    26.3429 </r>
       <r>   -40.4790    13.4818    29.3217 </r>
       <r>   -40.2581    18.6162    33.4349 </r>
       <r>   -40.0371    29.0978    39.8641 </r>
       <r>   -39.8162     0.6151    40.0000 </r>
       <r>   -39.5952     0.0000    40.0000 </r>
       <r>   -39.3743     0.0000    40.0000 </r>
       <r>   -39.1533     0.0000    40.0000 </r>
       <r>   -38.9324     0.0000    40.0000 </r>
       <r>   -38.7114     0.0000    40.0000 </r>
       <r>   -38.4905     0.0000    40.0000 </r>
       <r>   -38.2695     0.0000    40.0000 </r>
       <r>   -38.0486     0.0000    40.0000 </r>
       <r>   -37.8276     0.0000    40.0000 </r>
       <r>   -37.6067     0.0000    40.0000 </r>
       <r>   -37.3857     0.0000    40.0000 </r>
       <r>   -37.1648     0.0000    40.0000 </r>
       <r>   -36.9438     0.0000    40.0000 </r>
       <r>   -36.7229     0.0000    40.0000 </r>
       <r>   -36.5019     0.0000    40.0000 </r>
       <r>   -36.2810     0.0000    40.0000 </r>
       <r>   -36.0600     0.0000    40.0000 </r>
       <r>   -35.8391     0.0005    40.0001 </r>
       <r>   -35.6181     2.0801    40.4597 </r>
       <r>   -35.3972    25.0150    45.9868 </r>
       <r>   -35.1762   108.5849    69.9786 </r>
       <r>   -34.9553    26.9707    75.9378 </r>
       <r>   -34.7343     0.2816    76.0000 </r>
       <r>   -34.5134     0.0000    76.0000 </r>
       <r>   -34.2924     0.0000    76.0000 </r>
       <r>   -34.0715     0.0000    76.0000 </r>
       <r>   -33.8505     0.0000    76.0000 </r>
       <r>   -33.6296     0.0000    76.0000 </r>
       <r>   -33.4086     0.0000    76.0000 </r>
       <r>   -33.1877     0.0000    76.0000 </r>
       <r>   -32.9667     0.0000    76.0000 </r>
       <r>   -32.7458     0.0000    76.0000 </r>
       <r>   -32.5248     0.0000    76.0000 </r>
       <r>   -32.3039     0.0000    76.0000 </r>
       <r>   -32.0829     0.0000    76.0000 </r>
       <r>   -31.8620     0.0000    76.0000 </r>
       <r>   -31.6410     0.0000    76.0000 </r>
       <r>   -31.4201     0.0000    76.0000 </r>
       <r>   -31.1991     0.0000    76.0000 </r>
       <r>   -30.9782     0.0000    76.0000 </r>
       <r>   -30.7572     0.0000    76.0000 </r>
       <r>   -30.5363     0.0000    76.0000 </r>
       <r>   -30.3153     0.0000    76.0000 </r>
       <r>   -30.0944     0.0000    76.0000 </r>
       <r>   -29.8734     0.0000    76.0000 </r>
       <r>   -29.6525     0.0000    76.0000 </r>
       <r>   -29.4315     0.0000    76.0000 </r>
       <r>   -29.2106     0.0000    76.0000 </r>
       <r>   -28.9896     0.0000    76.0000 </r>
       <r>   -28.7687     0.0000    76.0000 </r>
       <r>   -28.5477     0.0000    76.0000 </r>
       <r>   -28.3268     0.0000    76.0000 </r>
       <r>   -28.1058     0.0000    76.0000 </r>
       <r>   -27.8849     0.0000    76.0000 </r>
       <r>   -27.6639     0.0000    76.0000 </r>
       <r>   -27.4430     0.0000    76.0000 </r>
       <r>   -27.2220     0.0000    76.0000 </r>
       <r>   -27.0011     0.0000    76.0000 </r>
       <r>   -26.7801     0.0000    76.0000 </r>
       <r>   -26.5592     0.0000    76.0000 </r>
       <r>   -26.3382     0.0000    76.0000 </r>
       <r>   -26.1173     0.0002    76.0000 </r>
       <r>   -25.8963     2.1947    76.4850 </r>
       <r>   -25.6754    36.4379    84.5359 </r>
       <r>   -25.4544    80.1007   102.2342 </r>
       <r>   -25.2335    54.7274   114.3262 </r>
       <r>   -25.0125    16.5356   117.9797 </r>
       <r>   -24.7916     0.0917   118.0000 </r>
       <r>   -24.5706     0.0000   118.0000 </r>
       <r>   -24.3497     0.0000   118.0000 </r>
       <r>   -24.1287     0.0000   118.0000 </r>
       <r>   -23.9078     0.8388   118.1853 </r>
       <r>   -23.6868    28.1410   124.4031 </r>
       <r>   -23.4659    58.0239   137.2235 </r>
       <r>   -23.2449    69.3060   152.5366 </r>
       <r>   -23.0240     6.6215   153.9996 </r>
       <r>   -22.8030     0.4388   154.0966 </r>
       <r>   -22.5821    18.2352   158.1257 </r>
       <r>   -22.3611    33.0722   165.4330 </r>
       <r>   -22.1402    32.6752   172.6526 </r>
       <r>   -21.9192    28.7054   178.9950 </r>
       <r>   -21.6983    29.6599   185.5484 </r>
       <r>   -21.4773    19.9146   189.9485 </r>
       <r>   -21.2564     0.2331   190.0000 </r>
       <r>   -21.0354     0.0000   190.0000 </r>
       <r>   -20.8145     0.0000   190.0000 </r>
       <r>   -20.5935     0.0000   190.0000 </r>
       <r>   -20.3726     0.0000   190.0000 </r>
       <r>   -20.1516     0.0000   190.0000 </r>
       <r>   -19.9307     0.0000   190.0000 </r>
       <r>   -19.7097     0.0000   190.0000 </r>
       <r>   -19.4888     0.0000   190.0000 </r>
       <r>   -19.2678     0.0113   190.0025 </r>
       <r>   -19.0469     5.6293   191.2463 </r>
       <r>   -18.8259    36.3258   199.2725 </r>
       <r>   -18.6050    63.8687   213.3843 </r>
       <r>   -18.3840    67.7963   228.3639 </r>
       <r>   -18.1631    15.4602   231.7798 </r>
       <r>   -17.9421     0.9966   232.0000 </r>
       <r>   -17.7212     0.0001   232.0000 </r>
       <r>   -17.5002     0.0000   232.0000 </r>
       <r>   -17.2793     0.0000   232.0000 </r>
       <r>   -17.0583     0.0000   232.0000 </r>
       <r>   -16.8374     0.0000   232.0000 </r>
       <r>   -16.6164     0.0000   232.0000 </r>
       <r>   -16.3955     0.0000   232.0000 </r>
       <r>   -16.1745     0.0000   232.0000 </r>
       <r>   -15.9536     0.0000   232.0000 </r>
       <r>   -15.7326     0.0000   232.0000 </r>
       <r>   -15.5117     0.0000   232.0000 </r>
       <r>   -15.2907     0.0000   232.0000 </r>
       <r>   -15.0698     0.0000   232.0000 </r>
       <r>   -14.8488     0.0000   232.0000 </r>
       <r>   -14.6279     0.0000   232.0000 </r>
       <r>   -14.4069     0.0000   232.0000 </r>
       <r>   -14.1860     0.0000   232.0000 </r>
       <r>   -13.9650     0.0000   232.0000 </r>
       <r>   -13.7441     0.0000   232.0000 </r>
       <r>   -13.5231     0.0000   232.0000 </r>
       <r>   -13.3022     0.0000   232.0000 </r>
       <r>   -13.0812     0.0000   232.0000 </r>
       <r>   -12.8603     0.0000   232.0000 </r>
       <r>   -12.6393     0.0000   232.0000 </r>
       <r>   -12.4184     0.0000   232.0000 </r>
       <r>   -12.1974     0.0000   232.0000 </r>
       <r>   -11.9765     0.0000   232.0000 </r>
       <r>   -11.7555     0.0000   232.0000 </r>
       <r>   -11.5346     0.0000   232.0000 </r>
       <r>   -11.3136     0.0000   232.0000 </r>
       <r>   -11.0927     0.0000   232.0000 </r>
       <r>   -10.8717     0.0000   232.0000 </r>
       <r>   -10.6508     0.0000   232.0000 </r>
       <r>   -10.4298     0.0000   232.0000 </r>
       <r>   -10.2089     0.0000   232.0000 </r>
       <r>    -9.9879     0.0000   232.0000 </r>
       <r>    -9.7670     0.0000   232.0000 </r>
       <r>    -9.5460     0.0000   232.0000 </r>
       <r>    -9.3251     0.0000   232.0000 </r>
       <r>    -9.1041     0.0000   232.0000 </r>
       <r>    -8.8832     0.0000   232.0000 </r>
       <r>    -8.6622     0.0000   232.0000 </r>
       <r>    -8.4413     0.0000   232.0000 </r>
       <r>    -8.2203     0.0000   232.0000 </r>
       <r>    -7.9994     0.0000   232.0000 </r>
       <r>    -7.7784     0.0011   232.0002 </r>
       <r>    -7.5575     1.2659   232.2800 </r>
       <r>    -7.3365     7.3226   233.8979 </r>
       <r>    -7.1156     5.6282   235.1414 </r>
       <r>    -6.8946    13.5563   238.1367 </r>
       <r>    -6.6737    14.5353   241.3483 </r>
       <r>    -6.4527    17.8554   245.2934 </r>
       <r>    -6.2318    27.7518   251.4252 </r>
       <r>    -6.0108    20.1769   255.8833 </r>
       <r>    -5.7899     8.7281   257.8117 </r>
       <r>    -5.5689     0.8520   258.0000 </r>
       <r>    -5.3480     0.0000   258.0000 </r>
       <r>    -5.1270     0.0000   258.0000 </r>
       <r>    -4.9061     0.0000   258.0000 </r>
       <r>    -4.6851     0.0000   258.0000 </r>
       <r>    -4.4642     0.0000   258.0000 </r>
       <r>    -4.2432     0.0000   258.0000 </r>
       <r>    -4.0223     0.0858   258.0189 </r>
       <r>    -3.8013     2.5895   258.5911 </r>
       <r>    -3.5804     5.6508   259.8396 </r>
       <r>    -3.3594     5.2221   260.9934 </r>
       <r>    -3.1385    10.9899   263.4217 </r>
       <r>    -2.9175    14.1274   266.5431 </r>
       <r>    -2.6966    20.4610   271.0640 </r>
       <r>    -2.4756    22.2131   275.9720 </r>
       <r>    -2.2547    27.6102   282.0725 </r>
       <r>    -2.0337    28.7280   288.4199 </r>
       <r>    -1.8128    17.1715   292.2139 </r>
       <r>    -1.5918    12.2373   294.9178 </r>
       <r>    -1.3709     4.2507   295.8570 </r>
       <r>    -1.1499     0.6441   295.9993 </r>
       <r>    -0.9290     0.0033   296.0000 </r>
       <r>    -0.7080     0.0000   296.0000 </r>
       <r>    -0.4871     0.0000   296.0000 </r>
       <r>    -0.2661     0.0000   296.0000 </r>
       <r>    -0.0452     0.0000   296.0000 </r>
       <r>     0.1758     0.0000   296.0000 </r>
       <r>     0.3967     0.0000   296.0000 </r>
       <r>     0.6177     0.0000   296.0000 </r>
       <r>     0.8386     0.0105   296.0023 </r>
       <r>     1.0596     0.9321   296.2083 </r>
       <r>     1.2805     3.6276   297.0098 </r>
       <r>     1.5015    12.0382   299.6697 </r>
       <r>     1.7224    11.9203   302.3034 </r>
       <r>     1.9434    15.3031   305.6847 </r>
       <r>     2.1643    22.7072   310.7018 </r>
       <r>     2.3853    31.0514   317.5626 </r>
       <r>     2.6062    29.9385   324.1776 </r>
       <r>     2.8272    29.7454   330.7498 </r>
       <r>     3.0481    38.7870   339.3198 </r>
       <r>     3.2691    34.6523   346.9762 </r>
       <r>     3.4900    37.7663   355.3207 </r>
       <r>     3.7110    52.2677   366.8692 </r>
       <r>     3.9319    58.2466   379.7388 </r>
       <r>     4.1529    62.7495   393.6033 </r>
       <r>     4.3738    63.3328   407.5966 </r>
       <r>     4.5948    60.2934   420.9185 </r>
       <r>     4.8157    57.0913   433.5328 </r>
       <r>     5.0367    54.7301   445.6254 </r>
       <r>     5.2576    42.8747   455.0986 </r>
       <r>     5.4786    37.1109   463.2982 </r>
       <r>     5.6995    31.7774   470.3195 </r>
       <r>     5.9205    27.8239   476.4671 </r>
       <r>     6.1414    22.3940   481.4151 </r>
       <r>     6.3624    16.8279   485.1332 </r>
       <r>     6.5833     9.4572   487.2228 </r>
       <r>     6.8043     8.8503   489.1783 </r>
       <r>     7.0252    14.2565   492.3282 </r>
       <r>     7.2462    15.2023   495.6872 </r>
       <r>     7.4671    22.5339   500.6661 </r>
       <r>     7.6881    21.6592   505.4517 </r>
       <r>     7.9090    22.8871   510.5086 </r>
       <r>     8.1300    21.9600   515.3606 </r>
       <r>     8.3510    27.1480   521.3590 </r>
       <r>     8.5719    27.5389   527.4437 </r>
       <r>     8.7929    34.5464   535.0767 </r>
       <r>     9.0138    40.4413   544.0123 </r>
       <r>     9.2348    42.9894   553.5108 </r>
       <r>     9.4557    45.1774   563.4927 </r>
       <r>     9.6767    42.9825   572.9897 </r>
       <r>     9.8976    43.2310   582.5416 </r>
       <r>    10.1186    47.9491   593.1360 </r>
       <r>    10.3395    45.1963   603.1221 </r>
       <r>    10.5605    42.2714   612.4619 </r>
       <r>    10.7814    41.8664   621.7123 </r>
       <r>    11.0024    10.3131   623.9910 </r>
       <r>    11.2233     0.0408   624.0000 </r>
       <r>    11.4443     0.0000   624.0000 </r>
       <r>    11.6652     0.0000   624.0000 </r>
       <r>    11.8862     0.0000   624.0000 </r>
       <r>    12.1071     0.0000   624.0000 </r>
       <r>    12.3281     0.0000   624.0000 </r>
       <r>    12.5490     0.0000   624.0000 </r>
       <r>    12.7700     0.0000   624.0000 </r>
       <r>    12.9909     0.0000   624.0000 </r>
       <r>    13.2119     0.0000   624.0000 </r>
       <r>    13.4328     0.0000   624.0000 </r>
       <r>    13.6538     0.0000   624.0000 </r>
       <r>    13.8747     0.0000   624.0000 </r>
      </set>
     </set>
    </array>
   </total>
  </dos>
 </calculation>
 <structure name="finalpos" >
  <crystal>
   <varray name="basis" >
    <v>       8.89091332       0.00840582      -0.00870297 </v>
    <v>       0.01462044       8.88895705      -0.01260888 </v>
    <v>       0.02334830      -0.02795708       8.92670074 </v>
   </varray>
   <i name="volume">    705.48318600 </i>
   <varray name="rec_basis" >
    <v>       0.11247427      -0.00018541      -0.00029476 </v>
    <v>      -0.00010602       0.11249981       0.00035261 </v>
    <v>       0.00010951       0.00015872       0.11202368 </v>
   </varray>
  </crystal>
  <varray name="positions" >
   <v>       0.00705009       0.99236239       0.00057423 </v>
   <v>       0.27299518       0.99867931       0.25323261 </v>
   <v>       0.24812892       0.49662902       0.24847858 </v>
   <v>       0.49654234       0.49929064       0.00034239 </v>
   <v>       0.50141048       0.24467052       0.74607949 </v>
   <v>      -0.00066863       0.49987614       0.50483418 </v>
   <v>       0.49547221       0.76058303       0.74822549 </v>
   <v>      -0.00012361       0.24597388       0.24300112 </v>
   <v>       0.74194466       0.75263513       0.00699720 </v>
   <v>       0.99533928       0.24554907       0.75753926 </v>
   <v>       0.74623288       0.24030287       0.49849378 </v>
   <v>      -0.00015084       0.75721891       0.74929118 </v>
   <v>       0.24794303       0.50049016       0.75154969 </v>
   <v>       0.26153251       0.23590420       0.99209343 </v>
   <v>       0.50281490       0.25911036       0.24993037 </v>
   <v>       0.73155144       0.99349121       0.24889438 </v>
   <v>       0.73940560       0.24582188       0.00110173 </v>
   <v>       0.25489399       0.75276273       0.00081720 </v>
   <v>       0.25438270       0.24601810       0.50620990 </v>
   <v>       0.25315908       0.75421151       0.50006346 </v>
   <v>       0.25368328       0.24654119       0.24508479 </v>
   <v>       0.26218561       0.00094710       0.99623483 </v>
   <v>       0.99778706       0.24712294       0.99971106 </v>
   <v>       0.74627801       0.24540578       0.24682190 </v>
   <v>       0.74164905       0.00343308       0.00349176 </v>
   <v>       0.51237017       0.00676907       0.25622333 </v>
   <v>       0.99527805       0.49707609       0.24364215 </v>
   <v>       0.49530783       0.76308947       0.00599314 </v>
   <v>      -0.00773189       0.00292868       0.74505138 </v>
   <v>       0.75071276       0.24600933       0.75272654 </v>
   <v>       0.74757688       0.00010339       0.49010779 </v>
   <v>       0.49754457       0.24466112       0.49184456 </v>
   <v>       0.52572551       0.00206630       0.74585827 </v>
   <v>      -0.00007115       0.99699996       0.25187287 </v>
   <v>       0.50186572       0.23906685       0.00391594 </v>
   <v>       0.25649332       0.74845174       0.24829833 </v>
   <v>       0.23793256       0.49992333       0.99814078 </v>
   <v>       0.00408614       0.74190139       0.00203294 </v>
   <v>       0.74333811       0.75339445       0.25337516 </v>
   <v>       0.75940657       0.49500468       0.00244562 </v>
   <v>       0.50237013       0.49724940       0.25348307 </v>
   <v>       0.24743368       0.23775923       0.74936774 </v>
   <v>       0.25955307       0.00034669       0.50949654 </v>
   <v>       0.00150739       0.24461257       0.49875447 </v>
   <v>       0.24607801       0.76317200       0.75122491 </v>
   <v>       0.25463906       0.49755864       0.50074485 </v>
   <v>      -0.00030244       0.75598930       0.49651179 </v>
   <v>       0.99637581       0.50195646       0.76195273 </v>
   <v>       0.74886540       0.75902271       0.75351927 </v>
   <v>       0.74500064       0.50232181       0.49993861 </v>
   <v>       0.49544964       0.76263745       0.48862065 </v>
   <v>       0.50158280       0.50223898       0.74570949 </v>
   <v>       0.51349557       0.01141507       0.97040280 </v>
   <v>       0.00434142       0.51993908       0.98764439 </v>
   <v>       0.49772452       0.72762356       0.26240887 </v>
   <v>       0.22940690       0.00147063       0.72622326 </v>
   <v>       0.48486669       0.99131855       0.52289251 </v>
   <v>       0.73859359       0.98022153       0.78447127 </v>
   <v>       0.00840388       0.75237522       0.25146560 </v>
   <v>       0.74673093       0.50575193       0.25135559 </v>
   <v>       0.01408282       0.00003620       0.49820809 </v>
   <v>       0.49806998       0.51107020       0.49878438 </v>
   <v>       0.74918534       0.51217192       0.75383599 </v>
   <v>       0.74527121       0.75926362       0.49236042 </v>
  </varray>
 </structure>
</modeling>
