  64  64   0   0
  0.1129557E+02  0.8932500E-09  0.9055600E-09  0.8937200E-09  0.5000000E-15
  1.000000000000000E-004
  CAR 
 HECN                                    
     12.87343100    -61.17230708  301      7.27886935      1.00000000
    -61.172  0.0000E+00  0.0000E+00
    -60.925  0.0000E+00  0.0000E+00
    -60.679  0.0000E+00  0.0000E+00
    -60.432  0.0000E+00  0.0000E+00
    -60.185  0.0000E+00  0.0000E+00
    -59.938  0.0000E+00  0.0000E+00
    -59.691  0.0000E+00  0.0000E+00
    -59.445  0.0000E+00  0.0000E+00
    -59.198  0.0000E+00  0.0000E+00
    -58.951  0.0000E+00  0.0000E+00
    -58.704  0.0000E+00  0.0000E+00
    -58.457  0.0000E+00  0.0000E+00
    -58.210  0.4536E-09  0.1120E-09
    -57.964  0.1132E-02  0.2794E-03
    -57.717  0.1510E+00  0.3754E-01
    -57.470  0.2732E+00  0.1050E+00
    -57.223  0.6085E-01  0.1200E+00
    -56.976  0.5637E-04  0.1200E+00
    -56.730  0.9183E-12  0.1200E+00
    -56.483  0.0000E+00  0.1200E+00
    -56.236  0.0000E+00  0.1200E+00
    -55.989  0.0000E+00  0.1200E+00
    -55.742  0.0000E+00  0.1200E+00
    -55.495  0.0000E+00  0.1200E+00
    -55.249  0.0000E+00  0.1200E+00
    -55.002  0.0000E+00  0.1200E+00
    -54.755  0.0000E+00  0.1200E+00
    -54.508  0.0000E+00  0.1200E+00
    -54.261  0.0000E+00  0.1200E+00
    -54.015  0.0000E+00  0.1200E+00
    -53.768  0.0000E+00  0.1200E+00
    -53.521  0.0000E+00  0.1200E+00
    -53.274  0.0000E+00  0.1200E+00
    -53.027  0.0000E+00  0.1200E+00
    -52.780  0.0000E+00  0.1200E+00
    -52.534  0.0000E+00  0.1200E+00
    -52.287  0.0000E+00  0.1200E+00
    -52.040  0.0000E+00  0.1200E+00
    -51.793  0.0000E+00  0.1200E+00
    -51.546  0.0000E+00  0.1200E+00
    -51.300  0.0000E+00  0.1200E+00
    -51.053  0.0000E+00  0.1200E+00
    -50.806  0.0000E+00  0.1200E+00
    -50.559  0.0000E+00  0.1200E+00
    -50.312  0.0000E+00  0.1200E+00
    -50.065  0.0000E+00  0.1200E+00
    -49.819  0.0000E+00  0.1200E+00
    -49.572  0.0000E+00  0.1200E+00
    -49.325  0.0000E+00  0.1200E+00
    -49.078  0.0000E+00  0.1200E+00
    -48.831  0.0000E+00  0.1200E+00
    -48.585  0.0000E+00  0.1200E+00
    -48.338  0.0000E+00  0.1200E+00
    -48.091  0.0000E+00  0.1200E+00
    -47.844  0.0000E+00  0.1200E+00
    -47.597  0.0000E+00  0.1200E+00
    -47.350  0.0000E+00  0.1200E+00
    -47.104  0.0000E+00  0.1200E+00
    -46.857  0.0000E+00  0.1200E+00
    -46.610  0.0000E+00  0.1200E+00
    -46.363  0.0000E+00  0.1200E+00
    -46.116  0.0000E+00  0.1200E+00
    -45.870  0.0000E+00  0.1200E+00
    -45.623  0.0000E+00  0.1200E+00
    -45.376  0.0000E+00  0.1200E+00
    -45.129  0.0000E+00  0.1200E+00
    -44.882  0.0000E+00  0.1200E+00
    -44.635  0.0000E+00  0.1200E+00
    -44.389  0.0000E+00  0.1200E+00
    -44.142  0.0000E+00  0.1200E+00
    -43.895  0.0000E+00  0.1200E+00
    -43.648  0.0000E+00  0.1200E+00
    -43.401  0.0000E+00  0.1200E+00
    -43.155  0.0000E+00  0.1200E+00
    -42.908  0.0000E+00  0.1200E+00
    -42.661  0.0000E+00  0.1200E+00
    -42.414  0.0000E+00  0.1200E+00
    -42.167  0.1316E-09  0.1200E+00
    -41.920  0.8013E-03  0.1202E+00
    -41.674  0.1651E+00  0.1609E+00
    -41.427  0.7776E-01  0.1801E+00
    -41.180  0.1715E+00  0.2225E+00
    -40.933  0.7621E-01  0.2413E+00
    -40.686  0.7388E-01  0.2595E+00
    -40.440  0.1996E-02  0.2600E+00
    -40.193  0.1964E-08  0.2600E+00
    -39.946  0.0000E+00  0.2600E+00
    -39.699  0.0000E+00  0.2600E+00
    -39.452  0.0000E+00  0.2600E+00
    -39.205  0.0000E+00  0.2600E+00
    -38.959  0.0000E+00  0.2600E+00
    -38.712  0.0000E+00  0.2600E+00
    -38.465  0.0000E+00  0.2600E+00
    -38.218  0.0000E+00  0.2600E+00
    -37.971  0.0000E+00  0.2600E+00
    -37.724  0.0000E+00  0.2600E+00
    -37.478  0.0000E+00  0.2600E+00
    -37.231  0.0000E+00  0.2600E+00
    -36.984  0.7229E-09  0.2600E+00
    -36.737  0.1310E-02  0.2603E+00
    -36.490  0.1158E+00  0.2889E+00
    -36.244  0.7362E+00  0.4706E+00
    -35.997  0.5917E+00  0.6167E+00
    -35.750  0.1350E-01  0.6200E+00
    -35.503  0.6158E-07  0.6200E+00
    -35.256  0.0000E+00  0.6200E+00
    -35.009  0.0000E+00  0.6200E+00
    -34.763  0.0000E+00  0.6200E+00
    -34.516  0.0000E+00  0.6200E+00
    -34.269  0.0000E+00  0.6200E+00
    -34.022  0.0000E+00  0.6200E+00
    -33.775  0.0000E+00  0.6200E+00
    -33.529  0.0000E+00  0.6200E+00
    -33.282  0.0000E+00  0.6200E+00
    -33.035  0.0000E+00  0.6200E+00
    -32.788  0.0000E+00  0.6200E+00
    -32.541  0.0000E+00  0.6200E+00
    -32.294  0.1611E-10  0.6200E+00
    -32.048  0.2674E-03  0.6201E+00
    -31.801  0.1470E+00  0.6563E+00
    -31.554  0.7238E+00  0.8350E+00
    -31.307  0.5341E+00  0.9668E+00
    -31.060  0.5339E-01  0.9800E+00
    -30.814  0.1637E-04  0.9800E+00
    -30.567  0.8443E-13  0.9800E+00
    -30.320  0.0000E+00  0.9800E+00
    -30.073  0.0000E+00  0.9800E+00
    -29.826  0.0000E+00  0.9800E+00
    -29.579  0.0000E+00  0.9800E+00
    -29.333  0.0000E+00  0.9800E+00
    -29.086  0.0000E+00  0.9800E+00
    -28.839  0.0000E+00  0.9800E+00
    -28.592  0.0000E+00  0.9800E+00
    -28.345  0.0000E+00  0.9800E+00
    -28.099  0.0000E+00  0.9800E+00
    -27.852  0.0000E+00  0.9800E+00
    -27.605  0.0000E+00  0.9800E+00
    -27.358  0.0000E+00  0.9800E+00
    -27.111  0.0000E+00  0.9800E+00
    -26.864  0.0000E+00  0.9800E+00
    -26.618  0.0000E+00  0.9800E+00
    -26.371  0.0000E+00  0.9800E+00
    -26.124  0.0000E+00  0.9800E+00
    -25.877  0.0000E+00  0.9800E+00
    -25.630  0.0000E+00  0.9800E+00
    -25.384  0.0000E+00  0.9800E+00
    -25.137  0.0000E+00  0.9800E+00
    -24.890  0.0000E+00  0.9800E+00
    -24.643  0.0000E+00  0.9800E+00
    -24.396  0.0000E+00  0.9800E+00
    -24.149  0.1146E-11  0.9800E+00
    -23.903  0.8069E-04  0.9800E+00
    -23.656  0.1080E+00  0.1007E+01
    -23.409  0.2304E+00  0.1064E+01
    -23.162  0.7687E+00  0.1253E+01
    -22.915  0.5318E+00  0.1385E+01
    -22.669  0.6265E-01  0.1400E+01
    -22.422  0.6733E-04  0.1400E+01
    -22.175  0.1309E-11  0.1400E+01
    -21.928  0.0000E+00  0.1400E+01
    -21.681  0.0000E+00  0.1400E+01
    -21.434  0.0000E+00  0.1400E+01
    -21.188  0.0000E+00  0.1400E+01
    -20.941  0.0000E+00  0.1400E+01
    -20.694  0.5263E-08  0.1400E+01
    -20.447  0.2987E-02  0.1401E+01
    -20.200  0.1061E+00  0.1427E+01
    -19.954  0.4123E+00  0.1529E+01
    -19.707  0.2261E+00  0.1584E+01
    -19.460  0.6431E+00  0.1743E+01
    -19.213  0.1919E+00  0.1791E+01
    -18.966  0.1191E+00  0.1820E+01
    -18.719  0.6602E-04  0.1820E+01
    -18.473  0.5637E-12  0.1820E+01
    -18.226  0.0000E+00  0.1820E+01
    -17.979  0.0000E+00  0.1820E+01
    -17.732  0.0000E+00  0.1820E+01
    -17.485  0.0000E+00  0.1820E+01
    -17.239  0.0000E+00  0.1820E+01
    -16.992  0.0000E+00  0.1820E+01
    -16.745  0.0000E+00  0.1820E+01
    -16.498  0.0000E+00  0.1820E+01
    -16.251  0.0000E+00  0.1820E+01
    -16.004  0.0000E+00  0.1820E+01
    -15.758  0.0000E+00  0.1820E+01
    -15.511  0.0000E+00  0.1820E+01
    -15.264  0.0000E+00  0.1820E+01
    -15.017  0.0000E+00  0.1820E+01
    -14.770  0.0000E+00  0.1820E+01
    -14.523  0.0000E+00  0.1820E+01
    -14.277  0.0000E+00  0.1820E+01
    -14.030  0.0000E+00  0.1820E+01
    -13.783  0.0000E+00  0.1820E+01
    -13.536  0.0000E+00  0.1820E+01
    -13.289  0.0000E+00  0.1820E+01
    -13.043  0.0000E+00  0.1820E+01
    -12.796  0.0000E+00  0.1820E+01
    -12.549  0.0000E+00  0.1820E+01
    -12.302  0.0000E+00  0.1820E+01
    -12.055  0.0000E+00  0.1820E+01
    -11.808  0.0000E+00  0.1820E+01
    -11.562  0.0000E+00  0.1820E+01
    -11.315  0.0000E+00  0.1820E+01
    -11.068  0.0000E+00  0.1820E+01
    -10.821  0.0000E+00  0.1820E+01
    -10.574  0.0000E+00  0.1820E+01
    -10.328  0.0000E+00  0.1820E+01
    -10.081  0.0000E+00  0.1820E+01
     -9.834  0.0000E+00  0.1820E+01
     -9.587  0.0000E+00  0.1820E+01
     -9.340  0.0000E+00  0.1820E+01
     -9.093  0.2102E-11  0.1820E+01
     -8.847  0.2583E-04  0.1820E+01
     -8.600  0.2594E-01  0.1826E+01
     -8.353  0.5522E-01  0.1840E+01
     -8.106  0.8986E-01  0.1862E+01
     -7.859  0.1440E+00  0.1898E+01
     -7.613  0.1165E+00  0.1926E+01
     -7.366  0.1392E+00  0.1961E+01
     -7.119  0.1742E+00  0.2004E+01
     -6.872  0.2530E+00  0.2066E+01
     -6.625  0.5549E-01  0.2080E+01
     -6.378  0.1625E-04  0.2080E+01
     -6.132  0.8153E-13  0.2080E+01
     -5.885  0.0000E+00  0.2080E+01
     -5.638  0.7197E-11  0.2080E+01
     -5.391  0.4897E-04  0.2080E+01
     -5.144  0.2292E-01  0.2086E+01
     -4.898  0.5698E-01  0.2100E+01
     -4.651  0.6471E-01  0.2116E+01
     -4.404  0.1340E+00  0.2149E+01
     -4.157  0.1737E+00  0.2192E+01
     -3.910  0.2482E+00  0.2253E+01
     -3.663  0.1881E+00  0.2299E+01
     -3.417  0.1808E+00  0.2344E+01
     -3.170  0.1814E+00  0.2389E+01
     -2.923  0.1439E+00  0.2424E+01
     -2.676  0.1053E+00  0.2450E+01
     -2.429  0.3749E-01  0.2459E+01
     -2.183  0.2060E-02  0.2460E+01
     -1.936  0.9460E-07  0.2460E+01
     -1.689  0.9463E-16  0.2460E+01
     -1.442  0.0000E+00  0.2460E+01
     -1.195  0.0000E+00  0.2460E+01
     -0.948  0.0000E+00  0.2460E+01
     -0.702  0.5863E-12  0.2460E+01
     -0.455  0.1029E-04  0.2460E+01
     -0.208  0.5443E-02  0.2461E+01
      0.039  0.2183E-01  0.2467E+01
      0.286  0.9257E-01  0.2490E+01
      0.532  0.1235E+00  0.2520E+01
      0.779  0.2006E+00  0.2570E+01
      1.026  0.2727E+00  0.2637E+01
      1.273  0.2788E+00  0.2706E+01
      1.520  0.2738E+00  0.2773E+01
      1.767  0.3312E+00  0.2855E+01
      2.013  0.3484E+00  0.2941E+01
      2.260  0.3981E+00  0.3039E+01
      2.507  0.5380E+00  0.3172E+01
      2.754  0.6183E+00  0.3325E+01
      3.001  0.6835E+00  0.3493E+01
      3.247  0.6325E+00  0.3650E+01
      3.494  0.5567E+00  0.3787E+01
      3.741  0.5136E+00  0.3914E+01
      3.988  0.4713E+00  0.4030E+01
      4.235  0.3756E+00  0.4123E+01
      4.482  0.3066E+00  0.4198E+01
      4.728  0.2655E+00  0.4264E+01
      4.975  0.2239E+00  0.4319E+01
      5.222  0.1607E+00  0.4359E+01
      5.469  0.1345E+00  0.4392E+01
      5.716  0.1334E+00  0.4425E+01
      5.962  0.1898E+00  0.4472E+01
      6.209  0.1961E+00  0.4520E+01
      6.456  0.2575E+00  0.4584E+01
      6.703  0.2569E+00  0.4647E+01
      6.950  0.2972E+00  0.4721E+01
      7.197  0.2770E+00  0.4789E+01
      7.443  0.2766E+00  0.4857E+01
      7.690  0.3550E+00  0.4945E+01
      7.937  0.4777E+00  0.5063E+01
      8.184  0.5484E+00  0.5198E+01
      8.431  0.5059E+00  0.5323E+01
      8.678  0.5273E+00  0.5453E+01
      8.924  0.4537E+00  0.5565E+01
      9.171  0.3909E+00  0.5662E+01
      9.418  0.3238E+00  0.5741E+01
      9.665  0.7478E-01  0.5760E+01
      9.912  0.2645E-03  0.5760E+01
     10.158  0.6531E-10  0.5760E+01
     10.405  0.0000E+00  0.5760E+01
     10.652  0.0000E+00  0.5760E+01
     10.899  0.0000E+00  0.5760E+01
     11.146  0.0000E+00  0.5760E+01
     11.393  0.0000E+00  0.5760E+01
     11.639  0.0000E+00  0.5760E+01
     11.886  0.0000E+00  0.5760E+01
     12.133  0.0000E+00  0.5760E+01
     12.380  0.0000E+00  0.5760E+01
     12.627  0.0000E+00  0.5760E+01
     12.873  0.0000E+00  0.5760E+01
