<?xml version="1.0" encoding="ISO-8859-1"?>
<modeling>
 <generator>
  <i name="program" type="string">vasp </i>
  <i name="version" type="string">5.4.4.18Apr17-6-g9f103f2a35  </i>
  <i name="subversion" type="string">(build Oct 18 2021 20:38:43) complex            parallel </i>
  <i name="platform" type="string">LinuxIFC </i>
  <i name="date" type="string">2024 06 08 </i>
  <i name="time" type="string">16:00:20 </i>
 </generator>
 <incar>
  <i type="string" name="SYSTEM">HECN</i>
  <i type="int" name="ISTART">     0</i>
  <i type="string" name="PREC">normal</i>
  <i type="string" name="ALGO">Fast</i>
  <i type="int" name="ICHARG">     2</i>
  <i type="int" name="NELM">    60</i>
  <i type="int" name="IBRION">     2</i>
  <i name="EDIFF">      0.00001000</i>
  <i name="EDIFFG">     -0.01000000</i>
  <i type="int" name="NSW">   100</i>
  <i type="int" name="ISIF">     3</i>
  <i name="ENCUT">    400.00000000</i>
  <i name="POTIM">      0.50000000</i>
  <i type="logical" name="LREAL"> F  </i>
  <i type="int" name="ISMEAR">     0</i>
  <i name="SIGMA">      0.10000000</i>
  <i type="logical" name="LWAVE"> F  </i>
  <i type="logical" name="LCHARG"> F  </i>
  <v type="int" name="KPOINT_BSE">    -1     0     0     0</v>
  <i type="int" name="NELM">    60</i>
 </incar>
 <structure name="primitive_cell" >
  <crystal>
   <varray name="basis" >
    <v>       8.93249989       0.00000000       0.00000000 </v>
    <v>       0.00575300       9.05559834       0.00000000 </v>
    <v>       0.03210180      -0.01574346       8.93712807 </v>
   </varray>
   <i name="volume">    722.91652451 </i>
   <varray name="rec_basis" >
    <v>       0.11195074      -0.00007112      -0.00040225 </v>
    <v>       0.00000000       0.11042893       0.00019453 </v>
    <v>       0.00000000       0.00000000       0.11189277 </v>
   </varray>
  </crystal>
  <varray name="positions" >
   <v>      -0.00311999      -0.00795003      -0.00075998 </v>
   <v>      -0.25232999      -0.00252000       0.01202000 </v>
   <v>      -0.00162995      -0.25686004       0.00460000 </v>
   <v>      -0.00280000      -0.00228008       0.25899999 </v>
   <v>       0.00281000       0.25024000       0.00130000 </v>
   <v>      -0.01103011       0.00202000      -0.26291001 </v>
   <v>       0.26146999      -0.00015998      -0.00704004 </v>
   <v>      -0.00135002      -0.22426001       0.26102000 </v>
   <v>      -0.25720997      -0.02130006      -0.23549005 </v>
   <v>       0.23780002       0.01082000      -0.25392002 </v>
   <v>      -0.24282000      -0.25897003       0.01100000 </v>
   <v>       0.24762001      -0.25026001      -0.00025994 </v>
   <v>      -0.00485996      -0.25507996      -0.25488003 </v>
   <v>      -0.24281000       0.25603001      -0.00408003 </v>
   <v>       0.25398003      -0.00285005       0.24912000 </v>
   <v>       0.24788999       0.24839000      -0.00342003 </v>
   <v>      -0.00562996       0.23617001       0.26379999 </v>
   <v>      -0.25120996      -0.01212001       0.26967001 </v>
   <v>       0.00201000       0.25541000      -0.26105999 </v>
   <v>       0.24177002      -0.24659003      -0.24981998 </v>
   <v>      -0.24963995      -0.25112000      -0.25243996 </v>
   <v>      -0.24255004       0.24437997      -0.25103001 </v>
   <v>       0.25133999      -0.25041998       0.24910999 </v>
   <v>      -0.24367000      -0.26108997       0.25767000 </v>
   <v>      -0.24686002       0.24616999       0.25492002 </v>
   <v>       0.24982001       0.24942998       0.24825000 </v>
   <v>       0.24900999       0.25315000      -0.25146000 </v>
   <v>      -0.48411003       0.01358000      -0.01924992 </v>
   <v>      -0.00158006      -0.49023002      -0.01386996 </v>
   <v>       0.02362000      -0.00216999       0.49557002 </v>
   <v>      -0.49480995      -0.23869001       0.00855000 </v>
   <v>      -0.49285006      -0.00023001       0.24673000 </v>
   <v>      -0.24160996      -0.49684002       0.00288000 </v>
   <v>      -0.00999997      -0.23784997       0.49746000 </v>
   <v>      -0.00948001       0.48088003       0.24100999 </v>
   <v>       0.24446000      -0.00176004      -0.49712002 </v>
   <v>      -0.26367999       0.00417000      -0.48937000 </v>
   <v>       0.24328000      -0.49927003      -0.00489006 </v>
   <v>      -0.49572003       0.24673000       0.00262000 </v>
   <v>      -0.00796004      -0.49944001      -0.24861998 </v>
   <v>      -0.00195991       0.24229999      -0.49871997 </v>
   <v>      -0.49991002       0.00061000      -0.26528002 </v>
   <v>      -0.26123997      -0.47171998      -0.26185001 </v>
   <v>       0.49950005      -0.24518001      -0.25182996 </v>
   <v>       0.24457999      -0.24951001       0.49983999 </v>
   <v>      -0.24599997      -0.27062001       0.49116997 </v>
   <v>      -0.49520997       0.24631001      -0.25289998 </v>
   <v>       0.24803003      -0.49835000       0.24955001 </v>
   <v>      -0.26448999      -0.48531996       0.26666001 </v>
   <v>      -0.49167000       0.25676999       0.25376001 </v>
   <v>      -0.49620997      -0.26073003       0.25905001 </v>
   <v>      -0.24692999       0.26163001      -0.49466998 </v>
   <v>       0.25272001       0.24823001      -0.49984997 </v>
   <v>       0.25679999       0.49462002      -0.25454998 </v>
   <v>       0.47957999      -0.01691999       0.49717999 </v>
   <v>      -0.49498994       0.49745998      -0.00165997 </v>
   <v>      -0.00572008      -0.49550001       0.49779000 </v>
   <v>      -0.49436004       0.23264998       0.49544997 </v>
   <v>      -0.49424994      -0.25041998       0.49720000 </v>
   <v>      -0.49299998      -0.49666998       0.25878999 </v>
   <v>      -0.49498997      -0.49782002      -0.26087997 </v>
   <v>      -0.25963999      -0.49803000      -0.49932997 </v>
   <v>       0.25841001      -0.49937998      -0.49870999 </v>
   <v>      -0.49461000      -0.47166995       0.49917999 </v>
  </varray>
 </structure>
 <varray name="primitive_index" >
  <v type="int" >        1 </v>
  <v type="int" >       25 </v>
  <v type="int" >       38 </v>
  <v type="int" >       34 </v>
  <v type="int" >       23 </v>
  <v type="int" >       29 </v>
  <v type="int" >       22 </v>
  <v type="int" >       59 </v>
  <v type="int" >       58 </v>
  <v type="int" >       56 </v>
  <v type="int" >        9 </v>
  <v type="int" >       18 </v>
  <v type="int" >       12 </v>
  <v type="int" >       17 </v>
  <v type="int" >        2 </v>
  <v type="int" >       14 </v>
  <v type="int" >        8 </v>
  <v type="int" >       16 </v>
  <v type="int" >       10 </v>
  <v type="int" >       45 </v>
  <v type="int" >       49 </v>
  <v type="int" >       30 </v>
  <v type="int" >       36 </v>
  <v type="int" >       39 </v>
  <v type="int" >       24 </v>
  <v type="int" >       21 </v>
  <v type="int" >       42 </v>
  <v type="int" >       53 </v>
  <v type="int" >       54 </v>
  <v type="int" >       61 </v>
  <v type="int" >       28 </v>
  <v type="int" >       26 </v>
  <v type="int" >       40 </v>
  <v type="int" >       47 </v>
  <v type="int" >       27 </v>
  <v type="int" >       43 </v>
  <v type="int" >       31 </v>
  <v type="int" >       37 </v>
  <v type="int" >       35 </v>
  <v type="int" >       48 </v>
  <v type="int" >       44 </v>
  <v type="int" >       33 </v>
  <v type="int" >       63 </v>
  <v type="int" >        7 </v>
  <v type="int" >       20 </v>
  <v type="int" >       64 </v>
  <v type="int" >        5 </v>
  <v type="int" >        3 </v>
  <v type="int" >       60 </v>
  <v type="int" >       15 </v>
  <v type="int" >       55 </v>
  <v type="int" >       11 </v>
  <v type="int" >       19 </v>
  <v type="int" >       13 </v>
  <v type="int" >       57 </v>
  <v type="int" >        4 </v>
  <v type="int" >        6 </v>
  <v type="int" >       32 </v>
  <v type="int" >       51 </v>
  <v type="int" >       41 </v>
  <v type="int" >       52 </v>
  <v type="int" >       50 </v>
  <v type="int" >       46 </v>
  <v type="int" >       62 </v>
 </varray>
 <kpoints>
  <generation param="Gamma">
   <v type="int" name="divisions">       3        3        3 </v>
   <v name="usershift">      0.00000000       0.00000000       0.00000000 </v>
   <v name="genvec1">      0.33333333      -0.00000000      -0.00000000 </v>
   <v name="genvec2">      0.00000000       0.33333333       0.00000000 </v>
   <v name="genvec3">      0.00000000       0.00000000       0.33333333 </v>
   <v name="shift">      0.00000000       0.00000000       0.00000000 </v>
  </generation>
  <varray name="kpointlist" >
   <v>       0.00000000       0.00000000       0.00000000 </v>
   <v>       0.33333333       0.00000000       0.00000000 </v>
   <v>       0.00000000       0.33333333       0.00000000 </v>
   <v>       0.33333333       0.33333333       0.00000000 </v>
   <v>      -0.33333333       0.33333333       0.00000000 </v>
   <v>       0.00000000       0.00000000       0.33333333 </v>
   <v>       0.33333333       0.00000000       0.33333333 </v>
   <v>      -0.33333333       0.00000000       0.33333333 </v>
   <v>       0.00000000       0.33333333       0.33333333 </v>
   <v>       0.33333333       0.33333333       0.33333333 </v>
   <v>      -0.33333333       0.33333333       0.33333333 </v>
   <v>       0.00000000      -0.33333333       0.33333333 </v>
   <v>       0.33333333      -0.33333333       0.33333333 </v>
   <v>      -0.33333333      -0.33333333       0.33333333 </v>
  </varray>
  <varray name="weights" >
   <v>       0.03703704 </v>
   <v>       0.07407407 </v>
   <v>       0.07407407 </v>
   <v>       0.07407407 </v>
   <v>       0.07407407 </v>
   <v>       0.07407407 </v>
   <v>       0.07407407 </v>
   <v>       0.07407407 </v>
   <v>       0.07407407 </v>
   <v>       0.07407407 </v>
   <v>       0.07407407 </v>
   <v>       0.07407407 </v>
   <v>       0.07407407 </v>
   <v>       0.07407407 </v>
  </varray>
 </kpoints>
 <parameters>
  <separator name="general" >
   <i type="string" name="SYSTEM">HECN</i>
   <i type="logical" name="LCOMPAT"> F  </i>
  </separator>
  <separator name="electronic" >
   <i type="string" name="PREC">normal</i>
   <i name="ENMAX">    400.00000000</i>
   <i name="ENAUG">    644.87300000</i>
   <i name="EDIFF">      0.00001000</i>
   <i type="int" name="IALGO">    68</i>
   <i type="int" name="IWAVPR">    11</i>
   <i type="int" name="NBANDS">   288</i>
   <i name="NELECT">    481.00000000</i>
   <i type="int" name="TURBO">     0</i>
   <i type="int" name="IRESTART">     0</i>
   <i type="int" name="NREBOOT">     0</i>
   <i type="int" name="NMIN">     0</i>
   <i name="EREF">      0.00000000</i>
   <separator name="electronic smearing" >
    <i type="int" name="ISMEAR">     0</i>
    <i name="SIGMA">      0.10000000</i>
    <i name="KSPACING">      0.50000000</i>
    <i type="logical" name="KGAMMA"> T  </i>
   </separator>
   <separator name="electronic projectors" >
    <i type="logical" name="LREAL"> F  </i>
    <v name="ROPT">      0.00000000      0.00000000      0.00000000      0.00000000      0.00000000      0.00000000      0.00000000</v>
    <i type="int" name="LMAXPAW">  -100</i>
    <i type="int" name="LMAXMIX">     2</i>
    <i type="logical" name="NLSPLINE"> F  </i>
   </separator>
   <separator name="electronic startup" >
    <i type="int" name="ISTART">     0</i>
    <i type="int" name="ICHARG">     2</i>
    <i type="int" name="INIWAV">     1</i>
   </separator>
   <separator name="electronic spin" >
    <i type="int" name="ISPIN">     1</i>
    <i type="logical" name="LNONCOLLINEAR"> F  </i>
    <v name="MAGMOM">      1.00000000      1.00000000      1.00000000      1.00000000      1.00000000      1.00000000      1.00000000      1.00000000      1.00000000      1.00000000      1.00000000      1.00000000      1.00000000      1.00000000      1.00000000      1.00000000      1.00000000      1.00000000      1.00000000      1.00000000
      1.00000000      1.00000000      1.00000000      1.00000000      1.00000000      1.00000000      1.00000000      1.00000000      1.00000000      1.00000000      1.00000000      1.00000000      1.00000000      1.00000000      1.00000000      1.00000000      1.00000000      1.00000000      1.00000000      1.00000000
      1.00000000      1.00000000      1.00000000      1.00000000      1.00000000      1.00000000      1.00000000      1.00000000      1.00000000      1.00000000      1.00000000      1.00000000      1.00000000      1.00000000      1.00000000      1.00000000      1.00000000      1.00000000      1.00000000      1.00000000
      1.00000000      1.00000000      1.00000000      1.00000000</v>
    <i name="NUPDOWN">     -1.00000000</i>
    <i type="logical" name="LSORBIT"> F  </i>
    <v name="SAXIS">      0.00000000      0.00000000      1.00000000</v>
    <i type="logical" name="LSPIRAL"> F  </i>
    <v name="QSPIRAL">      0.00000000      0.00000000      0.00000000</v>
    <i type="logical" name="LZEROZ"> F  </i>
   </separator>
   <separator name="electronic exchange-correlation" >
    <i type="logical" name="LASPH"> F  </i>
    <i type="logical" name="LMETAGGA"> F  </i>
   </separator>
   <separator name="electronic convergence" >
    <i type="int" name="NELM">    60</i>
    <i type="int" name="NELMDL">    -5</i>
    <i type="int" name="NELMIN">     2</i>
    <i name="ENINI">    400.00000000</i>
    <separator name="electronic convergence detail" >
     <i type="logical" name="LDIAG"> T  </i>
     <i type="logical" name="LSUBROT"> F  </i>
     <i name="WEIMIN">      0.00100000</i>
     <i name="EBREAK">      0.00000001</i>
     <i name="DEPER">      0.30000000</i>
     <i type="int" name="NRMM">     4</i>
     <i name="TIME">      0.40000000</i>
    </separator>
   </separator>
   <separator name="electronic mixer" >
    <i name="AMIX">      0.40000000</i>
    <i name="BMIX">      1.00000000</i>
    <i name="AMIN">      0.10000000</i>
    <i name="AMIX_MAG">      1.60000000</i>
    <i name="BMIX_MAG">      1.00000000</i>
    <separator name="electronic mixer details" >
     <i type="int" name="IMIX">     4</i>
     <i type="logical" name="MIXFIRST"> F  </i>
     <i type="int" name="MAXMIX">   -45</i>
     <i name="WC">    100.00000000</i>
     <i type="int" name="INIMIX">     1</i>
     <i type="int" name="MIXPRE">     1</i>
     <i type="int" name="MREMOVE">     5</i>
    </separator>
   </separator>
   <separator name="electronic dipolcorrection" >
    <i type="logical" name="LDIPOL"> F  </i>
    <i type="logical" name="LMONO"> F  </i>
    <i type="int" name="IDIPOL">     0</i>
    <i name="EPSILON">      1.00000000</i>
    <v name="DIPOL">   -100.00000000   -100.00000000   -100.00000000</v>
    <i name="EFIELD">      0.00000000</i>
   </separator>
  </separator>
  <separator name="grids" >
   <i type="int" name="NGX">    48</i>
   <i type="int" name="NGY">    48</i>
   <i type="int" name="NGZ">    48</i>
   <i type="int" name="NGXF">    96</i>
   <i type="int" name="NGYF">    96</i>
   <i type="int" name="NGZF">    96</i>
   <i type="logical" name="ADDGRID"> F  </i>
  </separator>
  <separator name="ionic" >
   <i type="int" name="NSW">   100</i>
   <i type="int" name="IBRION">     2</i>
   <i type="int" name="MDALGO">     0</i>
   <i type="int" name="ISIF">     3</i>
   <i name="PSTRESS">      0.00000000</i>
   <i name="EDIFFG">     -0.01000000</i>
   <i type="int" name="NFREE">     1</i>
   <i name="POTIM">      0.50000000</i>
   <i name="SMASS">     -3.00000000</i>
   <i name="SCALEE">      1.00000000</i>
  </separator>
  <separator name="ionic md" >
   <i name="TEBEG">      0.00010000</i>
   <i name="TEEND">      0.00010000</i>
   <i type="int" name="NBLOCK">     1</i>
   <i type="int" name="KBLOCK">   100</i>
   <i type="int" name="NPACO">   256</i>
   <i name="APACO">     16.00000000</i>
  </separator>
  <separator name="symmetry" >
   <i type="int" name="ISYM">     2</i>
   <i name="SYMPREC">      0.00001000</i>
  </separator>
  <separator name="dos" >
   <i type="int" name="LORBIT">     0</i>
   <v name="RWIGS">     -1.00000000     -1.00000000     -1.00000000     -1.00000000     -1.00000000     -1.00000000     -1.00000000</v>
   <i type="int" name="NEDOS">   301</i>
   <i name="EMIN">     10.00000000</i>
   <i name="EMAX">    -10.00000000</i>
   <i name="EFERMI">      0.00000000</i>
  </separator>
  <separator name="writing" >
   <i type="int" name="NWRITE">     2</i>
   <i type="logical" name="LWAVE"> F  </i>
   <i type="logical" name="LDOWNSAMPLE"> F  </i>
   <i type="logical" name="LCHARG"> F  </i>
   <i type="logical" name="LPARD"> F  </i>
   <i type="logical" name="LVTOT"> F  </i>
   <i type="logical" name="LVHAR"> F  </i>
   <i type="logical" name="LELF"> F  </i>
   <i type="logical" name="LOPTICS"> F  </i>
   <v name="STM">      0.00000000      0.00000000      0.00000000      0.00000000      0.00000000      0.00000000      0.00000000</v>
  </separator>
  <separator name="performance" >
   <i type="int" name="NPAR">    24</i>
   <i type="int" name="NSIM">     4</i>
   <i type="int" name="NBLK">    -1</i>
   <i type="logical" name="LPLANE"> T  </i>
   <i type="logical" name="LSCALAPACK"> T  </i>
   <i type="logical" name="LSCAAWARE"> F  </i>
   <i type="logical" name="LSCALU"> F  </i>
   <i type="logical" name="LASYNC"> F  </i>
   <i type="logical" name="LORBITALREAL"> F  </i>
  </separator>
  <separator name="miscellaneous" >
   <i type="int" name="IDIOT">     3</i>
   <i type="int" name="ISPECIAL">     0</i>
   <i type="logical" name="LMUSIC"> F  </i>
   <v name="POMASS">    178.49000000     50.94100000     91.22400000     14.00100000     12.01100000     51.99600000     95.94000000</v>
   <v name="DARWINR">      0.00000000      0.00000000      0.00000000      0.00000000      0.00000000      0.00000000      0.00000000</v>
   <v name="DARWINV">      1.00000000      1.00000000      1.00000000      1.00000000      1.00000000      1.00000000      1.00000000</v>
   <i type="logical" name="LCORR"> T  </i>
  </separator>
  <i type="logical" name="GGA_COMPAT"> T  </i>
  <i type="logical" name="LBERRY"> F  </i>
  <i type="int" name="ICORELEVEL">     0</i>
  <i type="logical" name="LDAU"> F  </i>
  <i type="int" name="I_CONSTRAINED_M">     0</i>
  <separator name="electronic exchange-correlation" >
   <i type="string" name="GGA">--</i>
   <i type="int" name="VOSKOWN">     0</i>
   <i type="logical" name="LHFCALC"> F  </i>
   <i type="string" name="PRECFOCK"></i>
   <i type="logical" name="LSYMGRAD"> F  </i>
   <i type="logical" name="LHFONE"> F  </i>
   <i type="logical" name="LRHFCALC"> F  </i>
   <i type="logical" name="LTHOMAS"> F  </i>
   <i type="logical" name="LMODELHF"> F  </i>
   <i name="ENCUT4O">     -1.00000000</i>
   <i type="int" name="EXXOEP">     0</i>
   <i type="int" name="FOURORBIT">     0</i>
   <i name="AEXX">      0.00000000</i>
   <i name="HFALPHA">      0.00000000</i>
   <i name="MCALPHA">      0.00000000</i>
   <i name="ALDAX">      1.00000000</i>
   <i name="AGGAX">      1.00000000</i>
   <i name="ALDAC">      1.00000000</i>
   <i name="AGGAC">      1.00000000</i>
   <i type="int" name="NKREDX">     1</i>
   <i type="int" name="NKREDY">     1</i>
   <i type="int" name="NKREDZ">     1</i>
   <i type="logical" name="SHIFTRED"> F  </i>
   <i type="logical" name="ODDONLY"> F  </i>
   <i type="logical" name="EVENONLY"> F  </i>
   <i type="int" name="LMAXFOCK">     0</i>
   <i type="int" name="NMAXFOCKAE">     0</i>
   <i type="logical" name="LFOCKAEDFT"> F  </i>
   <i name="HFSCREEN">      0.00000000</i>
   <i name="HFSCREENC">      0.00000000</i>
   <i type="int" name="NBANDSGWLOW">     0</i>
  </separator>
  <separator name="vdW DFT" >
   <i type="logical" name="LUSE_VDW"> F  </i>
   <i name="Zab_VDW">     -0.84910000</i>
   <i name="PARAM1">      0.12340000</i>
   <i name="PARAM2">      1.00000000</i>
   <i name="PARAM3">      0.00000000</i>
  </separator>
  <separator name="model GW" >
   <i type="int" name="MODEL_GW">     0</i>
   <i name="MODEL_EPS0">      6.77734242</i>
   <i name="MODEL_ALPHA">      1.00000000</i>
  </separator>
  <separator name="linear response parameters" >
   <i type="logical" name="LEPSILON"> F  </i>
   <i type="logical" name="LRPA"> F  </i>
   <i type="logical" name="LNABLA"> F  </i>
   <i type="logical" name="LVEL"> F  </i>
   <i type="int" name="KINTER">     0</i>
   <i name="CSHIFT">      0.10000000</i>
   <i name="OMEGAMAX">     -1.00000000</i>
   <i name="DEG_THRESHOLD">      0.00200000</i>
   <i name="RTIME">     -0.10000000</i>
   <i name="WPLASMAI">      0.00000000</i>
   <v name="DFIELD">      0.00000000      0.00000000      0.00000000</v>
   <v name="WPLASMA">      0.00000000      0.00000000      0.00000000      0.00000000      0.00000000      0.00000000      0.00000000      0.00000000      0.00000000</v>
  </separator>
  <separator name="orbital magnetization" >
   <i type="logical" name="NUCIND"> F  </i>
   <v name="MAGPOS">      0.00000000      0.00000000      0.00000000</v>
   <i type="logical" name="LNICSALL"> T  </i>
   <i type="logical" name="ORBITALMAG"> F  </i>
   <i type="logical" name="LMAGBLOCH"> F  </i>
   <i type="logical" name="LCHIMAG"> F  </i>
   <i type="logical" name="LGAUGE"> T  </i>
   <i type="int" name="MAGATOM">     0</i>
   <v name="MAGDIPOL">      0.00000000      0.00000000      0.00000000</v>
   <v name="AVECCONST">      0.00000000      0.00000000      0.00000000</v>
  </separator>
  <separator name="response functions" >
   <i type="logical" name="LADDER"> F  </i>
   <i type="logical" name="LRPAFORCE"> F  </i>
   <i type="logical" name="LFXC"> F  </i>
   <i type="logical" name="LHARTREE"> T  </i>
   <i type="int" name="IBSE">     0</i>
   <v type="int" name="KPOINT">    -1     0     0     0</v>
   <i type="logical" name="LTCTE"> F  </i>
   <i type="logical" name="LTETE"> F  </i>
   <i type="logical" name="LTRIPLET"> F  </i>
   <i type="logical" name="LFXCEPS"> F  </i>
   <i type="logical" name="LFXHEG"> F  </i>
   <i type="int" name="NATURALO">     2</i>
   <i type="logical" name="L2ORDER"> F  </i>
   <i type="logical" name="LMP2LT"> F  </i>
   <i type="logical" name="LUSEW"> F  </i>
   <i name="ENCUTGW">     -2.00000000</i>
   <i name="ENCUTGWSOFT">     -2.00000000</i>
   <i name="ENCUTLF">     -1.00000000</i>
   <i type="int" name="LMAXMP2">    -1</i>
   <i name="SCISSOR">      0.00000000</i>
   <i type="int" name="NOMEGA">     0</i>
   <i type="int" name="NOMEGAR">     0</i>
   <i type="int" name="NBANDSGW">    -1</i>
   <i type="int" name="NBANDSO">    -1</i>
   <i type="int" name="NBANDSV">    -1</i>
   <i type="int" name="NELM">    60</i>
   <i type="int" name="NELMHF">     1</i>
   <i type="int" name="DIM">     3</i>
   <i type="int" name="ANTIRES">     0</i>
   <i name="OMEGAMAX">    -30.00000000</i>
   <i name="OMEGAMIN">    -30.00000000</i>
   <i name="OMEGATL">   -200.00000000</i>
   <i type="int" name="OMEGAGRID">   140</i>
   <i name="CSHIFT">     -0.10000000</i>
   <i type="logical" name="SELFENERGY"> F  </i>
   <i type="logical" name="LSPECTRAL"> F  </i>
   <i type="logical" name="LSPECTRALGW"> F  </i>
   <i type="logical" name="LSINGLES"> F  </i>
   <i type="logical" name="LFERMIGW"> F  </i>
   <i type="logical" name="ODDONLYGW"> F  </i>
   <i type="logical" name="EVENONLYGW"> F  </i>
   <i type="int" name="NKREDLFX">     1</i>
   <i type="int" name="NKREDLFY">     1</i>
   <i type="int" name="NKREDLFZ">     1</i>
   <i type="int" name="MAXMEM">  2800</i>
   <i type="int" name="TELESCOPE">     0</i>
   <i type="int" name="TAUPAR">     1</i>
   <i type="int" name="OMEGAPAR">    -1</i>
   <i name="LAMBDA">      1.00000000</i>
  </separator>
  <separator name="External order field" >
   <i name="OFIELD_KAPPA">      0.00000000</i>
   <v name="OFIELD_K">      0.00000000      0.00000000      0.00000000</v>
   <i name="OFIELD_Q6_NEAR">      0.00000000</i>
   <i name="OFIELD_Q6_FAR">      0.00000000</i>
   <i name="OFIELD_A">      0.00000000</i>
  </separator>
 </parameters>
 <atominfo>
  <atoms>      64 </atoms>
  <types>       7 </types>
  <array name="atoms" >
   <dimension dim="1">ion</dimension>
   <field type="string">element</field>
   <field type="int">atomtype</field>
   <set>
    <rc><c>Hf</c><c>   1</c></rc>
    <rc><c>Hf</c><c>   1</c></rc>
    <rc><c>Hf</c><c>   1</c></rc>
    <rc><c>Hf</c><c>   1</c></rc>
    <rc><c>Hf</c><c>   1</c></rc>
    <rc><c>Hf</c><c>   1</c></rc>
    <rc><c>Hf</c><c>   1</c></rc>
    <rc><c>V </c><c>   2</c></rc>
    <rc><c>V </c><c>   2</c></rc>
    <rc><c>V </c><c>   2</c></rc>
    <rc><c>V </c><c>   2</c></rc>
    <rc><c>V </c><c>   2</c></rc>
    <rc><c>V </c><c>   2</c></rc>
    <rc><c>Zr</c><c>   3</c></rc>
    <rc><c>Zr</c><c>   3</c></rc>
    <rc><c>Zr</c><c>   3</c></rc>
    <rc><c>Zr</c><c>   3</c></rc>
    <rc><c>Zr</c><c>   3</c></rc>
    <rc><c>Zr</c><c>   3</c></rc>
    <rc><c>Zr</c><c>   3</c></rc>
    <rc><c>N </c><c>   4</c></rc>
    <rc><c>N </c><c>   4</c></rc>
    <rc><c>N </c><c>   4</c></rc>
    <rc><c>N </c><c>   4</c></rc>
    <rc><c>N </c><c>   4</c></rc>
    <rc><c>N </c><c>   4</c></rc>
    <rc><c>N </c><c>   4</c></rc>
    <rc><c>N </c><c>   4</c></rc>
    <rc><c>N </c><c>   4</c></rc>
    <rc><c>N </c><c>   4</c></rc>
    <rc><c>N </c><c>   4</c></rc>
    <rc><c>N </c><c>   4</c></rc>
    <rc><c>N </c><c>   4</c></rc>
    <rc><c>C </c><c>   5</c></rc>
    <rc><c>C </c><c>   5</c></rc>
    <rc><c>C </c><c>   5</c></rc>
    <rc><c>C </c><c>   5</c></rc>
    <rc><c>C </c><c>   5</c></rc>
    <rc><c>C </c><c>   5</c></rc>
    <rc><c>C </c><c>   5</c></rc>
    <rc><c>C </c><c>   5</c></rc>
    <rc><c>C </c><c>   5</c></rc>
    <rc><c>C </c><c>   5</c></rc>
    <rc><c>C </c><c>   5</c></rc>
    <rc><c>C </c><c>   5</c></rc>
    <rc><c>C </c><c>   5</c></rc>
    <rc><c>C </c><c>   5</c></rc>
    <rc><c>C </c><c>   5</c></rc>
    <rc><c>C </c><c>   5</c></rc>
    <rc><c>C </c><c>   5</c></rc>
    <rc><c>C </c><c>   5</c></rc>
    <rc><c>C </c><c>   5</c></rc>
    <rc><c>Cr</c><c>   6</c></rc>
    <rc><c>Cr</c><c>   6</c></rc>
    <rc><c>Cr</c><c>   6</c></rc>
    <rc><c>Cr</c><c>   6</c></rc>
    <rc><c>Cr</c><c>   6</c></rc>
    <rc><c>Cr</c><c>   6</c></rc>
    <rc><c>Mo</c><c>   7</c></rc>
    <rc><c>Mo</c><c>   7</c></rc>
    <rc><c>Mo</c><c>   7</c></rc>
    <rc><c>Mo</c><c>   7</c></rc>
    <rc><c>Mo</c><c>   7</c></rc>
    <rc><c>Mo</c><c>   7</c></rc>
   </set>
  </array>
  <array name="atomtypes" >
   <dimension dim="1">type</dimension>
   <field type="int">atomspertype</field>
   <field type="string">element</field>
   <field>mass</field>
   <field>valence</field>
   <field type="string">pseudopotential</field>
   <set>
    <rc><c>   7</c><c>Hf</c><c>    178.49000000</c><c>     10.00000000</c><c> PAW_PBE Hf_pv 06Sep2000                </c></rc>
    <rc><c>   6</c><c>V </c><c>     50.94100000</c><c>     13.00000000</c><c> PAW_PBE V_sv 07Sep2000                 </c></rc>
    <rc><c>   7</c><c>Zr</c><c>     91.22400000</c><c>     12.00000000</c><c> PAW_PBE Zr_sv 07Sep2000                </c></rc>
    <rc><c>  13</c><c>N </c><c>     14.00100000</c><c>      5.00000000</c><c> PAW_PBE N 08Apr2002                    </c></rc>
    <rc><c>  19</c><c>C </c><c>     12.01100000</c><c>      4.00000000</c><c> PAW_PBE C 08Apr2002                    </c></rc>
    <rc><c>   6</c><c>Cr</c><c>     51.99600000</c><c>     12.00000000</c><c> PAW_PBE Cr_pv 07Sep2000                </c></rc>
    <rc><c>   6</c><c>Mo</c><c>     95.94000000</c><c>      6.00000000</c><c> PAW_PBE Mo 08Apr2002                   </c></rc>
   </set>
  </array>
 </atominfo>
 <structure name="initialpos" >
  <crystal>
   <varray name="basis" >
    <v>       8.93249989       0.00000000       0.00000000 </v>
    <v>       0.00575300       9.05559834       0.00000000 </v>
    <v>       0.03210180      -0.01574346       8.93712807 </v>
   </varray>
   <i name="volume">    722.91652451 </i>
   <varray name="rec_basis" >
    <v>       0.11195074      -0.00007112      -0.00040225 </v>
    <v>       0.00000000       0.11042893       0.00019453 </v>
    <v>       0.00000000       0.00000000       0.11189277 </v>
   </varray>
  </crystal>
  <varray name="positions" >
   <v>       0.99688001       0.99204997       0.99924002 </v>
   <v>       0.25398003       0.99714995       0.24912000 </v>
   <v>       0.24803003       0.50165000       0.24955001 </v>
   <v>       0.50501006       0.49745998       0.99834003 </v>
   <v>       0.50479003       0.24631001       0.74710002 </v>
   <v>       0.99427992       0.50449999       0.49779000 </v>
   <v>       0.49950005       0.75481999       0.74817004 </v>
   <v>       0.99437004       0.23617001       0.26379999 </v>
   <v>       0.75718000       0.74102998       0.01100000 </v>
   <v>       0.00201000       0.25541000       0.73894001 </v>
   <v>       0.75307001       0.26163001       0.50533002 </v>
   <v>       0.99514004       0.74492004       0.74511997 </v>
   <v>       0.25679999       0.49462002       0.74545002 </v>
   <v>       0.24788999       0.24839000       0.99657997 </v>
   <v>       0.50833000       0.25676999       0.25376001 </v>
   <v>       0.74879004       0.98787999       0.26967001 </v>
   <v>       0.75719000       0.25603001       0.99591997 </v>
   <v>       0.24762001       0.74973999       0.99974006 </v>
   <v>       0.25272001       0.24823001       0.50015003 </v>
   <v>       0.24457999       0.75048999       0.49983999 </v>
   <v>       0.24982001       0.24942998       0.24825000 </v>
   <v>       0.26146999       0.99984002       0.99295996 </v>
   <v>       0.00281000       0.25024000       0.00130000 </v>
   <v>       0.75313998       0.24617000       0.25492002 </v>
   <v>       0.74767001       0.99748000       0.01202000 </v>
   <v>       0.50714994       0.99977000       0.24673000 </v>
   <v>       0.99051999       0.48088002       0.24100998 </v>
   <v>       0.50519005       0.76130999       0.00855000 </v>
   <v>       0.98896989       0.00202000       0.73708999 </v>
   <v>       0.75744996       0.24437997       0.74896999 </v>
   <v>       0.73632001       0.00417000       0.51063000 </v>
   <v>       0.50563996       0.23264999       0.49544997 </v>
   <v>       0.50008998       0.00061000       0.73471998 </v>
   <v>       0.99720000       0.99771992       0.25899999 </v>
   <v>       0.50427997       0.24673000       0.00262000 </v>
   <v>       0.25133999       0.74958002       0.24910999 </v>
   <v>       0.24328000       0.50072997       0.99510994 </v>
   <v>       0.99837005       0.74313996       0.00460000 </v>
   <v>       0.75633000       0.73891003       0.25767000 </v>
   <v>       0.75839004       0.50315998       0.00288000 </v>
   <v>       0.50700002       0.50333002       0.25878999 </v>
   <v>       0.24900999       0.25315000       0.74854000 </v>
   <v>       0.24446000       0.99823996       0.50287998 </v>
   <v>       0.99804009       0.24229999       0.50128003 </v>
   <v>       0.24177002       0.75340997       0.75018002 </v>
   <v>       0.25841001       0.50062002       0.50129001 </v>
   <v>       0.99000004       0.76215003       0.49746000 </v>
   <v>       0.99203996       0.50055999       0.75138002 </v>
   <v>       0.75036005       0.74888000       0.74756004 </v>
   <v>       0.74036002       0.50197000       0.50067003 </v>
   <v>       0.50575006       0.74958002       0.49720000 </v>
   <v>       0.50501003       0.50217998       0.73912003 </v>
   <v>       0.51588997       0.01358000       0.98075008 </v>
   <v>       0.99841994       0.50976998       0.98613004 </v>
   <v>       0.50379003       0.73926997       0.25905001 </v>
   <v>       0.23780002       0.01082000       0.74607998 </v>
   <v>       0.47957999       0.98308000       0.49717999 </v>
   <v>       0.74279003       0.97869994       0.76450995 </v>
   <v>       0.99864998       0.77573999       0.26102000 </v>
   <v>       0.73551001       0.51468004       0.26666001 </v>
   <v>       0.02362000       0.99783001       0.49557002 </v>
   <v>       0.50539000       0.52833005       0.49917999 </v>
   <v>       0.73876003       0.52828003       0.73814999 </v>
   <v>       0.75400003       0.72937999       0.49116997 </v>
  </varray>
 </structure>
 <calculation>
  <scstep>
   <time name="dav">   19.62   19.71</time>
   <time name="total">   19.66   19.75</time>
   <energy>
    <i name="alphaZ">   3917.00305924 </i>
    <i name="ewald"> -36739.04540049 </i>
    <i name="hartreedc">  -8830.93453134 </i>
    <i name="XCdc">   1414.00300740 </i>
    <i name="pawpsdc">  28372.93497809 </i>
    <i name="pawaedc"> -28150.95774516 </i>
    <i name="eentropy">     -0.06645866 </i>
    <i name="bandstr">   1454.62876076 </i>
    <i name="atom">  44133.11039338 </i>
    <i name="e_fr_energy">   5570.67606321 </i>
    <i name="e_wo_entrp">   5570.74252188 </i>
    <i name="e_0_energy">   5570.70929255 </i>
   </energy>
  </scstep>
  <scstep>
   <time name="dav">   20.39   20.42</time>
   <time name="total">   20.39   20.43</time>
   <energy>
    <i name="e_fr_energy">    224.20200046 </i>
    <i name="e_wo_entrp">    224.33621274 </i>
    <i name="e_0_energy">    224.26910660 </i>
   </energy>
  </scstep>
  <scstep>
   <time name="dav">   29.24   29.28</time>
   <time name="total">   29.24   29.28</time>
   <energy>
    <i name="e_fr_energy">   -669.00645436 </i>
    <i name="e_wo_entrp">   -668.89030729 </i>
    <i name="e_0_energy">   -668.94838082 </i>
   </energy>
  </scstep>
  <scstep>
   <time name="dav">   33.40   33.55</time>
   <time name="total">   33.40   33.56</time>
   <energy>
    <i name="e_fr_energy">   -779.38598592 </i>
    <i name="e_wo_entrp">   -779.29210515 </i>
    <i name="e_0_energy">   -779.33904554 </i>
   </energy>
  </scstep>
  <scstep>
   <time name="dav">   34.40   35.33</time>
   <time name="total">   34.65   35.59</time>
   <energy>
    <i name="e_fr_energy">   -787.16401307 </i>
    <i name="e_wo_entrp">   -787.06269447 </i>
    <i name="e_0_energy">   -787.11335377 </i>
   </energy>
  </scstep>
  <scstep>
   <time name="diag">    1.63    1.64</time>
   <time name="diis">   18.79   18.82</time>
   <time name="orth">    0.37    0.37</time>
   <time name="total">   21.07   21.15</time>
   <energy>
    <i name="e_fr_energy">   -948.56901674 </i>
    <i name="e_wo_entrp">   -948.26066765 </i>
    <i name="e_0_energy">   -948.41484219 </i>
   </energy>
  </scstep>
  <scstep>
   <time name="diag">    1.62    1.65</time>
   <time name="diis">   18.84   19.33</time>
   <time name="orth">    0.37    0.37</time>
   <time name="total">   21.11   21.63</time>
   <energy>
    <i name="e_fr_energy">   -651.60418397 </i>
    <i name="e_wo_entrp">   -651.47552284 </i>
    <i name="e_0_energy">   -651.53985340 </i>
   </energy>
  </scstep>
  <scstep>
   <time name="diag">    1.64    1.64</time>
   <time name="diis">   20.52   20.56</time>
   <time name="orth">    0.38    0.38</time>
   <time name="total">   22.81   22.85</time>
   <energy>
    <i name="e_fr_energy">   -643.19907738 </i>
    <i name="e_wo_entrp">   -643.06938176 </i>
    <i name="e_0_energy">   -643.13422957 </i>
   </energy>
  </scstep>
  <scstep>
   <time name="diag">    1.61    1.65</time>
   <time name="diis">   20.67   21.41</time>
   <time name="orth">    0.36    0.37</time>
   <time name="total">   22.93   23.71</time>
   <energy>
    <i name="e_fr_energy">   -630.18919071 </i>
    <i name="e_wo_entrp">   -630.03239862 </i>
    <i name="e_0_energy">   -630.11079466 </i>
   </energy>
  </scstep>
  <scstep>
   <time name="diag">    1.63    1.63</time>
   <time name="diis">   20.80   20.87</time>
   <time name="orth">    0.37    0.37</time>
   <time name="total">   23.08   23.15</time>
   <energy>
    <i name="e_fr_energy">   -626.92474859 </i>
    <i name="e_wo_entrp">   -626.74486256 </i>
    <i name="e_0_energy">   -626.83480557 </i>
   </energy>
  </scstep>
  <scstep>
   <time name="diag">    1.63    1.63</time>
   <time name="diis">   20.80   20.84</time>
   <time name="orth">    0.37    0.37</time>
   <time name="total">   23.08   23.12</time>
   <energy>
    <i name="e_fr_energy">   -627.99988110 </i>
    <i name="e_wo_entrp">   -627.82471380 </i>
    <i name="e_0_energy">   -627.91229745 </i>
   </energy>
  </scstep>
  <scstep>
   <time name="diag">    1.62    1.64</time>
   <time name="diis">   19.63   19.66</time>
   <time name="orth">    0.37    0.37</time>
   <time name="total">   21.89   21.95</time>
   <energy>
    <i name="e_fr_energy">   -625.76663487 </i>
    <i name="e_wo_entrp">   -625.56510974 </i>
    <i name="e_0_energy">   -625.66587230 </i>
   </energy>
  </scstep>
  <scstep>
   <time name="diag">    1.64    1.64</time>
   <time name="diis">   21.19   21.34</time>
   <time name="orth">    0.36    0.37</time>
   <time name="total">   23.47   23.64</time>
   <energy>
    <i name="e_fr_energy">   -626.11464547 </i>
    <i name="e_wo_entrp">   -625.92685401 </i>
    <i name="e_0_energy">   -626.02074974 </i>
   </energy>
  </scstep>
  <scstep>
   <time name="diag">    1.61    1.64</time>
   <time name="diis">   19.46   19.67</time>
   <time name="orth">    0.37    0.37</time>
   <time name="total">   21.71   21.96</time>
   <energy>
    <i name="e_fr_energy">   -626.42320262 </i>
    <i name="e_wo_entrp">   -626.22586336 </i>
    <i name="e_0_energy">   -626.32453299 </i>
   </energy>
  </scstep>
  <scstep>
   <time name="diag">    1.63    1.63</time>
   <time name="diis">   19.87   19.94</time>
   <time name="orth">    0.37    0.37</time>
   <time name="total">   22.15   22.22</time>
   <energy>
    <i name="e_fr_energy">   -625.60861941 </i>
    <i name="e_wo_entrp">   -625.40489321 </i>
    <i name="e_0_energy">   -625.50675631 </i>
   </energy>
  </scstep>
  <scstep>
   <time name="diag">    1.63    1.63</time>
   <time name="diis">   20.47   20.49</time>
   <time name="orth">    0.37    0.37</time>
   <time name="total">   22.75   22.78</time>
   <energy>
    <i name="e_fr_energy">   -625.64783375 </i>
    <i name="e_wo_entrp">   -625.44365018 </i>
    <i name="e_0_energy">   -625.54574196 </i>
   </energy>
  </scstep>
  <scstep>
   <time name="diag">    1.61    1.64</time>
   <time name="diis">   19.58   20.22</time>
   <time name="orth">    0.36    0.37</time>
   <time name="total">   21.83   22.52</time>
   <energy>
    <i name="e_fr_energy">   -625.41097442 </i>
    <i name="e_wo_entrp">   -625.20317454 </i>
    <i name="e_0_energy">   -625.30707448 </i>
   </energy>
  </scstep>
  <scstep>
   <time name="diag">    1.63    1.63</time>
   <time name="diis">   20.79   20.82</time>
   <time name="orth">    0.37    0.37</time>
   <time name="total">   23.07   23.10</time>
   <energy>
    <i name="e_fr_energy">   -625.36341324 </i>
    <i name="e_wo_entrp">   -625.16173143 </i>
    <i name="e_0_energy">   -625.26257233 </i>
   </energy>
  </scstep>
  <scstep>
   <time name="diag">    1.66    1.66</time>
   <time name="diis">   21.16   21.27</time>
   <time name="orth">    0.38    0.38</time>
   <time name="total">   23.50   23.62</time>
   <energy>
    <i name="e_fr_energy">   -625.42347765 </i>
    <i name="e_wo_entrp">   -625.21488132 </i>
    <i name="e_0_energy">   -625.31917949 </i>
   </energy>
  </scstep>
  <scstep>
   <time name="diag">    1.63    1.63</time>
   <time name="diis">   21.06   21.09</time>
   <time name="orth">    0.37    0.37</time>
   <time name="total">   23.35   23.39</time>
   <energy>
    <i name="e_fr_energy">   -625.34778852 </i>
    <i name="e_wo_entrp">   -625.14580584 </i>
    <i name="e_0_energy">   -625.24679718 </i>
   </energy>
  </scstep>
  <scstep>
   <time name="diag">    1.61    1.65</time>
   <time name="diis">   21.26   21.94</time>
   <time name="orth">    0.36    0.37</time>
   <time name="total">   23.51   24.24</time>
   <energy>
    <i name="e_fr_energy">   -625.35722728 </i>
    <i name="e_wo_entrp">   -625.15254355 </i>
    <i name="e_0_energy">   -625.25488541 </i>
   </energy>
  </scstep>
  <scstep>
   <time name="diag">    1.64    1.64</time>
   <time name="diis">   20.93   20.99</time>
   <time name="orth">    0.38    0.39</time>
   <time name="total">   23.23   23.30</time>
   <energy>
    <i name="e_fr_energy">   -625.35266703 </i>
    <i name="e_wo_entrp">   -625.15048400 </i>
    <i name="e_0_energy">   -625.25157551 </i>
   </energy>
  </scstep>
  <scstep>
   <time name="diag">    1.63    1.63</time>
   <time name="diis">   20.99   21.03</time>
   <time name="orth">    0.37    0.37</time>
   <time name="total">   23.27   23.31</time>
   <energy>
    <i name="e_fr_energy">   -625.34611808 </i>
    <i name="e_wo_entrp">   -625.14279242 </i>
    <i name="e_0_energy">   -625.24445525 </i>
   </energy>
  </scstep>
  <scstep>
   <time name="diag">    1.63    1.63</time>
   <time name="diis">   20.83   20.87</time>
   <time name="orth">    0.38    0.38</time>
   <time name="total">   23.11   23.16</time>
   <energy>
    <i name="e_fr_energy">   -625.34390426 </i>
    <i name="e_wo_entrp">   -625.14134348 </i>
    <i name="e_0_energy">   -625.24262387 </i>
   </energy>
  </scstep>
  <scstep>
   <time name="diag">    1.63    1.63</time>
   <time name="diis">   20.22   20.65</time>
   <time name="orth">    0.36    0.37</time>
   <time name="total">   22.50   22.94</time>
   <energy>
    <i name="e_fr_energy">   -625.34366752 </i>
    <i name="e_wo_entrp">   -625.13973848 </i>
    <i name="e_0_energy">   -625.24170300 </i>
   </energy>
  </scstep>
  <scstep>
   <time name="diag">    1.63    1.63</time>
   <time name="diis">   19.09   19.10</time>
   <time name="orth">    0.37    0.37</time>
   <time name="total">   21.37   21.38</time>
   <energy>
    <i name="e_fr_energy">   -625.34386891 </i>
    <i name="e_wo_entrp">   -625.14009020 </i>
    <i name="e_0_energy">   -625.24197956 </i>
   </energy>
  </scstep>
  <scstep>
   <time name="diag">    1.65    1.65</time>
   <time name="diis">   19.60   19.64</time>
   <time name="orth">    0.37    0.37</time>
   <time name="total">   21.89   21.94</time>
   <energy>
    <i name="e_fr_energy">   -625.34378367 </i>
    <i name="e_wo_entrp">   -625.14014075 </i>
    <i name="e_0_energy">   -625.24196221 </i>
   </energy>
  </scstep>
  <scstep>
   <time name="diag">    1.63    1.64</time>
   <time name="diis">   18.26   18.32</time>
   <time name="orth">    0.37    0.37</time>
   <time name="total">   20.54   20.61</time>
   <energy>
    <i name="e_fr_energy">   -625.34386646 </i>
    <i name="e_wo_entrp">   -625.14023038 </i>
    <i name="e_0_energy">   -625.24204842 </i>
   </energy>
  </scstep>
  <scstep>
   <time name="diag">    1.61    1.64</time>
   <time name="diis">   14.11   14.14</time>
   <time name="orth">    0.37    0.37</time>
   <time name="total">   16.37   16.43</time>
   <energy>
    <i name="e_fr_energy">   -625.34393096 </i>
    <i name="e_wo_entrp">   -625.14035319 </i>
    <i name="e_0_energy">   -625.24214207 </i>
   </energy>
  </scstep>
  <scstep>
   <time name="diag">    1.63    1.63</time>
   <time name="diis">   13.25   13.28</time>
   <time name="orth">    0.37    0.37</time>
   <time name="total">   15.53   15.56</time>
   <energy>
    <i name="e_fr_energy">   -625.34395890 </i>
    <i name="e_wo_entrp">   -625.14034629 </i>
    <i name="e_0_energy">   -625.24215260 </i>
   </energy>
  </scstep>
  <scstep>
   <time name="diag">    1.65    1.65</time>
   <time name="diis">   15.11   15.21</time>
   <time name="orth">    0.36    0.37</time>
   <time name="total">   17.40   17.52</time>
   <energy>
    <i name="e_fr_energy">   -625.34399477 </i>
    <i name="e_wo_entrp">   -625.14037246 </i>
    <i name="e_0_energy">   -625.24218361 </i>
   </energy>
  </scstep>
  <scstep>
   <time name="diag">    1.64    1.64</time>
   <time name="diis">   10.17   10.21</time>
   <time name="orth">    0.37    0.37</time>
   <time name="total">   12.46   12.50</time>
   <energy>
    <i name="e_fr_energy">   -625.34401379 </i>
    <i name="e_wo_entrp">   -625.14039857 </i>
    <i name="e_0_energy">   -625.24220618 </i>
   </energy>
  </scstep>
  <scstep>
   <time name="diag">    1.63    1.63</time>
   <time name="diis">    9.96    9.99</time>
   <time name="orth">    0.37    0.37</time>
   <time name="total">   12.25   12.27</time>
   <energy>
    <i name="e_fr_energy">   -625.34402563 </i>
    <i name="e_wo_entrp">   -625.14041066 </i>
    <i name="e_0_energy">   -625.24221815 </i>
   </energy>
  </scstep>
  <scstep>
   <time name="diag">    1.63    1.63</time>
   <time name="diis">    9.89    9.91</time>
   <time name="orth">    0.37    0.37</time>
   <time name="total">   11.92   11.94</time>
   <energy>
    <i name="alphaZ">   3917.00305924 </i>
    <i name="ewald"> -36739.04540049 </i>
    <i name="hartreedc">  -8341.55713634 </i>
    <i name="XCdc">   1408.25639735 </i>
    <i name="pawpsdc">  29829.91011810 </i>
    <i name="pawaedc"> -29646.82903328 </i>
    <i name="eentropy">     -0.20361037 </i>
    <i name="bandstr">  -5185.98882068 </i>
    <i name="atom">  44133.11039338 </i>
    <i name="e_fr_energy">   -625.34403309 </i>
    <i name="e_wo_entrp">   -625.14042272 </i>
    <i name="e_0_energy">   -625.24222791 </i>
   </energy>
  </scstep>
  <structure>
   <crystal>
    <varray name="basis" >
     <v>       8.93249989       0.00000000       0.00000000 </v>
     <v>       0.00575300       9.05559834       0.00000000 </v>
     <v>       0.03210180      -0.01574346       8.93712807 </v>
    </varray>
    <i name="volume">    722.91652451 </i>
    <varray name="rec_basis" >
     <v>       0.11195074      -0.00007112      -0.00040225 </v>
     <v>       0.00000000       0.11042893       0.00019453 </v>
     <v>       0.00000000       0.00000000       0.11189277 </v>
    </varray>
   </crystal>
   <varray name="positions" >
    <v>       0.99688001       0.99204997       0.99924002 </v>
    <v>       0.25398003       0.99714995       0.24912000 </v>
    <v>       0.24803003       0.50165000       0.24955001 </v>
    <v>       0.50501006       0.49745998       0.99834003 </v>
    <v>       0.50479003       0.24631001       0.74710002 </v>
    <v>       0.99427992       0.50449999       0.49779000 </v>
    <v>       0.49950005       0.75481999       0.74817004 </v>
    <v>       0.99437004       0.23617001       0.26379999 </v>
    <v>       0.75718000       0.74102998       0.01100000 </v>
    <v>       0.00201000       0.25541000       0.73894001 </v>
    <v>       0.75307001       0.26163001       0.50533002 </v>
    <v>       0.99514004       0.74492004       0.74511997 </v>
    <v>       0.25679999       0.49462002       0.74545002 </v>
    <v>       0.24788999       0.24839000       0.99657997 </v>
    <v>       0.50833000       0.25676999       0.25376001 </v>
    <v>       0.74879004       0.98787999       0.26967001 </v>
    <v>       0.75719000       0.25603001       0.99591997 </v>
    <v>       0.24762001       0.74973999       0.99974006 </v>
    <v>       0.25272001       0.24823001       0.50015003 </v>
    <v>       0.24457999       0.75048999       0.49983999 </v>
    <v>       0.24982001       0.24942998       0.24825000 </v>
    <v>       0.26146999       0.99984002       0.99295996 </v>
    <v>       0.00281000       0.25024000       0.00130000 </v>
    <v>       0.75313998       0.24617000       0.25492002 </v>
    <v>       0.74767001       0.99748000       0.01202000 </v>
    <v>       0.50714994       0.99977000       0.24673000 </v>
    <v>       0.99051999       0.48088002       0.24100998 </v>
    <v>       0.50519005       0.76130999       0.00855000 </v>
    <v>       0.98896989       0.00202000       0.73708999 </v>
    <v>       0.75744996       0.24437997       0.74896999 </v>
    <v>       0.73632001       0.00417000       0.51063000 </v>
    <v>       0.50563996       0.23264999       0.49544997 </v>
    <v>       0.50008998       0.00061000       0.73471998 </v>
    <v>       0.99720000       0.99771992       0.25899999 </v>
    <v>       0.50427997       0.24673000       0.00262000 </v>
    <v>       0.25133999       0.74958002       0.24910999 </v>
    <v>       0.24328000       0.50072997       0.99510994 </v>
    <v>       0.99837005       0.74313996       0.00460000 </v>
    <v>       0.75633000       0.73891003       0.25767000 </v>
    <v>       0.75839004       0.50315998       0.00288000 </v>
    <v>       0.50700002       0.50333002       0.25878999 </v>
    <v>       0.24900999       0.25315000       0.74854000 </v>
    <v>       0.24446000       0.99823996       0.50287998 </v>
    <v>       0.99804009       0.24229999       0.50128003 </v>
    <v>       0.24177002       0.75340997       0.75018002 </v>
    <v>       0.25841001       0.50062002       0.50129001 </v>
    <v>       0.99000004       0.76215003       0.49746000 </v>
    <v>       0.99203996       0.50055999       0.75138002 </v>
    <v>       0.75036005       0.74888000       0.74756004 </v>
    <v>       0.74036002       0.50197000       0.50067003 </v>
    <v>       0.50575006       0.74958002       0.49720000 </v>
    <v>       0.50501003       0.50217998       0.73912003 </v>
    <v>       0.51588997       0.01358000       0.98075008 </v>
    <v>       0.99841994       0.50976998       0.98613004 </v>
    <v>       0.50379003       0.73926997       0.25905001 </v>
    <v>       0.23780002       0.01082000       0.74607998 </v>
    <v>       0.47957999       0.98308000       0.49717999 </v>
    <v>       0.74279003       0.97869994       0.76450995 </v>
    <v>       0.99864998       0.77573999       0.26102000 </v>
    <v>       0.73551001       0.51468004       0.26666001 </v>
    <v>       0.02362000       0.99783001       0.49557002 </v>
    <v>       0.50539000       0.52833005       0.49917999 </v>
    <v>       0.73876003       0.52828003       0.73814999 </v>
    <v>       0.75400003       0.72937999       0.49116997 </v>
   </varray>
  </structure>
  <varray name="forces" >
   <v>      -0.64118890       0.50404155      -1.34206674 </v>
   <v>       1.27807876       0.26347237      -0.61133632 </v>
   <v>      -0.60038542      -0.27509674      -0.57770281 </v>
   <v>      -0.39340118       0.93908050      -0.05097172 </v>
   <v>       0.54642465      -1.25145826      -0.87462056 </v>
   <v>       0.20641065      -1.04375958       0.27628251 </v>
   <v>      -0.36051680       1.67553470       0.96810900 </v>
   <v>      -0.54392158      -0.90858874       0.70376998 </v>
   <v>       0.48979108      -0.40104697       0.11503699 </v>
   <v>       0.27917170       0.16498602      -0.75901535 </v>
   <v>       0.54644685      -0.23364408       0.10110202 </v>
   <v>       0.13550233      -0.40372284       0.44603985 </v>
   <v>      -0.30823264      -0.28663561       0.48742158 </v>
   <v>      -0.65137995      -0.02483670      -0.35500106 </v>
   <v>       0.30963394      -1.34382765       0.37432999 </v>
   <v>      -1.48296321       1.12074202      -0.00106250 </v>
   <v>       0.80062817      -0.41752576      -0.17354503 </v>
   <v>       0.43433833       0.05466347      -0.54924696 </v>
   <v>       0.15860036       0.11637422       0.38567694 </v>
   <v>       0.45541417       0.03513338       0.67207583 </v>
   <v>      -0.17629581      -0.00223278       0.16515705 </v>
   <v>      -0.67365671       0.09425606       0.34954283 </v>
   <v>      -0.12954988      -0.41853179      -0.16454126 </v>
   <v>       0.86112020       0.23462186       0.58092056 </v>
   <v>      -0.09226780      -0.56421453      -1.44431575 </v>
   <v>      -1.16572480      -0.44410716       0.29301611 </v>
   <v>       0.50599051      -0.04875218       0.64214845 </v>
   <v>       0.68891980      -0.39615941      -0.59394904 </v>
   <v>       0.10031925       0.00692032       0.99460044 </v>
   <v>      -0.12245614      -0.05829543      -0.88062492 </v>
   <v>       0.13486287      -0.03977400       0.37856136 </v>
   <v>       0.46795138       0.06708756       1.16713969 </v>
   <v>       0.51756413      -0.07991780       0.69475734 </v>
   <v>       0.79592151       1.57772389      -1.02045556 </v>
   <v>       0.06192481      -0.04682090      -1.01738424 </v>
   <v>       0.29336671      -0.09100425       0.10732022 </v>
   <v>       0.08392490      -0.02503800      -0.25515225 </v>
   <v>      -1.36045748      -0.41303496      -0.57734262 </v>
   <v>      -0.84490556       0.09081203      -1.56859706 </v>
   <v>       0.35328001       1.34003716      -0.10139883 </v>
   <v>      -1.26436693       0.97476586      -1.01468120 </v>
   <v>      -0.48350515       0.04538010      -0.14195004 </v>
   <v>       1.80962399      -0.01037755       0.53604612 </v>
   <v>      -1.02011644       0.71751456       0.19200511 </v>
   <v>      -0.33637600      -0.14937847      -0.09848009 </v>
   <v>      -0.80937851       0.00069277       0.34719628 </v>
   <v>       0.21174403      -0.90522313       1.30219965 </v>
   <v>       0.47203568       0.02731641       0.73640308 </v>
   <v>       0.45999657       1.52489941       0.72486307 </v>
   <v>       1.05853834      -1.59950637       0.38016761 </v>
   <v>      -0.27219003       1.52003612      -0.59151731 </v>
   <v>      -1.20087164      -0.16285993       1.01655511 </v>
   <v>       0.57422813      -0.01423523      -0.11895899 </v>
   <v>      -0.19603308       0.68948874      -0.97079552 </v>
   <v>       0.29039646      -0.42627925      -0.12217532 </v>
   <v>      -0.44745714       0.19596822      -0.05399636 </v>
   <v>      -0.48982862       0.16049596       0.35729310 </v>
   <v>      -0.22333249      -0.90085088       0.11229075 </v>
   <v>       0.41360311      -0.75969396      -0.75242688 </v>
   <v>       0.61714403      -0.43672745      -0.89701752 </v>
   <v>      -1.21940885       0.76656357       1.06045211 </v>
   <v>      -0.12388025      -0.90440024      -0.23215796 </v>
   <v>       1.05330898      -0.87073323       0.70549924 </v>
   <v>       0.16784262       1.44968298       0.53850781 </v>
  </varray>
  <varray name="stress" >
   <v>    -107.68048452      -3.08830523      -5.61396686 </v>
   <v>      -3.08830546    -104.64120730      -4.68787499 </v>
   <v>      -5.61396522      -4.68787555    -105.49655870 </v>
  </varray>
  <energy>
   <i name="e_fr_energy">   -625.34403309 </i>
   <i name="e_wo_entrp">   -625.24222791 </i>
   <i name="e_0_energy">     -0.20361037 </i>
  </energy>
  <time name="totalsc">  781.93  788.25</time>
 </calculation>
 <calculation>
  <scstep>
   <time name="dav">   26.60   27.38</time>
   <time name="total">   26.90   27.69</time>
   <energy>
    <i name="alphaZ">   4372.89831147 </i>
    <i name="ewald"> -37881.23900107 </i>
    <i name="hartreedc">  -8878.51426370 </i>
    <i name="XCdc">   1477.17889862 </i>
    <i name="pawpsdc">  29829.89781876 </i>
    <i name="pawaedc"> -29646.81809862 </i>
    <i name="eentropy">     -0.10603067 </i>
    <i name="bandstr">  -4076.63181656 </i>
    <i name="atom">  44133.11039338 </i>
    <i name="e_fr_energy">   -670.22378841 </i>
    <i name="e_wo_entrp">   -670.11775773 </i>
    <i name="e_0_energy">   -670.17077307 </i>
   </energy>
  </scstep>
  <scstep>
   <time name="diag">    1.64    1.70</time>
   <time name="diis">   15.67   15.78</time>
   <time name="orth">    0.38    0.39</time>
   <time name="total">   17.97   18.15</time>
   <energy>
    <i name="e_fr_energy">   -789.03054623 </i>
    <i name="e_wo_entrp">   -788.89014820 </i>
    <i name="e_0_energy">   -788.96034722 </i>
   </energy>
  </scstep>
  <scstep>
   <time name="diag">    1.61    1.65</time>
   <time name="diis">   16.74   17.29</time>
   <time name="orth">    0.36    0.37</time>
   <time name="total">   19.00   19.59</time>
   <energy>
    <i name="e_fr_energy">   -638.50344352 </i>
    <i name="e_wo_entrp">   -638.34357051 </i>
    <i name="e_0_energy">   -638.42350701 </i>
   </energy>
  </scstep>
  <scstep>
   <time name="diag">    1.61    1.65</time>
   <time name="diis">   19.16   19.22</time>
   <time name="orth">    0.38    0.38</time>
   <time name="total">   21.44   21.54</time>
   <energy>
    <i name="e_fr_energy">   -634.62055363 </i>
    <i name="e_wo_entrp">   -634.48582798 </i>
    <i name="e_0_energy">   -634.55319080 </i>
   </energy>
  </scstep>
  <scstep>
   <time name="diag">    1.65    1.69</time>
   <time name="diis">   17.27   17.84</time>
   <time name="orth">    0.36    0.37</time>
   <time name="total">   19.57   20.18</time>
   <energy>
    <i name="e_fr_energy">   -636.23178399 </i>
    <i name="e_wo_entrp">   -636.09447648 </i>
    <i name="e_0_energy">   -636.16313024 </i>
   </energy>
  </scstep>
  <scstep>
   <time name="diag">    1.62    1.65</time>
   <time name="diis">   16.83   17.37</time>
   <time name="orth">    0.36    0.37</time>
   <time name="total">   19.09   19.68</time>
   <energy>
    <i name="e_fr_energy">   -628.67298967 </i>
    <i name="e_wo_entrp">   -628.51723153 </i>
    <i name="e_0_energy">   -628.59511060 </i>
   </energy>
  </scstep>
  <scstep>
   <time name="diag">    1.63    1.64</time>
   <time name="diis">   17.61   17.65</time>
   <time name="orth">    0.37    0.37</time>
   <time name="total">   19.89   19.93</time>
   <energy>
    <i name="e_fr_energy">   -629.24643338 </i>
    <i name="e_wo_entrp">   -629.11313149 </i>
    <i name="e_0_energy">   -629.17978244 </i>
   </energy>
  </scstep>
  <scstep>
   <time name="diag">    1.63    1.63</time>
   <time name="diis">   17.67   17.73</time>
   <time name="orth">    0.37    0.37</time>
   <time name="total">   19.94   20.01</time>
   <energy>
    <i name="e_fr_energy">   -627.04696853 </i>
    <i name="e_wo_entrp">   -626.89833889 </i>
    <i name="e_0_energy">   -626.97265371 </i>
   </energy>
  </scstep>
  <scstep>
   <time name="diag">    1.63    1.63</time>
   <time name="diis">   18.94   18.98</time>
   <time name="orth">    0.37    0.37</time>
   <time name="total">   21.22   21.26</time>
   <energy>
    <i name="e_fr_energy">   -626.94978783 </i>
    <i name="e_wo_entrp">   -626.78431824 </i>
    <i name="e_0_energy">   -626.86705304 </i>
   </energy>
  </scstep>
  <scstep>
   <time name="diag">    1.61    1.64</time>
   <time name="diis">   18.05   18.55</time>
   <time name="orth">    0.39    0.39</time>
   <time name="total">   20.32   20.86</time>
   <energy>
    <i name="e_fr_energy">   -626.72883963 </i>
    <i name="e_wo_entrp">   -626.56505097 </i>
    <i name="e_0_energy">   -626.64694530 </i>
   </energy>
  </scstep>
  <scstep>
   <time name="diag">    1.65    1.66</time>
   <time name="diis">   21.16   21.23</time>
   <time name="orth">    0.37    0.37</time>
   <time name="total">   23.46   23.53</time>
   <energy>
    <i name="e_fr_energy">   -626.53433949 </i>
    <i name="e_wo_entrp">   -626.37438959 </i>
    <i name="e_0_energy">   -626.45436454 </i>
   </energy>
  </scstep>
  <scstep>
   <time name="diag">    1.62    1.64</time>
   <time name="diis">   21.47   21.51</time>
   <time name="orth">    0.37    0.37</time>
   <time name="total">   23.73   23.79</time>
   <energy>
    <i name="e_fr_energy">   -626.52924966 </i>
    <i name="e_wo_entrp">   -626.36479743 </i>
    <i name="e_0_energy">   -626.44702355 </i>
   </energy>
  </scstep>
  <scstep>
   <time name="diag">    1.63    1.64</time>
   <time name="diis">   22.09   22.20</time>
   <time name="orth">    0.37    0.37</time>
   <time name="total">   24.35   24.48</time>
   <energy>
    <i name="e_fr_energy">   -626.52849465 </i>
    <i name="e_wo_entrp">   -626.36277366 </i>
    <i name="e_0_energy">   -626.44563415 </i>
   </energy>
  </scstep>
  <scstep>
   <time name="diag">    1.61    1.65</time>
   <time name="diis">   21.69   22.40</time>
   <time name="orth">    0.36    0.37</time>
   <time name="total">   23.94   24.71</time>
   <energy>
    <i name="e_fr_energy">   -626.52606798 </i>
    <i name="e_wo_entrp">   -626.36164722 </i>
    <i name="e_0_energy">   -626.44385760 </i>
   </energy>
  </scstep>
  <scstep>
   <time name="diag">    1.63    1.64</time>
   <time name="diis">   21.19   21.38</time>
   <time name="orth">    0.37    0.37</time>
   <time name="total">   23.46   23.66</time>
   <energy>
    <i name="e_fr_energy">   -626.54576328 </i>
    <i name="e_wo_entrp">   -626.38238716 </i>
    <i name="e_0_energy">   -626.46407522 </i>
   </energy>
  </scstep>
  <scstep>
   <time name="diag">    1.63    1.67</time>
   <time name="diis">   20.35   20.99</time>
   <time name="orth">    0.36    0.37</time>
   <time name="total">   22.63   23.32</time>
   <energy>
    <i name="e_fr_energy">   -626.53600501 </i>
    <i name="e_wo_entrp">   -626.37181868 </i>
    <i name="e_0_energy">   -626.45391185 </i>
   </energy>
  </scstep>
  <scstep>
   <time name="diag">    1.63    1.63</time>
   <time name="diis">   21.19   21.23</time>
   <time name="orth">    0.37    0.37</time>
   <time name="total">   23.47   23.52</time>
   <energy>
    <i name="e_fr_energy">   -626.53821710 </i>
    <i name="e_wo_entrp">   -626.37367991 </i>
    <i name="e_0_energy">   -626.45594850 </i>
   </energy>
  </scstep>
  <scstep>
   <time name="diag">    1.61    1.64</time>
   <time name="diis">   21.41   22.12</time>
   <time name="orth">    0.36    0.37</time>
   <time name="total">   23.66   24.42</time>
   <energy>
    <i name="e_fr_energy">   -626.53571112 </i>
    <i name="e_wo_entrp">   -626.37093925 </i>
    <i name="e_0_energy">   -626.45332518 </i>
   </energy>
  </scstep>
  <scstep>
   <time name="diag">    1.64    1.64</time>
   <time name="diis">   20.94   20.96</time>
   <time name="orth">    0.37    0.37</time>
   <time name="total">   23.23   23.24</time>
   <energy>
    <i name="e_fr_energy">   -626.53701050 </i>
    <i name="e_wo_entrp">   -626.37245216 </i>
    <i name="e_0_energy">   -626.45473133 </i>
   </energy>
  </scstep>
  <scstep>
   <time name="diag">    1.65    1.65</time>
   <time name="diis">   20.88   20.90</time>
   <time name="orth">    0.38    0.38</time>
   <time name="total">   23.21   23.24</time>
   <energy>
    <i name="e_fr_energy">   -626.53682311 </i>
    <i name="e_wo_entrp">   -626.37211265 </i>
    <i name="e_0_energy">   -626.45446788 </i>
   </energy>
  </scstep>
  <scstep>
   <time name="diag">    1.65    1.70</time>
   <time name="diis">   20.74   21.36</time>
   <time name="orth">    0.39    0.39</time>
   <time name="total">   23.05   23.74</time>
   <energy>
    <i name="e_fr_energy">   -626.53698386 </i>
    <i name="e_wo_entrp">   -626.37236099 </i>
    <i name="e_0_energy">   -626.45467242 </i>
   </energy>
  </scstep>
  <scstep>
   <time name="diag">    1.62    1.62</time>
   <time name="diis">   19.32   19.36</time>
   <time name="orth">    0.36    0.36</time>
   <time name="total">   21.59   21.63</time>
   <energy>
    <i name="e_fr_energy">   -626.53703930 </i>
    <i name="e_wo_entrp">   -626.37239359 </i>
    <i name="e_0_energy">   -626.45471644 </i>
   </energy>
  </scstep>
  <scstep>
   <time name="diag">    1.61    1.64</time>
   <time name="diis">   18.85   18.90</time>
   <time name="orth">    0.39    0.40</time>
   <time name="total">   21.13   21.22</time>
   <energy>
    <i name="e_fr_energy">   -626.53707724 </i>
    <i name="e_wo_entrp">   -626.37241124 </i>
    <i name="e_0_energy">   -626.45474424 </i>
   </energy>
  </scstep>
  <scstep>
   <time name="diag">    1.62    1.66</time>
   <time name="diis">   17.82   18.22</time>
   <time name="orth">    0.37    0.37</time>
   <time name="total">   20.09   20.53</time>
   <energy>
    <i name="e_fr_energy">   -626.53708215 </i>
    <i name="e_wo_entrp">   -626.37236462 </i>
    <i name="e_0_energy">   -626.45472339 </i>
   </energy>
  </scstep>
  <scstep>
   <time name="diag">    1.64    1.64</time>
   <time name="diis">   16.67   16.70</time>
   <time name="orth">    0.37    0.37</time>
   <time name="total">   18.95   18.99</time>
   <energy>
    <i name="e_fr_energy">   -626.53709147 </i>
    <i name="e_wo_entrp">   -626.37239932 </i>
    <i name="e_0_energy">   -626.45474540 </i>
   </energy>
  </scstep>
  <scstep>
   <time name="diag">    1.65    1.65</time>
   <time name="diis">   14.49   14.54</time>
   <time name="orth">    0.37    0.37</time>
   <time name="total">   16.79   16.84</time>
   <energy>
    <i name="e_fr_energy">   -626.53709858 </i>
    <i name="e_wo_entrp">   -626.37241192 </i>
    <i name="e_0_energy">   -626.45475525 </i>
   </energy>
  </scstep>
  <scstep>
   <time name="diag">    1.63    1.68</time>
   <time name="diis">   11.60   11.68</time>
   <time name="orth">    0.37    0.37</time>
   <time name="total">   13.63   13.75</time>
   <energy>
    <i name="alphaZ">   4372.89831147 </i>
    <i name="ewald"> -37881.23900107 </i>
    <i name="hartreedc">  -8137.29932806 </i>
    <i name="XCdc">   1435.57383114 </i>
    <i name="pawpsdc">  31154.43392114 </i>
    <i name="pawaedc"> -30969.66643653 </i>
    <i name="eentropy">     -0.16469550 </i>
    <i name="bandstr">  -4734.18409947 </i>
    <i name="atom">  44133.11039338 </i>
    <i name="e_fr_energy">   -626.53710351 </i>
    <i name="e_wo_entrp">   -626.37240801 </i>
    <i name="e_0_energy">   -626.45475576 </i>
   </energy>
  </scstep>
  <structure>
   <crystal>
    <varray name="basis" >
     <v>       8.60535600      -0.00938257      -0.01705578 </v>
     <v>      -0.00396958       8.73330092      -0.01444948 </v>
     <v>       0.01387803      -0.02946647       8.61641691 </v>
    </varray>
    <i name="volume">    647.54907075 </i>
    <varray name="rec_basis" >
     <v>       0.11620638       0.00005251      -0.00018699 </v>
     <v>       0.00012562       0.11450495       0.00039138 </v>
     <v>       0.00023024       0.00019213       0.11605781 </v>
    </varray>
   </crystal>
   <varray name="positions" >
    <v>       0.99344139       0.99472259       0.99199553 </v>
    <v>       0.26089364       0.99854784       0.24582000 </v>
    <v>       0.24479962       0.50017904       0.24643156 </v>
    <v>       0.50288315       0.50246234       0.99806488 </v>
    <v>       0.50776243       0.23963480       0.74237881 </v>
    <v>       0.99539292       0.49894208       0.49928137 </v>
    <v>       0.49752844       0.76375529       0.75339590 </v>
    <v>       0.99142189       0.23133622       0.26759894 </v>
    <v>       0.75982440       0.73889452       0.01162097 </v>
    <v>       0.00353191       0.25628182       0.73484284 </v>
    <v>       0.75602010       0.26038625       0.50587577 </v>
    <v>       0.99586459       0.74277344       0.74752770 </v>
    <v>       0.25512682       0.49309758       0.74808113 </v>
    <v>       0.24437899       0.24825435       0.99466367 </v>
    <v>       0.50999962       0.24961442       0.25578064 </v>
    <v>       0.74077702       0.99385061       0.26966428 </v>
    <v>       0.76151883       0.25380406       0.99498317 </v>
    <v>       0.24997626       0.75002605       0.99677522 </v>
    <v>       0.25356869       0.24885360       0.50223192 </v>
    <v>       0.24702643       0.75068346       0.50346786 </v>
    <v>       0.24886468       0.24941964       0.24914151 </v>
    <v>       0.25782460       0.00034544       0.99484680 </v>
    <v>       0.00211496       0.24800878       0.00041181 </v>
    <v>       0.75777864       0.24742537       0.25805583 </v>
    <v>       0.74720166       0.99446065       0.00422358 </v>
    <v>       0.50084993       0.99740682       0.24831170 </v>
    <v>       0.99324046       0.48062633       0.24447630 </v>
    <v>       0.50892366       0.75919392       0.00534386 </v>
    <v>       0.98949237       0.00206620       0.74245885 </v>
    <v>       0.75680589       0.24406115       0.74421637 </v>
    <v>       0.73704117       0.00396166       0.51267348 </v>
    <v>       0.50814439       0.23301834       0.50175019 </v>
    <v>       0.50287203       0.00019077       0.73847028 </v>
    <v>       0.00151300       0.00611549       0.25349157 </v>
    <v>       0.50463432       0.24647102      -0.00287184 </v>
    <v>       0.25292263       0.74909621       0.24968931 </v>
    <v>       0.24373830       0.50059419       0.99373263 </v>
    <v>       0.99103511       0.74093415       0.00148350 </v>
    <v>       0.75179696       0.73937910       0.24920270 </v>
    <v>       0.76029540       0.51029792       0.00233265 </v>
    <v>       0.50018777       0.50851345       0.25331273 </v>
    <v>       0.24640127       0.25339043       0.74777376 </v>
    <v>       0.25422305       0.99818971       0.50577356 </v>
    <v>       0.99252445       0.24612427       0.50231648 </v>
    <v>       0.23995574       0.75261325       0.74964842 </v>
    <v>       0.25403197       0.50062697       0.50316417 </v>
    <v>       0.99112146       0.75733977       0.50448928 </v>
    <v>       0.99457495       0.50071243       0.75535512 </v>
    <v>       0.75282511       0.75701053       0.75147285 </v>
    <v>       0.74607508       0.49345239       0.50272217 </v>
    <v>       0.50428628       0.75767228       0.49400699 </v>
    <v>       0.49850519       0.50132191       0.74460740 </v>
    <v>       0.51899362       0.01350305       0.98010793 </v>
    <v>       0.99737768       0.51343404       0.98088968 </v>
    <v>       0.50536224       0.73699787       0.25839051 </v>
    <v>       0.23538377       0.01186349       0.74578851 </v>
    <v>       0.47692704       0.98393838       0.49910866 </v>
    <v>       0.74158477       0.97390181       0.76511610 </v>
    <v>       0.00090097       0.77168575       0.25695839 </v>
    <v>       0.73886199       0.51234500       0.26181791 </v>
    <v>       0.01701101       0.00192374       0.50129434 </v>
    <v>       0.50472855       0.52350979       0.49792680 </v>
    <v>       0.74443804       0.52364792       0.74195828 </v>
    <v>       0.75489109       0.73710806       0.49407684 </v>
   </varray>
  </structure>
  <varray name="forces" >
   <v>       0.16544922      -0.10468814      -0.59796007 </v>
   <v>      -0.53331252       0.03559551      -0.01757204 </v>
   <v>      -0.77889250      -0.32675255       0.01517005 </v>
   <v>      -0.01001849      -0.15514034      -0.02847221 </v>
   <v>       0.14637614       0.12116922       0.45082992 </v>
   <v>       0.57830570       0.00698691       0.15621948 </v>
   <v>       0.20889563      -0.51867411      -0.02940153 </v>
   <v>      -0.01434764      -0.06228481       0.09217157 </v>
   <v>      -0.03250733       0.10900023      -0.11926736 </v>
   <v>      -0.11801051      -0.24992288       0.02507715 </v>
   <v>       0.12277460      -0.41115283       0.07223957 </v>
   <v>       0.16779908      -0.23803779       0.68198482 </v>
   <v>      -0.42447010      -0.10116386       0.32787512 </v>
   <v>       0.23192646      -0.07006227       0.07341299 </v>
   <v>      -0.30543546       0.72883210      -0.45745641 </v>
   <v>       0.81996475      -0.20194178      -0.63969521 </v>
   <v>      -0.59433180       0.44755098      -0.10337855 </v>
   <v>      -0.45584876       0.42302715       0.14866723 </v>
   <v>      -0.22821194       0.03810496      -0.39619548 </v>
   <v>      -0.23477340       0.00779041      -0.18754538 </v>
   <v>      -0.30451090      -0.06931187       0.00036771 </v>
   <v>      -0.09901632      -0.03806467      -0.26628670 </v>
   <v>       0.06037338       0.13090619      -0.10487286 </v>
   <v>       0.73670960       0.19364968       0.29629221 </v>
   <v>      -0.44064110      -0.35613215      -0.82578781 </v>
   <v>      -0.21817071      -0.56058404      -0.21009727 </v>
   <v>       0.05375552       0.26831842      -0.05297376 </v>
   <v>       0.43561502       0.22558020       0.00592426 </v>
   <v>       0.08211392       0.13511687       0.34971111 </v>
   <v>       0.55742071       0.12702905      -0.68241618 </v>
   <v>       0.57265223      -0.18870084       0.89915592 </v>
   <v>       0.57067114       0.42132902      -0.10896189 </v>
   <v>       0.33890083       0.13092638       0.70330923 </v>
   <v>      -0.16668838      -0.10953549      -0.23572441 </v>
   <v>       0.03309837      -0.25534145      -0.03577084 </v>
   <v>       0.43270126      -0.03670674      -0.08135231 </v>
   <v>      -0.29601563       0.03468698      -0.56989763 </v>
   <v>       0.05165219      -0.12921814      -0.51080213 </v>
   <v>      -0.63056953       0.73627599      -0.58242375 </v>
   <v>       0.38912019       0.11486355      -0.04510907 </v>
   <v>      -0.27993236      -0.02273299      -0.35273342 </v>
   <v>      -0.36239326      -0.02661184       0.02721693 </v>
   <v>       0.19999614       0.21312767       0.61279590 </v>
   <v>      -0.07572567       0.11936850       0.13966921 </v>
   <v>      -0.39460346       0.05383928       0.21705855 </v>
   <v>      -0.11852257      -0.09152182       0.28729600 </v>
   <v>       0.44147384      -0.28825116       0.61326619 </v>
   <v>       0.77891485      -0.19725856       0.35700354 </v>
   <v>       0.27417352       0.27001463       0.42841555 </v>
   <v>      -0.04190806      -0.48909350      -0.05642151 </v>
   <v>       0.11831692       0.67225053      -0.16581946 </v>
   <v>      -0.54782888       0.13733411       0.05302286 </v>
   <v>       0.14536901      -0.25894866      -0.12985431 </v>
   <v>      -0.06276456       0.20391339      -0.19788442 </v>
   <v>      -0.35822585      -0.16222989      -0.21180348 </v>
   <v>      -0.75153611       0.00086854      -0.07939378 </v>
   <v>       0.54222450       0.46589614       0.22722301 </v>
   <v>      -0.16917984       0.28339776       0.02852478 </v>
   <v>       0.03977453       0.11378655      -0.60958288 </v>
   <v>       0.32167300      -0.87586351      -0.90250700 </v>
   <v>      -0.28590849       0.28339160       0.68992884 </v>
   <v>      -0.05427240      -0.58227382       0.03053080 </v>
   <v>       0.35340346      -0.40424406       1.19876543 </v>
   <v>      -0.58302118       0.32851809       0.38629515 </v>
  </varray>
  <varray name="stress" >
   <v>     217.50218068       2.87062092       0.87160719 </v>
   <v>       2.87062298     189.02216417      -2.17977213 </v>
   <v>       0.87160667      -2.17977431     212.99717237 </v>
  </varray>
  <energy>
   <i name="e_fr_energy">   -626.53710351 </i>
   <i name="e_wo_entrp">   -626.45475576 </i>
   <i name="e_0_energy">     -0.16469550 </i>
  </energy>
  <time name="totalsc">  616.64  624.83</time>
 </calculation>
 <calculation>
  <scstep>
   <time name="dav">   26.74   27.53</time>
   <time name="total">   27.02   27.82</time>
   <energy>
    <i name="alphaZ">   4173.23824753 </i>
    <i name="ewald"> -37407.20106037 </i>
    <i name="hartreedc">  -7902.64687213 </i>
    <i name="XCdc">   1406.58444930 </i>
    <i name="pawpsdc">  31154.52840139 </i>
    <i name="pawaedc"> -30969.75152352 </i>
    <i name="eentropy">     -0.21499227 </i>
    <i name="bandstr">  -5225.85638928 </i>
    <i name="atom">  44133.11039338 </i>
    <i name="e_fr_energy">   -638.20934598 </i>
    <i name="e_wo_entrp">   -637.99435371 </i>
    <i name="e_0_energy">   -638.10184984 </i>
   </energy>
  </scstep>
  <scstep>
   <time name="diag">    1.62    1.62</time>
   <time name="diis">   18.54   18.60</time>
   <time name="orth">    0.37    0.37</time>
   <time name="total">   20.80   20.86</time>
   <energy>
    <i name="e_fr_energy">   -710.75839882 </i>
    <i name="e_wo_entrp">   -710.67308731 </i>
    <i name="e_0_energy">   -710.71574306 </i>
   </energy>
  </scstep>
  <scstep>
   <time name="diag">    1.65    1.65</time>
   <time name="diis">   16.16   16.20</time>
   <time name="orth">    0.37    0.37</time>
   <time name="total">   18.46   18.50</time>
   <energy>
    <i name="e_fr_energy">   -633.03227783 </i>
    <i name="e_wo_entrp">   -632.89355201 </i>
    <i name="e_0_energy">   -632.96291492 </i>
   </energy>
  </scstep>
  <scstep>
   <time name="diag">    1.64    1.65</time>
   <time name="diis">   19.08   19.14</time>
   <time name="orth">    0.37    0.37</time>
   <time name="total">   21.37   21.44</time>
   <energy>
    <i name="e_fr_energy">   -632.85065049 </i>
    <i name="e_wo_entrp">   -632.68518188 </i>
    <i name="e_0_energy">   -632.76791619 </i>
   </energy>
  </scstep>
  <scstep>
   <time name="diag">    1.64    1.64</time>
   <time name="diis">   18.92   19.02</time>
   <time name="orth">    0.37    0.37</time>
   <time name="total">   21.20   21.31</time>
   <energy>
    <i name="e_fr_energy">   -630.55469825 </i>
    <i name="e_wo_entrp">   -630.37225182 </i>
    <i name="e_0_energy">   -630.46347504 </i>
   </energy>
  </scstep>
  <scstep>
   <time name="diag">    1.64    1.67</time>
   <time name="diis">   17.21   17.30</time>
   <time name="orth">    0.37    0.37</time>
   <time name="total">   19.49   19.61</time>
   <energy>
    <i name="e_fr_energy">   -628.93503117 </i>
    <i name="e_wo_entrp">   -628.76670565 </i>
    <i name="e_0_energy">   -628.85086841 </i>
   </energy>
  </scstep>
  <scstep>
   <time name="diag">    1.64    1.68</time>
   <time name="diis">   17.59   18.17</time>
   <time name="orth">    0.36    0.37</time>
   <time name="total">   19.88   20.51</time>
   <energy>
    <i name="e_fr_energy">   -629.18534604 </i>
    <i name="e_wo_entrp">   -629.01250054 </i>
    <i name="e_0_energy">   -629.09892329 </i>
   </energy>
  </scstep>
  <scstep>
   <time name="diag">    1.64    1.64</time>
   <time name="diis">   18.67   18.68</time>
   <time name="orth">    0.39    0.39</time>
   <time name="total">   20.99   21.00</time>
   <energy>
    <i name="e_fr_energy">   -628.84459220 </i>
    <i name="e_wo_entrp">   -628.65457689 </i>
    <i name="e_0_energy">   -628.74958454 </i>
   </energy>
  </scstep>
  <scstep>
   <time name="diag">    1.64    1.64</time>
   <time name="diis">   19.51   19.61</time>
   <time name="orth">    0.36    0.36</time>
   <time name="total">   21.79   21.89</time>
   <energy>
    <i name="e_fr_energy">   -628.31639247 </i>
    <i name="e_wo_entrp">   -628.13822848 </i>
    <i name="e_0_energy">   -628.22731048 </i>
   </energy>
  </scstep>
  <scstep>
   <time name="diag">    1.61    1.64</time>
   <time name="diis">   20.70   20.72</time>
   <time name="orth">    0.38    0.38</time>
   <time name="total">   22.97   23.03</time>
   <energy>
    <i name="e_fr_energy">   -628.33651715 </i>
    <i name="e_wo_entrp">   -628.15470866 </i>
    <i name="e_0_energy">   -628.24561291 </i>
   </energy>
  </scstep>
  <scstep>
   <time name="diag">    1.63    1.63</time>
   <time name="diis">   18.77   18.84</time>
   <time name="orth">    0.37    0.37</time>
   <time name="total">   21.04   21.12</time>
   <energy>
    <i name="e_fr_energy">   -628.30920600 </i>
    <i name="e_wo_entrp">   -628.13319319 </i>
    <i name="e_0_energy">   -628.22119959 </i>
   </energy>
  </scstep>
  <scstep>
   <time name="diag">    1.64    1.64</time>
   <time name="diis">   20.14   20.24</time>
   <time name="orth">    0.38    0.38</time>
   <time name="total">   22.44   22.56</time>
   <energy>
    <i name="e_fr_energy">   -628.22976261 </i>
    <i name="e_wo_entrp">   -628.04783550 </i>
    <i name="e_0_energy">   -628.13879906 </i>
   </energy>
  </scstep>
  <scstep>
   <time name="diag">    1.63    1.66</time>
   <time name="diis">   21.63   21.73</time>
   <time name="orth">    0.37    0.37</time>
   <time name="total">   23.90   24.03</time>
   <energy>
    <i name="e_fr_energy">   -628.23649114 </i>
    <i name="e_wo_entrp">   -628.05657106 </i>
    <i name="e_0_energy">   -628.14653110 </i>
   </energy>
  </scstep>
  <scstep>
   <time name="diag">    1.63    1.63</time>
   <time name="diis">   20.81   20.89</time>
   <time name="orth">    0.38    0.38</time>
   <time name="total">   23.11   23.20</time>
   <energy>
    <i name="e_fr_energy">   -628.22916282 </i>
    <i name="e_wo_entrp">   -628.04841894 </i>
    <i name="e_0_energy">   -628.13879088 </i>
   </energy>
  </scstep>
  <scstep>
   <time name="diag">    1.68    1.70</time>
   <time name="diis">   20.96   21.59</time>
   <time name="orth">    0.36    0.37</time>
[...]
      </set>
     </set>
    </set>
   </array>
  </eigenvalues>
  <separator name="orbital magnetization" >
   <v name="MAGDIPOLOUT">      0.00000000      0.00000000      0.00000000</v>
  </separator>
  <dos>
   <i name="efermi">      7.27886935 </i>
   <total>
    <array>
     <dimension dim="1">gridpoints</dimension>
     <dimension dim="2">spin</dimension>
     <field>energy</field>
     <field>total</field>
     <field>integrated</field>
     <set>
      <set comment="spin 1">
       <r>   -61.1723     0.0000     0.0000 </r>
       <r>   -60.9255     0.0000     0.0000 </r>
       <r>   -60.6787     0.0000     0.0000 </r>
       <r>   -60.4318     0.0000     0.0000 </r>
       <r>   -60.1850     0.0000     0.0000 </r>
       <r>   -59.9382     0.0000     0.0000 </r>
       <r>   -59.6914     0.0000     0.0000 </r>
       <r>   -59.4446     0.0000     0.0000 </r>
       <r>   -59.1978     0.0000     0.0000 </r>
       <r>   -58.9509     0.0000     0.0000 </r>
       <r>   -58.7041     0.0000     0.0000 </r>
       <r>   -58.4573     0.0000     0.0000 </r>
       <r>   -58.2105     0.0000     0.0000 </r>
       <r>   -57.9637     0.1132     0.0279 </r>
       <r>   -57.7168    15.0960     3.7539 </r>
       <r>   -57.4700    27.3187    10.4967 </r>
       <r>   -57.2232     6.0851    11.9986 </r>
       <r>   -56.9764     0.0056    12.0000 </r>
       <r>   -56.7296     0.0000    12.0000 </r>
       <r>   -56.4827     0.0000    12.0000 </r>
       <r>   -56.2359     0.0000    12.0000 </r>
       <r>   -55.9891     0.0000    12.0000 </r>
       <r>   -55.7423     0.0000    12.0000 </r>
       <r>   -55.4955     0.0000    12.0000 </r>
       <r>   -55.2486     0.0000    12.0000 </r>
       <r>   -55.0018     0.0000    12.0000 </r>
       <r>   -54.7550     0.0000    12.0000 </r>
       <r>   -54.5082     0.0000    12.0000 </r>
       <r>   -54.2614     0.0000    12.0000 </r>
       <r>   -54.0146     0.0000    12.0000 </r>
       <r>   -53.7677     0.0000    12.0000 </r>
       <r>   -53.5209     0.0000    12.0000 </r>
       <r>   -53.2741     0.0000    12.0000 </r>
       <r>   -53.0273     0.0000    12.0000 </r>
       <r>   -52.7805     0.0000    12.0000 </r>
       <r>   -52.5336     0.0000    12.0000 </r>
       <r>   -52.2868     0.0000    12.0000 </r>
       <r>   -52.0400     0.0000    12.0000 </r>
       <r>   -51.7932     0.0000    12.0000 </r>
       <r>   -51.5464     0.0000    12.0000 </r>
       <r>   -51.2995     0.0000    12.0000 </r>
       <r>   -51.0527     0.0000    12.0000 </r>
       <r>   -50.8059     0.0000    12.0000 </r>
       <r>   -50.5591     0.0000    12.0000 </r>
       <r>   -50.3123     0.0000    12.0000 </r>
       <r>   -50.0654     0.0000    12.0000 </r>
       <r>   -49.8186     0.0000    12.0000 </r>
       <r>   -49.5718     0.0000    12.0000 </r>
       <r>   -49.3250     0.0000    12.0000 </r>
       <r>   -49.0782     0.0000    12.0000 </r>
       <r>   -48.8314     0.0000    12.0000 </r>
       <r>   -48.5845     0.0000    12.0000 </r>
       <r>   -48.3377     0.0000    12.0000 </r>
       <r>   -48.0909     0.0000    12.0000 </r>
       <r>   -47.8441     0.0000    12.0000 </r>
       <r>   -47.5973     0.0000    12.0000 </r>
       <r>   -47.3504     0.0000    12.0000 </r>
       <r>   -47.1036     0.0000    12.0000 </r>
       <r>   -46.8568     0.0000    12.0000 </r>
       <r>   -46.6100     0.0000    12.0000 </r>
       <r>   -46.3632     0.0000    12.0000 </r>
       <r>   -46.1163     0.0000    12.0000 </r>
       <r>   -45.8695     0.0000    12.0000 </r>
       <r>   -45.6227     0.0000    12.0000 </r>
       <r>   -45.3759     0.0000    12.0000 </r>
       <r>   -45.1291     0.0000    12.0000 </r>
       <r>   -44.8822     0.0000    12.0000 </r>
       <r>   -44.6354     0.0000    12.0000 </r>
       <r>   -44.3886     0.0000    12.0000 </r>
       <r>   -44.1418     0.0000    12.0000 </r>
       <r>   -43.8950     0.0000    12.0000 </r>
       <r>   -43.6481     0.0000    12.0000 </r>
       <r>   -43.4013     0.0000    12.0000 </r>
       <r>   -43.1545     0.0000    12.0000 </r>
       <r>   -42.9077     0.0000    12.0000 </r>
       <r>   -42.6609     0.0000    12.0000 </r>
       <r>   -42.4141     0.0000    12.0000 </r>
       <r>   -42.1672     0.0000    12.0000 </r>
       <r>   -41.9204     0.0801    12.0198 </r>
       <r>   -41.6736    16.5060    16.0938 </r>
       <r>   -41.4268     7.7760    18.0130 </r>
       <r>   -41.1800    17.1510    22.2462 </r>
       <r>   -40.9331     7.6205    24.1271 </r>
       <r>   -40.6863     7.3884    25.9507 </r>
       <r>   -40.4395     0.1996    26.0000 </r>
       <r>   -40.1927     0.0000    26.0000 </r>
       <r>   -39.9459     0.0000    26.0000 </r>
       <r>   -39.6990     0.0000    26.0000 </r>
       <r>   -39.4522     0.0000    26.0000 </r>
       <r>   -39.2054     0.0000    26.0000 </r>
       <r>   -38.9586     0.0000    26.0000 </r>
       <r>   -38.7118     0.0000    26.0000 </r>
       <r>   -38.4649     0.0000    26.0000 </r>
       <r>   -38.2181     0.0000    26.0000 </r>
       <r>   -37.9713     0.0000    26.0000 </r>
       <r>   -37.7245     0.0000    26.0000 </r>
       <r>   -37.4777     0.0000    26.0000 </r>
       <r>   -37.2309     0.0000    26.0000 </r>
       <r>   -36.9840     0.0000    26.0000 </r>
       <r>   -36.7372     0.1310    26.0323 </r>
       <r>   -36.4904    11.5807    28.8907 </r>
       <r>   -36.2436    73.6234    47.0623 </r>
       <r>   -35.9968    59.1707    61.6668 </r>
       <r>   -35.7499     1.3499    62.0000 </r>
       <r>   -35.5031     0.0000    62.0000 </r>
       <r>   -35.2563     0.0000    62.0000 </r>
       <r>   -35.0095     0.0000    62.0000 </r>
       <r>   -34.7627     0.0000    62.0000 </r>
       <r>   -34.5158     0.0000    62.0000 </r>
       <r>   -34.2690     0.0000    62.0000 </r>
       <r>   -34.0222     0.0000    62.0000 </r>
       <r>   -33.7754     0.0000    62.0000 </r>
       <r>   -33.5286     0.0000    62.0000 </r>
       <r>   -33.2817     0.0000    62.0000 </r>
       <r>   -33.0349     0.0000    62.0000 </r>
       <r>   -32.7881     0.0000    62.0000 </r>
       <r>   -32.5413     0.0000    62.0000 </r>
       <r>   -32.2945     0.0000    62.0000 </r>
       <r>   -32.0477     0.0267    62.0066 </r>
       <r>   -31.8008    14.6953    65.6337 </r>
       <r>   -31.5540    72.3782    83.4980 </r>
       <r>   -31.3072    53.4149    96.6818 </r>
       <r>   -31.0604     5.3389    97.9996 </r>
       <r>   -30.8136     0.0016    98.0000 </r>
       <r>   -30.5667     0.0000    98.0000 </r>
       <r>   -30.3199     0.0000    98.0000 </r>
       <r>   -30.0731     0.0000    98.0000 </r>
       <r>   -29.8263     0.0000    98.0000 </r>
       <r>   -29.5795     0.0000    98.0000 </r>
       <r>   -29.3326     0.0000    98.0000 </r>
       <r>   -29.0858     0.0000    98.0000 </r>
       <r>   -28.8390     0.0000    98.0000 </r>
       <r>   -28.5922     0.0000    98.0000 </r>
       <r>   -28.3454     0.0000    98.0000 </r>
       <r>   -28.0985     0.0000    98.0000 </r>
       <r>   -27.8517     0.0000    98.0000 </r>
       <r>   -27.6049     0.0000    98.0000 </r>
       <r>   -27.3581     0.0000    98.0000 </r>
       <r>   -27.1113     0.0000    98.0000 </r>
       <r>   -26.8644     0.0000    98.0000 </r>
       <r>   -26.6176     0.0000    98.0000 </r>
       <r>   -26.3708     0.0000    98.0000 </r>
       <r>   -26.1240     0.0000    98.0000 </r>
       <r>   -25.8772     0.0000    98.0000 </r>
       <r>   -25.6304     0.0000    98.0000 </r>
       <r>   -25.3835     0.0000    98.0000 </r>
       <r>   -25.1367     0.0000    98.0000 </r>
       <r>   -24.8899     0.0000    98.0000 </r>
       <r>   -24.6431     0.0000    98.0000 </r>
       <r>   -24.3963     0.0000    98.0000 </r>
       <r>   -24.1494     0.0000    98.0000 </r>
       <r>   -23.9026     0.0081    98.0020 </r>
       <r>   -23.6558    10.7978   100.6671 </r>
       <r>   -23.4090    23.0406   106.3540 </r>
       <r>   -23.1622    76.8694   125.3268 </r>
       <r>   -22.9153    53.1780   138.4521 </r>
       <r>   -22.6685     6.2646   139.9983 </r>
       <r>   -22.4217     0.0067   140.0000 </r>
       <r>   -22.1749     0.0000   140.0000 </r>
       <r>   -21.9281     0.0000   140.0000 </r>
       <r>   -21.6812     0.0000   140.0000 </r>
       <r>   -21.4344     0.0000   140.0000 </r>
       <r>   -21.1876     0.0000   140.0000 </r>
       <r>   -20.9408     0.0000   140.0000 </r>
       <r>   -20.6940     0.0000   140.0000 </r>
       <r>   -20.4472     0.2987   140.0737 </r>
       <r>   -20.2003    10.6095   142.6924 </r>
       <r>   -19.9535    41.2287   152.8684 </r>
       <r>   -19.7067    22.6086   158.4486 </r>
       <r>   -19.4599    64.3094   174.3214 </r>
       <r>   -19.2131    19.1894   179.0577 </r>
       <r>   -18.9662    11.9142   181.9984 </r>
       <r>   -18.7194     0.0066   182.0000 </r>
       <r>   -18.4726     0.0000   182.0000 </r>
       <r>   -18.2258     0.0000   182.0000 </r>
       <r>   -17.9790     0.0000   182.0000 </r>
       <r>   -17.7321     0.0000   182.0000 </r>
       <r>   -17.4853     0.0000   182.0000 </r>
       <r>   -17.2385     0.0000   182.0000 </r>
       <r>   -16.9917     0.0000   182.0000 </r>
       <r>   -16.7449     0.0000   182.0000 </r>
       <r>   -16.4980     0.0000   182.0000 </r>
       <r>   -16.2512     0.0000   182.0000 </r>
       <r>   -16.0044     0.0000   182.0000 </r>
       <r>   -15.7576     0.0000   182.0000 </r>
       <r>   -15.5108     0.0000   182.0000 </r>
       <r>   -15.2639     0.0000   182.0000 </r>
       <r>   -15.0171     0.0000   182.0000 </r>
       <r>   -14.7703     0.0000   182.0000 </r>
       <r>   -14.5235     0.0000   182.0000 </r>
       <r>   -14.2767     0.0000   182.0000 </r>
       <r>   -14.0299     0.0000   182.0000 </r>
       <r>   -13.7830     0.0000   182.0000 </r>
       <r>   -13.5362     0.0000   182.0000 </r>
       <r>   -13.2894     0.0000   182.0000 </r>
       <r>   -13.0426     0.0000   182.0000 </r>
       <r>   -12.7958     0.0000   182.0000 </r>
       <r>   -12.5489     0.0000   182.0000 </r>
       <r>   -12.3021     0.0000   182.0000 </r>
       <r>   -12.0553     0.0000   182.0000 </r>
       <r>   -11.8085     0.0000   182.0000 </r>
       <r>   -11.5617     0.0000   182.0000 </r>
       <r>   -11.3148     0.0000   182.0000 </r>
       <r>   -11.0680     0.0000   182.0000 </r>
       <r>   -10.8212     0.0000   182.0000 </r>
       <r>   -10.5744     0.0000   182.0000 </r>
       <r>   -10.3276     0.0000   182.0000 </r>
       <r>   -10.0807     0.0000   182.0000 </r>
       <r>    -9.8339     0.0000   182.0000 </r>
       <r>    -9.5871     0.0000   182.0000 </r>
       <r>    -9.3403     0.0000   182.0000 </r>
       <r>    -9.0935     0.0000   182.0000 </r>
       <r>    -8.8467     0.0026   182.0006 </r>
       <r>    -8.5998     2.5936   182.6408 </r>
       <r>    -8.3530     5.5218   184.0037 </r>
       <r>    -8.1062     8.9858   186.2216 </r>
       <r>    -7.8594    14.3955   189.7746 </r>
       <r>    -7.6126    11.6480   192.6496 </r>
       <r>    -7.3657    13.9176   196.0847 </r>
       <r>    -7.1189    17.4206   200.3844 </r>
       <r>    -6.8721    25.3042   206.6300 </r>
       <r>    -6.6253     5.5490   207.9996 </r>
       <r>    -6.3785     0.0016   208.0000 </r>
       <r>    -6.1316     0.0000   208.0000 </r>
       <r>    -5.8848     0.0000   208.0000 </r>
       <r>    -5.6380     0.0000   208.0000 </r>
       <r>    -5.3912     0.0049   208.0012 </r>
       <r>    -5.1444     2.2919   208.5669 </r>
       <r>    -4.8975     5.6983   209.9733 </r>
       <r>    -4.6507     6.4714   211.5706 </r>
       <r>    -4.4039    13.4009   214.8782 </r>
       <r>    -4.1571    17.3686   219.1651 </r>
       <r>    -3.9103    24.8192   225.2910 </r>
       <r>    -3.6635    18.8088   229.9333 </r>
       <r>    -3.4166    18.0850   234.3971 </r>
       <r>    -3.1698    18.1399   238.8743 </r>
       <r>    -2.9230    14.3896   242.4260 </r>
       <r>    -2.6762    10.5258   245.0239 </r>
       <r>    -2.4294     3.7487   245.9492 </r>
       <r>    -2.1825     0.2060   246.0000 </r>
       <r>    -1.9357     0.0000   246.0000 </r>
       <r>    -1.6889     0.0000   246.0000 </r>
       <r>    -1.4421     0.0000   246.0000 </r>
       <r>    -1.1953     0.0000   246.0000 </r>
       <r>    -0.9484     0.0000   246.0000 </r>
       <r>    -0.7016     0.0000   246.0000 </r>
       <r>    -0.4548     0.0010   246.0003 </r>
       <r>    -0.2080     0.5443   246.1346 </r>
       <r>     0.0388     2.1832   246.6734 </r>
       <r>     0.2857     9.2575   248.9584 </r>
       <r>     0.5325    12.3539   252.0075 </r>
       <r>     0.7793    20.0614   256.9591 </r>
       <r>     1.0261    27.2705   263.6900 </r>
       <r>     1.2729    27.8779   270.5708 </r>
       <r>     1.5198    27.3809   277.3289 </r>
       <r>     1.7666    33.1215   285.5039 </r>
       <r>     2.0134    34.8353   294.1019 </r>
       <r>     2.2602    39.8116   303.9282 </r>
       <r>     2.5070    53.7990   317.2068 </r>
       <r>     2.7538    61.8347   332.4688 </r>
       <r>     3.0007    68.3536   349.3398 </r>
       <r>     3.2475    63.2482   364.9506 </r>
       <r>     3.4943    55.6746   378.6922 </r>
       <r>     3.7411    51.3601   391.3689 </r>
       <r>     3.9879    47.1256   403.0004 </r>
       <r>     4.2348    37.5560   412.2699 </r>
       <r>     4.4816    30.6577   419.8368 </r>
       <r>     4.7284    26.5533   426.3907 </r>
       <r>     4.9752    22.3897   431.9169 </r>
       <r>     5.2220    16.0736   435.8841 </r>
       <r>     5.4689    13.4483   439.2034 </r>
       <r>     5.7157    13.3372   442.4953 </r>
       <r>     5.9625    18.9844   447.1810 </r>
       <r>     6.2093    19.6098   452.0211 </r>
       <r>     6.4561    25.7531   458.3774 </r>
       <r>     6.7030    25.6904   464.7183 </r>
       <r>     6.9498    29.7233   472.0546 </r>
       <r>     7.1966    27.7035   478.8923 </r>
       <r>     7.4434    27.6642   485.7204 </r>
       <r>     7.6902    35.4965   494.4816 </r>
       <r>     7.9370    47.7668   506.2714 </r>
       <r>     8.1839    54.8375   519.8063 </r>
       <r>     8.4307    50.5880   532.2924 </r>
       <r>     8.6775    52.7307   545.3073 </r>
       <r>     8.9243    45.3706   556.5056 </r>
       <r>     9.1711    39.0942   566.1548 </r>
       <r>     9.4180    32.3839   574.1478 </r>
       <r>     9.6648     7.4778   575.9935 </r>
       <r>     9.9116     0.0265   576.0000 </r>
       <r>    10.1584     0.0000   576.0000 </r>
       <r>    10.4052     0.0000   576.0000 </r>
       <r>    10.6521     0.0000   576.0000 </r>
       <r>    10.8989     0.0000   576.0000 </r>
       <r>    11.1457     0.0000   576.0000 </r>
       <r>    11.3925     0.0000   576.0000 </r>
       <r>    11.6393     0.0000   576.0000 </r>
       <r>    11.8862     0.0000   576.0000 </r>
       <r>    12.1330     0.0000   576.0000 </r>
       <r>    12.3798     0.0000   576.0000 </r>
       <r>    12.6266     0.0000   576.0000 </r>
       <r>    12.8734     0.0000   576.0000 </r>
      </set>
     </set>
    </array>
   </total>
  </dos>
 </calculation>
 <structure name="finalpos" >
  <crystal>
   <varray name="basis" >
    <v>       8.82281775       0.00471668      -0.01870148 </v>
    <v>       0.01037022       8.91815178      -0.02742168 </v>
    <v>       0.01295104      -0.04258254       8.83228372 </v>
   </varray>
   <i name="volume">    694.94402398 </i>
   <varray name="rec_basis" >
    <v>       0.11334219      -0.00013231      -0.00016683 </v>
    <v>      -0.00005880       0.11213259       0.00054070 </v>
    <v>       0.00023981       0.00034786       0.11322233 </v>
   </varray>
  </crystal>
  <varray name="positions" >
   <v>       0.98905673       0.99345413       0.98952801 </v>
   <v>       0.26071946       0.99865496       0.25196163 </v>
   <v>       0.23744885       0.49949093       0.24266805 </v>
   <v>       0.50067633       0.50426969       0.99393733 </v>
   <v>       0.51125763       0.25061957       0.74022442 </v>
   <v>       0.99867781       0.50387872       0.49695293 </v>
   <v>       0.50119936       0.75182546       0.74544588 </v>
   <v>       0.98734866       0.22455411       0.26999613 </v>
   <v>       0.76266092       0.73809669       0.01461537 </v>
   <v>      -0.00283227       0.24764262       0.72315615 </v>
   <v>       0.75405385       0.27782566       0.50691881 </v>
   <v>       0.00406474       0.73352923       0.75745712 </v>
   <v>       0.23241162       0.48450147       0.75578223 </v>
   <v>       0.24079655       0.24338398       0.99457760 </v>
   <v>       0.50892476       0.25453775       0.25145746 </v>
   <v>       0.74018621       0.99339796       0.27727731 </v>
   <v>       0.76047888       0.25651268       0.99247938 </v>
   <v>       0.25255227       0.75683981       0.99713391 </v>
   <v>       0.25289217       0.25160492       0.50034224 </v>
   <v>       0.24717846       0.75045213       0.50459902 </v>
   <v>       0.24622557       0.24840135       0.24865507 </v>
   <v>       0.24628739       0.00071567      -0.00090065 </v>
   <v>      -0.00094756       0.24087059       0.01039853 </v>
   <v>       0.76062606       0.24923038       0.25990082 </v>
   <v>       0.74501248       0.99234818      -0.00912756 </v>
   <v>       0.49844197      -0.00100818       0.27204847 </v>
   <v>       0.99320383       0.49232729       0.24722564 </v>
   <v>       0.51182417       0.76062915      -0.00549086 </v>
   <v>       0.98644288       0.01445651       0.74556376 </v>
   <v>       0.75965365       0.25900451       0.73877662 </v>
   <v>       0.75693421      -0.00953500       0.51915873 </v>
   <v>       0.51294316       0.24974313       0.49977049 </v>
   <v>       0.52980859      -0.00155150       0.73763926 </v>
   <v>      -0.00138379       0.00269320       0.25434256 </v>
   <v>       0.50467536       0.23715888      -0.00725122 </v>
   <v>       0.25544028       0.74991472       0.25054790 </v>
   <v>       0.24032654       0.50098989       0.98931643 </v>
   <v>       0.99400424       0.74226670       0.00098822 </v>
   <v>       0.74351483       0.74305571       0.24619243 </v>
   <v>       0.76442002       0.51081511       0.00611655 </v>
   <v>       0.49325762       0.50655152       0.24492522 </v>
   <v>       0.24105696       0.25029737       0.74709612 </v>
   <v>       0.25531966       0.00154400       0.51599066 </v>
   <v>       0.99072236       0.24892099       0.49983173 </v>
   <v>       0.23719559       0.75559352       0.75131266 </v>
   <v>       0.25324611       0.50065443       0.50403073 </v>
   <v>       0.99056671       0.75670360       0.50972131 </v>
   <v>       0.00507146       0.49889074       0.75572430 </v>
   <v>       0.75976212       0.75104505       0.75468213 </v>
   <v>       0.74919100       0.49535907       0.50301558 </v>
   <v>       0.50525228       0.76283310       0.48984885 </v>
   <v>       0.50319163       0.50133228       0.74165201 </v>
   <v>       0.52989490       0.00557776       0.95401755 </v>
   <v>       0.99746620       0.52359282       0.97967415 </v>
   <v>       0.50404927       0.72797131       0.26798551 </v>
   <v>       0.21112384       0.02006134       0.73809172 </v>
   <v>       0.47460703       0.99311676       0.52297163 </v>
   <v>       0.74719270       0.95896385       0.75610214 </v>
   <v>      -0.00168596       0.77237127       0.25495382 </v>
   <v>       0.73432102       0.50969750       0.25178656 </v>
   <v>       0.01325773       0.00224029       0.50572588 </v>
   <v>       0.50764284       0.51112950       0.48756739 </v>
   <v>       0.76400300       0.51713408       0.76164858 </v>
   <v>       0.74708745       0.73081883       0.49126174 </v>
  </varray>
 </structure>
</modeling>
