 running on   24 total cores
 distrk:  each k-point on   24 cores,    1 groups
 distr:  one band on    1 cores,   24 groups
 using from now: INCAR     
 vasp.5.4.4.18Apr17-6-g9f103f2a35 (build Oct 18 2021 20:38:43) complex          
  
 POSCAR found type information on POSCAR  Nb Ta Zr N  C  Cr Mo
 POSCAR found :  7 types and      64 ions
 scaLAPACK will be used

 ----------------------------------------------------------------------------- 
|                                                                             |
|           W    W    AA    RRRRR   N    N  II  N    N   GGGG   !!!           |
|           W    W   A  A   R    R  NN   N  II  NN   N  G    G  !!!           |
|           W    W  A    A  R    R  N N  N  II  N N  N  G       !!!           |
|           W WW W  AAAAAA  RRRRR   N  N N  II  N  N N  G  GGG   !            |
|           WW  WW  A    A  R   R   N   NN  II  N   NN  G    G                |
|           W    W  A    A  R    R  N    N  II  N    N   GGGG   !!!           |
|                                                                             |
|      For optimal performance we recommend to set                            |
|        NCORE= 4 - approx SQRT( number of cores)                             |
|      NCORE specifies how many cores store one orbital (NPAR=cpu/NCORE).     |
|      This setting can  greatly improve the performance of VASP for DFT.     |
|      The default,   NCORE=1            might be grossly inefficient         |
|      on modern multi-core architectures or massively parallel machines.     |
|      Do your own testing !!!!                                               |
|      Unfortunately you need to use the default for GW and RPA calculations. |
|      (for HF NCORE is supported but not extensively tested yet)             |
|                                                                             |
 ----------------------------------------------------------------------------- 


 ----------------------------------------------------------------------------- 
|                                                                             |
|  ADVICE TO THIS USER RUNNING 'VASP/VAMP'   (HEAR YOUR MASTER'S VOICE ...):  |
|                                                                             |
|      You have a (more or less) 'large supercell' and for larger cells       |
|      it might be more efficient to use real space projection operators      |
|      So try LREAL= Auto  in the INCAR   file.                               |
|      Mind: If you want to do a very accurate calculations keep the          |
|      reciprocal projection scheme          (i.e. LREAL=.FALSE.)             |
|                                                                             |
 ----------------------------------------------------------------------------- 

 LDA part: xc-table for Pade appr. of Perdew
 POSCAR, INCAR and KPOINTS ok, starting setup
 FFT: planning ...
 WAVECAR not read
 entering main loop
       N       E                     dE             d eps       ncg     rms          rms(c)
DAV:   1     0.592767758094E+04    0.59277E+04   -0.19915E+05  8928   0.144E+03
DAV:   2     0.238954068078E+03   -0.56887E+04   -0.54423E+04  9072   0.599E+02
DAV:   3    -0.675830667187E+03   -0.91478E+03   -0.85870E+03 14232   0.206E+02
DAV:   4    -0.766522603135E+03   -0.90692E+02   -0.88102E+02 15576   0.815E+01
DAV:   5    -0.779716884890E+03   -0.13194E+02   -0.12992E+02 16992   0.256E+01    0.751E+01
RMM:   6    -0.977758693326E+03   -0.19804E+03   -0.23363E+03 11795   0.135E+02    0.130E+02
RMM:   7    -0.646865257297E+03    0.33089E+03   -0.24510E+02 13463   0.375E+01    0.378E+01
RMM:   8    -0.650514095310E+03   -0.36488E+01   -0.56589E+01 14439   0.145E+01    0.357E+01
RMM:   9    -0.644565081450E+03    0.59490E+01   -0.14273E+01 13526   0.114E+01    0.300E+01
RMM:  10    -0.641158725753E+03    0.34064E+01   -0.11273E+01 14591   0.603E+00    0.128E+01
RMM:  11    -0.643940305505E+03   -0.27816E+01   -0.42474E+00 11355   0.697E+00    0.289E+01
RMM:  12    -0.640777962348E+03    0.31623E+01   -0.36577E+00 13475   0.474E+00    0.132E+01
RMM:  13    -0.640876897911E+03   -0.98936E-01   -0.21476E+00 14464   0.334E+00    0.155E+01
RMM:  14    -0.640323733628E+03    0.55316E+00   -0.19153E+00 14185   0.278E+00    0.799E+00
RMM:  15    -0.640670840231E+03   -0.34711E+00   -0.71257E-01 13370   0.250E+00    0.132E+01
RMM:  16    -0.640001645999E+03    0.66919E+00   -0.56664E-01 13237   0.195E+00    0.320E+00
RMM:  17    -0.640152268798E+03   -0.15062E+00   -0.65992E-01 14456   0.138E+00    0.718E+00
RMM:  18    -0.640011359742E+03    0.14091E+00   -0.28673E-01 13832   0.143E+00    0.227E+00
RMM:  19    -0.640019308745E+03   -0.79490E-02   -0.27332E-01 14063   0.804E-01    0.118E+00
RMM:  20    -0.640004156623E+03    0.15152E-01   -0.93236E-02 13517   0.677E-01    0.827E-01
RMM:  21    -0.639999081669E+03    0.50750E-02   -0.73888E-02 14345   0.478E-01    0.406E-01
RMM:  22    -0.640000682130E+03   -0.16005E-02   -0.37622E-02 13217   0.427E-01    0.263E-01
RMM:  23    -0.640001992035E+03   -0.13099E-02   -0.21762E-02 13587   0.239E-01    0.111E-01
RMM:  24    -0.640002712625E+03   -0.72059E-03   -0.11619E-02 12419   0.198E-01    0.678E-02
RMM:  25    -0.640003087034E+03   -0.37441E-03   -0.56684E-03 13004   0.114E-01    0.407E-02
RMM:  26    -0.640003441528E+03   -0.35449E-03   -0.43744E-03 12553   0.867E-02    0.254E-02
RMM:  27    -0.640003574924E+03   -0.13340E-03   -0.19090E-03 11951   0.654E-02    0.185E-02
RMM:  28    -0.640003694853E+03   -0.11993E-03   -0.13542E-03 11963   0.523E-02    0.856E-03
RMM:  29    -0.640003751780E+03   -0.56928E-04   -0.71539E-04 11653   0.431E-02    0.110E-02
WARNING in EDDRMM: call to ZHEGV failed, returncode =   6  3      8
RMM:  30    -0.640003799550E+03   -0.47769E-04   -0.53858E-04 11266   0.327E-02    0.516E-03
RMM:  31    -0.640003825567E+03   -0.26018E-04   -0.30404E-04 10981   0.288E-02    0.431E-03
RMM:  32    -0.640003845756E+03   -0.20189E-04   -0.22273E-04 10328   0.227E-02    0.289E-03
RMM:  33    -0.640003856698E+03   -0.10942E-04   -0.12906E-04  9782   0.207E-02    0.268E-03
WARNING in EDDRMM: call to ZHEGV failed, returncode =   8  4      9
RMM:  34    -0.640003864658E+03   -0.79599E-05   -0.89434E-05  8906   0.172E-02
   1 F= -.64000386E+03 E0= -.63989415E+03  d E =-.640004E+03
 curvature:   0.00 expect dE= 0.000E+00 dE for cont linesearch  0.000E+00
 trial: gam= 0.00000 g(F)=  0.352E+01 g(S)=  0.299E+01 ort = 0.000E+00 (trialstep = 0.100E+01)
 search vector abs. value=  0.651E+01
 bond charge predicted
       N       E                     dE             d eps       ncg     rms          rms(c)
DAV:   1    -0.659023804205E+03   -0.19020E+02   -0.11481E+03 12432   0.156E+02    0.428E+01
RMM:   2    -0.826915427752E+03   -0.16789E+03   -0.64247E+02 10099   0.954E+01    0.103E+02
RMM:   3    -0.645455100924E+03    0.18146E+03   -0.70565E+01 11465   0.309E+01    0.180E+01
RMM:   4    -0.648320366380E+03   -0.28653E+01   -0.11483E+01 12998   0.115E+01    0.313E+01
RMM:   5    -0.642202470001E+03    0.61179E+01   -0.10828E+01 11444   0.999E+00    0.116E+01
RMM:   6    -0.644214255262E+03   -0.20118E+01   -0.56463E+00 11821   0.692E+00    0.220E+01
RMM:   7    -0.641755090630E+03    0.24592E+01   -0.21426E+00 11811   0.481E+00    0.983E+00
RMM:   8    -0.642114191098E+03   -0.35910E+00   -0.11440E+00 12510   0.318E+00    0.135E+01
RMM:   9    -0.641240617989E+03    0.87357E+00   -0.52687E-01 12485   0.246E+00    0.335E+00
RMM:  10    -0.641316773983E+03   -0.76156E-01   -0.34109E-01 14959   0.112E+00    0.503E+00
RMM:  11    -0.641227212182E+03    0.89562E-01   -0.13408E-01 14103   0.104E+00    0.145E+00
RMM:  12    -0.641251988943E+03   -0.24777E-01   -0.12706E-01 14961   0.584E-01    0.136E+00
RMM:  13    -0.641267737480E+03   -0.15749E-01   -0.47857E-02 14035   0.644E-01    0.202E+00
RMM:  14    -0.641266739158E+03    0.99832E-03   -0.68697E-02 14948   0.513E-01    0.575E-01
RMM:  15    -0.641272595006E+03   -0.58558E-02   -0.41449E-02 15025   0.458E-01    0.416E-01
RMM:  16    -0.641275626117E+03   -0.30311E-02   -0.31033E-02 15188   0.350E-01    0.178E-01
RMM:  17    -0.641277310408E+03   -0.16843E-02   -0.18833E-02 14835   0.295E-01    0.101E-01
RMM:  18    -0.641278518793E+03   -0.12084E-02   -0.14260E-02 14697   0.205E-01    0.900E-02
RMM:  19    -0.641279015863E+03   -0.49707E-03   -0.69094E-03 14441   0.165E-01    0.346E-02
RMM:  20    -0.641279438402E+03   -0.42254E-03   -0.50551E-03 13990   0.113E-01    0.368E-02
RMM:  21    -0.641279597828E+03   -0.15943E-03   -0.22869E-03 13274   0.979E-02    0.177E-02
WARNING in EDDRMM: call to ZHEGV failed, returncode =   8  4      7
RMM:  22    -0.641279752909E+03   -0.15508E-03   -0.17606E-03 12908   0.676E-02    0.103E-02
RMM:  23    -0.641279820461E+03   -0.67553E-04   -0.88366E-04 12441   0.587E-02    0.917E-03
WARNING in EDDRMM: call to ZHEGV failed, returncode =   8  4      7
WARNING in EDDRMM: call to ZHEGV failed, returncode =   8  4      6
RMM:  24    -0.641279884013E+03   -0.63552E-04   -0.70076E-04 12143   0.425E-02    0.728E-03
RMM:  25    -0.641279910903E+03   -0.26890E-04   -0.32585E-04 11845   0.382E-02    0.800E-03
RMM:  26    -0.641279934511E+03   -0.23608E-04   -0.30114E-04 11290   0.278E-02    0.215E-02
WARNING in EDDRMM: call to ZHEGV failed, returncode =   6  3      8
WARNING in EDDRMM: call to ZHEGV failed, returncode =   6  3      9
RMM:  27    -0.641279945739E+03   -0.11228E-04   -0.14072E-04 10908   0.252E-02    0.120E-02
RMM:  28    -0.641279954425E+03   -0.86865E-05   -0.98701E-05  9828   0.193E-02
   2 F= -.64127995E+03 E0= -.64119366E+03  d E =-.127609E+01
 trial-energy change:   -1.276090  1 .order   -1.018539   -6.509097    4.472018
 step:   0.6257(harm=  0.5928)  dis= 0.05692  next Energy=  -642.103364 (dE=-0.210E+01)
 bond charge predicted
       N       E                     dE             d eps       ncg     rms          rms(c)
DAV:   1    -0.645203651736E+03   -0.39237E+01   -0.16798E+02 12336   0.574E+01    0.229E+01
RMM:   2    -0.714022996389E+03   -0.68819E+02   -0.47332E+01 12668   0.189E+01    0.601E+01
RMM:   3    -0.645260095215E+03    0.68763E+02   -0.19671E+01 11227   0.180E+01    0.196E+01
RMM:   4    -0.643694834046E+03    0.15653E+01   -0.45190E+00 13216   0.577E+00    0.135E+01
RMM:   5    -0.642991715074E+03    0.70312E+00   -0.25104E+00 10720   0.533E+00    0.126E+01
RMM:   6    -0.643116132810E+03   -0.12442E+00   -0.14102E+00 11873   0.305E+00    0.134E+01
RMM:   7    -0.642272125239E+03    0.84401E+00   -0.62606E-01 12117   0.235E+00    0.584E+00
RMM:   8    -0.642337608526E+03   -0.65483E-01   -0.26751E-01 12193   0.166E+00    0.724E+00
RMM:   9    -0.642160764653E+03    0.17684E+00   -0.21983E-01 12474   0.141E+00    0.372E+00
RMM:  10    -0.642156047857E+03    0.47168E-02   -0.90561E-02 13522   0.875E-01    0.382E+00
RMM:  11    -0.642102106245E+03    0.53942E-01   -0.45787E-02 13312   0.601E-01    0.127E+00
RMM:  12    -0.642105737195E+03   -0.36309E-02   -0.34838E-02 14628   0.415E-01    0.143E+00
RMM:  13    -0.642098855533E+03    0.68817E-02   -0.17827E-02 14098   0.324E-01    0.432E-01
RMM:  14    -0.642101413470E+03   -0.25579E-02   -0.14545E-02 14820   0.202E-01    0.420E-01
RMM:  15    -0.642103488121E+03   -0.20747E-02   -0.98348E-03 14818   0.204E-01    0.163E-01
RMM:  16    -0.642104699784E+03   -0.12117E-02   -0.94942E-03 14524   0.169E-01    0.126E-01
RMM:  17    -0.642105018058E+03   -0.31827E-03   -0.47625E-03 13666   0.159E-01    0.921E-02
RMM:  18    -0.642105459393E+03   -0.44134E-03   -0.49954E-03 13073   0.101E-01    0.614E-02
RMM:  19    -0.642105585164E+03   -0.12577E-03   -0.20581E-03 12689   0.870E-02    0.664E-02
WARNING in EDDRMM: call to ZHEGV failed, returncode =   6  3      8
RMM:  20    -0.642105731273E+03   -0.14611E-03   -0.16378E-03 12194   0.581E-02    0.904E-02
RMM:  21    -0.642105763322E+03   -0.32049E-04   -0.75644E-04 12283   0.540E-02    0.757E-02
RMM:  22    -0.642105797943E+03   -0.34621E-04   -0.51291E-04 11605   0.394E-02    0.678E-02
RMM:  23    -0.642105818599E+03   -0.20656E-04   -0.29242E-04 11192   0.326E-02    0.686E-02
WARNING in EDDRMM: call to ZHEGV failed, returncode =   6  3     11
RMM:  24    -0.642105831111E+03   -0.12512E-04   -0.19564E-04 10484   0.252E-02    0.666E-02
RMM:  25    -0.642105837090E+03   -0.59784E-05   -0.12227E-04 10032   0.211E-02    0.625E-02
RMM:  26    -0.642105839698E+03   -0.26086E-05   -0.76041E-05  9062   0.186E-02
   3 F= -.64210584E+03 E0= -.64201030E+03  d E =-.210198E+01
 curvature:  -0.29 expect dE=-0.102E+01 dE for cont linesearch -0.591E-03
 trial: gam= 0.51263 g(F)=  0.179E+01 g(S)=  0.166E+01 ort = 0.114E+00 (trialstep = 0.925E+00)
 search vector abs. value=  0.528E+01
 bond charge predicted
       N       E                     dE             d eps       ncg     rms          rms(c)
DAV:   1    -0.637213977879E+03    0.48919E+01   -0.72127E+02 10632   0.111E+02    0.176E+01
RMM:   2    -0.688858946687E+03   -0.51645E+02   -0.10800E+02 12444   0.289E+01    0.527E+01
RMM:   3    -0.646744437804E+03    0.42115E+02   -0.19864E+01 11191   0.162E+01    0.199E+01
RMM:   4    -0.644240352867E+03    0.25041E+01   -0.53240E+00 13762   0.553E+00    0.949E+00
RMM:   5    -0.644656603116E+03   -0.41625E+00   -0.15025E+00 11814   0.392E+00    0.141E+01
RMM:   6    -0.643611055830E+03    0.10455E+01   -0.84787E-01 12668   0.268E+00    0.427E+00
RMM:   7    -0.643730272238E+03   -0.11922E+00   -0.52164E-01 14140   0.156E+00    0.767E+00
RMM:   8    -0.643529971923E+03    0.20030E+00   -0.24289E-01 13391   0.142E+00    0.360E+00
RMM:   9    -0.643556969259E+03   -0.26997E-01   -0.26878E-01 14041   0.125E+00    0.495E+00
RMM:  10    -0.643448326553E+03    0.10864E+00   -0.10586E-01 12504   0.114E+00    0.152E+00
RMM:  11    -0.643445920328E+03    0.24062E-02   -0.96271E-02 14739   0.554E-01    0.107E+00
RMM:  12    -0.643449294575E+03   -0.33742E-02   -0.28238E-02 13995   0.483E-01    0.127E+00
RMM:  13    -0.643444965398E+03    0.43292E-02   -0.24251E-02 14902   0.284E-01    0.426E-01
RMM:  14    -0.643445800839E+03   -0.83544E-03   -0.13283E-02 14758   0.195E-01    0.277E-01
RMM:  15    -0.643446538272E+03   -0.73743E-03   -0.60574E-03 14514   0.189E-01    0.197E-01
RMM:  16    -0.643447307098E+03   -0.76883E-03   -0.72412E-03 14381   0.129E-01    0.944E-02
RMM:  17    -0.643447380221E+03   -0.73123E-04   -0.29897E-03 13864   0.103E-01    0.489E-02
RMM:  18    -0.643447511555E+03   -0.13133E-03   -0.17359E-03 13027   0.900E-02    0.361E-02
WARNING in EDDRMM: call to ZHEGV failed, returncode =   6  3      8
RMM:  19    -0.643447617603E+03   -0.10605E-03   -0.13041E-03 12809   0.591E-02    0.292E-02
RMM:  20    -0.643447664562E+03   -0.46959E-04   -0.70237E-04 12253   0.497E-02    0.160E-02
RMM:  21    -0.643447696233E+03   -0.31670E-04   -0.44886E-04 11879   0.364E-02    0.108E-02
RMM:  22    -0.643447715042E+03   -0.18809E-04   -0.26372E-04 11529   0.313E-02    0.615E-03
RMM:  23    -0.643447727134E+03   -0.12092E-04   -0.15925E-04 10871   0.245E-02    0.313E-03
RMM:  24    -0.643447735927E+03   -0.87929E-05   -0.10510E-04 10057   0.205E-02    0.402E-03
RMM:  25    -0.643447740727E+03   -0.48007E-05   -0.65992E-05  9092   0.176E-02
   4 F= -.64344774E+03 E0= -.64336444E+03  d E =-.134190E+01
 trial-energy change:   -1.341901  1 .order   -1.394079   -3.246901    0.458744
 step:   0.8016(harm=  0.8106)  dis= 0.08131  next Energy=  -643.478503 (dE=-0.137E+01)
 bond charge predicted
       N       E                     dE             d eps       ncg     rms          rms(c)
DAV:   1    -0.643361936219E+03    0.85800E-01   -0.12590E+01 10656   0.151E+01    0.230E+00
RMM:   2    -0.644791585194E+03   -0.14296E+01   -0.25743E+00 11846   0.488E+00    0.145E+01
RMM:   3    -0.643553589533E+03    0.12380E+01   -0.45745E-01 10904   0.254E+00    0.406E+00
RMM:   4    -0.643492420709E+03    0.61169E-01   -0.13586E-01 12299   0.107E+00    0.142E+00
RMM:   5    -0.643496090037E+03   -0.36693E-02   -0.37668E-02 13377   0.460E-01    0.195E+00
RMM:   6    -0.643481131487E+03    0.14959E-01   -0.10452E-02 12135   0.321E-01    0.589E-01
RMM:   7    -0.643482633108E+03   -0.15016E-02   -0.88871E-03 13313   0.213E-01    0.933E-01
RMM:   8    -0.643479585674E+03    0.30474E-02   -0.46063E-03 12524   0.214E-01    0.486E-01
RMM:   9    -0.643478699399E+03    0.88627E-03   -0.45191E-03 14049   0.152E-01    0.376E-01
RMM:  10    -0.643478278855E+03    0.42054E-03   -0.15648E-03 12457   0.118E-01    0.209E-01
RMM:  11    -0.643478268990E+03    0.98643E-05   -0.10984E-03 13086   0.602E-02    0.146E-01
RMM:  12    -0.643478270575E+03   -0.15846E-05   -0.41891E-04 11940   0.594E-02    0.132E-01
RMM:  13    -0.643478227280E+03    0.43295E-04   -0.33385E-04 12329   0.325E-02    0.366E-02
RMM:  14    -0.643478256883E+03   -0.29604E-04   -0.16867E-04 11821   0.269E-02    0.266E-02
RMM:  15    -0.643478283566E+03   -0.26683E-04   -0.97455E-05  9868   0.235E-02    0.164E-02
RMM:  16    -0.643478294292E+03   -0.10726E-04   -0.80579E-05  8864   0.221E-02    0.673E-03
RMM:  17    -0.643478297473E+03   -0.31812E-05   -0.40889E-05  7568   0.169E-02
   5 F= -.64347830E+03 E0= -.64339399E+03  d E =-.137246E+01
 curvature:  -0.61 expect dE=-0.451E+00 dE for cont linesearch -0.106E-06
 trial: gam= 0.14445 g(F)=  0.707E+00 g(S)=  0.370E-01 ort = 0.961E-03 (trialstep = 0.900E+00)
 search vector abs. value=  0.854E+00
 bond charge predicted
       N       E                     dE             d eps       ncg     rms          rms(c)
DAV:   1    -0.641183232915E+03    0.22951E+01   -0.13139E+02  9792   0.649E+01    0.505E+00
RMM:   2    -0.647523390480E+03   -0.63402E+01   -0.30970E+01 13767   0.127E+01    0.223E+01
RMM:   3    -0.644074008844E+03    0.34494E+01   -0.24375E+00 10228   0.701E+00    0.520E+00
RMM:   4    -0.644226697693E+03   -0.15269E+00   -0.96624E-01 13459   0.238E+00    0.694E+00
RMM:   5    -0.643984439640E+03    0.24226E+00   -0.21056E-01 12853   0.130E+00    0.234E+00
RMM:   6    -0.643988912517E+03   -0.44729E-02   -0.10940E-01 13681   0.688E-01    0.259E+00
RMM:   7    -0.643969038652E+03    0.19874E-01   -0.94024E-02 13629   0.700E-01    0.210E+00
RMM:   8    -0.643955644465E+03    0.13394E-01   -0.32534E-02 12100   0.605E-01    0.138E+00
RMM:   9    -0.643947973263E+03    0.76712E-02   -0.29140E-02 14467   0.349E-01    0.540E-01
RMM:  10    -0.643951010323E+03   -0.30371E-02   -0.11262E-02 13357   0.294E-01    0.953E-01
RMM:  11    -0.643946953002E+03    0.40573E-02   -0.65024E-03 14046   0.181E-01    0.247E-01
RMM:  12    -0.643947485906E+03   -0.53290E-03   -0.38256E-03 14019   0.121E-01    0.359E-01
RMM:  13    -0.643947106783E+03    0.37912E-03   -0.20408E-03 14195   0.885E-02    0.105E-01
RMM:  14    -0.643947226059E+03   -0.11928E-03   -0.13425E-03 13847   0.669E-02    0.695E-02
RMM:  15    -0.643947279195E+03   -0.53137E-04   -0.68527E-04 13347   0.617E-02    0.398E-02
RMM:  16    -0.643947313337E+03   -0.34142E-04   -0.59184E-04 12260   0.418E-02    0.175E-02
RMM:  17    -0.643947330362E+03   -0.17025E-04   -0.28273E-04 11948   0.367E-02    0.139E-02
RMM:  18    -0.643947346157E+03   -0.15795E-04   -0.20999E-04 10923   0.265E-02    0.959E-03
WARNING in EDDRMM: call to ZHEGV failed, returncode =   6  3     10
RMM:  19    -0.643947354028E+03   -0.78712E-05   -0.11744E-04 10675   0.228E-02    0.458E-03
RMM:  20    -0.643947360044E+03   -0.60161E-05   -0.79686E-05  9380   0.189E-02
   6 F= -.64394736E+03 E0= -.64386827E+03  d E =-.469063E+00
 trial-energy change:   -0.469063  1 .order   -0.464926   -0.669732   -0.260121
 step:   1.4223(harm=  1.4722)  dis= 0.06056  next Energy=  -644.023545 (dE=-0.545E+00)
 bond charge predicted
       N       E                     dE             d eps       ncg     rms          rms(c)
DAV:   1    -0.643063569886E+03    0.88378E+00   -0.43465E+01  9768   0.379E+01    0.292E+00
RMM:   2    -0.645198381094E+03   -0.21348E+01   -0.10947E+01 13740   0.752E+00    0.136E+01
RMM:   3    -0.644119590309E+03    0.10788E+01   -0.85954E-01 10184   0.408E+00    0.450E+00
RMM:   4    -0.644094170751E+03    0.25420E-01   -0.34754E-01 13304   0.145E+00    0.321E+00
RMM:   5    -0.644058947717E+03    0.35223E-01   -0.77002E-02 12805   0.734E-01    0.249E+00
RMM:   6    -0.644034442336E+03    0.24505E-01   -0.29965E-02 12984   0.456E-01    0.947E-01
RMM:   7    -0.644040444405E+03   -0.60021E-02   -0.36996E-02 13443   0.431E-01    0.172E+00
RMM:   8    -0.644028038815E+03    0.12406E-01   -0.14138E-02 12156   0.397E-01    0.680E-01
RMM:   9    -0.644026154456E+03    0.18844E-02   -0.12111E-02 14509   0.202E-01    0.373E-01
RMM:  10    -0.644026999417E+03   -0.84496E-03   -0.40557E-03 12560   0.181E-01    0.547E-01
RMM:  11    -0.644025751458E+03    0.12480E-02   -0.26644E-03 13503   0.104E-01    0.110E-01
RMM:  12    -0.644025958568E+03   -0.20711E-03   -0.13419E-03 13245   0.717E-02    0.192E-01
RMM:  13    -0.644025846365E+03    0.11220E-03   -0.70530E-04 13153   0.579E-02    0.656E-02
RMM:  14    -0.644025892889E+03   -0.46524E-04   -0.55108E-04 12784   0.410E-02    0.404E-02
RMM:  15    -0.644025903518E+03   -0.10629E-04   -0.24494E-04 12180   0.414E-02    0.198E-02
RMM:  16    -0.644025915490E+03   -0.11973E-04   -0.21954E-04 11082   0.265E-02    0.989E-03
RMM:  17    -0.644025923743E+03   -0.82523E-05   -0.12195E-04 10594   0.244E-02    0.774E-03
RMM:  18    -0.644025928750E+03   -0.50070E-05   -0.74011E-05  9352   0.189E-02
   7 F= -.64402593E+03 E0= -.64394948E+03  d E =-.547631E+00
 curvature:  -0.84 expect dE=-0.408E+00 dE for cont linesearch -0.429E-04
 trial: gam= 0.61938 g(F)=  0.293E+00 g(S)=  0.194E+00 ort = 0.661E-02 (trialstep = 0.100E+01)
 search vector abs. value=  0.823E+00
 bond charge predicted
       N       E                     dE             d eps       ncg     rms          rms(c)
DAV:   1    -0.641520328324E+03    0.25056E+01   -0.16834E+02 12624   0.784E+01    0.937E+00
RMM:   2    -0.658697112790E+03   -0.17177E+02   -0.52756E+01 10993   0.229E+01    0.402E+01
RMM:   3    -0.644346162635E+03    0.14351E+02   -0.81040E+00 10745   0.113E+01    0.602E+00
RMM:   4    -0.644544330306E+03   -0.19817E+00   -0.23218E+00 14285   0.338E+00    0.703E+00
RMM:   5    -0.644275277758E+03    0.26905E+00   -0.35667E-01 11491   0.198E+00    0.307E+00
RMM:   6    -0.644294041504E+03   -0.18764E-01   -0.19249E-01 12977   0.117E+00    0.410E+00
RMM:   7    -0.644241331805E+03    0.52710E-01   -0.17544E-01 12465   0.114E+00    0.281E+00
RMM:   8    -0.644243170871E+03   -0.18391E-02   -0.10210E-01 11989   0.101E+00    0.297E+00
RMM:   9    -0.644190695938E+03    0.52475E-01   -0.61917E-02 13097   0.716E-01    0.644E-01
RMM:  10    -0.644196736739E+03   -0.60408E-02   -0.33853E-02 14660   0.382E-01    0.112E+00
RMM:  11    -0.644192057950E+03    0.46788E-02   -0.13748E-02 14583   0.260E-01    0.275E-01
RMM:  12    -0.644193178360E+03   -0.11204E-02   -0.81214E-03 14803   0.153E-01    0.364E-01
RMM:  13    -0.644193110446E+03    0.67914E-04   -0.32815E-03 14454   0.135E-01    0.217E-01
RMM:  14    -0.644193733203E+03   -0.62276E-03   -0.34639E-03 14172   0.926E-02    0.156E-01
RMM:  15    -0.644194339423E+03   -0.60622E-03   -0.21675E-03 14307   0.977E-02    0.805E-02
RMM:  16    -0.644194483379E+03   -0.14396E-03   -0.16105E-03 13780   0.783E-02    0.331E-02
RMM:  17    -0.644194551258E+03   -0.67879E-04   -0.95645E-04 12649   0.660E-02    0.226E-02
RMM:  18    -0.644194612804E+03   -0.61545E-04   -0.72054E-04 11832   0.488E-02    0.216E-02
RMM:  19    -0.644194643009E+03   -0.30205E-04   -0.38695E-04 11782   0.374E-02    0.174E-02
RMM:  20    -0.644194664428E+03   -0.21419E-04   -0.23889E-04 11014   0.285E-02    0.118E-02
RMM:  21    -0.644194679327E+03   -0.14899E-04   -0.14814E-04 10613   0.242E-02    0.295E-03
WARNING in EDDRMM: call to ZHEGV failed, returncode =   6  3     10
RMM:  22    -0.644194685804E+03   -0.64776E-05   -0.87817E-05  9744   0.208E-02
   8 F= -.64419469E+03 E0= -.64412705E+03  d E =-.168757E+00
 trial-energy change:   -0.168757  1 .order   -0.155432   -0.493160    0.182296
 step:   0.7558(harm=  0.7336)  dis= 0.03539  next Energy=  -644.217072 (dE=-0.191E+00)
 bond charge predicted
       N       E                     dE             d eps       ncg     rms          rms(c)
DAV:   1    -0.644052550703E+03    0.14213E+00   -0.10440E+01 13176   0.195E+01    0.240E+00
RMM:   2    -0.645226082197E+03   -0.11735E+01   -0.27325E+00 11777   0.475E+00    0.121E+01
RMM:   3    -0.644291506249E+03    0.93458E+00   -0.47269E-01 10712   0.265E+00    0.378E+00
RMM:   4    -0.644232422372E+03    0.59084E-01   -0.14694E-01 13569   0.979E-01    0.133E+00
RMM:   5    -0.644237193653E+03   -0.47713E-02   -0.37522E-02 12297   0.520E-01    0.194E+00
RMM:   6    -0.644219705132E+03    0.17489E-01   -0.12236E-02 11788   0.360E-01    0.548E-01
RMM:   7    -0.644221588079E+03   -0.18829E-02   -0.13126E-02 12973   0.254E-01    0.883E-01
RMM:   8    -0.644218927038E+03    0.26610E-02   -0.52439E-03 11363   0.256E-01    0.546E-01
RMM:   9    -0.644216951960E+03    0.19751E-02   -0.33723E-03 13992   0.138E-01    0.921E-02
RMM:  10    -0.644217209168E+03   -0.25721E-03   -0.11859E-03 13287   0.844E-02    0.225E-01
RMM:  11    -0.644217025294E+03    0.18387E-03   -0.65960E-04 12716   0.568E-02    0.662E-02
RMM:  12    -0.644217061854E+03   -0.36559E-04   -0.36702E-04 12308   0.404E-02    0.765E-02
RMM:  13    -0.644217057476E+03    0.43775E-05   -0.17465E-04 11503   0.336E-02    0.466E-02
RMM:  14    -0.644217071906E+03   -0.14429E-04   -0.14923E-04 10701   0.238E-02    0.287E-02
RMM:  15    -0.644217079985E+03   -0.80790E-05   -0.12666E-04 10997   0.266E-02    0.137E-02
RMM:  16    -0.644217081586E+03   -0.16012E-05   -0.84939E-05 10064   0.225E-02
   9 F= -.64421708E+03 E0= -.64414728E+03  d E =-.191153E+00
 curvature:  -0.61 expect dE=-0.265E+00 dE for cont linesearch -0.868E-07
 trial: gam= 0.80978 g(F)=  0.243E+00 g(S)=  0.190E+00 ort = 0.342E-03 (trialstep = 0.807E+00)
 search vector abs. value=  0.974E+00
 bond charge predicted
       N       E                     dE             d eps       ncg     rms          rms(c)
DAV:   1    -0.641993356040E+03    0.22237E+01   -0.12537E+02 10584   0.617E+01    0.464E+00
RMM:   2    -0.646901900023E+03   -0.49085E+01   -0.27365E+01 13640   0.121E+01    0.186E+01
RMM:   3    -0.644546065485E+03    0.23558E+01   -0.21202E+00 10238   0.651E+00    0.496E+00
RMM:   4    -0.644603277751E+03   -0.57212E-01   -0.84233E-01 13472   0.219E+00    0.541E+00
RMM:   5    -0.644440934634E+03    0.16234E+00   -0.17604E-01 12349   0.129E+00    0.192E+00
RMM:   6    -0.644451878287E+03   -0.10944E-01   -0.99962E-02 13692   0.698E-01    0.252E+00
RMM:   7    -0.644425569673E+03    0.26309E-01   -0.78870E-02 13785   0.615E-01    0.132E+00
RMM:   8    -0.644431284097E+03   -0.57144E-02   -0.34137E-02 11873   0.629E-01    0.196E+00
RMM:   9    -0.644411358315E+03    0.19926E-01   -0.24227E-02 13737   0.427E-01    0.389E-01
RMM:  10    -0.644415070421E+03   -0.37121E-02   -0.13410E-02 14485   0.243E-01    0.887E-01
RMM:  11    -0.644411678983E+03    0.33914E-02   -0.62113E-03 13960   0.180E-01    0.168E-01
RMM:  12    -0.644411921863E+03   -0.24288E-03   -0.42789E-03 14237   0.957E-02    0.122E-01
RMM:  13    -0.644412147791E+03   -0.22593E-03   -0.13097E-03 13588   0.101E-01    0.188E-01
RMM:  14    -0.644412112957E+03    0.34835E-04   -0.12946E-03 13136   0.678E-02    0.841E-02
RMM:  15    -0.644412191878E+03   -0.78921E-04   -0.87275E-04 13118   0.505E-02    0.377E-02
RMM:  16    -0.644412204262E+03   -0.12384E-04   -0.37099E-04 12659   0.494E-02    0.196E-02
RMM:  17    -0.644412227485E+03   -0.23223E-04   -0.33298E-04 11678   0.318E-02    0.116E-02
RMM:  18    -0.644412239536E+03   -0.12051E-04   -0.17133E-04 11278   0.290E-02    0.896E-03
RMM:  19    -0.644412248480E+03   -0.89436E-05   -0.11758E-04 10299   0.207E-02    0.597E-03
RMM:  20    -0.644412252879E+03   -0.43990E-05   -0.70556E-05  9304   0.195E-02
  10 F= -.64441225E+03 E0= -.64434740E+03  d E =-.195171E+00
 trial-energy change:   -0.195171  1 .order   -0.192672   -0.350104   -0.035239
 step:   0.8926(harm=  0.8971)  dis= 0.05508  next Energy=  -644.414129 (dE=-0.197E+00)
 bond charge predicted
       N       E                     dE             d eps       ncg     rms          rms(c)
DAV:   1    -0.644386464514E+03    0.25784E-01   -0.13917E+00 11256   0.666E+00    0.509E-01
RMM:   2    -0.644450557346E+03   -0.64093E-01   -0.33701E-01 13647   0.135E+00    0.235E+00
RMM:   3    -0.644417447250E+03    0.33110E-01   -0.27305E-02 10222   0.724E-01    0.799E-01
RMM:   4    -0.644415816148E+03    0.16311E-02   -0.10436E-02 13120   0.244E-01    0.451E-01
RMM:   5    -0.644415219086E+03    0.59706E-03   -0.23718E-03 12438   0.133E-01    0.405E-01
RMM:   6    -0.644414503669E+03    0.71542E-03   -0.89061E-04 10881   0.853E-02    0.154E-01
RMM:   7    -0.644414391009E+03    0.11266E-03   -0.11030E-03 13598   0.659E-02    0.118E-01
RMM:   8    -0.644414499053E+03   -0.10804E-03   -0.47667E-04 10494   0.821E-02    0.214E-01
RMM:   9    -0.644414257152E+03    0.24190E-03   -0.30257E-04 11384   0.498E-02    0.367E-02
RMM:  10    -0.644414291107E+03   -0.33954E-04   -0.16579E-04  9689   0.299E-02    0.850E-02
RMM:  11    -0.644414260180E+03    0.30927E-04   -0.72380E-05  7512   0.251E-02    0.177E-02
WARNING in EDDRMM: call to ZHEGV failed, returncode =   6  3     10
RMM:  12    -0.644414260965E+03   -0.78570E-06   -0.57718E-05  6892   0.171E-02
  11 F= -.64441426E+03 E0= -.64434990E+03  d E =-.197179E+00
 curvature:  -1.00 expect dE=-0.147E+00 dE for cont linesearch -0.716E-08
 trial: gam= 0.19292 g(F)=  0.136E+00 g(S)=  0.103E-01 ort = 0.833E-04 (trialstep = 0.824E+00)
 search vector abs. value=  0.182E+00
 bond charge predicted
       N       E                     dE             d eps       ncg     rms          rms(c)
DAV:   1    -0.644110821540E+03    0.30344E+00   -0.22080E+01  9840   0.240E+01    0.160E+00
RMM:   2    -0.644749599085E+03   -0.63878E+00   -0.42418E+00 13673   0.483E+00    0.663E+00
RMM:   3    -0.644522450516E+03    0.22715E+00   -0.30494E-01  9997   0.260E+00    0.243E+00
RMM:   4    -0.644515900241E+03    0.65503E-02   -0.12295E-01 13508   0.896E-01    0.182E+00
RMM:   5    -0.644502612514E+03    0.13288E-01   -0.30735E-02 12458   0.520E-01    0.135E+00
RMM:   6    -0.644495544027E+03    0.70685E-02   -0.15910E-02 13370   0.305E-01    0.630E-01
RMM:   7    -0.644497467478E+03   -0.19235E-02   -0.16983E-02 13650   0.310E-01    0.964E-01
RMM:   8    -0.644492537120E+03    0.49304E-02   -0.60732E-03 12800   0.253E-01    0.316E-01
RMM:   9    -0.644492255281E+03    0.28184E-03   -0.46777E-03 14178   0.120E-01    0.198E-01
RMM:  10    -0.644492439272E+03   -0.18399E-03   -0.15363E-03 12685   0.101E-01    0.258E-01
RMM:  11    -0.644492166851E+03    0.27242E-03   -0.10346E-03 12910   0.658E-02    0.714E-02
RMM:  12    -0.644492234459E+03   -0.67608E-04   -0.52246E-04 12487   0.469E-02    0.110E-01
RMM:  13    -0.644492202997E+03    0.31462E-04   -0.29141E-04 12074   0.397E-02    0.406E-02
RMM:  14    -0.644492214538E+03   -0.11541E-04   -0.23095E-04 11404   0.267E-02    0.223E-02
RMM:  15    -0.644492215942E+03   -0.14043E-05   -0.98511E-05 10778   0.286E-02
  12 F= -.64449222E+03 E0= -.64442860E+03  d E =-.779550E-01
 trial-energy change:   -0.077955  1 .order   -0.077807   -0.120479   -0.035135
 step:   1.1632(harm=  1.1632)  dis= 0.02391  next Energy=  -644.499301 (dE=-0.850E-01)
 bond charge predicted
       N       E                     dE             d eps       ncg     rms          rms(c)
DAV:   1    -0.644435039197E+03    0.57175E-01   -0.37341E+00 10032   0.991E+00    0.665E-01
RMM:   2    -0.644546911269E+03   -0.11187E+00   -0.72679E-01 13641   0.200E+00    0.283E+00
RMM:   3    -0.644505092420E+03    0.41819E-01   -0.55672E-02  9969   0.112E+00    0.104E+00
RMM:   4    -0.644503653867E+03    0.14386E-02   -0.21888E-02 13495   0.379E-01    0.733E-01
RMM:   5    -0.644501651825E+03    0.20020E-02   -0.56627E-03 12564   0.215E-01    0.569E-01
RMM:   6    -0.644500377242E+03    0.12746E-02   -0.28134E-03 12546   0.129E-01    0.254E-01
RMM:   7    -0.644500617337E+03   -0.24009E-03   -0.30148E-03 13725   0.131E-01    0.378E-01
RMM:   8    -0.644499885916E+03    0.73142E-03   -0.10453E-03 12315   0.107E-01    0.129E-01
RMM:   9    -0.644499849418E+03    0.36498E-04   -0.84857E-04 12617   0.511E-02    0.835E-02
RMM:  10    -0.644499872558E+03   -0.23141E-04   -0.27623E-04 11425   0.454E-02    0.999E-02
RMM:  11    -0.644499831452E+03    0.41106E-04   -0.19590E-04 11241   0.299E-02    0.297E-02
RMM:  12    -0.644499842405E+03   -0.10953E-04   -0.98041E-05  9763   0.229E-02    0.444E-02
RMM:  13    -0.644499836269E+03    0.61358E-05   -0.55850E-05  8074   0.208E-02
  13 F= -.64449984E+03 E0= -.64443649E+03  d E =-.855753E-01
 curvature:  -0.73 expect dE=-0.611E-01 dE for cont linesearch -0.357E-05
 trial: gam= 0.56290 g(F)=  0.377E-01 g(S)=  0.464E-01 ort = 0.947E-03 (trialstep = 0.892E+00)
 search vector abs. value=  0.143E+00
 bond charge predicted
       N       E                     dE             d eps       ncg     rms          rms(c)
DAV:   1    -0.644319442824E+03    0.18040E+00   -0.22132E+01 12696   0.269E+01    0.438E+00
RMM:   2    -0.647770518923E+03   -0.34511E+01   -0.70441E+00 10841   0.894E+00    0.209E+01
RMM:   3    -0.644661386543E+03    0.31091E+01   -0.13881E+00 11214   0.454E+00    0.504E+00
RMM:   4    -0.644576887591E+03    0.84499E-01   -0.31485E-01 13517   0.148E+00    0.242E+00
RMM:   5    -0.644578089138E+03   -0.12015E-02   -0.93366E-02 12635   0.868E-01    0.296E+00
RMM:   6    -0.644532318952E+03    0.45770E-01   -0.36044E-02 11505   0.672E-01    0.905E-01
RMM:   7    -0.644548620641E+03   -0.16302E-01   -0.38258E-02 13060   0.512E-01    0.203E+00
RMM:   8    -0.644528865627E+03    0.19755E-01   -0.18295E-02 11935   0.463E-01    0.571E-01
RMM:   9    -0.644527186863E+03    0.16788E-02   -0.11304E-02 14326   0.198E-01    0.345E-01
RMM:  10    -0.644527092357E+03    0.94506E-04   -0.27706E-03 13574   0.158E-01    0.262E-01
RMM:  11    -0.644527013546E+03    0.78811E-04   -0.19054E-03 14131   0.814E-02    0.963E-02
RMM:  12    -0.644527149266E+03   -0.13572E-03   -0.94539E-04 13737   0.707E-02    0.840E-02
RMM:  13    -0.644527380559E+03   -0.23129E-03   -0.73919E-04 12919   0.635E-02    0.146E-01
RMM:  14    -0.644527382103E+03   -0.15441E-05   -0.55893E-04 12911   0.561E-02    0.392E-02
WARNING in EDDRMM: call to ZHEGV failed, returncode =   8  4      7
RMM:  15    -0.644527445077E+03   -0.62974E-04   -0.48024E-04 12780   0.382E-02    0.225E-02
WARNING in EDDRMM: call to ZHEGV failed, returncode =   6  3      9
RMM:  16    -0.644527457825E+03   -0.12747E-04   -0.17977E-04 12013   0.394E-02    0.185E-02
RMM:  17    -0.644527474566E+03   -0.16741E-04   -0.16032E-04 10497   0.223E-02    0.126E-02
RMM:  18    -0.644527485456E+03   -0.10891E-04   -0.99729E-05 10143   0.214E-02    0.632E-03
RMM:  19    -0.644527490761E+03   -0.53044E-05   -0.56406E-05  8627   0.192E-02
  14 F= -.64452749E+03 E0= -.64446579E+03  d E =-.276545E-01
 trial-energy change:   -0.027654  1 .order   -0.027026   -0.075528    0.021476
 step:   0.7002(harm=  0.6944)  dis= 0.01286  next Energy=  -644.529792 (dE=-0.300E-01)
 bond charge predicted
       N       E                     dE             d eps       ncg     rms          rms(c)
DAV:   1    -0.644520557357E+03    0.69281E-02   -0.10305E+00 13032   0.576E+00    0.955E-01
RMM:   2    -0.644681598515E+03   -0.16104E+00   -0.28623E-01 11317   0.174E+00    0.466E+00
RMM:   3    -0.644541691985E+03    0.13991E+00   -0.65696E-02 11228   0.976E-01    0.148E+00
RMM:   4    -0.644531891222E+03    0.98008E-02   -0.14532E-02 13054   0.349E-01    0.458E-01
RMM:   5    -0.644533139895E+03   -0.12487E-02   -0.54635E-03 12666   0.200E-01    0.773E-01
RMM:   6    -0.644530134064E+03    0.30058E-02   -0.18287E-03 11181   0.148E-01    0.176E-01
RMM:   7    -0.644530201843E+03   -0.67779E-04   -0.18685E-03 13228   0.983E-02    0.227E-01
RMM:   8    -0.644530075855E+03    0.12599E-03   -0.55489E-04 10046   0.937E-02    0.187E-01
RMM:   9    -0.644529867403E+03    0.20845E-03   -0.35589E-04 11994   0.461E-02    0.520E-02
RMM:  10    -0.644529887957E+03   -0.20554E-04   -0.13086E-04  8747   0.326E-02    0.790E-02
RMM:  11    -0.644529858438E+03    0.29519E-04   -0.61637E-05  7630   0.242E-02    0.186E-02
RMM:  12    -0.644529857713E+03    0.72546E-06   -0.41038E-05  6671   0.174E-02
  15 F= -.64452986E+03 E0= -.64446783E+03  d E =-.300214E-01
 curvature:  -0.59 expect dE=-0.332E-01 dE for cont linesearch -0.132E-05
 trial: gam= 0.68329 g(F)=  0.283E-01 g(S)=  0.283E-01 ort =-0.567E-03 (trialstep = 0.854E+00)
 search vector abs. value=  0.123E+00
 bond charge predicted
       N       E                     dE             d eps       ncg     rms          rms(c)
DAV:   1    -0.644158038330E+03    0.37182E+00   -0.17528E+01  9960   0.247E+01    0.162E+00
RMM:   2    -0.644754681135E+03   -0.59664E+00   -0.44816E+00 13788   0.465E+00    0.530E+00
RMM:   3    -0.644571887542E+03    0.18279E+00   -0.27397E-01  9894   0.238E+00    0.164E+00
RMM:   4    -0.644595928683E+03   -0.24041E-01   -0.11216E-01 13434   0.817E-01    0.256E+00
RMM:   5    -0.644560983858E+03    0.34945E-01   -0.24241E-02 11917   0.500E-01    0.616E-01
RMM:   6    -0.644566724235E+03   -0.57404E-02   -0.16993E-02 13297   0.298E-01    0.130E+00
RMM:   7    -0.644560507901E+03    0.62163E-02   -0.10447E-02 13337   0.271E-01    0.639E-01
RMM:   8    -0.644560218188E+03    0.28971E-03   -0.60133E-03 12542   0.239E-01    0.647E-01
RMM:   9    -0.644557844983E+03    0.23732E-02   -0.40661E-03 13805   0.156E-01    0.141E-01
RMM:  10    -0.644558109393E+03   -0.26441E-03   -0.18853E-03 12907   0.800E-02    0.232E-01
RMM:  11    -0.644557897098E+03    0.21229E-03   -0.76408E-04 12559   0.622E-02    0.677E-02
RMM:  12    -0.644557950505E+03   -0.53407E-04   -0.51848E-04 12164   0.423E-02    0.939E-02
RMM:  13    -0.644557923748E+03    0.26757E-04   -0.22601E-04 11862   0.391E-02    0.379E-02
RMM:  14    -0.644557935821E+03   -0.12073E-04   -0.23170E-04 11171   0.249E-02    0.175E-02
RMM:  15    -0.644557937817E+03   -0.19962E-05   -0.86894E-05 10583   0.272E-02
  16 F= -.64455794E+03 E0= -.64449630E+03  d E =-.280801E-01
 trial-energy change:   -0.028080  1 .order   -0.027959   -0.047984   -0.007934
 step:   1.0190(harm=  1.0226)  dis= 0.01659  next Energy=  -644.558708 (dE=-0.289E-01)
 bond charge predicted
       N       E                     dE             d eps       ncg     rms          rms(c)
DAV:   1    -0.644543624975E+03    0.14311E-01   -0.65624E-01 10584   0.479E+00    0.319E-01
RMM:   2    -0.644567284985E+03   -0.23660E-01   -0.17136E-01 13711   0.914E-01    0.109E+00
RMM:   3    -0.644559262802E+03    0.80222E-02   -0.11722E-02  9889   0.496E-01    0.308E-01
RMM:   4    -0.644560171696E+03   -0.90889E-03   -0.46311E-03 12981   0.163E-01    0.476E-01
RMM:   5    -0.644558919551E+03    0.12521E-02   -0.10145E-03 11157   0.995E-02    0.954E-02
RMM:   6    -0.644559149617E+03   -0.23007E-03   -0.79724E-04 11609   0.678E-02    0.230E-01
RMM:   7    -0.644558887017E+03    0.26260E-03   -0.39499E-04 11859   0.602E-02    0.905E-02
RMM:   8    -0.644558969061E+03   -0.82043E-04   -0.27966E-04 10355   0.461E-02    0.172E-01
RMM:   9    -0.644558836677E+03    0.13238E-03   -0.14101E-04  9814   0.333E-02    0.292E-02
RMM:  10    -0.644558847460E+03   -0.10784E-04   -0.10788E-04  8813   0.220E-02    0.445E-02
RMM:  11    -0.644558838828E+03    0.86321E-05   -0.38577E-05  6240   0.185E-02
  17 F= -.64455884E+03 E0= -.64449724E+03  d E =-.289811E-01
 curvature:  -1.11 expect dE=-0.307E-01 dE for cont linesearch -0.145E-05
 trial: gam= 0.42087 g(F)=  0.205E-01 g(S)=  0.698E-02 ort = 0.400E-03 (trialstep = 0.887E+00)
 search vector abs. value=  0.496E-01
 bond charge predicted
       N       E                     dE             d eps       ncg     rms          rms(c)
DAV:   1    -0.644376323663E+03    0.18252E+00   -0.81904E+00 10248   0.174E+01    0.886E-01
RMM:   2    -0.644614254495E+03   -0.23793E+00   -0.21003E+00 13688   0.322E+00    0.293E+00
RMM:   3    -0.644583178845E+03    0.31076E-01   -0.12079E-01  9650   0.158E+00    0.136E+00
RMM:   4    -0.644588287072E+03   -0.51082E-02   -0.48811E-02 13096   0.562E-01    0.137E+00
RMM:   5    -0.644577657091E+03    0.10630E-01   -0.10434E-02 11392   0.323E-01    0.527E-01
RMM:   6    -0.644577630578E+03    0.26513E-04   -0.71893E-03 13035   0.161E-01    0.487E-01
RMM:   7    -0.644576403303E+03    0.12273E-02   -0.40320E-03 13937   0.130E-01    0.191E-01
RMM:   8    -0.644576329680E+03    0.73623E-04   -0.19273E-03 13415   0.121E-01    0.277E-01
RMM:   9    -0.644575959485E+03    0.37020E-03   -0.80966E-04 12089   0.829E-02    0.850E-02
RMM:  10    -0.644575980648E+03   -0.21164E-04   -0.57584E-04 12218   0.382E-02    0.759E-02
RMM:  11    -0.644575975634E+03    0.50146E-05   -0.16816E-04 10312   0.400E-02    0.650E-02
RMM:  12    -0.644575967225E+03    0.84084E-05   -0.18224E-04 10667   0.218E-02    0.244E-02
RMM:  13    -0.644575977156E+03   -0.99311E-05   -0.58824E-05  7749   0.250E-02
  18 F= -.64457598E+03 E0= -.64451494E+03  d E =-.171383E-01
 trial-energy change:   -0.017138  1 .order   -0.016769   -0.024546   -0.008991
 step:   1.3100(harm=  1.3992)  dis= 0.01895  next Energy=  -644.578164 (dE=-0.193E-01)
 bond charge predicted
       N       E                     dE             d eps       ncg     rms          rms(c)
DAV:   1    -0.644531605315E+03    0.44362E-01   -0.18523E+00 10224   0.832E+00    0.424E-01
RMM:   2    -0.644586562782E+03   -0.54957E-01   -0.49314E-01 13668   0.154E+00    0.130E+00
RMM:   3    -0.644580451494E+03    0.61113E-02   -0.28146E-02  9764   0.763E-01    0.680E-01
RMM:   4    -0.644581483149E+03   -0.10317E-02   -0.11292E-02 13119   0.265E-01    0.663E-01
RMM:   5    -0.644579069905E+03    0.24132E-02   -0.23457E-03 10956   0.157E-01    0.247E-01
RMM:   6    -0.644579084603E+03   -0.14697E-04   -0.16915E-03 11486   0.810E-02    0.236E-01
RMM:   7    -0.644578829486E+03    0.25512E-03   -0.99461E-04 13447   0.671E-02    0.114E-01
RMM:   8    -0.644578907441E+03   -0.77955E-04   -0.45643E-04 10879   0.719E-02    0.191E-01
RMM:   9    -0.644578702102E+03    0.20534E-03   -0.25692E-04 10339   0.482E-02    0.271E-02
RMM:  10    -0.644578720860E+03   -0.18758E-04   -0.20362E-04 10266   0.239E-02    0.453E-02
RMM:  11    -0.644578714015E+03    0.68444E-05   -0.51492E-05  6787   0.239E-02
  19 F= -.64457871E+03 E0= -.64451789E+03  d E =-.198752E-01
 curvature:  -1.21 expect dE=-0.246E-01 dE for cont linesearch -0.954E-04
 trial: gam= 0.68184 g(F)=  0.129E-01 g(S)=  0.744E-02 ort = 0.197E-02 (trialstep = 0.971E+00)
 search vector abs. value=  0.460E-01
 bond charge predicted
       N       E                     dE             d eps       ncg     rms          rms(c)
DAV:   1    -0.644382412430E+03    0.19631E+00   -0.90531E+00 11928   0.185E+01    0.166E+00
RMM:   2    -0.645055086925E+03   -0.67267E+00   -0.27421E+00 13103   0.414E+00    0.838E+00
RMM:   3    -0.644622339316E+03    0.43275E+00   -0.30693E-01 10456   0.205E+00    0.266E+00
RMM:   4    -0.644599343709E+03    0.22996E-01   -0.10747E-01 13205   0.727E-01    0.105E+00
RMM:   5    -0.644597246659E+03    0.20971E-02   -0.21605E-02 12725   0.368E-01    0.110E+00
RMM:   6    -0.644591678311E+03    0.55683E-02   -0.62591E-03 12221   0.237E-01    0.396E-01
RMM:   7    -0.644592913540E+03   -0.12352E-02   -0.80440E-03 13423   0.211E-01    0.649E-01
RMM:   8    -0.644590693802E+03    0.22197E-02   -0.27332E-03 11081   0.196E-01    0.225E-01
RMM:   9    -0.644590447241E+03    0.24656E-03   -0.19636E-03 13949   0.817E-02    0.709E-02
RMM:  10    -0.644590572590E+03   -0.12535E-03   -0.54202E-04 12100   0.679E-02    0.142E-01
RMM:  11    -0.644590497455E+03    0.75136E-04   -0.35194E-04 12329   0.437E-02    0.425E-02
RMM:  12    -0.644590545061E+03   -0.47607E-04   -0.24595E-04 12135   0.283E-02    0.615E-02
RMM:  13    -0.644590545554E+03   -0.49262E-06   -0.84011E-05  9626   0.300E-02
  20 F= -.64459055E+03 E0= -.64453069E+03  d E =-.118315E-01
 trial-energy change:   -0.011832  1 .order   -0.011676   -0.021016   -0.002336
 step:   1.0863(harm=  1.0927)  dis= 0.01662  next Energy=  -644.590684 (dE=-0.120E-01)
 bond charge predicted
       N       E                     dE             d eps       ncg     rms          rms(c)
DAV:   1    -0.644587705974E+03    0.28391E-02   -0.12702E-01 12192   0.218E+00    0.197E-01
RMM:   2    -0.644596968675E+03   -0.92627E-02   -0.38197E-02 12957   0.473E-01    0.985E-01
RMM:   3    -0.644591220994E+03    0.57477E-02   -0.41452E-03  9855   0.245E-01    0.340E-01
RMM:   4    -0.644590797976E+03    0.42302E-03   -0.14440E-03 11374   0.916E-02    0.121E-01
RMM:   5    -0.644590794125E+03    0.38517E-05   -0.36284E-04 10539   0.454E-02    0.134E-01
RMM:   6    -0.644590713769E+03    0.80355E-04   -0.93755E-05  7412   0.339E-02    0.478E-02
RMM:   7    -0.644590725046E+03   -0.11277E-04   -0.12264E-04 10033   0.268E-02    0.502E-02
RMM:   8    -0.644590725615E+03   -0.56921E-06   -0.49613E-05  6947   0.265E-02
  21 F= -.64459073E+03 E0= -.64453099E+03  d E =-.120116E-01
 curvature:  -1.16 expect dE=-0.302E-01 dE for cont linesearch -0.684E-05
 trial: gam= 1.34529 g(F)=  0.990E-02 g(S)=  0.161E-01 ort = 0.521E-03 (trialstep = 0.413E+00)
 search vector abs. value=  0.111E+00
 bond charge predicted
       N       E                     dE             d eps       ncg     rms          rms(c)
DAV:   1    -0.644494731854E+03    0.95993E-01   -0.39165E+00  9432   0.121E+01    0.793E-01
RMM:   2    -0.644659645692E+03   -0.16491E+00   -0.11407E+00 13978   0.238E+00    0.301E+00
RMM:   3    -0.644603452385E+03    0.56193E-01   -0.81925E-02 10443   0.112E+00    0.921E-01
RMM:   4    -0.644605506035E+03   -0.20537E-02   -0.28490E-02 13333   0.374E-01    0.952E-01
RMM:   5    -0.644600398056E+03    0.51080E-02   -0.48852E-03 11910   0.229E-01    0.248E-01
RMM:   6    -0.644601512340E+03   -0.11143E-02   -0.31305E-03 12719   0.123E-01    0.564E-01
RMM:   7    -0.644600180322E+03    0.13320E-02   -0.16391E-03 12895   0.111E-01    0.173E-01
RMM:   8    -0.644600492259E+03   -0.31194E-03   -0.13147E-03 12566   0.106E-01    0.321E-01
RMM:   9    -0.644599924716E+03    0.56754E-03   -0.64473E-04 11480   0.775E-02    0.455E-02
RMM:  10    -0.644599958032E+03   -0.33316E-04   -0.49097E-04 12024   0.316E-02    0.438E-02
RMM:  11    -0.644599957422E+03    0.61035E-06   -0.98577E-05  8862   0.328E-02
  22 F= -.64459996E+03 E0= -.64454039E+03  d E =-.923181E-02
 trial-energy change:   -0.009232  1 .order   -0.008926   -0.011052   -0.006801
 step:   0.7781(harm=  1.0744)  dis= 0.02171  next Energy=  -644.603170 (dE=-0.124E-01)
 bond charge predicted
       N       E                     dE             d eps       ncg     rms          rms(c)
DAV:   1    -0.644522649352E+03    0.77309E-01   -0.30595E+00  9432   0.107E+01    0.702E-01
RMM:   2    -0.644651917864E+03   -0.12927E+00   -0.89075E-01 13876   0.210E+00    0.265E+00
RMM:   3    -0.644607035769E+03    0.44882E-01   -0.63672E-02 10446   0.988E-01    0.789E-01
RMM:   4    -0.644609022052E+03   -0.19863E-02   -0.22541E-02 13181   0.327E-01    0.860E-01
RMM:   5    -0.644604934807E+03    0.40872E-02   -0.37608E-03 11787   0.200E-01    0.215E-01
RMM:   6    -0.644605812705E+03   -0.87790E-03   -0.25182E-03 12573   0.108E-01    0.494E-01
RMM:   7    -0.644604811133E+03    0.10016E-02   -0.12881E-03 13102   0.976E-02    0.156E-01
RMM:   8    -0.644605059038E+03   -0.24791E-03   -0.10335E-03 12625   0.941E-02    0.283E-01
RMM:   9    -0.644604625572E+03    0.43347E-03   -0.55028E-04 11493   0.692E-02    0.424E-02
RMM:  10    -0.644604665965E+03   -0.40392E-04   -0.40998E-04 12033   0.313E-02    0.643E-02
RMM:  11    -0.644604653300E+03    0.12665E-04   -0.98895E-05  9357   0.304E-02    0.346E-02
RMM:  12    -0.644604655831E+03   -0.25311E-05   -0.98694E-05  8661   0.184E-02
  23 F= -.64460466E+03 E0= -.64454525E+03  d E =-.139302E-01
 curvature:  -1.78 expect dE=-0.281E-01 dE for cont linesearch -0.988E-03
 ZBRENT: increasing intervall
 opt :   1.5079  next Energy=  -644.604099 (dE=-0.134E-01)
 bond charge predicted
       N       E                     dE             d eps       ncg     rms          rms(c)
DAV:   1    -0.644278743939E+03    0.32591E+00   -0.12291E+01  9432   0.213E+01    0.139E+00
RMM:   2    -0.644781546682E+03   -0.50280E+00   -0.35208E+00 13909   0.418E+00    0.519E+00
RMM:   3    -0.644613773093E+03    0.16777E+00   -0.24598E-01 10475   0.193E+00    0.156E+00
RMM:   4    -0.644622420715E+03   -0.86476E-02   -0.86324E-02 13164   0.656E-01    0.176E+00
RMM:   5    -0.644605165063E+03    0.17256E-01   -0.15065E-02 11826   0.404E-01    0.401E-01
RMM:   6    -0.644608931690E+03   -0.37666E-02   -0.10492E-02 13419   0.211E-01    0.100E+00
RMM:   7    -0.644604792907E+03    0.41388E-02   -0.47736E-03 13297   0.196E-01    0.322E-01
RMM:   8    -0.644605710448E+03   -0.91754E-03   -0.39393E-03 13485   0.165E-01    0.550E-01
RMM:   9    -0.644604032217E+03    0.16782E-02   -0.18193E-03 12651   0.130E-01    0.925E-02
RMM:  10    -0.644604271581E+03   -0.23936E-03   -0.13681E-03 12903   0.619E-02    0.195E-01
RMM:  11    -0.644604120427E+03    0.15115E-03   -0.48442E-04 12280   0.566E-02    0.542E-02
RMM:  12    -0.644604141912E+03   -0.21486E-04   -0.37838E-04 12077   0.285E-02    0.462E-02
RMM:  13    -0.644604156017E+03   -0.14105E-04   -0.11602E-04 10894   0.343E-02    0.575E-02
RMM:  14    -0.644604153980E+03    0.20376E-05   -0.15263E-04 10843   0.223E-02    0.197E-02
RMM:  15    -0.644604155165E+03   -0.11854E-05   -0.75806E-05  9628   0.206E-02
  24 F= -.64460416E+03 E0= -.64454498E+03  d E =-.134296E-01
 curvature:   1.00 expect dE= 0.466E-01 dE for cont linesearch  0.932E-03
 ZBRENT: bracketing found
 ZBRENT: interpolating
 opt :   1.0964  next Energy=  -644.605904 (dE=-0.152E-01)
 bond charge predicted
       N       E                     dE             d eps       ncg     rms          rms(c)
DAV:   1    -0.644503701893E+03    0.10045E+00   -0.39066E+00  9600   0.121E+01    0.801E-01
RMM:   2    -0.644674699598E+03   -0.17100E+00   -0.11392E+00 13974   0.240E+00    0.310E+00
RMM:   3    -0.644609179728E+03    0.65520E-01   -0.85368E-02 10452   0.116E+00    0.900E-01
RMM:   4    -0.644611675277E+03   -0.24955E-02   -0.29207E-02 13282   0.369E-01    0.969E-01
RMM:   5    -0.644606947469E+03    0.47278E-02   -0.49031E-03 11918   0.224E-01    0.375E-01
RMM:   6    -0.644606931573E+03    0.15896E-04   -0.24711E-03 11895   0.116E-01    0.378E-01
RMM:   7    -0.644606396985E+03    0.53459E-03   -0.19179E-03 13162   0.994E-02    0.220E-01
RMM:   8    -0.644606631541E+03   -0.23456E-03   -0.10475E-03 10824   0.112E-01    0.321E-01
RMM:   9    -0.644606013827E+03    0.61771E-03   -0.70301E-04 12404   0.766E-02    0.329E-02
RMM:  10    -0.644606052184E+03   -0.38356E-04   -0.38333E-04 11595   0.332E-02    0.418E-02
RMM:  11    -0.644606055683E+03   -0.34987E-05   -0.89320E-05  8421   0.286E-02
  25 F= -.64460606E+03 E0= -.64454676E+03  d E =-.153301E-01
 curvature:  -1.34 expect dE=-0.331E-01 dE for cont linesearch -0.199E-04
 trial: gam= 0.82575 g(F)=  0.180E-01 g(S)=  0.668E-02 ort = 0.128E-02 (trialstep = 0.550E+00)
 search vector abs. value=  0.102E+00
 bond charge predicted
       N       E                     dE             d eps       ncg     rms          rms(c)
DAV:   1    -0.644442942610E+03    0.16311E+00   -0.66459E+00  9408   0.153E+01    0.707E-01
RMM:   2    -0.644634244235E+03   -0.19130E+00   -0.17866E+00 13549   0.295E+00    0.205E+00
RMM:   3    -0.644619767466E+03    0.14477E-01   -0.10290E-01 10396   0.118E+00    0.925E-01
RMM:   4    -0.644624755804E+03   -0.49883E-02   -0.36872E-02 12725   0.413E-01    0.106E+00
RMM:   5    -0.644618384510E+03    0.63713E-02   -0.56647E-03 10587   0.263E-01    0.387E-01
RMM:   6    -0.644618289749E+03    0.94760E-04   -0.37953E-03 11884   0.115E-01    0.305E-01
RMM:   7    -0.644618390666E+03   -0.10092E-03   -0.18930E-03 12866   0.980E-02    0.365E-01
RMM:   8    -0.644617840886E+03    0.54978E-03   -0.10236E-03 10569   0.104E-01    0.198E-01
RMM:   9    -0.644617616878E+03    0.22401E-03   -0.82384E-04 12711   0.681E-02    0.836E-02
RMM:  10    -0.644617689107E+03   -0.72230E-04   -0.30573E-04 10252   0.431E-02    0.138E-01
RMM:  11    -0.644617600085E+03    0.89022E-04   -0.16660E-04  9384   0.316E-02    0.222E-02
RMM:  12    -0.644617607279E+03   -0.71937E-05   -0.10643E-04  8222   0.200E-02    0.318E-02
RMM:  13    -0.644617605878E+03    0.14004E-05   -0.33835E-05  6290   0.202E-02
  26 F= -.64461761E+03 E0= -.64455847E+03  d E =-.115502E-01
 trial-energy change:   -0.011550  1 .order   -0.011498   -0.014157   -0.008839
 step:   1.3485(harm=  1.4639)  dis= 0.04289  next Energy=  -644.624185 (dE=-0.181E-01)
 bond charge predicted
       N       E                     dE             d eps       ncg     rms          rms(c)
DAV:   1    -0.644258277408E+03    0.35933E+00   -0.14087E+01  9408   0.223E+01    0.103E+00
RMM:   2    -0.644665809412E+03   -0.40753E+00   -0.37655E+00 13542   0.426E+00    0.315E+00
RMM:   3    -0.644628948640E+03    0.36861E-01   -0.22084E-01 10344   0.173E+00    0.125E+00
RMM:   4    -0.644640764205E+03   -0.11816E-01   -0.78755E-02 12754   0.609E-01    0.153E+00
RMM:   5    -0.644627339932E+03    0.13424E-01   -0.12655E-02 10943   0.386E-01    0.514E-01
RMM:   6    -0.644627440353E+03   -0.10042E-03   -0.84873E-03 12710   0.164E-01    0.449E-01
RMM:   7    -0.644627857993E+03   -0.41764E-03   -0.41122E-03 13223   0.141E-01    0.566E-01
RMM:   8    -0.644626519647E+03    0.13383E-02   -0.22642E-03 11238   0.153E-01    0.274E-01
RMM:   9    -0.644626133174E+03    0.38647E-03   -0.18626E-03 13567   0.958E-02    0.144E-01
RMM:  10    -0.644626230183E+03   -0.97009E-04   -0.71542E-04 12104   0.613E-02    0.182E-01
RMM:  11    -0.644626086205E+03    0.14398E-03   -0.41025E-04 11702   0.424E-02    0.339E-02
RMM:  12    -0.644626099085E+03   -0.12881E-04   -0.24352E-04 10658   0.267E-02    0.387E-02
RMM:  13    -0.644626105856E+03   -0.67711E-05   -0.85722E-05  9014   0.277E-02
  27 F= -.64462611E+03 E0= -.64456707E+03  d E =-.200502E-01
 curvature:  -2.86 expect dE=-0.667E-01 dE for cont linesearch -0.272E-03
 trial: gam= 0.67439 g(F)=  0.123E-01 g(S)=  0.110E-01 ort = 0.312E-02 (trialstep = 0.710E+00)
 search vector abs. value=  0.740E-01
 bond charge predicted
       N       E                     dE             d eps       ncg     rms          rms(c)
DAV:   1    -0.644483814670E+03    0.14228E+00   -0.80177E+00 11424   0.162E+01    0.178E+00
RMM:   2    -0.645130583976E+03   -0.64677E+00   -0.23036E+00 12581   0.390E+00    0.824E+00
RMM:   3    -0.644662356922E+03    0.46823E+00   -0.30355E-01 10617   0.208E+00    0.238E+00
RMM:   4    -0.644645859874E+03    0.16497E-01   -0.10368E-01 13246   0.716E-01    0.106E+00
RMM:   5    -0.644641685481E+03    0.41744E-02   -0.19984E-02 12515   0.361E-01    0.951E-01
RMM:   6    -0.644637970563E+03    0.37149E-02   -0.59932E-03 11786   0.244E-01    0.477E-01
RMM:   7    -0.644638547801E+03   -0.57724E-03   -0.76660E-03 12854   0.209E-01    0.586E-01
RMM:   8    -0.644637059100E+03    0.14887E-02   -0.28671E-03 11047   0.199E-01    0.331E-01
RMM:   9    -0.644636512404E+03    0.54670E-03   -0.20084E-03 13894   0.962E-02    0.176E-01
RMM:  10    -0.644636480359E+03    0.32045E-04   -0.62313E-04 12054   0.707E-02    0.132E-01
RMM:  11    -0.644636454412E+03    0.25948E-04   -0.38857E-04 12378   0.375E-02    0.455E-02
RMM:  12    -0.644636485779E+03   -0.31367E-04   -0.16047E-04 11340   0.324E-02    0.576E-02
RMM:  13    -0.644636495769E+03   -0.99905E-05   -0.11876E-04 10900   0.239E-02    0.375E-02
RMM:  14    -0.644636530359E+03   -0.34590E-04   -0.10337E-04 10454   0.227E-02    0.154E-02
RMM:  15    -0.644636548134E+03   -0.17775E-04   -0.69171E-05  9255   0.221E-02    0.743E-03
RMM:  16    -0.644636552620E+03   -0.44859E-05   -0.45362E-05  7727   0.190E-02
  28 F= -.64463655E+03 E0= -.64457769E+03  d E =-.104468E-01
 trial-energy change:   -0.010447  1 .order   -0.010248   -0.018021   -0.002476
 step:   0.8135(harm=  0.8226)  dis= 0.02337  next Energy=  -644.636735 (dE=-0.106E-01)
 bond charge predicted
       N       E                     dE             d eps       ncg     rms          rms(c)
DAV:   1    -0.644633249545E+03    0.32986E-02   -0.17073E-01 11832   0.237E+00    0.259E-01
RMM:   2    -0.644647073839E+03   -0.13824E-01   -0.50147E-02 12309   0.552E-01    0.120E+00
RMM:   3    -0.644637338572E+03    0.97353E-02   -0.64335E-03 10137   0.301E-01    0.365E-01
RMM:   4    -0.644636898004E+03    0.44057E-03   -0.21019E-03 11504   0.107E-01    0.149E-01
RMM:   5    -0.644636836318E+03    0.61686E-04   -0.44769E-04 11152   0.529E-02    0.146E-01
RMM:   6    -0.644636743362E+03    0.92957E-04   -0.11135E-04  7311   0.386E-02    0.630E-02
RMM:   7    -0.644636766948E+03   -0.23587E-04   -0.15967E-04 11155   0.323E-02    0.866E-02
RMM:   8    -0.644636733776E+03    0.33173E-04   -0.56596E-05  6584   0.321E-02    0.425E-02
RMM:   9    -0.644636729552E+03    0.42234E-05   -0.36035E-05  6245   0.195E-02
  29 F= -.64463673E+03 E0= -.64457789E+03  d E =-.106237E-01
 curvature:  -1.19 expect dE=-0.292E-01 dE for cont linesearch -0.149E-05
 trial: gam= 1.15041 g(F)=  0.891E-02 g(S)=  0.156E-01 ort = 0.304E-03 (trialstep = 0.439E+00)
 search vector abs. value=  0.123E+00
 bond charge predicted
       N       E                     dE             d eps       ncg     rms          rms(c)
DAV:   1    -0.644527293329E+03    0.10944E+00   -0.49649E+00  9888   0.124E+01    0.607E-01
RMM:   2    -0.644656205990E+03   -0.12891E+00   -0.12194E+00 13632   0.232E+00    0.148E+00
RMM:   3    -0.644647997240E+03    0.82088E-02   -0.59940E-02  9920   0.106E+00    0.846E-01
RMM:   4    -0.644651208643E+03   -0.32114E-02   -0.24833E-02 13199   0.361E-01    0.959E-01
RMM:   5    -0.644645813320E+03    0.53953E-02   -0.43764E-03 11158   0.212E-01    0.198E-01
RMM:   6    -0.644646768272E+03   -0.95495E-03   -0.34832E-03 12628   0.114E-01    0.477E-01
RMM:   7    -0.644645760666E+03    0.10076E-02   -0.15295E-03 12655   0.105E-01    0.165E-01
RMM:   8    -0.644645940192E+03   -0.17953E-03   -0.11494E-03 12944   0.840E-02    0.266E-01
RMM:   9    -0.644645594327E+03    0.34587E-03   -0.44775E-04 10795   0.617E-02    0.646E-02
RMM:  10    -0.644645661696E+03   -0.67369E-04   -0.33706E-04 10052   0.373E-02    0.115E-01
RMM:  11    -0.644645597411E+03    0.64285E-04   -0.14809E-04  9404   0.275E-02    0.200E-02
RMM:  12    -0.644645603024E+03   -0.56130E-05   -0.10564E-04  8867   0.176E-02    0.191E-02
RMM:  13    -0.644645607175E+03   -0.41517E-05   -0.30381E-05  6227   0.208E-02
  30 F= -.64464561E+03 E0= -.64458641E+03  d E =-.887762E-02
 trial-energy change:   -0.008878  1 .order   -0.008681   -0.010909   -0.006452
 step:   0.8576(harm=  1.0745)  dis= 0.03387  next Energy=  -644.648855 (dE=-0.121E-01)
 bond charge predicted
       N       E                     dE             d eps       ncg     rms          rms(c)
DAV:   1    -0.644541569504E+03    0.10403E+00   -0.45153E+00  9840   0.119E+01    0.584E-01
RMM:   2    -0.644661016198E+03   -0.11945E+00   -0.11194E+00 13605   0.221E+00    0.148E+00
RMM:   3    -0.644652296531E+03    0.87197E-02   -0.54971E-02  9937   0.101E+00    0.812E-01
RMM:   4    -0.644655269397E+03   -0.29729E-02   -0.22975E-02 13033   0.347E-01    0.915E-01
RMM:   5    -0.644650338620E+03    0.49308E-02   -0.40962E-03 11121   0.205E-01    0.196E-01
RMM:   6    -0.644651125737E+03   -0.78712E-03   -0.31947E-03 12367   0.108E-01    0.429E-01
RMM:   7    -0.644650310231E+03    0.81551E-03   -0.14849E-03 12944   0.990E-02    0.165E-01
RMM:   8    -0.644650494549E+03   -0.18432E-03   -0.95647E-04 12455   0.840E-02    0.263E-01
RMM:   9    -0.644650150081E+03    0.34447E-03   -0.48132E-04 11231   0.604E-02    0.627E-02
RMM:  10    -0.644650210904E+03   -0.60824E-04   -0.32886E-04 10424   0.366E-02    0.107E-01
RMM:  11    -0.644650156566E+03    0.54339E-04   -0.15085E-04  9720   0.266E-02    0.184E-02
RMM:  12    -0.644650162923E+03   -0.63572E-05   -0.10033E-04  9081   0.182E-02    0.217E-02
RMM:  13    -0.644650165427E+03   -0.25038E-05   -0.31682E-05  6349   0.208E-02
  31 F= -.64465017E+03 E0= -.64459065E+03  d E =-.134359E-01
 curvature:  -2.35 expect dE=-0.295E-01 dE for cont linesearch -0.566E-03
 ZBRENT: increasing intervall
 opt :   1.6950  next Energy=  -644.646970 (dE=-0.102E-01)
 bond charge predicted
       N       E                     dE             d eps       ncg     rms          rms(c)
DAV:   1    -0.644209920963E+03    0.44024E+00   -0.18081E+01  9744   0.235E+01    0.117E+00
RMM:   2    -0.644691502950E+03   -0.48158E+00   -0.45081E+00 13642   0.443E+00    0.310E+00
RMM:   3    -0.644655498477E+03    0.36004E-01   -0.22064E-01  9944   0.203E+00    0.161E+00
RMM:   4    -0.644667623346E+03   -0.12125E-01   -0.90533E-02 13116   0.694E-01    0.180E+00
RMM:   5    -0.644648090259E+03    0.19533E-01   -0.16233E-02 11549   0.414E-01    0.417E-01
RMM:   6    -0.644650511241E+03   -0.24210E-02   -0.12432E-02 13397   0.195E-01    0.766E-01
RMM:   7    -0.644647771281E+03    0.27400E-02   -0.59565E-03 13468   0.190E-01    0.290E-01
RMM:   8    -0.644648459644E+03   -0.68836E-03   -0.34508E-03 13501   0.150E-01    0.496E-01
RMM:   9    -0.644647253417E+03    0.12062E-02   -0.15731E-03 12614   0.112E-01    0.128E-01
RMM:  10    -0.644647461171E+03   -0.20775E-03   -0.11612E-03 12389   0.647E-02    0.203E-01
RMM:  11    -0.644647263618E+03    0.19755E-03   -0.52728E-04 11792   0.479E-02    0.361E-02
RMM:  12    -0.644647291709E+03   -0.28091E-04   -0.35094E-04 11673   0.295E-02    0.445E-02
RMM:  13    -0.644647301123E+03   -0.94142E-05   -0.10740E-04  9933   0.354E-02    0.533E-02
RMM:  14    -0.644647296367E+03    0.47566E-05   -0.14019E-04  9657   0.214E-02    0.123E-02
RMM:  15    -0.644647298424E+03   -0.20568E-05   -0.60676E-05  7815   0.192E-02
  32 F= -.64464730E+03 E0= -.64458723E+03  d E =-.105689E-01
 curvature:  13.30 expect dE= 0.374E+00 dE for cont linesearch  0.207E-01
 ZBRENT: bracketing found
 ZBRENT: interpolating
 opt :   1.0937  next Energy=  -644.650808 (dE=-0.141E-01)
 bond charge predicted
       N       E                     dE             d eps       ncg     rms          rms(c)
DAV:   1    -0.644411229241E+03    0.23607E+00   -0.91686E+00  9504   0.170E+01    0.873E-01
RMM:   2    -0.644682570089E+03   -0.27134E+00   -0.24541E+00 13584   0.337E+00    0.233E+00
RMM:   3    -0.644654550808E+03    0.28019E-01   -0.17390E-01 10296   0.145E+00    0.104E+00
RMM:   4    -0.644663275505E+03   -0.87247E-02   -0.46936E-02 12725   0.495E-01    0.147E+00
RMM:   5    -0.644651852919E+03    0.11423E-01   -0.89388E-03 11186   0.308E-01    0.352E-01
RMM:   6    -0.644652333020E+03   -0.48010E-03   -0.60713E-03 12700   0.146E-01    0.431E-01
RMM:   7    -0.644651778661E+03    0.55436E-03   -0.31360E-03 13133   0.132E-01    0.371E-01
RMM:   8    -0.644651658952E+03    0.11971E-03   -0.15361E-03 11002   0.128E-01    0.365E-01
RMM:   9    -0.644650970427E+03    0.68853E-03   -0.12090E-03 13129   0.857E-02    0.683E-02
RMM:  10    -0.644651123391E+03   -0.15296E-03   -0.52179E-04 11183   0.490E-02    0.175E-01
RMM:  11    -0.644650985162E+03    0.13823E-03   -0.23923E-04 10473   0.370E-02    0.323E-02
RMM:  12    -0.644650997111E+03   -0.11948E-04   -0.17518E-04 10048   0.213E-02    0.225E-02
RMM:  13    -0.644651012041E+03   -0.14931E-04   -0.54291E-05  7256   0.236E-02    0.452E-02
RMM:  14    -0.644651005828E+03    0.62139E-05   -0.40011E-05  6631   0.201E-02
  33 F= -.64465101E+03 E0= -.64459133E+03  d E =-.142763E-01
 curvature:  -0.41 expect dE=-0.581E-02 dE for cont linesearch -0.836E-05
 trial: gam= 0.24865 g(F)=  0.985E-02 g(S)=  0.427E-02 ort = 0.158E-02 (trialstep = 0.570E+00)
 search vector abs. value=  0.225E-01
 bond charge predicted
       N       E                     dE             d eps       ncg     rms          rms(c)
DAV:   1    -0.644639462026E+03    0.11550E-01   -0.13671E+00 11472   0.622E+00    0.874E-01
RMM:   2    -0.644768642132E+03   -0.12918E+00   -0.35320E-01 11969   0.173E+00    0.387E+00
RMM:   3    -0.644662487185E+03    0.10615E+00   -0.58599E-02 10869   0.910E-01    0.106E+00
RMM:   4    -0.644658736891E+03    0.37503E-02   -0.16075E-02 13428   0.317E-01    0.520E-01
RMM:   5    -0.644657297074E+03    0.14398E-02   -0.44889E-03 12495   0.178E-01    0.393E-01
RMM:   6    -0.644656868484E+03    0.42859E-03   -0.15328E-03 11124   0.133E-01    0.313E-01
RMM:   7    -0.644656943660E+03   -0.75176E-04   -0.16848E-03 12789   0.106E-01    0.339E-01
RMM:   8    -0.644656433338E+03    0.51032E-03   -0.70495E-04 10404   0.101E-01    0.161E-01
RMM:   9    -0.644656277707E+03    0.15563E-03   -0.45010E-04 12318   0.467E-02    0.637E-02
RMM:  10    -0.644656286652E+03   -0.89453E-05   -0.14591E-04  9311   0.341E-02    0.724E-02
RMM:  11    -0.644656264537E+03    0.22115E-04   -0.81327E-05  8376   0.245E-02    0.237E-02
RMM:  12    -0.644656267496E+03   -0.29581E-05   -0.43203E-05  6889   0.200E-02
  34 F= -.64465627E+03 E0= -.64459620E+03  d E =-.526167E-02
 trial-energy change:   -0.005262  1 .order   -0.005279   -0.008276   -0.002282
 step:   0.7869(harm=  0.7869)  dis= 0.01086  next Energy=  -644.656719 (dE=-0.571E-02)
 bond charge predicted
       N       E                     dE             d eps       ncg     rms          rms(c)
DAV:   1    -0.644654277116E+03    0.19874E-02   -0.19831E-01 11688   0.237E+00    0.336E-01
RMM:   2    -0.644673541008E+03   -0.19264E-01   -0.52381E-02 11691   0.665E-01    0.150E+00
RMM:   3    -0.644657623605E+03    0.15917E-01   -0.86731E-03 10552   0.349E-01    0.405E-01
RMM:   4    -0.644657070779E+03    0.55283E-03   -0.23497E-03 12238   0.121E-01    0.195E-01
RMM:   5    -0.644656878576E+03    0.19220E-03   -0.67632E-04 12100   0.674E-02    0.151E-01
RMM:   6    -0.644656811547E+03    0.67029E-04   -0.22791E-04  9025   0.534E-02    0.117E-01
RMM:   7    -0.644656827598E+03   -0.16051E-04   -0.26554E-04 12158   0.422E-02    0.128E-01
RMM:   8    -0.644656755980E+03    0.71618E-04   -0.11098E-04  8267   0.421E-02    0.605E-02
RMM:   9    -0.644656733424E+03    0.22556E-04   -0.74884E-05  8718   0.208E-02    0.247E-02
RMM:  10    -0.644656734610E+03   -0.11857E-05   -0.30696E-05  6118   0.182E-02
  35 F= -.64465673E+03 E0= -.64459650E+03  d E =-.572878E-02
 curvature:  -0.61 expect dE=-0.686E-02 dE for cont linesearch -0.477E-06
 trial: gam= 0.79434 g(F)=  0.433E-02 g(S)=  0.691E-02 ort = 0.133E-03 (trialstep = 0.539E+00)
 search vector abs. value=  0.257E-01
 bond charge predicted
       N       E                     dE             d eps       ncg     rms          rms(c)
DAV:   1    -0.644639533767E+03    0.17200E-01   -0.14008E+00 11232   0.633E+00    0.726E-01
RMM:   2    -0.644746706920E+03   -0.10717E+00   -0.35309E-01 12500   0.154E+00    0.347E+00
RMM:   3    -0.644666479270E+03    0.80228E-01   -0.44860E-02 10313   0.872E-01    0.105E+00
RMM:   4    -0.644662459123E+03    0.40201E-02   -0.15911E-02 13428   0.303E-01    0.417E-01
RMM:   5    -0.644661494888E+03    0.96423E-03   -0.35400E-03 12948   0.146E-01    0.320E-01
RMM:   6    -0.644661237517E+03    0.25737E-03   -0.10410E-03 11711   0.101E-01    0.248E-01
RMM:   7    -0.644661006222E+03    0.23129E-03   -0.13259E-03 13371   0.860E-02    0.160E-01
RMM:   8    -0.644661010821E+03   -0.45992E-05   -0.43585E-04 10211   0.806E-02    0.182E-01
RMM:   9    -0.644660858194E+03    0.15263E-03   -0.30430E-04 11535   0.433E-02    0.648E-02
RMM:  10    -0.644660860951E+03   -0.27567E-05   -0.13520E-04  8691   0.295E-02    0.548E-02
RMM:  11    -0.644660855969E+03    0.49820E-05   -0.67837E-05  7510   0.225E-02
  36 F= -.64466086E+03 E0= -.64460056E+03  d E =-.412136E-02
 trial-energy change:   -0.004121  1 .order   -0.004099   -0.006105   -0.002093
 step:   0.8195(harm=  0.8195)  dis= 0.01137  next Energy=  -644.661380 (dE=-0.465E-02)
 bond charge predicted
       N       E                     dE             d eps       ncg     rms          rms(c)
DAV:   1    -0.644655589719E+03    0.52712E-02   -0.38225E-01 11520   0.330E+00    0.383E-01
RMM:   2    -0.644685656685E+03   -0.30067E-01   -0.97213E-02 12327   0.801E-01    0.185E+00
RMM:   3    -0.644663026945E+03    0.22630E-01   -0.12379E-02 10236   0.454E-01    0.558E-01
RMM:   4    -0.644661850344E+03    0.11766E-02   -0.43379E-03 12544   0.157E-01    0.215E-01
RMM:   5    -0.644661633522E+03    0.21682E-03   -0.10059E-03 12553   0.765E-02    0.179E-01
RMM:   6    -0.644661526850E+03    0.10667E-03   -0.28957E-04  9697   0.562E-02    0.116E-01
RMM:   7    -0.644661536563E+03   -0.97126E-05   -0.37857E-04 12823   0.478E-02    0.122E-01
RMM:   8    -0.644661478681E+03    0.57881E-04   -0.14040E-04  8813   0.487E-02    0.701E-02
RMM:   9    -0.644661463711E+03    0.14970E-04   -0.10925E-04  9864   0.230E-02    0.413E-02
RMM:  10    -0.644661461256E+03    0.24556E-05   -0.38447E-05  6420   0.197E-02
  37 F= -.64466146E+03 E0= -.64460112E+03  d E =-.472665E-02
 curvature:  -0.93 expect dE=-0.586E-02 dE for cont linesearch -0.209E-06
 trial: gam= 0.55098 g(F)=  0.360E-02 g(S)=  0.272E-02 ort = 0.761E-04 (trialstep = 0.595E+00)
 search vector abs. value=  0.142E-01
 bond charge predicted
       N       E                     dE             d eps       ncg     rms          rms(c)
DAV:   1    -0.644646521964E+03    0.14942E-01   -0.91739E-01  9504   0.508E+00    0.265E-01
RMM:   2    -0.644664834925E+03   -0.18313E-01   -0.19028E-01 13510   0.104E+00    0.376E-01
RMM:   3    -0.644665545087E+03   -0.71016E-03   -0.11484E-02 10115   0.461E-01    0.476E-01
RMM:   4    -0.644665491113E+03    0.53974E-04   -0.42492E-03 13008   0.160E-01    0.395E-01
RMM:   5    -0.644664532411E+03    0.95870E-03   -0.91609E-04 10631   0.103E-01    0.103E-01
RMM:   6    -0.644664783670E+03   -0.25126E-03   -0.86634E-04 11753   0.675E-02    0.242E-01
RMM:   7    -0.644664481418E+03    0.30225E-03   -0.41624E-04 11086   0.623E-02    0.906E-02
RMM:   8    -0.644664540479E+03   -0.59061E-04   -0.27186E-04  9923   0.442E-02    0.141E-01
RMM:   9    -0.644664443249E+03    0.97230E-04   -0.13187E-04  8718   0.317E-02    0.186E-02
RMM:  10    -0.644664455300E+03   -0.12051E-04   -0.85151E-05  8334   0.201E-02    0.456E-02
RMM:  11    -0.644664446783E+03    0.85171E-05   -0.29390E-05  6120   0.169E-02
  38 F= -.64466445E+03 E0= -.64460400E+03  d E =-.298553E-02
 trial-energy change:   -0.002986  1 .order   -0.002865   -0.003782   -0.001948
 step:   0.9783(harm=  1.2267)  dis= 0.00909  next Energy=  -644.665107 (dE=-0.365E-02)
 bond charge predicted
       N       E                     dE             d eps       ncg     rms          rms(c)
DAV:   1    -0.644658139517E+03    0.63158E-02   -0.38420E-01  9888   0.328E+00    0.172E-01
RMM:   2    -0.644665690355E+03   -0.75508E-02   -0.77195E-02 13419   0.654E-01    0.285E-01
RMM:   3    -0.644665753227E+03   -0.62872E-04   -0.45204E-03  9899   0.319E-01    0.279E-01
RMM:   4    -0.644665872324E+03   -0.11910E-03   -0.19023E-03 12618   0.109E-01    0.273E-01
RMM:   5    -0.644665441604E+03    0.43072E-03   -0.41485E-04  9428   0.673E-02    0.802E-02
RMM:   6    -0.644665496893E+03   -0.55289E-04   -0.34383E-04  9802   0.416E-02    0.124E-01
RMM:   7    -0.644665420070E+03    0.76823E-04   -0.21552E-04 10691   0.396E-02    0.690E-02
RMM:   8    -0.644665432838E+03   -0.12769E-04   -0.98472E-05  8013   0.338E-02    0.877E-02
RMM:   9    -0.644665395906E+03    0.36932E-04   -0.62225E-05  7814   0.227E-02    0.127E-02
RMM:  10    -0.644665402843E+03   -0.69363E-05   -0.38914E-05  6833   0.167E-02
  39 F= -.64466540E+03 E0= -.64460490E+03  d E =-.394159E-02
 curvature:  -1.16 expect dE=-0.249E-02 dE for cont linesearch -0.155E-03
 ZBRENT: increasing intervall
 opt :   1.7454  next Energy=  -644.665002 (dE=-0.354E-02)
 bond charge predicted
       N       E                     dE             d eps       ncg     rms          rms(c)
DAV:   1    -0.644636017729E+03    0.29378E-01   -0.15340E+00  9744   0.655E+00    0.343E-01
RMM:   2    -0.644665805215E+03   -0.29787E-01   -0.30935E-01 13420   0.130E+00    0.496E-01
RMM:   3    -0.644666777540E+03   -0.97232E-03   -0.17394E-02  9861   0.630E-01    0.613E-01
RMM:   4    -0.644666801402E+03   -0.23862E-04   -0.72772E-03 13108   0.214E-01    0.523E-01
RMM:   5    -0.644665132646E+03    0.16688E-02   -0.15930E-03 11205   0.130E-01    0.128E-01
RMM:   6    -0.644665542677E+03   -0.41003E-03   -0.14526E-03 12087   0.853E-02    0.310E-01
RMM:   7    -0.644665053507E+03    0.48917E-03   -0.67437E-04 11669   0.778E-02    0.117E-01
RMM:   8    -0.644665158969E+03   -0.10546E-03   -0.47309E-04 11006   0.547E-02    0.187E-01
RMM:   9    -0.644664989341E+03    0.16963E-03   -0.22714E-04  9706   0.393E-02    0.209E-02
RMM:  10    -0.644665000081E+03   -0.10740E-04   -0.15897E-04  9293   0.212E-02    0.303E-02
RMM:  11    -0.644664998072E+03    0.20084E-05   -0.37239E-05  6766   0.206E-02
  40 F= -.64466500E+03 E0= -.64460435E+03  d E =-.353682E-02
 curvature:   3.00 expect dE= 0.227E-01 dE for cont linesearch  0.157E-02
 ZBRENT: bracketing found
 ZBRENT: interpolating
 opt :   1.2360  next Energy=  -644.665580 (dE=-0.412E-02)
 bond charge predicted
       N       E                     dE             d eps       ncg     rms          rms(c)
DAV:   1    -0.644652997687E+03    0.12002E-01   -0.67607E-01  9744   0.435E+00    0.229E-01
RMM:   2    -0.644666266970E+03   -0.13269E-01   -0.13604E-01 13339   0.870E-01    0.372E-01
RMM:   3    -0.644666330634E+03   -0.63664E-04   -0.77304E-03  9931   0.420E-01    0.382E-01
RMM:   4    -0.644666483344E+03   -0.15271E-03   -0.31847E-03 12648   0.142E-01    0.358E-01
RMM:   5    -0.644665693864E+03    0.78948E-03   -0.64321E-04  9383   0.890E-02    0.971E-02
RMM:   6    -0.644665852206E+03   -0.15834E-03   -0.50283E-04 10520   0.553E-02    0.203E-01
RMM:   7    -0.644665642095E+03    0.21011E-03   -0.30558E-04 11049   0.500E-02    0.855E-02
RMM:   8    -0.644665657973E+03   -0.15878E-04   -0.14524E-04  8102   0.417E-02    0.104E-01
RMM:   9    -0.644665599897E+03    0.58076E-04   -0.85042E-05  7198   0.263E-02    0.125E-02
RMM:  10    -0.644665603365E+03   -0.34683E-05   -0.50401E-05  6834   0.176E-02
  41 F= -.64466560E+03 E0= -.64460505E+03  d E =-.414211E-02
 curvature:  -0.34 expect dE=-0.111E-02 dE for cont linesearch -0.382E-06
 trial: gam= 0.53433 g(F)=  0.216E-02 g(S)=  0.110E-02 ort = 0.126E-03 (trialstep = 0.723E+00)
 search vector abs. value=  0.745E-02
 bond charge predicted
       N       E                     dE             d eps       ncg     rms          rms(c)
DAV:   1    -0.644655839061E+03    0.97608E-02   -0.74846E-01 11736   0.467E+00    0.449E-01
RMM:   2    -0.644694175308E+03   -0.38336E-01   -0.15831E-01 12628   0.104E+00    0.190E+00
RMM:   3    -0.644668574134E+03    0.25601E-01   -0.19859E-02 10239   0.586E-01    0.539E-01
RMM:   4    -0.644668121416E+03    0.45272E-03   -0.72439E-03 13592   0.195E-01    0.334E-01
RMM:   5    -0.644667416635E+03    0.70478E-03   -0.13387E-03 12660   0.993E-02    0.140E-01
RMM:   6    -0.644667573244E+03   -0.15661E-03   -0.53310E-04 10926   0.677E-02    0.238E-01
RMM:   7    -0.644667319489E+03    0.25375E-03   -0.51271E-04 12515   0.627E-02    0.105E-01
RMM:   8    -0.644667323830E+03   -0.43411E-05   -0.22211E-04  9878   0.567E-02    0.122E-01
RMM:   9    -0.644667251713E+03    0.72118E-04   -0.13976E-04  9540   0.313E-02    0.396E-02
RMM:  10    -0.644667256115E+03   -0.44021E-05   -0.59052E-05  6933   0.231E-02
  42 F= -.64466726E+03 E0= -.64460657E+03  d E =-.165275E-02
 trial-energy change:   -0.001653  1 .order   -0.001618   -0.002407   -0.000829
 step:   1.1026(harm=  1.1026)  dis= 0.00590  next Energy=  -644.667439 (dE=-0.184E-02)
 bond charge predicted
       N       E                     dE             d eps       ncg     rms          rms(c)
DAV:   1    -0.644664255344E+03    0.29964E-02   -0.20607E-01 11976   0.246E+00    0.238E-01
RMM:   2    -0.644675169188E+03   -0.10914E-01   -0.44729E-02 12409   0.549E-01    0.101E+00
RMM:   3    -0.644667821258E+03    0.73479E-02   -0.55603E-03 10094   0.310E-01    0.279E-01
RMM:   4    -0.644667723738E+03    0.97520E-04   -0.20915E-03 12834   0.103E-01    0.177E-01
RMM:   5    -0.644667535543E+03    0.18819E-03   -0.38904E-04 11497   0.526E-02    0.717E-02
RMM:   6    -0.644667577798E+03   -0.42255E-04   -0.14862E-04  8571   0.386E-02    0.122E-01
RMM:   7    -0.644667508191E+03    0.69607E-04   -0.15945E-04 11314   0.337E-02    0.454E-02
RMM:   8    -0.644667518628E+03   -0.10437E-04   -0.66418E-05  7241   0.323E-02    0.702E-02
RMM:   9    -0.644667494652E+03    0.23975E-04   -0.40936E-05  6664   0.218E-02    0.201E-02
RMM:  10    -0.644667497131E+03   -0.24782E-05   -0.29267E-05  6245   0.174E-02
  43 F= -.64466750E+03 E0= -.64460674E+03  d E =-.189377E-02
 curvature:  -1.23 expect dE=-0.405E-02 dE for cont linesearch -0.384E-06
 trial: gam= 0.99229 g(F)=  0.111E-02 g(S)=  0.218E-02 ort = 0.482E-04 (trialstep = 0.555E+00)
 search vector abs. value=  0.107E-01
 bond charge predicted
       N       E                     dE             d eps       ncg     rms          rms(c)
DAV:   1    -0.644657946463E+03    0.95482E-02   -0.64396E-01 11808   0.443E+00    0.454E-01
RMM:   2    -0.644699321634E+03   -0.41375E-01   -0.15243E-01 12600   0.108E+00    0.208E+00
RMM:   3    -0.644670552884E+03    0.28769E-01   -0.21055E-02 10424   0.556E-01    0.633E-01
RMM:   4    -0.644669312156E+03    0.12407E-02   -0.70769E-03 13287   0.197E-01    0.284E-01
RMM:   5    -0.644668906191E+03    0.40597E-03   -0.14333E-03 12971   0.992E-02    0.210E-01
RMM:   6    -0.644668796444E+03    0.10975E-03   -0.45536E-04 10324   0.650E-02    0.159E-01
RMM:   7    -0.644668737135E+03    0.59309E-04   -0.53308E-04 13101   0.546E-02    0.123E-01
RMM:   8    -0.644668732695E+03    0.44400E-05   -0.21729E-04  9128   0.591E-02    0.131E-01
RMM:   9    -0.644668653162E+03    0.79533E-04   -0.14080E-04  9896   0.326E-02    0.549E-02
RMM:  10    -0.644668647489E+03    0.56730E-05   -0.63548E-05  7190   0.235E-02
  44 F= -.64466865E+03 E0= -.64460795E+03  d E =-.115036E-02
 trial-energy change:   -0.001150  1 .order   -0.001182   -0.001852   -0.000512
 step:   0.7672(harm=  0.7672)  dis= 0.00488  next Energy=  -644.668777 (dE=-0.128E-02)
 bond charge predicted
       N       E                     dE             d eps       ncg     rms          rms(c)
DAV:   1    -0.644667139066E+03    0.15141E-02   -0.93958E-02 12216   0.169E+00    0.175E-01
RMM:   2    -0.644673379212E+03   -0.62401E-02   -0.22360E-02 12271   0.412E-01    0.808E-01
RMM:   3    -0.644669005777E+03    0.43734E-02   -0.31244E-03  9925   0.214E-01    0.247E-01
RMM:   4    -0.644668810154E+03    0.19562E-03   -0.10443E-03 11657   0.777E-02    0.106E-01
RMM:   5    -0.644668762616E+03    0.47538E-04   -0.21027E-04  9899   0.384E-02    0.784E-02
RMM:   6    -0.644668747204E+03    0.15412E-04   -0.63606E-05  6821   0.284E-02    0.571E-02
RMM:   7    -0.644668742650E+03    0.45537E-05   -0.77622E-05  8356   0.250E-02
  45 F= -.64466874E+03 E0= -.64460806E+03  d E =-.124552E-02
 curvature:  -1.23 expect dE=-0.153E-02 dE for cont linesearch -0.126E-04
 ZBRENT: increasing intervall
 opt :   1.1911  next Energy=  -644.668632 (dE=-0.114E-02)
 bond charge predicted
       N       E                     dE             d eps       ncg     rms          rms(c)
DAV:   1    -0.644662054045E+03    0.66932E-02   -0.37396E-01 11928   0.338E+00    0.355E-01
RMM:   2    -0.644687858993E+03   -0.25805E-01   -0.90317E-02 12324   0.819E-01    0.166E+00
RMM:   3    -0.644669459616E+03    0.18399E-01   -0.12461E-02 10344   0.430E-01    0.501E-01
[...]
RMM:   6    -0.644670416212E+03    0.45436E-04   -0.15516E-04  8628   0.306E-02    0.516E-02
RMM:   7    -0.644670415508E+03    0.70444E-06   -0.13565E-04  9906   0.239E-02    0.475E-02
RMM:   8    -0.644670433759E+03   -0.18252E-04   -0.56177E-05  6734   0.282E-02    0.848E-02
RMM:   9    -0.644670400290E+03    0.33470E-04   -0.33483E-05  5862   0.232E-02    0.156E-02
RMM:  10    -0.644670404529E+03   -0.42391E-05   -0.19801E-05  5683   0.181E-02
  57 F= -.64467040E+03 E0= -.64460941E+03  d E =-.184154E-03
 curvature:   4.37 expect dE= 0.759E-02 dE for cont linesearch  0.467E-03
 ZBRENT: bracketing found
 ZBRENT: interpolating
 opt :   0.5239  next Energy=  -644.670566 (dE=-0.346E-03)
 bond charge predicted
       N       E                     dE             d eps       ncg     rms          rms(c)
DAV:   1    -0.644667898786E+03    0.25015E-02   -0.11487E-01  9648   0.187E+00    0.121E-01
RMM:   2    -0.644672343868E+03   -0.44451E-02   -0.28760E-02 13945   0.380E-01    0.549E-01
RMM:   3    -0.644670689096E+03    0.16548E-02   -0.20845E-03  9503   0.194E-01    0.170E-01
RMM:   4    -0.644670663018E+03    0.26078E-04   -0.79315E-04 11415   0.684E-02    0.119E-01
RMM:   5    -0.644670591857E+03    0.71160E-04   -0.13782E-04  7555   0.380E-02    0.690E-02
RMM:   6    -0.644670574725E+03    0.17133E-04   -0.50762E-05  6121   0.228E-02    0.382E-02
RMM:   7    -0.644670577471E+03   -0.27467E-05   -0.60607E-05  7281   0.238E-02
  58 F= -.64467058E+03 E0= -.64460960E+03  d E =-.357096E-03
 curvature:  -0.19 expect dE=-0.181E-03 dE for cont linesearch -0.154E-05
 ZBRENT: interpolating
 opt :   0.4747  next Energy=  -644.670583 (dE=-0.363E-03)
 bond charge predicted
       N       E                     dE             d eps       ncg     rms          rms(c)
DAV:   1    -0.644670501234E+03    0.73490E-04   -0.31425E-03 13008   0.312E-01    0.310E-02
RMM:   2    -0.644670738217E+03   -0.23698E-03   -0.79300E-04 10534   0.695E-02    0.164E-01
RMM:   3    -0.644670566227E+03    0.17199E-03   -0.10262E-04  6900   0.447E-02    0.337E-02
RMM:   4    -0.644670564424E+03    0.18036E-05   -0.33810E-05  6105   0.178E-02
  59 F= -.64467056E+03 E0= -.64460958E+03  d E =-.344049E-03
 curvature:  -0.69 expect dE=-0.595E-03 dE for cont linesearch -0.822E-05
 ZBRENT: interpolating
 opt :   0.5015  next Energy=  -644.670580 (dE=-0.360E-03)
 bond charge predicted
       N       E                     dE             d eps       ncg     rms          rms(c)
DAV:   1    -0.644670545644E+03    0.20583E-04   -0.94551E-04 12576   0.172E-01    0.159E-02
RMM:   2    -0.644670615347E+03   -0.69703E-04   -0.20857E-04  8343   0.365E-02    0.100E-01
RMM:   3    -0.644670561772E+03    0.53575E-04   -0.25253E-05  5745   0.246E-02    0.137E-02
RMM:   4    -0.644670562483E+03   -0.71029E-06   -0.72550E-06  4604   0.107E-02
  60 F= -.64467056E+03 E0= -.64460958E+03  d E =-.342107E-03
 curvature:  -0.22 expect dE=-0.214E-03 dE for cont linesearch -0.123E-05
 trial: gam= 0.10961 g(F)=  0.806E-03 g(S)=  0.179E-03 ort =-0.192E-03 (trialstep = 0.256E+00)
 search vector abs. value=  0.102E-02
 bond charge predicted
       N       E                     dE             d eps       ncg     rms          rms(c)
DAV:   1    -0.644670736694E+03   -0.17492E-03   -0.11692E-02 12528   0.501E-01    0.107E-01
RMM:   2    -0.644672502623E+03   -0.17659E-02   -0.27853E-03 10941   0.187E-01    0.484E-01
RMM:   3    -0.644670836486E+03    0.16661E-02   -0.69173E-04  9407   0.112E-01    0.129E-01
RMM:   4    -0.644670767294E+03    0.69192E-04   -0.14192E-04  9840   0.418E-02    0.513E-02
RMM:   5    -0.644670757777E+03    0.95165E-05   -0.49979E-05  6422   0.242E-02
  61 F= -.64467076E+03 E0= -.64460978E+03  d E =-.195295E-03
 trial-energy change:   -0.000195  1 .order   -0.000210   -0.000247   -0.000173
 step:   0.8594(harm=  0.8594)  dis= 0.00149  next Energy=  -644.670977 (dE=-0.414E-03)
 bond charge predicted
       N       E                     dE             d eps       ncg     rms          rms(c)
DAV:   1    -0.644670782496E+03   -0.15202E-04   -0.64440E-02 12144   0.118E+00    0.262E-01
RMM:   2    -0.644681902147E+03   -0.11120E-01   -0.16398E-02 11042   0.455E-01    0.124E+00
RMM:   3    -0.644671450506E+03    0.10452E-01   -0.41818E-03 10560   0.261E-01    0.340E-01
RMM:   4    -0.644670930213E+03    0.52029E-03   -0.87422E-04 11639   0.975E-02    0.123E-01
RMM:   5    -0.644670952143E+03   -0.21930E-04   -0.38380E-04 11773   0.549E-02    0.173E-01
RMM:   6    -0.644670815760E+03    0.13638E-03   -0.12646E-04  7790   0.452E-02    0.610E-02
RMM:   7    -0.644670808103E+03    0.76568E-05   -0.14164E-04 11078   0.260E-02    0.387E-02
RMM:   8    -0.644670830098E+03   -0.21995E-04   -0.49362E-05  6339   0.314E-02    0.784E-02
RMM:   9    -0.644670802730E+03    0.27369E-04   -0.20177E-05  5600   0.195E-02    0.145E-02
RMM:  10    -0.644670804987E+03   -0.22578E-05   -0.12653E-05  5524   0.138E-02
  62 F= -.64467080E+03 E0= -.64460991E+03  d E =-.242505E-03
 curvature:  -0.45 expect dE=-0.396E-03 dE for cont linesearch -0.492E-04
 ZBRENT: interpolating
 opt :   0.6607  next Energy=  -644.670838 (dE=-0.276E-03)
 bond charge predicted
       N       E                     dE             d eps       ncg     rms          rms(c)
DAV:   1    -0.644670850356E+03   -0.47627E-04   -0.70414E-03 12408   0.390E-01    0.834E-02
RMM:   2    -0.644671927938E+03   -0.10776E-02   -0.16780E-03 11190   0.149E-01    0.385E-01
RMM:   3    -0.644670923709E+03    0.10042E-02   -0.42607E-04  9561   0.886E-02    0.110E-01
RMM:   4    -0.644670871363E+03    0.52347E-04   -0.84514E-05  8087   0.361E-02    0.418E-02
RMM:   5    -0.644670867896E+03    0.34661E-05   -0.35099E-05  5975   0.221E-02
  63 F= -.64467087E+03 E0= -.64460998E+03  d E =-.305414E-03
 curvature:  -0.31 expect dE=-0.323E-03 dE for cont linesearch -0.301E-05
 trial: gam= 1.20064 g(F)=  0.270E-03 g(S)=  0.789E-03 ort =-0.100E-03 (trialstep = 0.150E+00)
 search vector abs. value=  0.229E-02
 bond charge predicted
       N       E                     dE             d eps       ncg     rms          rms(c)
DAV:   1    -0.644670799433E+03    0.71929E-04   -0.97426E-03 11544   0.540E-01    0.614E-02
RMM:   2    -0.644671533151E+03   -0.73372E-03   -0.22597E-03 11938   0.133E-01    0.295E-01
RMM:   3    -0.644670978254E+03    0.55490E-03   -0.34347E-04  8509   0.786E-02    0.827E-02
RMM:   4    -0.644670953661E+03    0.24594E-04   -0.96744E-05  7836   0.299E-02    0.376E-02
RMM:   5    -0.644670950489E+03    0.31716E-05   -0.25273E-05  5817   0.195E-02
  64 F= -.64467095E+03 E0= -.64461005E+03  d E =-.825925E-04
 trial-energy change:   -0.000083  1 .order   -0.000101   -0.000141   -0.000060
 step:   0.2614(harm=  0.2614)  dis= 0.00073  next Energy=  -644.670991 (dE=-0.123E-03)
 bond charge predicted
       N       E                     dE             d eps       ncg     rms          rms(c)
DAV:   1    -0.644670897670E+03    0.55991E-04   -0.54810E-03 11928   0.401E-01    0.436E-02
RMM:   2    -0.644671224032E+03   -0.32636E-03   -0.12308E-03 11634   0.949E-02    0.182E-01
RMM:   3    -0.644670987650E+03    0.23638E-03   -0.16054E-04  7673   0.589E-02    0.469E-02
RMM:   4    -0.644670984536E+03    0.31140E-05   -0.51804E-05  6687   0.217E-02
  65 F= -.64467098E+03 E0= -.64461007E+03  d E =-.116639E-03
 curvature:  -0.32 expect dE=-0.263E-03 dE for cont linesearch -0.800E-05
 ZBRENT: increasing intervall
 opt :   0.4838  next Energy=  -644.671002 (dE=-0.134E-03)
 bond charge predicted
       N       E                     dE             d eps       ncg     rms          rms(c)
DAV:   1    -0.644670632911E+03    0.35474E-03   -0.21477E-02 11304   0.792E-01    0.892E-02
RMM:   2    -0.644672375511E+03   -0.17426E-02   -0.53030E-03 12241   0.200E-01    0.468E-01
RMM:   3    -0.644671084547E+03    0.12910E-02   -0.76302E-04  9137   0.110E-01    0.142E-01
RMM:   4    -0.644670998551E+03    0.85996E-04   -0.24899E-04  9794   0.429E-02    0.464E-02
RMM:   5    -0.644670985241E+03    0.13310E-04   -0.57081E-05  6578   0.217E-02    0.348E-02
RMM:   6    -0.644670985905E+03   -0.66411E-06   -0.18803E-05  5547   0.208E-02
  66 F= -.64467099E+03 E0= -.64461005E+03  d E =-.118009E-03
 curvature:  -0.71 expect dE=-0.447E-03 dE for cont linesearch -0.139E-04
 ZBRENT: bracketing found
 ZBRENT: interpolating
 opt :   0.3795  next Energy=  -644.670997 (dE=-0.129E-03)
 bond charge predicted
       N       E                     dE             d eps       ncg     rms          rms(c)
DAV:   1    -0.644670907977E+03    0.77265E-04   -0.49145E-03 11568   0.379E-01    0.375E-02
RMM:   2    -0.644671239977E+03   -0.33200E-03   -0.11235E-03 12211   0.906E-02    0.198E-01
RMM:   3    -0.644671001579E+03    0.23840E-03   -0.13958E-04  7497   0.533E-02    0.544E-02
RMM:   4    -0.644670989932E+03    0.11646E-04   -0.36108E-05  5924   0.210E-02    0.298E-02
RMM:   5    -0.644670986436E+03    0.34962E-05   -0.12205E-05  5341   0.190E-02
  67 F= -.64467099E+03 E0= -.64461006E+03  d E =-.118540E-03
 curvature:  -0.56 expect dE=-0.242E-03 dE for cont linesearch -0.176E-06
 trial: gam= 0.24027 g(F)=  0.417E-03 g(S)=  0.127E-04 ort = 0.268E-04 (trialstep = 0.196E+00)
 search vector abs. value=  0.575E-03
 bond charge predicted
       N       E                     dE             d eps       ncg     rms          rms(c)
DAV:   1    -0.644670940609E+03    0.49324E-04   -0.44051E-03 10128   0.409E-01    0.274E-02
RMM:   2    -0.644671183190E+03   -0.24258E-03   -0.12861E-03 11953   0.824E-02    0.152E-01
RMM:   3    -0.644671061723E+03    0.12147E-03   -0.10658E-04  7030   0.483E-02    0.379E-02
RMM:   4    -0.644671058670E+03    0.30532E-05   -0.27050E-05  5845   0.178E-02
  68 F= -.64467106E+03 E0= -.64461014E+03  d E =-.722335E-04
 trial-energy change:   -0.000072  1 .order   -0.000071   -0.000086   -0.000057
 step:   0.5932(harm=  0.5932)  dis= 0.00099  next Energy=  -644.671116 (dE=-0.129E-03)
 bond charge predicted
       N       E                     dE             d eps       ncg     rms          rms(c)
DAV:   1    -0.644670693191E+03    0.36853E-03   -0.18554E-02  9888   0.823E-01    0.465E-02
RMM:   2    -0.644671421699E+03   -0.72851E-03   -0.50263E-03 13217   0.162E-01    0.206E-01
RMM:   3    -0.644671188086E+03    0.23361E-03   -0.39570E-04  7897   0.881E-02    0.646E-02
RMM:   4    -0.644671190150E+03   -0.20641E-05   -0.13761E-04  8170   0.300E-02    0.506E-02
RMM:   5    -0.644671177729E+03    0.12422E-04   -0.25679E-05  5839   0.199E-02    0.267E-02
RMM:   6    -0.644671175044E+03    0.26843E-05   -0.11843E-05  5361   0.163E-02
  69 F= -.64467118E+03 E0= -.64461026E+03  d E =-.188608E-03
 curvature:  -0.39 expect dE=-0.611E-04 dE for cont linesearch -0.263E-04
 ZBRENT: increasing intervall
 opt :   1.3876  next Energy=  -644.671256 (dE=-0.269E-03)
 bond charge predicted
       N       E                     dE             d eps       ncg     rms          rms(c)
DAV:   1    -0.644669346732E+03    0.18310E-02   -0.73005E-02  9576   0.165E+00    0.859E-02
RMM:   2    -0.644671980762E+03   -0.26340E-02   -0.20164E-02 13557   0.322E-01    0.364E-01
RMM:   3    -0.644671342779E+03    0.63798E-03   -0.14355E-03  9151   0.157E-01    0.116E-01
RMM:   4    -0.644671366267E+03   -0.23487E-04   -0.52077E-04 10414   0.542E-02    0.102E-01
RMM:   5    -0.644671308361E+03    0.57906E-04   -0.96587E-05  7014   0.318E-02    0.458E-02
RMM:   6    -0.644671305332E+03    0.30289E-05   -0.48642E-05  6478   0.205E-02
  70 F= -.64467131E+03 E0= -.64461040E+03  d E =-.318895E-03
 curvature:  -1.20 expect dE=-0.202E-03 dE for cont linesearch -0.210E-05
 trial: gam= 0.41399 g(F)=  0.140E-03 g(S)=  0.288E-04 ort = 0.317E-04 (trialstep = 0.434E+00)
 search vector abs. value=  0.293E-03
 bond charge predicted
       N       E                     dE             d eps       ncg     rms          rms(c)
DAV:   1    -0.644671236604E+03    0.71757E-04   -0.99755E-03 10200   0.482E-01    0.514E-02
RMM:   2    -0.644671900286E+03   -0.66368E-03   -0.20205E-03 12661   0.116E-01    0.305E-01
RMM:   3    -0.644671376058E+03    0.52423E-03   -0.25522E-04  7906   0.721E-02    0.468E-02
RMM:   4    -0.644671386583E+03   -0.10525E-04   -0.98877E-05  8094   0.273E-02    0.615E-02
RMM:   5    -0.644671368266E+03    0.18318E-04   -0.28656E-05  6124   0.181E-02    0.210E-02
RMM:   6    -0.644671371105E+03   -0.28390E-05   -0.15349E-05  5479   0.168E-02
  71 F= -.64467137E+03 E0= -.64461046E+03  d E =-.657728E-04
 trial-energy change:   -0.000066  1 .order   -0.000068   -0.000079   -0.000058
 step:   1.6091(harm=  1.6091)  dis= 0.00153  next Energy=  -644.671451 (dE=-0.146E-03)
 bond charge predicted
       N       E                     dE             d eps       ncg     rms          rms(c)
DAV:   1    -0.644670395112E+03    0.97315E-03   -0.73233E-02  9744   0.130E+00    0.852E-02
RMM:   2    -0.644671564891E+03   -0.11698E-02   -0.12238E-02 13419   0.279E-01    0.158E-01
RMM:   3    -0.644671513206E+03    0.51685E-04   -0.80554E-04  9978   0.117E-01    0.118E-01
RMM:   4    -0.644671493646E+03    0.19560E-04   -0.32461E-04 10043   0.464E-02    0.996E-02
RMM:   5    -0.644671441254E+03    0.52392E-04   -0.88198E-05  7522   0.312E-02    0.435E-02
RMM:   6    -0.644671459637E+03   -0.18384E-04   -0.73930E-05  7481   0.256E-02    0.738E-02
RMM:   7    -0.644671439087E+03    0.20551E-04   -0.40072E-05  6316   0.240E-02    0.422E-02
RMM:   8    -0.644671435163E+03    0.39240E-05   -0.25999E-05  5867   0.200E-02
  72 F= -.64467144E+03 E0= -.64461057E+03  d E =-.129831E-03
 curvature:  -1.30 expect dE=-0.387E-03 dE for cont linesearch -0.254E-06
 trial: gam= 1.98551 g(F)=  0.107E-03 g(S)=  0.191E-03 ort = 0.758E-05 (trialstep = 0.132E+00)
 search vector abs. value=  0.148E-02
 bond charge predicted
       N       E                     dE             d eps       ncg     rms          rms(c)
DAV:   1    -0.644671379268E+03    0.59818E-04   -0.49957E-03 11664   0.360E-01    0.379E-02
RMM:   2    -0.644671714319E+03   -0.33505E-03   -0.10836E-03 12154   0.845E-02    0.204E-01
RMM:   3    -0.644671474641E+03    0.23968E-03   -0.14329E-04  7458   0.535E-02    0.602E-02
RMM:   4    -0.644671459987E+03    0.14653E-04   -0.48102E-05  6521   0.212E-02    0.213E-02
RMM:   5    -0.644671458307E+03    0.16800E-05   -0.16422E-05  5566   0.184E-02
  73 F= -.64467146E+03 E0= -.64461061E+03  d E =-.231443E-04
 trial-energy change:   -0.000023  1 .order   -0.000026   -0.000041   -0.000011
 step:   0.1797(harm=  0.1797)  dis= 0.00043  next Energy=  -644.671463 (dE=-0.281E-04)
 bond charge predicted
       N       E                     dE             d eps       ncg     rms          rms(c)
DAV:   1    -0.644671459063E+03    0.92396E-06   -0.70953E-04 12312   0.134E-01    0.209E-02
RMM:   2    -0.644671554685E+03   -0.95622E-04   -0.16445E-04  8340   0.376E-02    0.125E-01
RMM:   3    -0.644671470059E+03    0.84626E-04   -0.32936E-05  5846   0.264E-02    0.263E-02
RMM:   4    -0.644671466966E+03    0.30935E-05   -0.89706E-06  5148   0.126E-02
  74 F= -.64467147E+03 E0= -.64461061E+03  d E =-.318028E-04
 curvature:  -0.43 expect dE=-0.100E-03 dE for cont linesearch -0.334E-05
 ZBRENT: increasing intervall
 opt :   0.2747  next Energy=  -644.671480 (dE=-0.444E-04)
 bond charge predicted
       N       E                     dE             d eps       ncg     rms          rms(c)
DAV:   1    -0.644671439061E+03    0.30998E-04   -0.25920E-03 11088   0.258E-01    0.294E-02
RMM:   2    -0.644671610917E+03   -0.17186E-03   -0.60254E-04 11121   0.635E-02    0.135E-01
RMM:   3    -0.644671482447E+03    0.12847E-03   -0.77242E-05  6609   0.408E-02    0.332E-02
RMM:   4    -0.644671479911E+03    0.25354E-05   -0.21756E-05  5782   0.157E-02
  75 F= -.64467148E+03 E0= -.64461062E+03  d E =-.447486E-04
 curvature:  -1.61 expect dE=-0.380E-03 dE for cont linesearch -0.248E-05
 ZBRENT: increasing intervall
 opt :   0.4645  next Energy=  -644.671478 (dE=-0.424E-04)
 bond charge predicted
       N       E                     dE             d eps       ncg     rms          rms(c)
DAV:   1    -0.644671345472E+03    0.13697E-03   -0.10499E-02 11136   0.517E-01    0.622E-02
RMM:   2    -0.644672168365E+03   -0.82289E-03   -0.24321E-03 12017   0.130E-01    0.316E-01
RMM:   3    -0.644671536388E+03    0.63198E-03   -0.34425E-04  8225   0.770E-02    0.954E-02
RMM:   4    -0.644671499366E+03    0.37022E-04   -0.11007E-04  8339   0.295E-02    0.324E-02
RMM:   5    -0.644671496057E+03    0.33091E-05   -0.26635E-05  5909   0.178E-02
  76 F= -.64467150E+03 E0= -.64461066E+03  d E =-.608944E-04
 curvature:   1.50 expect dE= 0.385E-03 dE for cont linesearch  0.227E-05
 trial: gam= 0.25460 g(F)=  0.135E-03 g(S)=  0.121E-03 ort = 0.474E-04 (trialstep = 0.199E+00)
 search vector abs. value=  0.376E-03
 bond charge predicted
       N       E                     dE             d eps       ncg     rms          rms(c)
DAV:   1    -0.644671499369E+03   -0.26630E-08   -0.27672E-03 10896   0.272E-01    0.267E-02
RMM:   2    -0.644671610188E+03   -0.11082E-03   -0.62377E-04 11818   0.624E-02    0.112E-01
RMM:   3    -0.644671544223E+03    0.65965E-04   -0.55611E-05  6255   0.368E-02    0.234E-02
RMM:   4    -0.644671551838E+03   -0.76150E-05   -0.20757E-05  5682   0.174E-02
  77 F= -.64467155E+03 E0= -.64461071E+03  d E =-.557809E-04
 ZBRENT: can't locate minimum, use default step
 trial-energy change:   -0.000056  1 .order   -0.000048   -0.000053   -0.000043
 step:   0.7949(harm=  1.0381)  dis= 0.00091  next Energy=  -644.671635 (dE=-0.139E-03)
 bond charge predicted
       N       E                     dE             d eps       ncg     rms          rms(c)
DAV:   1    -0.644671244615E+03    0.29961E-03   -0.24473E-02  9648   0.803E-01    0.704E-02
RMM:   2    -0.644671758449E+03   -0.51383E-03   -0.51729E-03 13585   0.174E-01    0.163E-01
RMM:   3    -0.644671670816E+03    0.87633E-04   -0.38717E-04  8479   0.854E-02    0.899E-02
RMM:   4    -0.644671686126E+03   -0.15310E-04   -0.15260E-04  8825   0.380E-02    0.105E-01
RMM:   5    -0.644671619400E+03    0.66726E-04   -0.53877E-05  6284   0.310E-02    0.411E-02
RMM:   6    -0.644671627417E+03   -0.80176E-05   -0.36764E-05  6013   0.241E-02
  78 F= -.64467163E+03 E0= -.64461079E+03  d E =-.131360E-03
 curvature:  -0.67 expect dE=-0.405E-04 dE for cont linesearch -0.886E-05
 ZBRENT: extrapolating
 opt :   1.0833  next Energy=  -644.671638 (dE=-0.142E-03)
 bond charge predicted
       N       E                     dE             d eps       ncg     rms          rms(c)
DAV:   1    -0.644671524599E+03    0.94801E-04   -0.57269E-03 11928   0.392E-01    0.441E-02
RMM:   2    -0.644671879580E+03   -0.35498E-03   -0.13368E-03 12328   0.918E-02    0.225E-01
RMM:   3    -0.644671614226E+03    0.26535E-03   -0.16038E-04  7583   0.574E-02    0.425E-02
RMM:   4    -0.644671621492E+03   -0.72662E-05   -0.55911E-05  6752   0.233E-02
  79 F= -.64467162E+03 E0= -.64461077E+03  d E =-.125435E-03
 curvature:  -0.77 expect dE=-0.462E-03 dE for cont linesearch -0.272E-05
 trial: gam= 2.32179 g(F)=  0.810E-04 g(S)=  0.520E-03 ort =-0.365E-04 (trialstep = 0.575E-01)
 search vector abs. value=  0.246E-02
 bond charge predicted
       N       E                     dE             d eps       ncg     rms          rms(c)
DAV:   1    -0.644671608715E+03    0.55110E-05   -0.16814E-03 13008   0.216E-01    0.520E-02
RMM:   2    -0.644672024286E+03   -0.41557E-03   -0.62692E-04  9934   0.826E-02    0.248E-01
RMM:   3    -0.644671630114E+03    0.39417E-03   -0.16757E-04  7576   0.561E-02    0.692E-02
RMM:   4    -0.644671610305E+03    0.19809E-04   -0.30844E-05  5804   0.233E-02    0.403E-02
RMM:   5    -0.644671605365E+03    0.49402E-05   -0.15014E-05  5451   0.189E-02
  80 F= -.64467161E+03 E0= -.64461079E+03  d E =0.161268E-04
 trial-energy change:    0.000016  1 .order   -0.000016   -0.000030   -0.000003
 step:   0.0627(harm=  0.0627)  dis= 0.00019  next Energy=  -644.671638 (dE=-0.162E-04)
 reached required accuracy - stopping structural energy minimisation
