<?xml version="1.0" encoding="ISO-8859-1"?>
<modeling>
 <generator>
  <i name="program" type="string">vasp </i>
  <i name="version" type="string">5.4.4.18Apr17-6-g9f103f2a35  </i>
  <i name="subversion" type="string">(build Oct 18 2021 20:38:43) complex            parallel </i>
  <i name="platform" type="string">LinuxIFC </i>
  <i name="date" type="string">2024 06 11 </i>
  <i name="time" type="string">16:58:47 </i>
 </generator>
 <incar>
  <i type="string" name="SYSTEM">HECN</i>
  <i type="int" name="ISTART">     0</i>
  <i type="string" name="PREC">normal</i>
  <i type="string" name="ALGO">Fast</i>
  <i type="int" name="ICHARG">     2</i>
  <i type="int" name="NELM">    60</i>
  <i type="int" name="IBRION">     2</i>
  <i name="EDIFF">      0.00001000</i>
  <i name="EDIFFG">     -0.01000000</i>
  <i type="int" name="NSW">   100</i>
  <i type="int" name="ISIF">     3</i>
  <i name="ENCUT">    400.00000000</i>
  <i name="POTIM">      0.50000000</i>
  <i type="logical" name="LREAL"> F  </i>
  <i type="int" name="ISMEAR">     0</i>
  <i name="SIGMA">      0.10000000</i>
  <i type="logical" name="LWAVE"> F  </i>
  <i type="logical" name="LCHARG"> F  </i>
  <v type="int" name="KPOINT_BSE">    -1     0     0     0</v>
  <i type="int" name="NELM">    60</i>
 </incar>
 <structure name="primitive_cell" >
  <crystal>
   <varray name="basis" >
    <v>       8.93249989       0.00000000       0.00000000 </v>
    <v>       0.00575300       9.05559834       0.00000000 </v>
    <v>       0.03210180      -0.01574346       8.93712807 </v>
   </varray>
   <i name="volume">    722.91652451 </i>
   <varray name="rec_basis" >
    <v>       0.11195074      -0.00007112      -0.00040225 </v>
    <v>       0.00000000       0.11042893       0.00019453 </v>
    <v>       0.00000000       0.00000000       0.11189277 </v>
   </varray>
  </crystal>
  <varray name="positions" >
   <v>      -0.00311999      -0.00795003      -0.00075998 </v>
   <v>      -0.25232999      -0.00252000       0.01202000 </v>
   <v>      -0.00162995      -0.25686004       0.00460000 </v>
   <v>      -0.00280000      -0.00228008       0.25899999 </v>
   <v>       0.00281000       0.25024000       0.00130000 </v>
   <v>      -0.01103011       0.00202000      -0.26291001 </v>
   <v>       0.26146999      -0.00015998      -0.00704004 </v>
   <v>      -0.00135002      -0.22426001       0.26102000 </v>
   <v>      -0.25720997      -0.02130006      -0.23549005 </v>
   <v>       0.23780002       0.01082000      -0.25392002 </v>
   <v>      -0.24282000      -0.25897003       0.01100000 </v>
   <v>       0.24762001      -0.25026001      -0.00025994 </v>
   <v>      -0.00485996      -0.25507996      -0.25488003 </v>
   <v>      -0.24281000       0.25603001      -0.00408003 </v>
   <v>       0.25398003      -0.00285005       0.24912000 </v>
   <v>       0.24788999       0.24839000      -0.00342003 </v>
   <v>      -0.00562996       0.23617001       0.26379999 </v>
   <v>      -0.25120996      -0.01212001       0.26967001 </v>
   <v>       0.00201000       0.25541000      -0.26105999 </v>
   <v>       0.24177002      -0.24659003      -0.24981998 </v>
   <v>      -0.24963995      -0.25112000      -0.25243996 </v>
   <v>      -0.24255004       0.24437997      -0.25103001 </v>
   <v>       0.25133999      -0.25041998       0.24910999 </v>
   <v>      -0.24367000      -0.26108997       0.25767000 </v>
   <v>      -0.24686002       0.24616999       0.25492002 </v>
   <v>       0.24982001       0.24942998       0.24825000 </v>
   <v>       0.24900999       0.25315000      -0.25146000 </v>
   <v>      -0.48411003       0.01358000      -0.01924992 </v>
   <v>      -0.00158006      -0.49023002      -0.01386996 </v>
   <v>       0.02362000      -0.00216999       0.49557002 </v>
   <v>      -0.49480995      -0.23869001       0.00855000 </v>
   <v>      -0.49285006      -0.00023001       0.24673000 </v>
   <v>      -0.24160996      -0.49684002       0.00288000 </v>
   <v>      -0.00999997      -0.23784997       0.49746000 </v>
   <v>      -0.00948001       0.48088003       0.24100999 </v>
   <v>       0.24446000      -0.00176004      -0.49712002 </v>
   <v>      -0.26367999       0.00417000      -0.48937000 </v>
   <v>       0.24328000      -0.49927003      -0.00489006 </v>
   <v>      -0.49572003       0.24673000       0.00262000 </v>
   <v>      -0.00796004      -0.49944001      -0.24861998 </v>
   <v>      -0.00195991       0.24229999      -0.49871997 </v>
   <v>      -0.49991002       0.00061000      -0.26528002 </v>
   <v>      -0.26123997      -0.47171998      -0.26185001 </v>
   <v>       0.49950005      -0.24518001      -0.25182996 </v>
   <v>       0.24457999      -0.24951001       0.49983999 </v>
   <v>      -0.24599997      -0.27062001       0.49116997 </v>
   <v>      -0.49520997       0.24631001      -0.25289998 </v>
   <v>       0.24803003      -0.49835000       0.24955001 </v>
   <v>      -0.26448999      -0.48531996       0.26666001 </v>
   <v>      -0.49167000       0.25676999       0.25376001 </v>
   <v>      -0.49620997      -0.26073003       0.25905001 </v>
   <v>      -0.24692999       0.26163001      -0.49466998 </v>
   <v>       0.25272001       0.24823001      -0.49984997 </v>
   <v>       0.25679999       0.49462002      -0.25454998 </v>
   <v>       0.47957999      -0.01691999       0.49717999 </v>
   <v>      -0.49498994       0.49745998      -0.00165997 </v>
   <v>      -0.00572008      -0.49550001       0.49779000 </v>
   <v>      -0.49436004       0.23264998       0.49544997 </v>
   <v>      -0.49424994      -0.25041998       0.49720000 </v>
   <v>      -0.49299998      -0.49666998       0.25878999 </v>
   <v>      -0.49498997      -0.49782002      -0.26087997 </v>
   <v>      -0.25963999      -0.49803000      -0.49932997 </v>
   <v>       0.25841001      -0.49937998      -0.49870999 </v>
   <v>      -0.49461000      -0.47166995       0.49917999 </v>
  </varray>
 </structure>
 <varray name="primitive_index" >
  <v type="int" >        1 </v>
  <v type="int" >       25 </v>
  <v type="int" >       38 </v>
  <v type="int" >       34 </v>
  <v type="int" >       23 </v>
  <v type="int" >       29 </v>
  <v type="int" >       22 </v>
  <v type="int" >       59 </v>
  <v type="int" >       58 </v>
  <v type="int" >       56 </v>
  <v type="int" >        9 </v>
  <v type="int" >       18 </v>
  <v type="int" >       12 </v>
  <v type="int" >       17 </v>
  <v type="int" >        2 </v>
  <v type="int" >       14 </v>
  <v type="int" >        8 </v>
  <v type="int" >       16 </v>
  <v type="int" >       10 </v>
  <v type="int" >       45 </v>
  <v type="int" >       49 </v>
  <v type="int" >       30 </v>
  <v type="int" >       36 </v>
  <v type="int" >       39 </v>
  <v type="int" >       24 </v>
  <v type="int" >       21 </v>
  <v type="int" >       42 </v>
  <v type="int" >       53 </v>
  <v type="int" >       54 </v>
  <v type="int" >       61 </v>
  <v type="int" >       28 </v>
  <v type="int" >       26 </v>
  <v type="int" >       40 </v>
  <v type="int" >       47 </v>
  <v type="int" >       27 </v>
  <v type="int" >       43 </v>
  <v type="int" >       31 </v>
  <v type="int" >       37 </v>
  <v type="int" >       35 </v>
  <v type="int" >       48 </v>
  <v type="int" >       44 </v>
  <v type="int" >       33 </v>
  <v type="int" >       63 </v>
  <v type="int" >        7 </v>
  <v type="int" >       20 </v>
  <v type="int" >       64 </v>
  <v type="int" >        5 </v>
  <v type="int" >        3 </v>
  <v type="int" >       60 </v>
  <v type="int" >       15 </v>
  <v type="int" >       55 </v>
  <v type="int" >       11 </v>
  <v type="int" >       19 </v>
  <v type="int" >       13 </v>
  <v type="int" >       57 </v>
  <v type="int" >        4 </v>
  <v type="int" >        6 </v>
  <v type="int" >       32 </v>
  <v type="int" >       51 </v>
  <v type="int" >       41 </v>
  <v type="int" >       52 </v>
  <v type="int" >       50 </v>
  <v type="int" >       46 </v>
  <v type="int" >       62 </v>
 </varray>
 <kpoints>
  <generation param="Gamma">
   <v type="int" name="divisions">       3        3        3 </v>
   <v name="usershift">      0.00000000       0.00000000       0.00000000 </v>
   <v name="genvec1">      0.33333333      -0.00000000      -0.00000000 </v>
   <v name="genvec2">      0.00000000       0.33333333       0.00000000 </v>
   <v name="genvec3">      0.00000000       0.00000000       0.33333333 </v>
   <v name="shift">      0.00000000       0.00000000       0.00000000 </v>
  </generation>
  <varray name="kpointlist" >
   <v>       0.00000000       0.00000000       0.00000000 </v>
   <v>       0.33333333       0.00000000       0.00000000 </v>
   <v>       0.00000000       0.33333333       0.00000000 </v>
   <v>       0.33333333       0.33333333       0.00000000 </v>
   <v>      -0.33333333       0.33333333       0.00000000 </v>
   <v>       0.00000000       0.00000000       0.33333333 </v>
   <v>       0.33333333       0.00000000       0.33333333 </v>
   <v>      -0.33333333       0.00000000       0.33333333 </v>
   <v>       0.00000000       0.33333333       0.33333333 </v>
   <v>       0.33333333       0.33333333       0.33333333 </v>
   <v>      -0.33333333       0.33333333       0.33333333 </v>
   <v>       0.00000000      -0.33333333       0.33333333 </v>
   <v>       0.33333333      -0.33333333       0.33333333 </v>
   <v>      -0.33333333      -0.33333333       0.33333333 </v>
  </varray>
  <varray name="weights" >
   <v>       0.03703704 </v>
   <v>       0.07407407 </v>
   <v>       0.07407407 </v>
   <v>       0.07407407 </v>
   <v>       0.07407407 </v>
   <v>       0.07407407 </v>
   <v>       0.07407407 </v>
   <v>       0.07407407 </v>
   <v>       0.07407407 </v>
   <v>       0.07407407 </v>
   <v>       0.07407407 </v>
   <v>       0.07407407 </v>
   <v>       0.07407407 </v>
   <v>       0.07407407 </v>
  </varray>
 </kpoints>
 <parameters>
  <separator name="general" >
   <i type="string" name="SYSTEM">HECN</i>
   <i type="logical" name="LCOMPAT"> F  </i>
  </separator>
  <separator name="electronic" >
   <i type="string" name="PREC">normal</i>
   <i name="ENMAX">    400.00000000</i>
   <i name="ENAUG">    644.87300000</i>
   <i name="EDIFF">      0.00001000</i>
   <i type="int" name="IALGO">    68</i>
   <i type="int" name="IWAVPR">    11</i>
   <i type="int" name="NBANDS">   312</i>
   <i name="NELECT">    490.00000000</i>
   <i type="int" name="TURBO">     0</i>
   <i type="int" name="IRESTART">     0</i>
   <i type="int" name="NREBOOT">     0</i>
   <i type="int" name="NMIN">     0</i>
   <i name="EREF">      0.00000000</i>
   <separator name="electronic smearing" >
    <i type="int" name="ISMEAR">     0</i>
    <i name="SIGMA">      0.10000000</i>
    <i name="KSPACING">      0.50000000</i>
    <i type="logical" name="KGAMMA"> T  </i>
   </separator>
   <separator name="electronic projectors" >
    <i type="logical" name="LREAL"> F  </i>
    <v name="ROPT">      0.00000000      0.00000000      0.00000000      0.00000000      0.00000000      0.00000000      0.00000000</v>
    <i type="int" name="LMAXPAW">  -100</i>
    <i type="int" name="LMAXMIX">     2</i>
    <i type="logical" name="NLSPLINE"> F  </i>
   </separator>
   <separator name="electronic startup" >
    <i type="int" name="ISTART">     0</i>
    <i type="int" name="ICHARG">     2</i>
    <i type="int" name="INIWAV">     1</i>
   </separator>
   <separator name="electronic spin" >
    <i type="int" name="ISPIN">     1</i>
    <i type="logical" name="LNONCOLLINEAR"> F  </i>
    <v name="MAGMOM">      1.00000000      1.00000000      1.00000000      1.00000000      1.00000000      1.00000000      1.00000000      1.00000000      1.00000000      1.00000000      1.00000000      1.00000000      1.00000000      1.00000000      1.00000000      1.00000000      1.00000000      1.00000000      1.00000000      1.00000000
      1.00000000      1.00000000      1.00000000      1.00000000      1.00000000      1.00000000      1.00000000      1.00000000      1.00000000      1.00000000      1.00000000      1.00000000      1.00000000      1.00000000      1.00000000      1.00000000      1.00000000      1.00000000      1.00000000      1.00000000
      1.00000000      1.00000000      1.00000000      1.00000000      1.00000000      1.00000000      1.00000000      1.00000000      1.00000000      1.00000000      1.00000000      1.00000000      1.00000000      1.00000000      1.00000000      1.00000000      1.00000000      1.00000000      1.00000000      1.00000000
      1.00000000      1.00000000      1.00000000      1.00000000</v>
    <i name="NUPDOWN">     -1.00000000</i>
    <i type="logical" name="LSORBIT"> F  </i>
    <v name="SAXIS">      0.00000000      0.00000000      1.00000000</v>
    <i type="logical" name="LSPIRAL"> F  </i>
    <v name="QSPIRAL">      0.00000000      0.00000000      0.00000000</v>
    <i type="logical" name="LZEROZ"> F  </i>
   </separator>
   <separator name="electronic exchange-correlation" >
    <i type="logical" name="LASPH"> F  </i>
    <i type="logical" name="LMETAGGA"> F  </i>
   </separator>
   <separator name="electronic convergence" >
    <i type="int" name="NELM">    60</i>
    <i type="int" name="NELMDL">    -5</i>
    <i type="int" name="NELMIN">     2</i>
    <i name="ENINI">    400.00000000</i>
    <separator name="electronic convergence detail" >
     <i type="logical" name="LDIAG"> T  </i>
     <i type="logical" name="LSUBROT"> F  </i>
     <i name="WEIMIN">      0.00100000</i>
     <i name="EBREAK">      0.00000001</i>
     <i name="DEPER">      0.30000000</i>
     <i type="int" name="NRMM">     4</i>
     <i name="TIME">      0.40000000</i>
    </separator>
   </separator>
   <separator name="electronic mixer" >
    <i name="AMIX">      0.40000000</i>
    <i name="BMIX">      1.00000000</i>
    <i name="AMIN">      0.10000000</i>
    <i name="AMIX_MAG">      1.60000000</i>
    <i name="BMIX_MAG">      1.00000000</i>
    <separator name="electronic mixer details" >
     <i type="int" name="IMIX">     4</i>
     <i type="logical" name="MIXFIRST"> F  </i>
     <i type="int" name="MAXMIX">   -45</i>
     <i name="WC">    100.00000000</i>
     <i type="int" name="INIMIX">     1</i>
     <i type="int" name="MIXPRE">     1</i>
     <i type="int" name="MREMOVE">     5</i>
    </separator>
   </separator>
   <separator name="electronic dipolcorrection" >
    <i type="logical" name="LDIPOL"> F  </i>
    <i type="logical" name="LMONO"> F  </i>
    <i type="int" name="IDIPOL">     0</i>
    <i name="EPSILON">      1.00000000</i>
    <v name="DIPOL">   -100.00000000   -100.00000000   -100.00000000</v>
    <i name="EFIELD">      0.00000000</i>
   </separator>
  </separator>
  <separator name="grids" >
   <i type="int" name="NGX">    48</i>
   <i type="int" name="NGY">    48</i>
   <i type="int" name="NGZ">    48</i>
   <i type="int" name="NGXF">    96</i>
   <i type="int" name="NGYF">    96</i>
   <i type="int" name="NGZF">    96</i>
   <i type="logical" name="ADDGRID"> F  </i>
  </separator>
  <separator name="ionic" >
   <i type="int" name="NSW">   100</i>
   <i type="int" name="IBRION">     2</i>
   <i type="int" name="MDALGO">     0</i>
   <i type="int" name="ISIF">     3</i>
   <i name="PSTRESS">      0.00000000</i>
   <i name="EDIFFG">     -0.01000000</i>
   <i type="int" name="NFREE">     1</i>
   <i name="POTIM">      0.50000000</i>
   <i name="SMASS">     -3.00000000</i>
   <i name="SCALEE">      1.00000000</i>
  </separator>
  <separator name="ionic md" >
   <i name="TEBEG">      0.00010000</i>
   <i name="TEEND">      0.00010000</i>
   <i type="int" name="NBLOCK">     1</i>
   <i type="int" name="KBLOCK">   100</i>
   <i type="int" name="NPACO">   256</i>
   <i name="APACO">     16.00000000</i>
  </separator>
  <separator name="symmetry" >
   <i type="int" name="ISYM">     2</i>
   <i name="SYMPREC">      0.00001000</i>
  </separator>
  <separator name="dos" >
   <i type="int" name="LORBIT">     0</i>
   <v name="RWIGS">     -1.00000000     -1.00000000     -1.00000000     -1.00000000     -1.00000000     -1.00000000     -1.00000000</v>
   <i type="int" name="NEDOS">   301</i>
   <i name="EMIN">     10.00000000</i>
   <i name="EMAX">    -10.00000000</i>
   <i name="EFERMI">      0.00000000</i>
  </separator>
  <separator name="writing" >
   <i type="int" name="NWRITE">     2</i>
   <i type="logical" name="LWAVE"> F  </i>
   <i type="logical" name="LDOWNSAMPLE"> F  </i>
   <i type="logical" name="LCHARG"> F  </i>
   <i type="logical" name="LPARD"> F  </i>
   <i type="logical" name="LVTOT"> F  </i>
   <i type="logical" name="LVHAR"> F  </i>
   <i type="logical" name="LELF"> F  </i>
   <i type="logical" name="LOPTICS"> F  </i>
   <v name="STM">      0.00000000      0.00000000      0.00000000      0.00000000      0.00000000      0.00000000      0.00000000</v>
  </separator>
  <separator name="performance" >
   <i type="int" name="NPAR">    24</i>
   <i type="int" name="NSIM">     4</i>
   <i type="int" name="NBLK">    -1</i>
   <i type="logical" name="LPLANE"> T  </i>
   <i type="logical" name="LSCALAPACK"> T  </i>
   <i type="logical" name="LSCAAWARE"> F  </i>
   <i type="logical" name="LSCALU"> F  </i>
   <i type="logical" name="LASYNC"> F  </i>
   <i type="logical" name="LORBITALREAL"> F  </i>
  </separator>
  <separator name="miscellaneous" >
   <i type="int" name="IDIOT">     3</i>
   <i type="int" name="ISPECIAL">     0</i>
   <i type="logical" name="LMUSIC"> F  </i>
   <v name="POMASS">     92.91000000    180.94800000     91.22400000     14.00100000     12.01100000     51.99600000     95.94000000</v>
   <v name="DARWINR">      0.00000000      0.00000000      0.00000000      0.00000000      0.00000000      0.00000000      0.00000000</v>
   <v name="DARWINV">      1.00000000      1.00000000      1.00000000      1.00000000      1.00000000      1.00000000      1.00000000</v>
   <i type="logical" name="LCORR"> T  </i>
  </separator>
  <i type="logical" name="GGA_COMPAT"> T  </i>
  <i type="logical" name="LBERRY"> F  </i>
  <i type="int" name="ICORELEVEL">     0</i>
  <i type="logical" name="LDAU"> F  </i>
  <i type="int" name="I_CONSTRAINED_M">     0</i>
  <separator name="electronic exchange-correlation" >
   <i type="string" name="GGA">--</i>
   <i type="int" name="VOSKOWN">     0</i>
   <i type="logical" name="LHFCALC"> F  </i>
   <i type="string" name="PRECFOCK"></i>
   <i type="logical" name="LSYMGRAD"> F  </i>
   <i type="logical" name="LHFONE"> F  </i>
   <i type="logical" name="LRHFCALC"> F  </i>
   <i type="logical" name="LTHOMAS"> F  </i>
   <i type="logical" name="LMODELHF"> F  </i>
   <i name="ENCUT4O">     -1.00000000</i>
   <i type="int" name="EXXOEP">     0</i>
   <i type="int" name="FOURORBIT">     0</i>
   <i name="AEXX">      0.00000000</i>
   <i name="HFALPHA">      0.00000000</i>
   <i name="MCALPHA">      0.00000000</i>
   <i name="ALDAX">      1.00000000</i>
   <i name="AGGAX">      1.00000000</i>
   <i name="ALDAC">      1.00000000</i>
   <i name="AGGAC">      1.00000000</i>
   <i type="int" name="NKREDX">     1</i>
   <i type="int" name="NKREDY">     1</i>
   <i type="int" name="NKREDZ">     1</i>
   <i type="logical" name="SHIFTRED"> F  </i>
   <i type="logical" name="ODDONLY"> F  </i>
   <i type="logical" name="EVENONLY"> F  </i>
   <i type="int" name="LMAXFOCK">     0</i>
   <i type="int" name="NMAXFOCKAE">     0</i>
   <i type="logical" name="LFOCKAEDFT"> F  </i>
   <i name="HFSCREEN">      0.00000000</i>
   <i name="HFSCREENC">      0.00000000</i>
   <i type="int" name="NBANDSGWLOW">     0</i>
  </separator>
  <separator name="vdW DFT" >
   <i type="logical" name="LUSE_VDW"> F  </i>
   <i name="Zab_VDW">     -0.84910000</i>
   <i name="PARAM1">      0.12340000</i>
   <i name="PARAM2">      1.00000000</i>
   <i name="PARAM3">      0.00000000</i>
  </separator>
  <separator name="model GW" >
   <i type="int" name="MODEL_GW">     0</i>
   <i name="MODEL_EPS0">      6.77734242</i>
   <i name="MODEL_ALPHA">      1.00000000</i>
  </separator>
  <separator name="linear response parameters" >
   <i type="logical" name="LEPSILON"> F  </i>
   <i type="logical" name="LRPA"> F  </i>
   <i type="logical" name="LNABLA"> F  </i>
   <i type="logical" name="LVEL"> F  </i>
   <i type="int" name="KINTER">     0</i>
   <i name="CSHIFT">      0.10000000</i>
   <i name="OMEGAMAX">     -1.00000000</i>
   <i name="DEG_THRESHOLD">      0.00200000</i>
   <i name="RTIME">     -0.10000000</i>
   <i name="WPLASMAI">      0.00000000</i>
   <v name="DFIELD">      0.00000000      0.00000000      0.00000000</v>
   <v name="WPLASMA">      0.00000000      0.00000000      0.00000000      0.00000000      0.00000000      0.00000000      0.00000000      0.00000000      0.00000000</v>
  </separator>
  <separator name="orbital magnetization" >
   <i type="logical" name="NUCIND"> F  </i>
   <v name="MAGPOS">      0.00000000      0.00000000      0.00000000</v>
   <i type="logical" name="LNICSALL"> T  </i>
   <i type="logical" name="ORBITALMAG"> F  </i>
   <i type="logical" name="LMAGBLOCH"> F  </i>
   <i type="logical" name="LCHIMAG"> F  </i>
   <i type="logical" name="LGAUGE"> T  </i>
   <i type="int" name="MAGATOM">     0</i>
   <v name="MAGDIPOL">      0.00000000      0.00000000      0.00000000</v>
   <v name="AVECCONST">      0.00000000      0.00000000      0.00000000</v>
  </separator>
  <separator name="response functions" >
   <i type="logical" name="LADDER"> F  </i>
   <i type="logical" name="LRPAFORCE"> F  </i>
   <i type="logical" name="LFXC"> F  </i>
   <i type="logical" name="LHARTREE"> T  </i>
   <i type="int" name="IBSE">     0</i>
   <v type="int" name="KPOINT">    -1     0     0     0</v>
   <i type="logical" name="LTCTE"> F  </i>
   <i type="logical" name="LTETE"> F  </i>
   <i type="logical" name="LTRIPLET"> F  </i>
   <i type="logical" name="LFXCEPS"> F  </i>
   <i type="logical" name="LFXHEG"> F  </i>
   <i type="int" name="NATURALO">     2</i>
   <i type="logical" name="L2ORDER"> F  </i>
   <i type="logical" name="LMP2LT"> F  </i>
   <i type="logical" name="LUSEW"> F  </i>
   <i name="ENCUTGW">     -2.00000000</i>
   <i name="ENCUTGWSOFT">     -2.00000000</i>
   <i name="ENCUTLF">     -1.00000000</i>
   <i type="int" name="LMAXMP2">    -1</i>
   <i name="SCISSOR">      0.00000000</i>
   <i type="int" name="NOMEGA">     0</i>
   <i type="int" name="NOMEGAR">     0</i>
   <i type="int" name="NBANDSGW">    -1</i>
   <i type="int" name="NBANDSO">    -1</i>
   <i type="int" name="NBANDSV">    -1</i>
   <i type="int" name="NELM">    60</i>
   <i type="int" name="NELMHF">     1</i>
   <i type="int" name="DIM">     3</i>
   <i type="int" name="ANTIRES">     0</i>
   <i name="OMEGAMAX">    -30.00000000</i>
   <i name="OMEGAMIN">    -30.00000000</i>
   <i name="OMEGATL">   -200.00000000</i>
   <i type="int" name="OMEGAGRID">   140</i>
   <i name="CSHIFT">     -0.10000000</i>
   <i type="logical" name="SELFENERGY"> F  </i>
   <i type="logical" name="LSPECTRAL"> F  </i>
   <i type="logical" name="LSPECTRALGW"> F  </i>
   <i type="logical" name="LSINGLES"> F  </i>
   <i type="logical" name="LFERMIGW"> F  </i>
   <i type="logical" name="ODDONLYGW"> F  </i>
   <i type="logical" name="EVENONLYGW"> F  </i>
   <i type="int" name="NKREDLFX">     1</i>
   <i type="int" name="NKREDLFY">     1</i>
   <i type="int" name="NKREDLFZ">     1</i>
   <i type="int" name="MAXMEM">  2800</i>
   <i type="int" name="TELESCOPE">     0</i>
   <i type="int" name="TAUPAR">     1</i>
   <i type="int" name="OMEGAPAR">    -1</i>
   <i name="LAMBDA">      1.00000000</i>
  </separator>
  <separator name="External order field" >
   <i name="OFIELD_KAPPA">      0.00000000</i>
   <v name="OFIELD_K">      0.00000000      0.00000000      0.00000000</v>
   <i name="OFIELD_Q6_NEAR">      0.00000000</i>
   <i name="OFIELD_Q6_FAR">      0.00000000</i>
   <i name="OFIELD_A">      0.00000000</i>
  </separator>
 </parameters>
 <atominfo>
  <atoms>      64 </atoms>
  <types>       7 </types>
  <array name="atoms" >
   <dimension dim="1">ion</dimension>
   <field type="string">element</field>
   <field type="int">atomtype</field>
   <set>
    <rc><c>Nb</c><c>   1</c></rc>
    <rc><c>Nb</c><c>   1</c></rc>
    <rc><c>Nb</c><c>   1</c></rc>
    <rc><c>Nb</c><c>   1</c></rc>
    <rc><c>Nb</c><c>   1</c></rc>
    <rc><c>Nb</c><c>   1</c></rc>
    <rc><c>Nb</c><c>   1</c></rc>
    <rc><c>Ta</c><c>   2</c></rc>
    <rc><c>Ta</c><c>   2</c></rc>
    <rc><c>Ta</c><c>   2</c></rc>
    <rc><c>Ta</c><c>   2</c></rc>
    <rc><c>Ta</c><c>   2</c></rc>
    <rc><c>Ta</c><c>   2</c></rc>
    <rc><c>Zr</c><c>   3</c></rc>
    <rc><c>Zr</c><c>   3</c></rc>
    <rc><c>Zr</c><c>   3</c></rc>
    <rc><c>Zr</c><c>   3</c></rc>
    <rc><c>Zr</c><c>   3</c></rc>
    <rc><c>Zr</c><c>   3</c></rc>
    <rc><c>Zr</c><c>   3</c></rc>
    <rc><c>N </c><c>   4</c></rc>
    <rc><c>N </c><c>   4</c></rc>
    <rc><c>N </c><c>   4</c></rc>
    <rc><c>N </c><c>   4</c></rc>
    <rc><c>N </c><c>   4</c></rc>
    <rc><c>N </c><c>   4</c></rc>
    <rc><c>N </c><c>   4</c></rc>
    <rc><c>N </c><c>   4</c></rc>
    <rc><c>N </c><c>   4</c></rc>
    <rc><c>N </c><c>   4</c></rc>
    <rc><c>N </c><c>   4</c></rc>
    <rc><c>N </c><c>   4</c></rc>
    <rc><c>N </c><c>   4</c></rc>
    <rc><c>C </c><c>   5</c></rc>
    <rc><c>C </c><c>   5</c></rc>
    <rc><c>C </c><c>   5</c></rc>
    <rc><c>C </c><c>   5</c></rc>
    <rc><c>C </c><c>   5</c></rc>
    <rc><c>C </c><c>   5</c></rc>
    <rc><c>C </c><c>   5</c></rc>
    <rc><c>C </c><c>   5</c></rc>
    <rc><c>C </c><c>   5</c></rc>
    <rc><c>C </c><c>   5</c></rc>
    <rc><c>C </c><c>   5</c></rc>
    <rc><c>C </c><c>   5</c></rc>
    <rc><c>C </c><c>   5</c></rc>
    <rc><c>C </c><c>   5</c></rc>
    <rc><c>C </c><c>   5</c></rc>
    <rc><c>C </c><c>   5</c></rc>
    <rc><c>C </c><c>   5</c></rc>
    <rc><c>C </c><c>   5</c></rc>
    <rc><c>C </c><c>   5</c></rc>
    <rc><c>Cr</c><c>   6</c></rc>
    <rc><c>Cr</c><c>   6</c></rc>
    <rc><c>Cr</c><c>   6</c></rc>
    <rc><c>Cr</c><c>   6</c></rc>
    <rc><c>Cr</c><c>   6</c></rc>
    <rc><c>Cr</c><c>   6</c></rc>
    <rc><c>Mo</c><c>   7</c></rc>
    <rc><c>Mo</c><c>   7</c></rc>
    <rc><c>Mo</c><c>   7</c></rc>
    <rc><c>Mo</c><c>   7</c></rc>
    <rc><c>Mo</c><c>   7</c></rc>
    <rc><c>Mo</c><c>   7</c></rc>
   </set>
  </array>
  <array name="atomtypes" >
   <dimension dim="1">type</dimension>
   <field type="int">atomspertype</field>
   <field type="string">element</field>
   <field>mass</field>
   <field>valence</field>
   <field type="string">pseudopotential</field>
   <set>
    <rc><c>   7</c><c>Nb</c><c>     92.91000000</c><c>     13.00000000</c><c> PAW_PBE Nb_sv 17Jan2003                </c></rc>
    <rc><c>   6</c><c>Ta</c><c>    180.94800000</c><c>     11.00000000</c><c> PAW_PBE Ta_pv 07Sep2000                </c></rc>
    <rc><c>   7</c><c>Zr</c><c>     91.22400000</c><c>     12.00000000</c><c> PAW_PBE Zr_sv 07Sep2000                </c></rc>
    <rc><c>  13</c><c>N </c><c>     14.00100000</c><c>      5.00000000</c><c> PAW_PBE N 08Apr2002                    </c></rc>
    <rc><c>  19</c><c>C </c><c>     12.01100000</c><c>      4.00000000</c><c> PAW_PBE C 08Apr2002                    </c></rc>
    <rc><c>   6</c><c>Cr</c><c>     51.99600000</c><c>     12.00000000</c><c> PAW_PBE Cr_pv 07Sep2000                </c></rc>
    <rc><c>   6</c><c>Mo</c><c>     95.94000000</c><c>      6.00000000</c><c> PAW_PBE Mo 08Apr2002                   </c></rc>
   </set>
  </array>
 </atominfo>
 <structure name="initialpos" >
  <crystal>
   <varray name="basis" >
    <v>       8.93249989       0.00000000       0.00000000 </v>
    <v>       0.00575300       9.05559834       0.00000000 </v>
    <v>       0.03210180      -0.01574346       8.93712807 </v>
   </varray>
   <i name="volume">    722.91652451 </i>
   <varray name="rec_basis" >
    <v>       0.11195074      -0.00007112      -0.00040225 </v>
    <v>       0.00000000       0.11042893       0.00019453 </v>
    <v>       0.00000000       0.00000000       0.11189277 </v>
   </varray>
  </crystal>
  <varray name="positions" >
   <v>       0.99688001       0.99204997       0.99924002 </v>
   <v>       0.25398003       0.99714995       0.24912000 </v>
   <v>       0.24803003       0.50165000       0.24955001 </v>
   <v>       0.50501006       0.49745998       0.99834003 </v>
   <v>       0.50479003       0.24631001       0.74710002 </v>
   <v>       0.99427992       0.50449999       0.49779000 </v>
   <v>       0.49950005       0.75481999       0.74817004 </v>
   <v>       0.99437004       0.23617001       0.26379999 </v>
   <v>       0.75718000       0.74102998       0.01100000 </v>
   <v>       0.00201000       0.25541000       0.73894001 </v>
   <v>       0.75307001       0.26163001       0.50533002 </v>
   <v>       0.99514004       0.74492004       0.74511997 </v>
   <v>       0.25679999       0.49462002       0.74545002 </v>
   <v>       0.24788999       0.24839000       0.99657997 </v>
   <v>       0.50833000       0.25676999       0.25376001 </v>
   <v>       0.74879004       0.98787999       0.26967001 </v>
   <v>       0.75719000       0.25603001       0.99591997 </v>
   <v>       0.24762001       0.74973999       0.99974006 </v>
   <v>       0.25272001       0.24823001       0.50015003 </v>
   <v>       0.24457999       0.75048999       0.49983999 </v>
   <v>       0.24982001       0.24942998       0.24825000 </v>
   <v>       0.26146999       0.99984002       0.99295996 </v>
   <v>       0.00281000       0.25024000       0.00130000 </v>
   <v>       0.75313998       0.24617000       0.25492002 </v>
   <v>       0.74767001       0.99748000       0.01202000 </v>
   <v>       0.50714994       0.99977000       0.24673000 </v>
   <v>       0.99051999       0.48088002       0.24100998 </v>
   <v>       0.50519005       0.76130999       0.00855000 </v>
   <v>       0.98896989       0.00202000       0.73708999 </v>
   <v>       0.75744996       0.24437997       0.74896999 </v>
   <v>       0.73632001       0.00417000       0.51063000 </v>
   <v>       0.50563996       0.23264999       0.49544997 </v>
   <v>       0.50008998       0.00061000       0.73471998 </v>
   <v>       0.99720000       0.99771992       0.25899999 </v>
   <v>       0.50427997       0.24673000       0.00262000 </v>
   <v>       0.25133999       0.74958002       0.24910999 </v>
   <v>       0.24328000       0.50072997       0.99510994 </v>
   <v>       0.99837005       0.74313996       0.00460000 </v>
   <v>       0.75633000       0.73891003       0.25767000 </v>
   <v>       0.75839004       0.50315998       0.00288000 </v>
   <v>       0.50700002       0.50333002       0.25878999 </v>
   <v>       0.24900999       0.25315000       0.74854000 </v>
   <v>       0.24446000       0.99823996       0.50287998 </v>
   <v>       0.99804009       0.24229999       0.50128003 </v>
   <v>       0.24177002       0.75340997       0.75018002 </v>
   <v>       0.25841001       0.50062002       0.50129001 </v>
   <v>       0.99000004       0.76215003       0.49746000 </v>
   <v>       0.99203996       0.50055999       0.75138002 </v>
   <v>       0.75036005       0.74888000       0.74756004 </v>
   <v>       0.74036002       0.50197000       0.50067003 </v>
   <v>       0.50575006       0.74958002       0.49720000 </v>
   <v>       0.50501003       0.50217998       0.73912003 </v>
   <v>       0.51588997       0.01358000       0.98075008 </v>
   <v>       0.99841994       0.50976998       0.98613004 </v>
   <v>       0.50379003       0.73926997       0.25905001 </v>
   <v>       0.23780002       0.01082000       0.74607998 </v>
   <v>       0.47957999       0.98308000       0.49717999 </v>
   <v>       0.74279003       0.97869994       0.76450995 </v>
   <v>       0.99864998       0.77573999       0.26102000 </v>
   <v>       0.73551001       0.51468004       0.26666001 </v>
   <v>       0.02362000       0.99783001       0.49557002 </v>
   <v>       0.50539000       0.52833005       0.49917999 </v>
   <v>       0.73876003       0.52828003       0.73814999 </v>
   <v>       0.75400003       0.72937999       0.49116997 </v>
  </varray>
 </structure>
 <calculation>
  <scstep>
   <time name="dav">   22.23   22.31</time>
   <time name="total">   22.26   22.35</time>
   <energy>
    <i name="alphaZ">   3855.95106217 </i>
    <i name="ewald"> -38332.65224823 </i>
    <i name="hartreedc">  -7515.81662904 </i>
    <i name="XCdc">   1382.79289895 </i>
    <i name="pawpsdc">  27089.51229895 </i>
    <i name="pawaedc"> -26631.44532977 </i>
    <i name="eentropy">     -0.07599365 </i>
    <i name="bandstr">   2510.77990814 </i>
    <i name="atom">  43568.63161340 </i>
    <i name="e_fr_energy">   5927.67758094 </i>
    <i name="e_wo_entrp">   5927.75357459 </i>
    <i name="e_0_energy">   5927.71557776 </i>
   </energy>
  </scstep>
  <scstep>
   <time name="dav">   23.40   23.41</time>
   <time name="total">   23.40   23.41</time>
   <energy>
    <i name="e_fr_energy">    238.95406808 </i>
    <i name="e_wo_entrp">    239.08321041 </i>
    <i name="e_0_energy">    239.01863924 </i>
   </energy>
  </scstep>
  <scstep>
   <time name="dav">   35.61   36.73</time>
   <time name="total">   35.61   36.73</time>
   <energy>
    <i name="e_fr_energy">   -675.83066719 </i>
    <i name="e_wo_entrp">   -675.71381823 </i>
    <i name="e_0_energy">   -675.77224271 </i>
   </energy>
  </scstep>
  <scstep>
   <time name="dav">   36.02   36.04</time>
   <time name="total">   36.02   36.04</time>
   <energy>
    <i name="e_fr_energy">   -766.52260314 </i>
    <i name="e_wo_entrp">   -766.40494160 </i>
    <i name="e_0_energy">   -766.46377237 </i>
   </energy>
  </scstep>
  <scstep>
   <time name="dav">   38.98   39.06</time>
   <time name="total">   39.25   39.33</time>
   <energy>
    <i name="e_fr_energy">   -779.71688489 </i>
    <i name="e_wo_entrp">   -779.59730582 </i>
    <i name="e_0_energy">   -779.65709536 </i>
   </energy>
  </scstep>
  <scstep>
   <time name="diag">    1.82    1.82</time>
   <time name="diis">   19.80   19.81</time>
   <time name="orth">    0.44    0.44</time>
   <time name="total">   22.33   22.35</time>
   <energy>
    <i name="e_fr_energy">   -977.75869333 </i>
    <i name="e_wo_entrp">   -977.62920353 </i>
    <i name="e_0_energy">   -977.69394843 </i>
   </energy>
  </scstep>
  <scstep>
   <time name="diag">    1.80    1.80</time>
   <time name="diis">   22.48   22.58</time>
   <time name="orth">    0.44    0.44</time>
   <time name="total">   25.00   25.10</time>
   <energy>
    <i name="e_fr_energy">   -646.86525730 </i>
    <i name="e_wo_entrp">   -646.74137295 </i>
    <i name="e_0_energy">   -646.80331512 </i>
   </energy>
  </scstep>
  <scstep>
   <time name="diag">    1.77    1.81</time>
   <time name="diis">   23.55   24.32</time>
   <time name="orth">    0.44    0.45</time>
   <time name="total">   26.03   26.86</time>
   <energy>
    <i name="e_fr_energy">   -650.51409531 </i>
    <i name="e_wo_entrp">   -650.37142995 </i>
    <i name="e_0_energy">   -650.44276263 </i>
   </energy>
  </scstep>
  <scstep>
   <time name="diag">    1.81    1.81</time>
   <time name="diis">   22.50   22.52</time>
   <time name="orth">    0.44    0.44</time>
   <time name="total">   25.03   25.05</time>
   <energy>
    <i name="e_fr_energy">   -644.56508145 </i>
    <i name="e_wo_entrp">   -644.38246720 </i>
    <i name="e_0_energy">   -644.47377433 </i>
   </energy>
  </scstep>
  <scstep>
   <time name="diag">    1.79    1.82</time>
   <time name="diis">   23.43   24.09</time>
   <time name="orth">    0.44    0.44</time>
   <time name="total">   25.94   26.64</time>
   <energy>
    <i name="e_fr_energy">   -641.15872575 </i>
    <i name="e_wo_entrp">   -640.94568826 </i>
    <i name="e_0_energy">   -641.05220701 </i>
   </energy>
  </scstep>
  <scstep>
   <time name="diag">    1.78    1.82</time>
   <time name="diis">   18.96   18.97</time>
   <time name="orth">    0.45    0.45</time>
   <time name="total">   21.47   21.51</time>
   <energy>
    <i name="e_fr_energy">   -643.94030551 </i>
    <i name="e_wo_entrp">   -643.77257896 </i>
    <i name="e_0_energy">   -643.85644223 </i>
   </energy>
  </scstep>
  <scstep>
   <time name="diag">    1.88    1.89</time>
   <time name="diis">   22.51   22.53</time>
   <time name="orth">    0.44    0.44</time>
   <time name="total">   25.11   25.15</time>
   <energy>
    <i name="e_fr_energy">   -640.77796235 </i>
    <i name="e_wo_entrp">   -640.55543694 </i>
    <i name="e_0_energy">   -640.66669965 </i>
   </energy>
  </scstep>
  <scstep>
   <time name="diag">    1.78    1.81</time>
   <time name="diis">   23.99   24.74</time>
   <time name="orth">    0.44    0.44</time>
   <time name="total">   26.48   27.29</time>
   <energy>
    <i name="e_fr_energy">   -640.87689791 </i>
    <i name="e_wo_entrp">   -640.67287272 </i>
    <i name="e_0_energy">   -640.77488532 </i>
   </energy>
  </scstep>
  <scstep>
   <time name="diag">    1.78    1.80</time>
   <time name="diis">   23.33   23.35</time>
   <time name="orth">    0.44    0.44</time>
   <time name="total">   25.84   25.88</time>
   <energy>
    <i name="e_fr_energy">   -640.32373363 </i>
    <i name="e_wo_entrp">   -640.13159028 </i>
    <i name="e_0_energy">   -640.22766195 </i>
   </energy>
  </scstep>
  <scstep>
   <time name="diag">    1.82    1.82</time>
   <time name="diis">   22.18   22.70</time>
   <time name="orth">    0.43    0.44</time>
   <time name="total">   24.71   25.25</time>
   <energy>
    <i name="e_fr_energy">   -640.67084023 </i>
    <i name="e_wo_entrp">   -640.46482225 </i>
    <i name="e_0_energy">   -640.56783124 </i>
   </energy>
  </scstep>
  <scstep>
   <time name="diag">    1.84    1.84</time>
   <time name="diis">   21.97   21.98</time>
   <time name="orth">    0.44    0.44</time>
   <time name="total">   24.53   24.54</time>
   <energy>
    <i name="e_fr_energy">   -640.00164600 </i>
    <i name="e_wo_entrp">   -639.78264960 </i>
    <i name="e_0_energy">   -639.89214780 </i>
   </energy>
  </scstep>
  <scstep>
   <time name="diag">    1.77    1.81</time>
   <time name="diis">   23.74   24.04</time>
   <time name="orth">    0.44    0.44</time>
   <time name="total">   26.24   26.57</time>
   <energy>
    <i name="e_fr_energy">   -640.15226880 </i>
    <i name="e_wo_entrp">   -639.93995175 </i>
    <i name="e_0_energy">   -640.04611028 </i>
   </energy>
  </scstep>
  <scstep>
   <time name="diag">    1.77    1.81</time>
   <time name="diis">   23.29   24.01</time>
   <time name="orth">    0.44    0.44</time>
   <time name="total">   25.77   26.54</time>
   <energy>
    <i name="e_fr_energy">   -640.01135974 </i>
    <i name="e_wo_entrp">   -639.78921367 </i>
    <i name="e_0_energy">   -639.90028670 </i>
   </energy>
  </scstep>
  <scstep>
   <time name="diag">    1.84    1.89</time>
   <time name="diis">   22.91   23.63</time>
   <time name="orth">    0.43    0.44</time>
   <time name="total">   25.47   26.25</time>
   <energy>
    <i name="e_fr_energy">   -640.01930874 </i>
    <i name="e_wo_entrp">   -639.80074301 </i>
    <i name="e_0_energy">   -639.91002588 </i>
   </energy>
  </scstep>
  <scstep>
   <time name="diag">    1.80    1.83</time>
   <time name="diis">   21.73   22.16</time>
   <time name="orth">    0.44    0.44</time>
   <time name="total">   24.26   24.72</time>
   <energy>
    <i name="e_fr_energy">   -640.00415662 </i>
    <i name="e_wo_entrp">   -639.78420684 </i>
    <i name="e_0_energy">   -639.89418173 </i>
   </energy>
  </scstep>
  <scstep>
   <time name="diag">    1.81    1.81</time>
   <time name="diis">   23.69   23.77</time>
   <time name="orth">    0.44    0.44</time>
   <time name="total">   26.21   26.30</time>
   <energy>
    <i name="e_fr_energy">   -639.99908167 </i>
    <i name="e_wo_entrp">   -639.77913723 </i>
    <i name="e_0_energy">   -639.88910945 </i>
   </energy>
  </scstep>
  <scstep>
   <time name="diag">    1.81    1.81</time>
   <time name="diis">   21.71   21.72</time>
   <time name="orth">    0.44    0.44</time>
   <time name="total">   24.25   24.27</time>
   <energy>
    <i name="e_fr_energy">   -640.00068213 </i>
    <i name="e_wo_entrp">   -639.78103066 </i>
    <i name="e_0_energy">   -639.89085640 </i>
   </energy>
  </scstep>
  <scstep>
   <time name="diag">    1.82    1.84</time>
   <time name="diis">   22.56   22.59</time>
   <time name="orth">    0.44    0.44</time>
   <time name="total">   25.10   25.16</time>
   <energy>
    <i name="e_fr_energy">   -640.00199203 </i>
    <i name="e_wo_entrp">   -639.78255085 </i>
    <i name="e_0_energy">   -639.89227144 </i>
   </energy>
  </scstep>
  <scstep>
   <time name="diag">    1.81    1.81</time>
   <time name="diis">   20.99   21.05</time>
   <time name="orth">    0.44    0.44</time>
   <time name="total">   23.52   23.58</time>
   <energy>
    <i name="e_fr_energy">   -640.00271262 </i>
    <i name="e_wo_entrp">   -639.78327910 </i>
    <i name="e_0_energy">   -639.89299586 </i>
   </energy>
  </scstep>
  <scstep>
   <time name="diag">    1.80    1.80</time>
   <time name="diis">   22.02   22.08</time>
   <time name="orth">    0.44    0.44</time>
   <time name="total">   24.54   24.60</time>
   <energy>
    <i name="e_fr_energy">   -640.00308703 </i>
    <i name="e_wo_entrp">   -639.78366455 </i>
    <i name="e_0_energy">   -639.89337579 </i>
   </energy>
  </scstep>
  <scstep>
   <time name="diag">    1.80    1.80</time>
   <time name="diis">   21.20   21.34</time>
   <time name="orth">    0.44    0.44</time>
   <time name="total">   23.73   23.86</time>
   <energy>
    <i name="e_fr_energy">   -640.00344153 </i>
    <i name="e_wo_entrp">   -639.78401844 </i>
    <i name="e_0_energy">   -639.89372998 </i>
   </energy>
  </scstep>
  <scstep>
   <time name="diag">    1.79    1.79</time>
   <time name="diis">   19.71   19.76</time>
   <time name="orth">    0.44    0.44</time>
   <time name="total">   22.21   22.27</time>
   <energy>
    <i name="e_fr_energy">   -640.00357492 </i>
    <i name="e_wo_entrp">   -639.78412419 </i>
    <i name="e_0_energy">   -639.89384956 </i>
   </energy>
  </scstep>
  <scstep>
   <time name="diag">    1.82    1.83</time>
   <time name="diis">   19.68   19.70</time>
   <time name="orth">    0.44    0.44</time>
   <time name="total">   22.21   22.26</time>
   <energy>
    <i name="e_fr_energy">   -640.00369485 </i>
    <i name="e_wo_entrp">   -639.78427471 </i>
    <i name="e_0_energy">   -639.89398478 </i>
   </energy>
  </scstep>
  <scstep>
   <time name="diag">    1.80    1.80</time>
   <time name="diis">   19.26   19.27</time>
   <time name="orth">    0.44    0.44</time>
   <time name="total">   21.79   21.80</time>
   <energy>
    <i name="e_fr_energy">   -640.00375178 </i>
    <i name="e_wo_entrp">   -639.78433094 </i>
    <i name="e_0_energy">   -639.89404136 </i>
   </energy>
  </scstep>
  <scstep>
   <time name="diag">    1.81    1.81</time>
   <time name="diis">   18.65   18.71</time>
   <time name="orth">    0.45    0.45</time>
   <time name="total">   21.19   21.26</time>
   <energy>
    <i name="e_fr_energy">   -640.00379955 </i>
    <i name="e_wo_entrp">   -639.78437264 </i>
    <i name="e_0_energy">   -639.89408609 </i>
   </energy>
  </scstep>
  <scstep>
   <time name="diag">    1.80    1.80</time>
   <time name="diis">   18.21   18.23</time>
   <time name="orth">    0.45    0.45</time>
   <time name="total">   20.74   20.77</time>
   <energy>
    <i name="e_fr_energy">   -640.00382557 </i>
    <i name="e_wo_entrp">   -639.78439675 </i>
    <i name="e_0_energy">   -639.89411116 </i>
   </energy>
  </scstep>
  <scstep>
   <time name="diag">    1.82    1.83</time>
   <time name="diis">   17.54   17.57</time>
   <time name="orth">    0.44    0.44</time>
   <time name="total">   20.07   20.12</time>
   <energy>
    <i name="e_fr_energy">   -640.00384576 </i>
    <i name="e_wo_entrp">   -639.78441372 </i>
    <i name="e_0_energy">   -639.89412974 </i>
   </energy>
  </scstep>
  <scstep>
   <time name="diag">    1.79    1.83</time>
   <time name="diis">   16.35   16.43</time>
   <time name="orth">    0.44    0.44</time>
   <time name="total">   18.87   18.99</time>
   <energy>
    <i name="e_fr_energy">   -640.00385670 </i>
    <i name="e_wo_entrp">   -639.78442764 </i>
    <i name="e_0_energy">   -639.89414217 </i>
   </energy>
  </scstep>
  <scstep>
   <time name="diag">    1.80    1.80</time>
   <time name="diis">   14.96   15.02</time>
   <time name="orth">    0.44    0.44</time>
   <time name="total">   17.22   17.29</time>
   <energy>
    <i name="alphaZ">   3855.95106217 </i>
    <i name="ewald"> -38332.65224823 </i>
    <i name="hartreedc">  -7120.58800358 </i>
    <i name="XCdc">   1379.41631455 </i>
    <i name="pawpsdc">  28267.11934834 </i>
    <i name="pawaedc"> -27838.68164314 </i>
    <i name="eentropy">     -0.21943000 </i>
    <i name="bandstr">  -4418.98087817 </i>
    <i name="atom">  43568.63161340 </i>
    <i name="e_fr_energy">   -640.00386466 </i>
    <i name="e_wo_entrp">   -639.78443466 </i>
    <i name="e_0_energy">   -639.89414966 </i>
   </energy>
  </scstep>
  <structure>
   <crystal>
    <varray name="basis" >
     <v>       8.93249989       0.00000000       0.00000000 </v>
     <v>       0.00575300       9.05559834       0.00000000 </v>
     <v>       0.03210180      -0.01574346       8.93712807 </v>
    </varray>
    <i name="volume">    722.91652451 </i>
    <varray name="rec_basis" >
     <v>       0.11195074      -0.00007112      -0.00040225 </v>
     <v>       0.00000000       0.11042893       0.00019453 </v>
     <v>       0.00000000       0.00000000       0.11189277 </v>
    </varray>
   </crystal>
   <varray name="positions" >
    <v>       0.99688001       0.99204997       0.99924002 </v>
    <v>       0.25398003       0.99714995       0.24912000 </v>
    <v>       0.24803003       0.50165000       0.24955001 </v>
    <v>       0.50501006       0.49745998       0.99834003 </v>
    <v>       0.50479003       0.24631001       0.74710002 </v>
    <v>       0.99427992       0.50449999       0.49779000 </v>
    <v>       0.49950005       0.75481999       0.74817004 </v>
    <v>       0.99437004       0.23617001       0.26379999 </v>
    <v>       0.75718000       0.74102998       0.01100000 </v>
    <v>       0.00201000       0.25541000       0.73894001 </v>
    <v>       0.75307001       0.26163001       0.50533002 </v>
    <v>       0.99514004       0.74492004       0.74511997 </v>
    <v>       0.25679999       0.49462002       0.74545002 </v>
    <v>       0.24788999       0.24839000       0.99657997 </v>
    <v>       0.50833000       0.25676999       0.25376001 </v>
    <v>       0.74879004       0.98787999       0.26967001 </v>
    <v>       0.75719000       0.25603001       0.99591997 </v>
    <v>       0.24762001       0.74973999       0.99974006 </v>
    <v>       0.25272001       0.24823001       0.50015003 </v>
    <v>       0.24457999       0.75048999       0.49983999 </v>
    <v>       0.24982001       0.24942998       0.24825000 </v>
    <v>       0.26146999       0.99984002       0.99295996 </v>
    <v>       0.00281000       0.25024000       0.00130000 </v>
    <v>       0.75313998       0.24617000       0.25492002 </v>
    <v>       0.74767001       0.99748000       0.01202000 </v>
    <v>       0.50714994       0.99977000       0.24673000 </v>
    <v>       0.99051999       0.48088002       0.24100998 </v>
    <v>       0.50519005       0.76130999       0.00855000 </v>
    <v>       0.98896989       0.00202000       0.73708999 </v>
    <v>       0.75744996       0.24437997       0.74896999 </v>
    <v>       0.73632001       0.00417000       0.51063000 </v>
    <v>       0.50563996       0.23264999       0.49544997 </v>
    <v>       0.50008998       0.00061000       0.73471998 </v>
    <v>       0.99720000       0.99771992       0.25899999 </v>
    <v>       0.50427997       0.24673000       0.00262000 </v>
    <v>       0.25133999       0.74958002       0.24910999 </v>
    <v>       0.24328000       0.50072997       0.99510994 </v>
    <v>       0.99837005       0.74313996       0.00460000 </v>
    <v>       0.75633000       0.73891003       0.25767000 </v>
    <v>       0.75839004       0.50315998       0.00288000 </v>
    <v>       0.50700002       0.50333002       0.25878999 </v>
    <v>       0.24900999       0.25315000       0.74854000 </v>
    <v>       0.24446000       0.99823996       0.50287998 </v>
    <v>       0.99804009       0.24229999       0.50128003 </v>
    <v>       0.24177002       0.75340997       0.75018002 </v>
    <v>       0.25841001       0.50062002       0.50129001 </v>
    <v>       0.99000004       0.76215003       0.49746000 </v>
    <v>       0.99203996       0.50055999       0.75138002 </v>
    <v>       0.75036005       0.74888000       0.74756004 </v>
    <v>       0.74036002       0.50197000       0.50067003 </v>
    <v>       0.50575006       0.74958002       0.49720000 </v>
    <v>       0.50501003       0.50217998       0.73912003 </v>
    <v>       0.51588997       0.01358000       0.98075008 </v>
    <v>       0.99841994       0.50976998       0.98613004 </v>
    <v>       0.50379003       0.73926997       0.25905001 </v>
    <v>       0.23780002       0.01082000       0.74607998 </v>
    <v>       0.47957999       0.98308000       0.49717999 </v>
    <v>       0.74279003       0.97869994       0.76450995 </v>
    <v>       0.99864998       0.77573999       0.26102000 </v>
    <v>       0.73551001       0.51468004       0.26666001 </v>
    <v>       0.02362000       0.99783001       0.49557002 </v>
    <v>       0.50539000       0.52833005       0.49917999 </v>
    <v>       0.73876003       0.52828003       0.73814999 </v>
    <v>       0.75400003       0.72937999       0.49116997 </v>
   </varray>
  </structure>
  <varray name="forces" >
   <v>       0.07898868      -0.38270585      -0.34270192 </v>
   <v>       0.04740573      -0.90242876      -0.20916031 </v>
   <v>       0.51815615       0.86657853      -0.42337691 </v>
   <v>      -0.16862094      -0.45205706      -0.10407891 </v>
   <v>      -0.53880128      -0.76541603       0.66137300 </v>
   <v>       0.21090104      -0.46719409       0.66225083 </v>
   <v>      -0.03303540       0.96891069      -0.02221923 </v>
   <v>       0.45438052       0.20596658      -0.53098570 </v>
   <v>      -0.58820867       0.65044521      -0.26345728 </v>
   <v>       0.30021192      -0.41232908       0.33234335 </v>
   <v>      -0.53498615      -0.80433493       0.52453267 </v>
   <v>       0.51343018       0.50371495       0.49162264 </v>
   <v>      -0.27769942       0.51447176       0.72204491 </v>
   <v>       0.43599307      -0.29425411       0.08620869 </v>
   <v>      -0.52390917      -1.05852190      -0.31218519 </v>
   <v>      -1.33533205       0.38471685      -0.29312638 </v>
   <v>      -0.43274749      -0.43695096      -0.42402462 </v>
   <v>       0.80833324       0.44656824       0.09598672 </v>
   <v>       0.63420144       0.03300660      -0.09970498 </v>
   <v>       0.73926009      -0.05657743      -0.17417450 </v>
   <v>      -0.38257992       0.08379225       0.11268129 </v>
   <v>      -0.40398773       0.05556433       0.17239247 </v>
   <v>      -0.09524153      -0.40277802       0.11903041 </v>
   <v>       0.63273160       0.13021317       0.39148443 </v>
   <v>       0.04959813      -0.61327363      -1.22210823 </v>
   <v>      -1.42786168      -0.35913414       0.28987389 </v>
   <v>       0.81743186      -0.21060711       0.62360888 </v>
   <v>       0.54011029      -0.39726922      -0.49157423 </v>
   <v>      -0.16117018       0.05640910       1.15331988 </v>
   <v>      -0.37388103      -0.14754403      -0.55025070 </v>
   <v>       0.03320210       0.24761155       0.39346357 </v>
   <v>       0.40264441      -0.10810403       1.01662672 </v>
   <v>       0.56132090      -0.04555743       0.57222927 </v>
   <v>       0.95510063       0.91370060      -1.31089895 </v>
   <v>      -0.03832614       0.23259281      -1.06671094 </v>
   <v>       0.38692038      -0.15275931       0.12952862 </v>
   <v>       0.37396295      -0.15694198       0.35600543 </v>
   <v>      -0.50461146       0.03621257      -0.24300997 </v>
   <v>      -0.80037739       0.31128091      -1.04429564 </v>
   <v>      -0.14437413       0.44926163       0.03414926 </v>
   <v>      -1.60889705       1.11607937      -1.08721008 </v>
   <v>       0.28892876      -0.54273573      -0.00644074 </v>
   <v>       1.88577418      -0.05932253       0.48133000 </v>
   <v>      -0.36181892       0.90989127      -0.09991668 </v>
   <v>       0.54366513      -0.01256138       0.00178321 </v>
   <v>      -0.84001669      -0.05965171      -0.53222944 </v>
   <v>       0.35250096      -1.00759632       0.80058868 </v>
   <v>       0.44638184       0.03630544      -0.02043581 </v>
   <v>      -0.47347704       1.77996061       0.47554053 </v>
   <v>       1.32459459      -0.97821466       0.36273382 </v>
   <v>      -0.25118011       1.54059333      -0.32033109 </v>
   <v>      -0.77313299      -0.33180873       1.08751061 </v>
   <v>       0.30464261       0.63867028      -0.70120631 </v>
   <v>       0.10548323       0.96251993      -0.81800446 </v>
   <v>       0.15811541      -0.70635076       0.07973769 </v>
   <v>      -0.19917353       0.06100796       0.28791895 </v>
   <v>      -0.42004297      -0.14249288       0.22717406 </v>
   <v>      -0.66520900      -0.81828358       0.38324473 </v>
   <v>       0.54805093      -0.13075651      -0.88953795 </v>
   <v>      -0.03307018      -0.41575809      -1.39450356 </v>
   <v>      -0.60265492       0.48463171       0.36174225 </v>
   <v>      -0.82615831      -0.51796554      -0.28153086 </v>
   <v>       0.23110357      -1.16182799       1.30200500 </v>
   <v>       0.13705696       0.89138726       0.48732511 </v>
  </varray>
  <varray name="stress" >
   <v>     -74.21816415       0.23235619      -1.77085083 </v>
   <v>       0.23235511     -95.06318203       1.50514373 </v>
   <v>      -1.77085018       1.50514271     -70.17588201 </v>
  </varray>
  <energy>
   <i name="e_fr_energy">   -640.00386466 </i>
   <i name="e_wo_entrp">   -639.89414966 </i>
   <i name="e_0_energy">     -0.21943000 </i>
  </energy>
  <time name="totalsc">  888.29  896.09</time>
 </calculation>
 <calculation>
  <scstep>
   <time name="dav">   29.49   29.58</time>
   <time name="total">   29.78   29.86</time>
   <energy>
    <i name="alphaZ">   4187.94298702 </i>
    <i name="ewald"> -39189.23435276 </i>
    <i name="hartreedc">  -7529.70211570 </i>
    <i name="XCdc">   1430.29005440 </i>
    <i name="pawpsdc">  28267.15593109 </i>
    <i name="pawaedc"> -27838.70146509 </i>
    <i name="eentropy">     -0.13251059 </i>
    <i name="bandstr">  -3555.27394598 </i>
    <i name="atom">  43568.63161340 </i>
    <i name="e_fr_energy">   -659.02380421 </i>
    <i name="e_wo_entrp">   -658.89129362 </i>
    <i name="e_0_energy">   -658.95754891 </i>
   </energy>
  </scstep>
  <scstep>
   <time name="diag">    1.79    1.79</time>
   <time name="diis">   16.97   17.00</time>
   <time name="orth">    0.44    0.44</time>
   <time name="total">   19.48   19.51</time>
   <energy>
    <i name="e_fr_energy">   -826.91542775 </i>
    <i name="e_wo_entrp">   -826.83142002 </i>
    <i name="e_0_energy">   -826.87342389 </i>
   </energy>
  </scstep>
  <scstep>
   <time name="diag">    1.80    1.80</time>
   <time name="diis">   18.83   18.93</time>
   <time name="orth">    0.44    0.44</time>
   <time name="total">   21.35   21.45</time>
   <energy>
    <i name="e_fr_energy">   -645.45510092 </i>
    <i name="e_wo_entrp">   -645.31666806 </i>
    <i name="e_0_energy">   -645.38588449 </i>
   </energy>
  </scstep>
  <scstep>
   <time name="diag">    1.80    1.80</time>
   <time name="diis">   21.39   21.43</time>
   <time name="orth">    0.44    0.44</time>
   <time name="total">   23.91   23.95</time>
   <energy>
    <i name="e_fr_energy">   -648.32036638 </i>
    <i name="e_wo_entrp">   -648.18104260 </i>
    <i name="e_0_energy">   -648.25070449 </i>
   </energy>
  </scstep>
  <scstep>
   <time name="diag">    1.80    1.80</time>
   <time name="diis">   18.84   18.88</time>
   <time name="orth">    0.45    0.45</time>
   <time name="total">   21.38   21.42</time>
   <energy>
    <i name="e_fr_energy">   -642.20247000 </i>
    <i name="e_wo_entrp">   -642.03067087 </i>
    <i name="e_0_energy">   -642.11657044 </i>
   </energy>
  </scstep>
  <scstep>
   <time name="diag">    1.79    1.79</time>
   <time name="diis">   20.05   20.13</time>
   <time name="orth">    0.44    0.44</time>
   <time name="total">   22.56   22.65</time>
   <energy>
    <i name="e_fr_energy">   -644.21425526 </i>
    <i name="e_wo_entrp">   -644.03859994 </i>
    <i name="e_0_energy">   -644.12642760 </i>
   </energy>
  </scstep>
  <scstep>
   <time name="diag">    1.81    1.81</time>
   <time name="diis">   19.57   19.63</time>
   <time name="orth">    0.44    0.44</time>
   <time name="total">   22.09   22.16</time>
   <energy>
    <i name="e_fr_energy">   -641.75509063 </i>
    <i name="e_wo_entrp">   -641.59023760 </i>
    <i name="e_0_energy">   -641.67266412 </i>
   </energy>
  </scstep>
  <scstep>
   <time name="diag">    1.80    1.80</time>
   <time name="diis">   20.17   20.23</time>
   <time name="orth">    0.44    0.44</time>
   <time name="total">   22.69   22.75</time>
   <energy>
    <i name="e_fr_energy">   -642.11419110 </i>
    <i name="e_wo_entrp">   -641.95874414 </i>
    <i name="e_0_energy">   -642.03646762 </i>
   </energy>
  </scstep>
  <scstep>
   <time name="diag">    1.80    1.80</time>
   <time name="diis">   20.57   20.61</time>
   <time name="orth">    0.44    0.44</time>
   <time name="total">   23.08   23.13</time>
   <energy>
    <i name="e_fr_energy">   -641.24061799 </i>
    <i name="e_wo_entrp">   -641.07068145 </i>
    <i name="e_0_energy">   -641.15564972 </i>
   </energy>
  </scstep>
  <scstep>
   <time name="diag">    1.79    1.79</time>
   <time name="diis">   24.35   24.44</time>
   <time name="orth">    0.44    0.44</time>
   <time name="total">   26.86   26.94</time>
   <energy>
    <i name="e_fr_energy">   -641.31677398 </i>
    <i name="e_wo_entrp">   -641.14530469 </i>
    <i name="e_0_energy">   -641.23103934 </i>
   </energy>
  </scstep>
  <scstep>
   <time name="diag">    1.80    1.80</time>
   <time name="diis">   23.17   23.25</time>
   <time name="orth">    0.44    0.44</time>
   <time name="total">   25.69   25.77</time>
   <energy>
    <i name="e_fr_energy">   -641.22721218 </i>
    <i name="e_wo_entrp">   -641.05593077 </i>
    <i name="e_0_energy">   -641.14157148 </i>
   </energy>
  </scstep>
  <scstep>
   <time name="diag">    1.79    1.79</time>
   <time name="diis">   24.25   24.33</time>
   <time name="orth">    0.44    0.44</time>
   <time name="total">   26.75   26.84</time>
   <energy>
    <i name="e_fr_energy">   -641.25198894 </i>
    <i name="e_wo_entrp">   -641.07982936 </i>
    <i name="e_0_energy">   -641.16590915 </i>
   </energy>
  </scstep>
  <scstep>
   <time name="diag">    1.79    1.79</time>
   <time name="diis">   23.55   23.57</time>
   <time name="orth">    0.46    0.46</time>
   <time name="total">   26.07   26.10</time>
   <energy>
    <i name="e_fr_energy">   -641.26773748 </i>
    <i name="e_wo_entrp">   -641.09549493 </i>
    <i name="e_0_energy">   -641.18161620 </i>
   </energy>
  </scstep>
  <scstep>
   <time name="diag">    1.80    1.80</time>
   <time name="diis">   24.26   24.36</time>
   <time name="orth">    0.44    0.44</time>
   <time name="total">   26.77   26.88</time>
   <energy>
    <i name="e_fr_energy">   -641.26673916 </i>
    <i name="e_wo_entrp">   -641.09406739 </i>
    <i name="e_0_energy">   -641.18040327 </i>
   </energy>
  </scstep>
  <scstep>
   <time name="diag">    1.80    1.80</time>
   <time name="diis">   24.07   24.12</time>
   <time name="orth">    0.44    0.44</time>
   <time name="total">   26.59   26.65</time>
   <energy>
    <i name="e_fr_energy">   -641.27259501 </i>
    <i name="e_wo_entrp">   -641.10026082 </i>
    <i name="e_0_energy">   -641.18642791 </i>
   </energy>
  </scstep>
  <scstep>
   <time name="diag">    1.80    1.80</time>
   <time name="diis">   24.92   25.03</time>
   <time name="orth">    0.44    0.44</time>
   <time name="total">   27.44   27.56</time>
   <energy>
    <i name="e_fr_energy">   -641.27562612 </i>
    <i name="e_wo_entrp">   -641.10300932 </i>
    <i name="e_0_energy">   -641.18931772 </i>
   </energy>
  </scstep>
  <scstep>
   <time name="diag">    1.79    1.79</time>
   <time name="diis">   24.32   24.35</time>
   <time name="orth">    0.44    0.44</time>
   <time name="total">   26.83   26.87</time>
   <energy>
    <i name="e_fr_energy">   -641.27731041 </i>
    <i name="e_wo_entrp">   -641.10472459 </i>
    <i name="e_0_energy">   -641.19101750 </i>
   </energy>
  </scstep>
  <scstep>
   <time name="diag">    1.79    1.79</time>
   <time name="diis">   24.22   24.36</time>
   <time name="orth">    0.44    0.44</time>
   <time name="total">   26.73   26.87</time>
   <energy>
    <i name="e_fr_energy">   -641.27851879 </i>
    <i name="e_wo_entrp">   -641.10595155 </i>
    <i name="e_0_energy">   -641.19223517 </i>
   </energy>
  </scstep>
  <scstep>
   <time name="diag">    1.79    1.79</time>
   <time name="diis">   23.53   23.60</time>
   <time name="orth">    0.45    0.47</time>
   <time name="total">   26.08   26.17</time>
   <energy>
    <i name="e_fr_energy">   -641.27901586 </i>
    <i name="e_wo_entrp">   -641.10644159 </i>
    <i name="e_0_energy">   -641.19272873 </i>
   </energy>
  </scstep>
  <scstep>
   <time name="diag">    1.79    1.80</time>
   <time name="diis">   22.93   22.99</time>
   <time name="orth">    0.44    0.44</time>
   <time name="total">   25.44   25.51</time>
   <energy>
    <i name="e_fr_energy">   -641.27943840 </i>
    <i name="e_wo_entrp">   -641.10687038 </i>
    <i name="e_0_energy">   -641.19315439 </i>
   </energy>
  </scstep>
  <scstep>
   <time name="diag">    1.80    1.80</time>
   <time name="diis">   22.05   22.08</time>
   <time name="orth">    0.44    0.44</time>
   <time name="total">   24.57   24.60</time>
   <energy>
    <i name="e_fr_energy">   -641.27959783 </i>
    <i name="e_wo_entrp">   -641.10701179 </i>
    <i name="e_0_energy">   -641.19330481 </i>
   </energy>
  </scstep>
  <scstep>
   <time name="diag">    1.82    1.82</time>
   <time name="diis">   20.99   21.03</time>
   <time name="orth">    0.44    0.44</time>
   <time name="total">   23.52   23.58</time>
   <energy>
    <i name="e_fr_energy">   -641.27975291 </i>
    <i name="e_wo_entrp">   -641.10716654 </i>
    <i name="e_0_energy">   -641.19345973 </i>
   </energy>
  </scstep>
  <scstep>
   <time name="diag">    1.83    1.84</time>
   <time name="diis">   20.45   20.56</time>
   <time name="orth">    0.44    0.44</time>
   <time name="total">   22.99   23.11</time>
   <energy>
    <i name="e_fr_energy">   -641.27982046 </i>
    <i name="e_wo_entrp">   -641.10723263 </i>
    <i name="e_0_energy">   -641.19352654 </i>
   </energy>
  </scstep>
  <scstep>
   <time name="diag">    1.80    1.80</time>
   <time name="diis">   19.94   19.98</time>
   <time name="orth">    0.44    0.44</time>
   <time name="total">   22.45   22.50</time>
   <energy>
    <i name="e_fr_energy">   -641.27988401 </i>
    <i name="e_wo_entrp">   -641.10729650 </i>
    <i name="e_0_energy">   -641.19359026 </i>
   </energy>
  </scstep>
  <scstep>
   <time name="diag">    1.80    1.81</time>
   <time name="diis">   19.73   19.80</time>
   <time name="orth">    0.44    0.44</time>
   <time name="total">   22.25   22.33</time>
   <energy>
    <i name="e_fr_energy">   -641.27991090 </i>
    <i name="e_wo_entrp">   -641.10732285 </i>
    <i name="e_0_energy">   -641.19361688 </i>
   </energy>
  </scstep>
  <scstep>
   <time name="diag">    1.90    1.92</time>
   <time name="diis">   18.64   18.73</time>
   <time name="orth">    0.43    0.43</time>
   <time name="total">   21.26   21.37</time>
   <energy>
    <i name="e_fr_energy">   -641.27993451 </i>
    <i name="e_wo_entrp">   -641.10734403 </i>
    <i name="e_0_energy">   -641.19363927 </i>
   </energy>
  </scstep>
  <scstep>
   <time name="diag">    1.80    1.82</time>
   <time name="diis">   18.36   18.40</time>
   <time name="orth">    0.44    0.44</time>
   <time name="total">   20.89   20.95</time>
   <energy>
    <i name="e_fr_energy">   -641.27994574 </i>
    <i name="e_wo_entrp">   -641.10735601 </i>
    <i name="e_0_energy">   -641.19365087 </i>
   </energy>
  </scstep>
  <scstep>
   <time name="diag">    1.79    1.79</time>
   <time name="diis">   16.23   16.27</time>
   <time name="orth">    0.46    0.47</time>
   <time name="total">   18.52   18.56</time>
   <energy>
    <i name="alphaZ">   4187.94298702 </i>
    <i name="ewald"> -39189.23435276 </i>
    <i name="hartreedc">  -7019.24849324 </i>
    <i name="XCdc">   1401.69134615 </i>
    <i name="pawpsdc">  29109.17408428 </i>
    <i name="pawaedc"> -28675.42650029 </i>
    <i name="eentropy">     -0.17258988 </i>
    <i name="bandstr">  -4024.63804910 </i>
    <i name="atom">  43568.63161340 </i>
    <i name="e_fr_energy">   -641.27995443 </i>
    <i name="e_wo_entrp">   -641.10736454 </i>
    <i name="e_0_energy">   -641.19365948 </i>
   </energy>
  </scstep>
  <structure>
   <crystal>
    <varray name="basis" >
     <v>       8.70701781       0.00070592      -0.00538002 </v>
     <v>       0.00632342       8.76280741       0.00463233 </v>
     <v>       0.02590741      -0.01065676       8.72378899 </v>
    </varray>
    <i name="volume">    665.60856945 </i>
    <varray name="rec_basis" >
     <v>       0.11484968      -0.00008270      -0.00034118 </v>
     <v>      -0.00000917       0.11411861       0.00013943 </v>
     <v>       0.00007083      -0.00006065       0.11462881 </v>
    </varray>
   </crystal>
   <varray name="positions" >
    <v>       0.99731458       0.99000793       0.99739011 </v>
    <v>       0.25424321       0.99234041       0.24799095 </v>
    <v>       0.25083373       0.50626263       0.24726462 </v>
    <v>       0.50410295       0.49505072       0.99777821 </v>
    <v>       0.50186987       0.24223855       0.75067011 </v>
    <v>       0.99540771       0.50201728       0.50136483 </v>
    <v>       0.49931874       0.75998154       0.74805010 </v>
    <v>       0.99683365       0.23726229       0.26093372 </v>
    <v>       0.75400608       0.74449267       0.00957786 </v>
    <v>       0.00362635       0.25321648       0.74073400 </v>
    <v>       0.75017324       0.25734993       0.50816145 </v>
    <v>       0.99790171       0.74760813       0.74777375 </v>
    <v>       0.25528442       0.49736759       0.74934762 </v>
    <v>       0.25024404       0.24682320       0.99704532 </v>
    <v>       0.50551016       0.25112791       0.25207483 </v>
    <v>       0.74158254       0.98992678       0.26808771 </v>
    <v>       0.75486254       0.25369822       0.99363108 </v>
    <v>       0.25198226       0.75211994       0.00025819 </v>
    <v>       0.25614702       0.24840491       0.49961183 </v>
    <v>       0.24857616       0.75018694       0.49889979 </v>
    <v>       0.24775130       0.24987743       0.24885825 </v>
    <v>       0.25928460       0.00013765       0.99389054 </v>
    <v>       0.00229469       0.24809537       0.00194253 </v>
    <v>       0.75654919       0.24686736       0.25703325 </v>
    <v>       0.74796370       0.99420138       0.00542305 </v>
    <v>       0.49943395       0.99785947       0.24829474 </v>
    <v>       0.99492340       0.47976389       0.24437623 </v>
    <v>       0.50811798       0.75918897       0.00589648 </v>
    <v>       0.98807686       0.00233134       0.74331562 </v>
    <v>       0.75544189       0.24358879       0.74599973 </v>
    <v>       0.73649084       0.00549281       0.51275392 </v>
    <v>       0.50779520       0.23208361       0.50093773 </v>
    <v>       0.50311061       0.00037267       0.73780888 </v>
    <v>       0.00238061       0.00257525       0.25192375 </v>
    <v>       0.50409288       0.24795910      -0.00313811 </v>
    <v>       0.25342768       0.74876742       0.24980919 </v>
    <v>       0.24529333       0.49989722       0.99703166 </v>
    <v>       0.99564933       0.74333060       0.00328823 </v>
    <v>       0.75202652       0.74055854       0.25203288 </v>
    <v>       0.75760810       0.50555369       0.00306434 </v>
    <v>       0.49832795       0.50926560       0.25292122 </v>
    <v>       0.25057242       0.25025858       0.74850524 </v>
    <v>       0.25463556       0.99792844       0.50547820 </v>
    <v>       0.99608479       0.24714640       0.50074068 </v>
    <v>       0.24470625       0.75334307       0.75018964 </v>
    <v>       0.25388378       0.50029723       0.49841703 </v>
    <v>       0.99189174       0.75678969       0.50178158 </v>
    <v>       0.99445105       0.50075321       0.75126970 </v>
    <v>       0.74778756       0.75836700       0.75012701 </v>
    <v>       0.74751020       0.49676208       0.50262807 </v>
    <v>       0.50439441       0.75778435       0.49547085 </v>
    <v>       0.50081453       0.50042252       0.74499042 </v>
    <v>       0.51754670       0.01697586       0.97696496 </v>
    <v>       0.99900221       0.51489002       0.98171445 </v>
    <v>       0.50464486       0.73550771       0.25948044 </v>
    <v>       0.23671853       0.01114771       0.74763417 </v>
    <v>       0.47730751       0.98232302       0.49840628 </v>
    <v>       0.73919274       0.97434422       0.76657871 </v>
    <v>       0.00162760       0.77503505       0.25621827 </v>
    <v>       0.73535989       0.51245205       0.25913247 </v>
    <v>       0.02035650       0.00041522       0.49752270 </v>
    <v>       0.50093532       0.52556801       0.49766029 </v>
    <v>       0.73998690       0.52210274       0.74517822 </v>
    <v>       0.75472774       0.73413332       0.49380055 </v>
   </varray>
  </structure>
  <varray name="forces" >
   <v>       0.36213209       0.03573453      -0.44804450 </v>
   <v>      -0.01830362      -0.19571475       0.19560910 </v>
   <v>       0.00417529       0.28238895      -0.31193044 </v>
   <v>      -0.13407145      -0.11706392      -0.05157511 </v>
   <v>      -0.47507635      -0.43494638       0.14274022 </v>
   <v>       0.59789918      -0.25216454       0.35628323 </v>
   <v>      -0.04261350       0.31334980      -0.27439345 </v>
   <v>       0.55097763       0.64774157      -0.65911469 </v>
   <v>      -0.65855769       0.64472176      -0.41948472 </v>
   <v>       0.41650010      -0.69960813       0.69477103 </v>
   <v>      -0.28507411      -0.79827207       0.12858820 </v>
   <v>       0.10620229       0.48123149       0.53962304 </v>
   <v>      -0.52222740       0.21417639       0.22267322 </v>
   <v>      -0.11250799      -0.19131673       0.19869851 </v>
   <v>      -0.36471848       0.00961114      -0.21039962 </v>
   <v>       0.14740305       0.15380144      -0.54160817 </v>
   <v>       0.04626195      -0.33626069      -0.03268217 </v>
   <v>       0.44236392       0.21901390       0.01205317 </v>
   <v>       0.04196416       0.04147123      -0.02268135 </v>
   <v>      -0.15442058       0.08542328       0.13183324 </v>
   <v>      -0.08692952       0.02862423      -0.00528701 </v>
   <v>      -0.05856821      -0.02248863      -0.03224977 </v>
   <v>      -0.05880019      -0.00063988       0.09034971 </v>
   <v>      -0.21410117       0.12485625      -0.08537146 </v>
   <v>      -0.23322577      -0.09840368      -0.80119623 </v>
   <v>      -0.68963610      -0.45502247      -0.05159732 </v>
   <v>       0.36732806       0.67036877       0.28037259 </v>
   <v>       0.04640374       0.01002688      -0.37284493 </v>
   <v>      -0.08854467       0.03045866       0.54677173 </v>
   <v>      -0.26663204       0.10326834       0.01877161 </v>
   <v>       0.43708409      -0.18801573       0.49894286 </v>
   <v>       0.10341355       0.30694693       0.25171659 </v>
   <v>       0.36415334      -0.03309882       0.60443655 </v>
   <v>      -0.26423103      -0.15911052      -0.48210667 </v>
   <v>      -0.11118223      -0.01646100       0.00352437 </v>
   <v>       0.55898011      -0.04279535      -0.13152467 </v>
   <v>      -0.08098286       0.04069249       0.25040695 </v>
   <v>       0.51076559      -0.15963472       0.06780264 </v>
   <v>      -0.49569388       0.34474704       0.05927584 </v>
   <v>       0.27079005      -0.33744134       0.15280075 </v>
   <v>      -0.46479514       0.15726103      -0.45521898 </v>
   <v>       0.18038369      -0.43205511       0.05970387 </v>
   <v>       0.47968567       0.11730501       0.60776744 </v>
   <v>       0.27199397       0.44286597      -0.06787071 </v>
   <v>       0.44708299       0.39841842       0.03910349 </v>
   <v>      -0.39244541      -0.06811598      -0.07663156 </v>
   <v>       0.41014879      -0.35588561      -0.07246295 </v>
   <v>       0.33433712       0.02677607       0.24557909 </v>
   <v>       0.06495311       0.09916422      -0.17965285 </v>
   <v>       0.00463032       0.15204729      -0.16842349 </v>
   <v>       0.24384273       0.76030337      -0.44264136 </v>
   <v>      -0.11495175      -0.03993599       0.21940950 </v>
   <v>       0.07424793       0.15670983      -0.51248621 </v>
   <v>       0.01988064       0.50913446      -0.66978585 </v>
   <v>      -0.09533031      -0.27128669       0.15543630 </v>
   <v>      -0.42137185      -0.35379126       0.16315332 </v>
   <v>       0.24040232       0.33025847       0.07600791 </v>
   <v>      -0.70413045       0.36151625       0.50479797 </v>
   <v>       0.04099241      -0.85887618      -0.56451656 </v>
   <v>      -0.36451000      -0.76677265      -0.99849176 </v>
   <v>      -0.26397844       0.47157827       0.11630476 </v>
   <v>       0.07835858      -0.94132687      -0.28345443 </v>
   <v>       0.33246283      -0.45431683       1.38133156 </v>
   <v>      -0.36058911       0.30882879       0.40908862 </v>
  </varray>
  <varray name="stress" >
   <v>     169.38441530       0.04938167       0.66274184 </v>
   <v>       0.04938299     173.99707501      -0.02901707 </v>
   <v>       0.66274317      -0.02901846     162.46221892 </v>
  </varray>
  <energy>
   <i name="e_fr_energy">   -641.27995443 </i>
   <i name="e_wo_entrp">   -641.19365948 </i>
   <i name="e_0_energy">     -0.17258988 </i>
  </energy>
  <time name="totalsc">  719.99  722.09</time>
 </calculation>
 <calculation>
  <scstep>
   <time name="dav">   29.08   29.20</time>
   <time name="total">   29.38   29.49</time>
   <energy>
    <i name="alphaZ">   4059.35545623 </i>
    <i name="ewald"> -38874.64901693 </i>
    <i name="hartreedc">  -6857.25160238 </i>
    <i name="XCdc">   1382.54022078 </i>
    <i name="pawpsdc">  29109.15943595 </i>
    <i name="pawaedc"> -28675.41903927 </i>
    <i name="eentropy">     -0.18523155 </i>
    <i name="bandstr">  -4357.38548796 </i>
    <i name="atom">  43568.63161340 </i>
    <i name="e_fr_energy">   -645.20365174 </i>
    <i name="e_wo_entrp">   -645.01842019 </i>
    <i name="e_0_energy">   -645.11103596 </i>
   </energy>
  </scstep>
  <scstep>
   <time name="diag">    1.79    1.79</time>
   <time name="diis">   20.88   20.91</time>
   <time name="orth">    0.44    0.44</time>
   <time name="total">   23.40   23.43</time>
   <energy>
    <i name="e_fr_energy">   -714.02299639 </i>
    <i name="e_wo_entrp">   -713.89233894 </i>
    <i name="e_0_energy">   -713.95766766 </i>
   </energy>
  </scstep>
  <scstep>
   <time name="diag">    1.81    1.81</time>
   <time name="diis">   18.55   18.57</time>
   <time name="orth">    0.43    0.43</time>
   <time name="total">   21.08   21.10</time>
   <energy>
    <i name="e_fr_energy">   -645.26009521 </i>
    <i name="e_wo_entrp">   -645.10124001 </i>
    <i name="e_0_energy">   -645.18066761 </i>
   </energy>
  </scstep>
  <scstep>
   <time name="diag">    1.79    1.79</time>
   <time name="diis">   21.57   21.61</time>
   <time name="orth">    0.44    0.44</time>
   <time name="total">   24.09   24.12</time>
   <energy>
    <i name="e_fr_energy">   -643.69483405 </i>
    <i name="e_wo_entrp">   -643.50799999 </i>
    <i name="e_0_energy">   -643.60141702 </i>
   </energy>
  </scstep>
  <scstep>
   <time name="diag">    1.80    1.80</time>
   <time name="diis">   17.62   17.66</time>
   <time name="orth">    0.44    0.44</time>
   <time name="total">   20.14   20.18</time>
   <energy>
    <i name="e_fr_energy">   -642.99171507 </i>
    <i name="e_wo_entrp">   -642.82137050 </i>
    <i name="e_0_energy">   -642.90654278 </i>
   </energy>
  </scstep>
  <scstep>
   <time name="diag">    1.79    1.80</time>
   <time name="diis">   19.89   19.93</time>
   <time name="orth">    0.45    0.45</time>
   <time name="total">   22.40   22.46</time>
   <energy>
    <i name="e_fr_energy">   -643.11613281 </i>
    <i name="e_wo_entrp">   -642.92394630 </i>
    <i name="e_0_energy">   -643.02003955 </i>
   </energy>
  </scstep>
  <scstep>
   <time name="diag">    1.81    1.82</time>
   <time name="diis">   20.17   20.24</time>
   <time name="orth">    0.44    0.44</time>
   <time name="total">   22.70   22.77</time>
   <energy>
    <i name="e_fr_energy">   -642.27212524 </i>
    <i name="e_wo_entrp">   -642.08091070 </i>
    <i name="e_0_energy">   -642.17651797 </i>
   </energy>
  </scstep>
  <scstep>
   <time name="diag">    1.80    1.80</time>
   <time name="diis">   20.18   20.19</time>
   <time name="orth">    0.45    0.47</time>
   <time name="total">   22.71   22.74</time>
   <energy>
    <i name="e_fr_energy">   -642.33760853 </i>
    <i name="e_wo_entrp">   -642.15184045 </i>
    <i name="e_0_energy">   -642.24472449 </i>
   </energy>
  </scstep>
  <scstep>
   <time name="diag">    1.80    1.80</time>
   <time name="diis">   20.37   20.40</time>
   <time name="orth">    0.44    0.44</time>
   <time name="total">   22.90   22.94</time>
   <energy>
    <i name="e_fr_energy">   -642.16076465 </i>
    <i name="e_wo_entrp">   -641.97414738 </i>
    <i name="e_0_energy">   -642.06745601 </i>
   </energy>
  </scstep>
  <scstep>
   <time name="diag">    1.80    1.80</time>
   <time name="diis">   22.56   22.62</time>
   <time name="orth">    0.45    0.45</time>
   <time name="total">   25.09   25.14</time>
   <energy>
    <i name="e_fr_energy">   -642.15604786 </i>
    <i name="e_wo_entrp">   -641.97062227 </i>
    <i name="e_0_energy">   -642.06333506 </i>
   </energy>
  </scstep>
  <scstep>
   <time name="diag">    1.80    1.80</time>
   <time name="diis">   21.49   21.53</time>
   <time name="orth">    0.48    0.49</time>
   <time name="total">   24.05   24.10</time>
   <energy>
    <i name="e_fr_energy">   -642.10210625 </i>
    <i name="e_wo_entrp">   -641.91199942 </i>
    <i name="e_0_energy">   -642.00705283 </i>
   </energy>
  </scstep>
  <scstep>
   <time name="diag">    1.79    1.80</time>
   <time name="diis">   23.93   23.97</time>
   <time name="orth">    0.44    0.44</time>
   <time name="total">   26.45   26.50</time>
   <energy>
    <i name="e_fr_energy">   -642.10573719 </i>
    <i name="e_wo_entrp">   -641.91579550 </i>
    <i name="e_0_energy">   -642.01076635 </i>
   </energy>
  </scstep>
  <scstep>
   <time name="diag">    1.80    1.81</time>
   <time name="diis">   23.31   23.33</time>
   <time name="orth">    0.44    0.44</time>
   <time name="total">   25.83   25.86</time>
   <energy>
    <i name="e_fr_energy">   -642.09885553 </i>
    <i name="e_wo_entrp">   -641.90807245 </i>
    <i name="e_0_energy">   -642.00346399 </i>
   </energy>
  </scstep>
  <scstep>
   <time name="diag">    1.80    1.80</time>
   <time name="diis">   24.29   24.33</time>
   <time name="orth">    0.44    0.44</time>
[...]
      </set>
     </set>
    </set>
   </array>
  </eigenvalues>
  <separator name="orbital magnetization" >
   <v name="MAGDIPOLOUT">      0.00000000      0.00000000      0.00000000</v>
  </separator>
  <dos>
   <i name="efermi">      8.76125512 </i>
   <total>
    <array>
     <dimension dim="1">gridpoints</dimension>
     <dimension dim="2">spin</dimension>
     <field>energy</field>
     <field>total</field>
     <field>integrated</field>
     <set>
      <set comment="spin 1">
       <r>   -50.2095     0.0000     0.0000 </r>
       <r>   -49.9924     0.0000     0.0000 </r>
       <r>   -49.7753     0.0000     0.0000 </r>
       <r>   -49.5582     0.0000     0.0000 </r>
       <r>   -49.3411     0.0000     0.0000 </r>
       <r>   -49.1240     0.0000     0.0000 </r>
       <r>   -48.9068     0.0000     0.0000 </r>
       <r>   -48.6897     0.0000     0.0000 </r>
       <r>   -48.4726     0.0000     0.0000 </r>
       <r>   -48.2555     0.0000     0.0000 </r>
       <r>   -48.0384     0.0000     0.0000 </r>
       <r>   -47.8213     0.0000     0.0000 </r>
       <r>   -47.6042     0.0000     0.0000 </r>
       <r>   -47.3871     0.2339     0.0508 </r>
       <r>   -47.1700     9.9732     2.2161 </r>
       <r>   -46.9528    33.4797     9.4849 </r>
       <r>   -46.7357    20.6193    13.9616 </r>
       <r>   -46.5186     0.1770    14.0000 </r>
       <r>   -46.3015     0.0000    14.0000 </r>
       <r>   -46.0844     0.0000    14.0000 </r>
       <r>   -45.8673     0.0000    14.0000 </r>
       <r>   -45.6502     0.0000    14.0000 </r>
       <r>   -45.4331     0.0000    14.0000 </r>
       <r>   -45.2160     0.0000    14.0000 </r>
       <r>   -44.9988     0.0000    14.0000 </r>
       <r>   -44.7817     0.0000    14.0000 </r>
       <r>   -44.5646     0.0000    14.0000 </r>
       <r>   -44.3475     0.0000    14.0000 </r>
       <r>   -44.1304     0.0000    14.0000 </r>
       <r>   -43.9133     0.0000    14.0000 </r>
       <r>   -43.6962     0.0000    14.0000 </r>
       <r>   -43.4791     0.0000    14.0000 </r>
       <r>   -43.2620     0.0000    14.0000 </r>
       <r>   -43.0448     0.0000    14.0000 </r>
       <r>   -42.8277     0.0000    14.0000 </r>
       <r>   -42.6106     0.0000    14.0000 </r>
       <r>   -42.3935     0.0000    14.0000 </r>
       <r>   -42.1764     0.0000    14.0000 </r>
       <r>   -41.9593     0.0000    14.0000 </r>
       <r>   -41.7422     0.0000    14.0000 </r>
       <r>   -41.5251     0.0000    14.0000 </r>
       <r>   -41.3080     0.0000    14.0000 </r>
       <r>   -41.0908     0.0000    14.0000 </r>
       <r>   -40.8737     0.0000    14.0000 </r>
       <r>   -40.6566     0.0606    14.0132 </r>
       <r>   -40.4395     9.8409    16.1497 </r>
       <r>   -40.2224    16.8484    19.8077 </r>
       <r>   -40.0053     5.8636    21.0808 </r>
       <r>   -39.7882    21.6124    25.7730 </r>
       <r>   -39.5711     1.8572    26.1763 </r>
       <r>   -39.3540     8.0049    27.9142 </r>
       <r>   -39.1368     0.3951    28.0000 </r>
       <r>   -38.9197     0.0000    28.0000 </r>
       <r>   -38.7026     0.0000    28.0000 </r>
       <r>   -38.4855     0.0000    28.0000 </r>
       <r>   -38.2684     0.0000    28.0000 </r>
       <r>   -38.0513     0.0000    28.0000 </r>
       <r>   -37.8342     0.0000    28.0000 </r>
       <r>   -37.6171     0.0000    28.0000 </r>
       <r>   -37.4000     0.0000    28.0000 </r>
       <r>   -37.1828     0.0000    28.0000 </r>
       <r>   -36.9657     0.0000    28.0000 </r>
       <r>   -36.7486     0.0000    28.0000 </r>
       <r>   -36.5315     0.0000    28.0000 </r>
       <r>   -36.3144     0.0000    28.0000 </r>
       <r>   -36.0973     0.0000    28.0000 </r>
       <r>   -35.8802     0.0000    28.0000 </r>
       <r>   -35.6631     0.0000    28.0000 </r>
       <r>   -35.4460     0.0000    28.0000 </r>
       <r>   -35.2288     0.0059    28.0013 </r>
       <r>   -35.0117     4.8360    29.0512 </r>
       <r>   -34.7946    61.9786    42.5075 </r>
       <r>   -34.5775    89.9358    62.0335 </r>
       <r>   -34.3604     9.0402    63.9963 </r>
       <r>   -34.1433     0.0172    64.0000 </r>
       <r>   -33.9262     0.0000    64.0000 </r>
       <r>   -33.7091     0.0000    64.0000 </r>
       <r>   -33.4920     0.0000    64.0000 </r>
       <r>   -33.2748     0.0000    64.0000 </r>
       <r>   -33.0577     0.0000    64.0000 </r>
       <r>   -32.8406     0.0000    64.0000 </r>
       <r>   -32.6235     0.0000    64.0000 </r>
       <r>   -32.4064     0.0000    64.0000 </r>
       <r>   -32.1893     0.0000    64.0000 </r>
       <r>   -31.9722     0.0000    64.0000 </r>
       <r>   -31.7551     0.0000    64.0000 </r>
       <r>   -31.5380     0.0000    64.0000 </r>
       <r>   -31.3208     0.0000    64.0000 </r>
       <r>   -31.1037     0.0000    64.0000 </r>
       <r>   -30.8866     0.0000    64.0000 </r>
       <r>   -30.6695     0.0000    64.0000 </r>
       <r>   -30.4524     0.0000    64.0000 </r>
       <r>   -30.2353     0.0000    64.0000 </r>
       <r>   -30.0182     0.0000    64.0000 </r>
       <r>   -29.8011     0.0000    64.0000 </r>
       <r>   -29.5840     0.0000    64.0000 </r>
       <r>   -29.3668     0.0000    64.0000 </r>
       <r>   -29.1497     0.0000    64.0000 </r>
       <r>   -28.9326     0.0000    64.0000 </r>
       <r>   -28.7155     0.0000    64.0000 </r>
       <r>   -28.4984     0.0000    64.0000 </r>
       <r>   -28.2813     0.0000    64.0000 </r>
       <r>   -28.0642     0.0000    64.0000 </r>
       <r>   -27.8471     0.0000    64.0000 </r>
       <r>   -27.6300     0.0000    64.0000 </r>
       <r>   -27.4128     0.0000    64.0000 </r>
       <r>   -27.1957     0.0466    64.0101 </r>
       <r>   -26.9786    11.2106    66.4441 </r>
       <r>   -26.7615    39.1445    74.9428 </r>
       <r>   -26.5444    38.3837    83.2763 </r>
       <r>   -26.3273    52.0110    94.5685 </r>
       <r>   -26.1102    24.6964    99.9303 </r>
       <r>   -25.8931     0.3210   100.0000 </r>
       <r>   -25.6760     0.0000   100.0000 </r>
       <r>   -25.4588     0.0000   100.0000 </r>
       <r>   -25.2417     0.0000   100.0000 </r>
       <r>   -25.0246     0.0000   100.0000 </r>
       <r>   -24.8075     0.0000   100.0000 </r>
       <r>   -24.5904     0.0000   100.0000 </r>
       <r>   -24.3733     0.0000   100.0000 </r>
       <r>   -24.1562     0.0000   100.0000 </r>
       <r>   -23.9391     0.0000   100.0000 </r>
       <r>   -23.7220     0.0013   100.0003 </r>
       <r>   -23.5048     4.0780   100.8857 </r>
       <r>   -23.2877    42.4756   110.1076 </r>
       <r>   -23.0706   101.1145   132.0607 </r>
       <r>   -22.8535    41.6700   141.1077 </r>
       <r>   -22.6364     4.1074   141.9995 </r>
       <r>   -22.4193     0.0024   142.0000 </r>
       <r>   -22.2022     0.0000   142.0000 </r>
       <r>   -21.9851     0.0000   142.0000 </r>
       <r>   -21.7680     0.0000   142.0000 </r>
       <r>   -21.5508     0.0000   142.0000 </r>
       <r>   -21.3337     0.0000   142.0000 </r>
       <r>   -21.1166     0.0000   142.0000 </r>
       <r>   -20.8995     0.0000   142.0000 </r>
       <r>   -20.6824     0.0000   142.0000 </r>
       <r>   -20.4653     0.0000   142.0000 </r>
       <r>   -20.2482     0.0000   142.0000 </r>
       <r>   -20.0311     0.0000   142.0000 </r>
       <r>   -19.8140     0.0000   142.0000 </r>
       <r>   -19.5968     0.0000   142.0000 </r>
       <r>   -19.3797     0.0000   142.0000 </r>
       <r>   -19.1626     0.2577   142.0560 </r>
       <r>   -18.9455    10.0267   144.2329 </r>
       <r>   -18.7284    27.8540   150.2803 </r>
       <r>   -18.5113    39.3228   158.8177 </r>
       <r>   -18.2942    38.6598   167.2112 </r>
       <r>   -18.0771    48.9276   177.8339 </r>
       <r>   -17.8600    18.0402   181.7506 </r>
       <r>   -17.6428    10.3490   183.9975 </r>
       <r>   -17.4257     0.0115   184.0000 </r>
       <r>   -17.2086     0.0000   184.0000 </r>
       <r>   -16.9915     0.0000   184.0000 </r>
       <r>   -16.7744     0.0000   184.0000 </r>
       <r>   -16.5573     0.0000   184.0000 </r>
       <r>   -16.3402     0.0000   184.0000 </r>
       <r>   -16.1231     0.0000   184.0000 </r>
       <r>   -15.9059     0.0000   184.0000 </r>
       <r>   -15.6888     0.0000   184.0000 </r>
       <r>   -15.4717     0.0000   184.0000 </r>
       <r>   -15.2546     0.0000   184.0000 </r>
       <r>   -15.0375     0.0000   184.0000 </r>
       <r>   -14.8204     0.0000   184.0000 </r>
       <r>   -14.6033     0.0000   184.0000 </r>
       <r>   -14.3862     0.0000   184.0000 </r>
       <r>   -14.1691     0.0000   184.0000 </r>
       <r>   -13.9519     0.0000   184.0000 </r>
       <r>   -13.7348     0.0000   184.0000 </r>
       <r>   -13.5177     0.0000   184.0000 </r>
       <r>   -13.3006     0.0000   184.0000 </r>
       <r>   -13.0835     0.0000   184.0000 </r>
       <r>   -12.8664     0.0000   184.0000 </r>
       <r>   -12.6493     0.0000   184.0000 </r>
       <r>   -12.4322     0.0000   184.0000 </r>
       <r>   -12.2151     0.0000   184.0000 </r>
       <r>   -11.9979     0.0000   184.0000 </r>
       <r>   -11.7808     0.0000   184.0000 </r>
       <r>   -11.5637     0.0000   184.0000 </r>
       <r>   -11.3466     0.0000   184.0000 </r>
       <r>   -11.1295     0.0000   184.0000 </r>
       <r>   -10.9124     0.0000   184.0000 </r>
       <r>   -10.6953     0.0000   184.0000 </r>
       <r>   -10.4782     0.0000   184.0000 </r>
       <r>   -10.2611     0.0000   184.0000 </r>
       <r>   -10.0439     0.0000   184.0000 </r>
       <r>    -9.8268     0.0000   184.0000 </r>
       <r>    -9.6097     0.0000   184.0000 </r>
       <r>    -9.3926     0.0000   184.0000 </r>
       <r>    -9.1755     0.0000   184.0000 </r>
       <r>    -8.9584     0.0000   184.0000 </r>
       <r>    -8.7413     0.0000   184.0000 </r>
       <r>    -8.5242     0.0000   184.0000 </r>
       <r>    -8.3071     0.0000   184.0000 </r>
       <r>    -8.0899     0.0000   184.0000 </r>
       <r>    -7.8728     0.0000   184.0000 </r>
       <r>    -7.6557     0.0006   184.0001 </r>
       <r>    -7.4386     0.7472   184.1623 </r>
       <r>    -7.2215     7.1775   185.7207 </r>
       <r>    -7.0044     4.3872   186.6732 </r>
       <r>    -6.7873    19.5587   190.9196 </r>
       <r>    -6.5702     8.6466   192.7969 </r>
       <r>    -6.3531    15.1222   196.0801 </r>
       <r>    -6.1359    14.2145   199.1662 </r>
       <r>    -5.9188    18.0971   203.0953 </r>
       <r>    -5.7017    18.4935   207.1104 </r>
       <r>    -5.4846    12.5998   209.8460 </r>
       <r>    -5.2675     0.7094   210.0000 </r>
       <r>    -5.0504     0.0000   210.0000 </r>
       <r>    -4.8333     0.0000   210.0000 </r>
       <r>    -4.6162     0.0000   210.0000 </r>
       <r>    -4.3991     0.0000   210.0000 </r>
       <r>    -4.1819     0.0599   210.0130 </r>
       <r>    -3.9648     3.0662   210.6787 </r>
       <r>    -3.7477     5.7233   211.9213 </r>
       <r>    -3.5306     4.0668   212.8043 </r>
       <r>    -3.3135    11.7462   215.3545 </r>
       <r>    -3.0964    16.7331   218.9874 </r>
       <r>    -2.8793    25.4098   224.5042 </r>
       <r>    -2.6622    23.9696   229.7082 </r>
       <r>    -2.4451    21.0719   234.2832 </r>
       <r>    -2.2279    24.3871   239.5779 </r>
       <r>    -2.0108    18.9681   243.6961 </r>
       <r>    -1.7937     9.3152   245.7185 </r>
       <r>    -1.5766     7.7550   247.4022 </r>
       <r>    -1.3595     2.5957   247.9658 </r>
       <r>    -1.1424     0.1576   248.0000 </r>
       <r>    -0.9253     0.0001   248.0000 </r>
       <r>    -0.7082     0.0000   248.0000 </r>
       <r>    -0.4911     0.0000   248.0000 </r>
       <r>    -0.2739     0.0000   248.0000 </r>
       <r>    -0.0568     0.0000   248.0000 </r>
       <r>     0.1603     0.0000   248.0000 </r>
       <r>     0.3774     0.0000   248.0000 </r>
       <r>     0.5945     0.0181   248.0039 </r>
       <r>     0.8116     0.4241   248.0960 </r>
       <r>     1.0287     2.0877   248.5493 </r>
       <r>     1.2458     6.7932   250.0242 </r>
       <r>     1.4629    10.0448   252.2050 </r>
       <r>     1.6801    14.3763   255.3263 </r>
       <r>     1.8972    19.0682   259.4662 </r>
       <r>     2.1143    26.7789   265.2802 </r>
       <r>     2.3314    28.2178   271.4066 </r>
       <r>     2.5485    27.5402   277.3859 </r>
       <r>     2.7656    31.0538   284.1280 </r>
       <r>     2.9827    32.9845   291.2893 </r>
       <r>     3.1998    37.0674   299.3370 </r>
       <r>     3.4169    48.0339   309.7657 </r>
       <r>     3.6341    56.6046   322.0552 </r>
       <r>     3.8512    63.1618   335.7684 </r>
       <r>     4.0683    69.0518   350.7603 </r>
       <r>     4.2854    68.4799   365.6280 </r>
       <r>     4.5025    64.0474   379.5334 </r>
       <r>     4.7196    55.0925   391.4946 </r>
       <r>     4.9367    47.8953   401.8932 </r>
       <r>     5.1538    38.2797   410.2042 </r>
       <r>     5.3709    31.2739   416.9941 </r>
       <r>     5.5881    32.8078   424.1170 </r>
       <r>     5.8052    27.0951   429.9997 </r>
       <r>     6.0223    20.5556   434.4626 </r>
       <r>     6.2394    15.0425   437.7285 </r>
       <r>     6.4565     9.4736   439.7853 </r>
       <r>     6.6736     9.8126   441.9157 </r>
       <r>     6.8907    17.3016   445.6721 </r>
       <r>     7.1078    20.8286   450.1942 </r>
       <r>     7.3249    18.3368   454.1753 </r>
       <r>     7.5421    19.6781   458.4477 </r>
       <r>     7.7592    20.2565   462.8456 </r>
       <r>     7.9763    24.3476   468.1317 </r>
       <r>     8.1934    26.5097   473.8873 </r>
       <r>     8.4105    30.9434   480.6054 </r>
       <r>     8.6276    27.1360   486.4969 </r>
       <r>     8.8447    25.5999   492.0550 </r>
       <r>     9.0618    29.0820   498.3690 </r>
       <r>     9.2789    37.4515   506.5001 </r>
       <r>     9.4961    42.4580   515.7183 </r>
       <r>     9.7132    46.4050   525.7933 </r>
       <r>     9.9303    46.7741   535.9485 </r>
       <r>    10.1474    44.4577   545.6007 </r>
       <r>    10.3645    43.2159   554.9834 </r>
       <r>    10.5816    43.3145   564.3875 </r>
       <r>    10.7987    45.2408   574.2097 </r>
       <r>    11.0158    44.0988   583.7841 </r>
       <r>    11.2329    44.3248   593.4075 </r>
       <r>    11.4501    43.3720   602.8240 </r>
       <r>    11.6672    46.6934   612.9617 </r>
       <r>    11.8843    40.8778   621.8367 </r>
       <r>    12.1014     9.8991   623.9859 </r>
       <r>    12.3185     0.0649   624.0000 </r>
       <r>    12.5356     0.0000   624.0000 </r>
       <r>    12.7527     0.0000   624.0000 </r>
       <r>    12.9698     0.0000   624.0000 </r>
       <r>    13.1869     0.0000   624.0000 </r>
       <r>    13.4041     0.0000   624.0000 </r>
       <r>    13.6212     0.0000   624.0000 </r>
       <r>    13.8383     0.0000   624.0000 </r>
       <r>    14.0554     0.0000   624.0000 </r>
       <r>    14.2725     0.0000   624.0000 </r>
       <r>    14.4896     0.0000   624.0000 </r>
       <r>    14.7067     0.0000   624.0000 </r>
       <r>    14.9238     0.0000   624.0000 </r>
      </set>
     </set>
    </array>
   </total>
  </dos>
 </calculation>
 <structure name="finalpos" >
  <crystal>
   <varray name="basis" >
    <v>       8.86353917      -0.01079858      -0.01810390 </v>
    <v>      -0.00519853       8.90919113      -0.01436842 </v>
    <v>       0.01373648      -0.02984744       8.91438162 </v>
   </varray>
   <i name="volume">    703.93957117 </i>
   <varray name="rec_basis" >
    <v>       0.11282148       0.00006555      -0.00017363 </v>
    <v>       0.00013752       0.11224432       0.00037561 </v>
    <v>       0.00022935       0.00018105       0.11217853 </v>
   </varray>
  </crystal>
  <varray name="positions" >
   <v>       0.00043569       0.98436480       0.99993219 </v>
   <v>       0.24853578       0.98784167       0.25930517 </v>
   <v>       0.25266626       0.51354244       0.24597639 </v>
   <v>       0.50468192       0.48931095       0.99282020 </v>
   <v>       0.49195768       0.25000285       0.74886939 </v>
   <v>       0.99781696       0.49927795       0.50656893 </v>
   <v>       0.50650235       0.75382817       0.73690057 </v>
   <v>      -0.00236224       0.24331360       0.25715042 </v>
   <v>       0.74950760       0.74606434       0.00495316 </v>
   <v>       0.00799393       0.24374240       0.74390383 </v>
   <v>       0.74933715       0.25101629       0.51226179 </v>
   <v>       0.00100449       0.75318005       0.74863331 </v>
   <v>       0.25026688       0.50402146       0.75174909 </v>
   <v>       0.24619376       0.24551584      -0.00107047 </v>
   <v>       0.49962483       0.24649349       0.24930189 </v>
   <v>       0.73782288       0.98876922       0.26374476 </v>
   <v>       0.75217174       0.24670309       0.99002403 </v>
   <v>       0.26468859       0.75743161       0.00056449 </v>
   <v>       0.25365366       0.25172694       0.50096229 </v>
   <v>       0.24852371       0.75144439       0.50076947 </v>
   <v>       0.24410797       0.25055999       0.25056331 </v>
   <v>       0.24628130       0.00048679       0.00601307 </v>
   <v>      -0.00131559       0.24016481       0.00353636 </v>
   <v>       0.75382460       0.24605124       0.25619364 </v>
   <v>       0.74316748       0.99007203      -0.00156183 </v>
   <v>       0.49206744       0.99504405       0.27733806 </v>
   <v>       0.00212701       0.48482256       0.25696240 </v>
   <v>       0.51158269       0.75790496      -0.01466112 </v>
   <v>       0.98607564       0.00255485       0.74703951 </v>
   <v>       0.75360067       0.25010633       0.74432874 </v>
   <v>       0.75913756       0.01189584       0.50610659 </v>
   <v>       0.50888535       0.24922611       0.50188390 </v>
   <v>       0.53222912       0.00238595       0.73465413 </v>
   <v>      -0.00271991       0.00088361       0.24802438 </v>
   <v>       0.50031586       0.24158283      -0.00512734 </v>
   <v>       0.26135953       0.75095143       0.25118776 </v>
   <v>       0.24241941       0.50263958       0.99755070 </v>
   <v>       0.00027257       0.74434162       0.00144997 </v>
   <v>       0.74324220       0.73898785       0.24890646 </v>
   <v>       0.76389581       0.50173742       0.00583527 </v>
   <v>       0.49371314       0.51043098       0.24342087 </v>
   <v>       0.24964443       0.24558534       0.75030151 </v>
   <v>       0.25422099       0.00081814       0.51628875 </v>
   <v>       0.99715464       0.25126262       0.50116769 </v>
   <v>       0.25110094       0.75942326       0.75029671 </v>
   <v>       0.25079273       0.50187325       0.49984360 </v>
   <v>       0.99147600       0.75415548       0.50003119 </v>
   <v>       0.00008448       0.50069488       0.75321124 </v>
   <v>       0.75323289       0.75614838       0.74547374 </v>
   <v>       0.74818232       0.49493559       0.50163868 </v>
   <v>       0.50756204       0.76676155       0.49314109 </v>
   <v>       0.50354709       0.50068504       0.74338001 </v>
   <v>       0.52242235       0.01962828       0.94749269 </v>
   <v>       0.99275517       0.53053796       0.96931405 </v>
   <v>       0.50972545       0.73263645       0.28390645 </v>
   <v>       0.22046469      -0.00105183       0.74048083 </v>
   <v>       0.46983752       0.99470941       0.51980739 </v>
   <v>       0.74245555       0.96881193       0.77345913 </v>
   <v>      -0.00223836       0.76701228       0.25420705 </v>
   <v>       0.72531377       0.50923602       0.24829107 </v>
   <v>       0.01419201       0.00717651       0.49223998 </v>
   <v>       0.50148526       0.51373718       0.48949204 </v>
   <v>       0.75255952       0.51829165       0.75864728 </v>
   <v>       0.74873544       0.72650799       0.49492222 </v>
  </varray>
 </structure>
</modeling>
