  64  64   0   0
  0.1102081E+02  0.8888081E-09  0.8899095E-09  0.8917618E-09  0.5000000E-15
  1.000000000000000E-004
  CAR 
 HECN                                    
     13.87470027    -52.41030277  301      8.25833948      1.00000000
    -52.410  0.0000E+00  0.0000E+00
    -52.189  0.0000E+00  0.0000E+00
    -51.968  0.0000E+00  0.0000E+00
    -51.747  0.0000E+00  0.0000E+00
    -51.527  0.0000E+00  0.0000E+00
    -51.306  0.0000E+00  0.0000E+00
    -51.085  0.0000E+00  0.0000E+00
    -50.864  0.0000E+00  0.0000E+00
    -50.643  0.0000E+00  0.0000E+00
    -50.422  0.0000E+00  0.0000E+00
    -50.201  0.0000E+00  0.0000E+00
    -49.980  0.1005E-16  0.2220E-17
    -49.759  0.1422E-07  0.3143E-08
    -49.538  0.2122E-02  0.4689E-03
    -49.317  0.1150E+00  0.2587E-01
    -49.096  0.2890E+00  0.8973E-01
    -48.875  0.1631E+00  0.1258E+00
    -48.654  0.6403E-01  0.1399E+00
    -48.433  0.3677E-03  0.1400E+00
    -48.212  0.3555E-09  0.1400E+00
    -47.991  0.1723E-11  0.1400E+00
    -47.770  0.2219E-04  0.1400E+00
    -47.549  0.3796E-01  0.1484E+00
    -47.328  0.2443E+00  0.2024E+00
    -47.108  0.2524E+00  0.2581E+00
    -46.887  0.8377E-02  0.2600E+00
    -46.666  0.1004E-06  0.2600E+00
    -46.445  0.1206E-15  0.2600E+00
    -46.224  0.0000E+00  0.2600E+00
    -46.003  0.0000E+00  0.2600E+00
    -45.782  0.0000E+00  0.2600E+00
    -45.561  0.0000E+00  0.2600E+00
    -45.340  0.0000E+00  0.2600E+00
    -45.119  0.0000E+00  0.2600E+00
    -44.898  0.0000E+00  0.2600E+00
    -44.677  0.0000E+00  0.2600E+00
    -44.456  0.0000E+00  0.2600E+00
    -44.235  0.0000E+00  0.2600E+00
    -44.014  0.0000E+00  0.2600E+00
    -43.793  0.0000E+00  0.2600E+00
    -43.572  0.0000E+00  0.2600E+00
    -43.351  0.0000E+00  0.2600E+00
    -43.130  0.0000E+00  0.2600E+00
    -42.909  0.0000E+00  0.2600E+00
    -42.689  0.0000E+00  0.2600E+00
    -42.468  0.0000E+00  0.2600E+00
    -42.247  0.0000E+00  0.2600E+00
    -42.026  0.0000E+00  0.2600E+00
    -41.805  0.0000E+00  0.2600E+00
    -41.584  0.0000E+00  0.2600E+00
    -41.363  0.0000E+00  0.2600E+00
    -41.142  0.2513E-13  0.2600E+00
    -40.921  0.1984E-05  0.2600E+00
    -40.700  0.1552E-01  0.2634E+00
    -40.479  0.1348E+00  0.2932E+00
    -40.258  0.1862E+00  0.3343E+00
    -40.037  0.2910E+00  0.3986E+00
    -39.816  0.6151E-02  0.4000E+00
    -39.595  0.6428E-07  0.4000E+00
    -39.374  0.7035E-16  0.4000E+00
    -39.153  0.0000E+00  0.4000E+00
    -38.932  0.0000E+00  0.4000E+00
    -38.711  0.0000E+00  0.4000E+00
    -38.490  0.0000E+00  0.4000E+00
    -38.270  0.0000E+00  0.4000E+00
    -38.049  0.0000E+00  0.4000E+00
    -37.828  0.0000E+00  0.4000E+00
    -37.607  0.0000E+00  0.4000E+00
    -37.386  0.0000E+00  0.4000E+00
    -37.165  0.0000E+00  0.4000E+00
    -36.944  0.0000E+00  0.4000E+00
    -36.723  0.0000E+00  0.4000E+00
    -36.502  0.0000E+00  0.4000E+00
    -36.281  0.0000E+00  0.4000E+00
    -36.060  0.1213E-12  0.4000E+00
    -35.839  0.4948E-05  0.4000E+00
    -35.618  0.2080E-01  0.4046E+00
    -35.397  0.2501E+00  0.4599E+00
    -35.176  0.1086E+01  0.6998E+00
    -34.955  0.2697E+00  0.7594E+00
    -34.734  0.2816E-02  0.7600E+00
    -34.513  0.2109E-07  0.7600E+00
    -34.292  0.2010E-16  0.7600E+00
    -34.071  0.0000E+00  0.7600E+00
    -33.851  0.0000E+00  0.7600E+00
    -33.630  0.0000E+00  0.7600E+00
    -33.409  0.0000E+00  0.7600E+00
    -33.188  0.0000E+00  0.7600E+00
    -32.967  0.0000E+00  0.7600E+00
    -32.746  0.0000E+00  0.7600E+00
    -32.525  0.0000E+00  0.7600E+00
    -32.304  0.0000E+00  0.7600E+00
    -32.083  0.0000E+00  0.7600E+00
    -31.862  0.0000E+00  0.7600E+00
    -31.641  0.0000E+00  0.7600E+00
    -31.420  0.0000E+00  0.7600E+00
    -31.199  0.0000E+00  0.7600E+00
    -30.978  0.0000E+00  0.7600E+00
    -30.757  0.0000E+00  0.7600E+00
    -30.536  0.0000E+00  0.7600E+00
    -30.315  0.0000E+00  0.7600E+00
    -30.094  0.0000E+00  0.7600E+00
    -29.873  0.0000E+00  0.7600E+00
    -29.652  0.0000E+00  0.7600E+00
    -29.432  0.0000E+00  0.7600E+00
    -29.211  0.0000E+00  0.7600E+00
    -28.990  0.0000E+00  0.7600E+00
    -28.769  0.0000E+00  0.7600E+00
    -28.548  0.0000E+00  0.7600E+00
    -28.327  0.0000E+00  0.7600E+00
    -28.106  0.0000E+00  0.7600E+00
    -27.885  0.0000E+00  0.7600E+00
    -27.664  0.0000E+00  0.7600E+00
    -27.443  0.0000E+00  0.7600E+00
    -27.222  0.0000E+00  0.7600E+00
    -27.001  0.0000E+00  0.7600E+00
    -26.780  0.0000E+00  0.7600E+00
    -26.559  0.0000E+00  0.7600E+00
    -26.338  0.1597E-13  0.7600E+00
    -26.117  0.1735E-05  0.7600E+00
    -25.896  0.2195E-01  0.7648E+00
    -25.675  0.3644E+00  0.8454E+00
    -25.454  0.8010E+00  0.1022E+01
    -25.233  0.5473E+00  0.1143E+01
    -25.013  0.1654E+00  0.1180E+01
    -24.792  0.9171E-03  0.1180E+01
    -24.571  0.1593E-08  0.1180E+01
    -24.350  0.1757E-15  0.1180E+01
    -24.129  0.1254E-06  0.1180E+01
    -23.908  0.8388E-02  0.1182E+01
    -23.687  0.2814E+00  0.1244E+01
    -23.466  0.5802E+00  0.1372E+01
    -23.245  0.6931E+00  0.1525E+01
    -23.024  0.6621E-01  0.1540E+01
    -22.803  0.4388E-02  0.1541E+01
    -22.582  0.1824E+00  0.1581E+01
    -22.361  0.3307E+00  0.1654E+01
    -22.140  0.3268E+00  0.1727E+01
    -21.919  0.2871E+00  0.1790E+01
    -21.698  0.2966E+00  0.1855E+01
    -21.477  0.1991E+00  0.1899E+01
    -21.256  0.2331E-02  0.1900E+01
    -21.035  0.1207E-07  0.1900E+01
    -20.814  0.0000E+00  0.1900E+01
    -20.594  0.0000E+00  0.1900E+01
    -20.373  0.0000E+00  0.1900E+01
    -20.152  0.0000E+00  0.1900E+01
    -19.931  0.0000E+00  0.1900E+01
    -19.710  0.0000E+00  0.1900E+01
    -19.489  0.3505E-10  0.1900E+01
    -19.268  0.1126E-03  0.1900E+01
    -19.047  0.5629E-01  0.1912E+01
    -18.826  0.3633E+00  0.1993E+01
    -18.605  0.6387E+00  0.2134E+01
    -18.384  0.6780E+00  0.2284E+01
    -18.163  0.1546E+00  0.2318E+01
    -17.942  0.9966E-02  0.2320E+01
    -17.721  0.6150E-06  0.2320E+01
    -17.500  0.3535E-14  0.2320E+01
    -17.279  0.0000E+00  0.2320E+01
    -17.058  0.0000E+00  0.2320E+01
    -16.837  0.0000E+00  0.2320E+01
    -16.616  0.0000E+00  0.2320E+01
    -16.395  0.0000E+00  0.2320E+01
    -16.175  0.0000E+00  0.2320E+01
    -15.954  0.0000E+00  0.2320E+01
    -15.733  0.0000E+00  0.2320E+01
    -15.512  0.0000E+00  0.2320E+01
    -15.291  0.0000E+00  0.2320E+01
    -15.070  0.0000E+00  0.2320E+01
    -14.849  0.0000E+00  0.2320E+01
    -14.628  0.0000E+00  0.2320E+01
    -14.407  0.0000E+00  0.2320E+01
    -14.186  0.0000E+00  0.2320E+01
    -13.965  0.0000E+00  0.2320E+01
    -13.744  0.0000E+00  0.2320E+01
    -13.523  0.0000E+00  0.2320E+01
    -13.302  0.0000E+00  0.2320E+01
    -13.081  0.0000E+00  0.2320E+01
    -12.860  0.0000E+00  0.2320E+01
    -12.639  0.0000E+00  0.2320E+01
    -12.418  0.0000E+00  0.2320E+01
    -12.197  0.0000E+00  0.2320E+01
    -11.976  0.0000E+00  0.2320E+01
    -11.756  0.0000E+00  0.2320E+01
    -11.535  0.0000E+00  0.2320E+01
    -11.314  0.0000E+00  0.2320E+01
    -11.093  0.0000E+00  0.2320E+01
    -10.872  0.0000E+00  0.2320E+01
    -10.651  0.0000E+00  0.2320E+01
    -10.430  0.0000E+00  0.2320E+01
    -10.209  0.0000E+00  0.2320E+01
     -9.988  0.0000E+00  0.2320E+01
     -9.767  0.0000E+00  0.2320E+01
     -9.546  0.0000E+00  0.2320E+01
     -9.325  0.0000E+00  0.2320E+01
     -9.104  0.0000E+00  0.2320E+01
     -8.883  0.0000E+00  0.2320E+01
     -8.662  0.0000E+00  0.2320E+01
     -8.441  0.0000E+00  0.2320E+01
     -8.220  0.0000E+00  0.2320E+01
     -7.999  0.4085E-11  0.2320E+01
     -7.778  0.1095E-04  0.2320E+01
     -7.557  0.1266E-01  0.2323E+01
     -7.337  0.7323E-01  0.2339E+01
     -7.116  0.5628E-01  0.2351E+01
     -6.895  0.1356E+00  0.2381E+01
     -6.674  0.1454E+00  0.2413E+01
     -6.453  0.1786E+00  0.2453E+01
     -6.232  0.2775E+00  0.2514E+01
     -6.011  0.2018E+00  0.2559E+01
     -5.790  0.8728E-01  0.2578E+01
     -5.569  0.8520E-02  0.2580E+01
     -5.348  0.4182E-06  0.2580E+01
     -5.127  0.1925E-14  0.2580E+01
     -4.906  0.0000E+00  0.2580E+01
     -4.685  0.0000E+00  0.2580E+01
     -4.464  0.2747E-15  0.2580E+01
     -4.243  0.4784E-07  0.2580E+01
     -4.022  0.8576E-03  0.2580E+01
     -3.801  0.2589E-01  0.2586E+01
     -3.580  0.5651E-01  0.2598E+01
     -3.359  0.5222E-01  0.2610E+01
     -3.138  0.1099E+00  0.2634E+01
     -2.918  0.1413E+00  0.2665E+01
     -2.697  0.2046E+00  0.2711E+01
     -2.476  0.2221E+00  0.2760E+01
     -2.255  0.2761E+00  0.2821E+01
     -2.034  0.2873E+00  0.2884E+01
     -1.813  0.1717E+00  0.2922E+01
     -1.592  0.1224E+00  0.2949E+01
     -1.371  0.4251E-01  0.2959E+01
     -1.150  0.6441E-02  0.2960E+01
     -0.929  0.3279E-04  0.2960E+01
     -0.708  0.6662E-10  0.2960E+01
     -0.487  0.0000E+00  0.2960E+01
     -0.266  0.0000E+00  0.2960E+01
     -0.045  0.0000E+00  0.2960E+01
      0.176  0.0000E+00  0.2960E+01
      0.397  0.1861E-18  0.2960E+01
      0.618  0.4745E-09  0.2960E+01
      0.839  0.1055E-03  0.2960E+01
      1.060  0.9321E-02  0.2962E+01
      1.281  0.3628E-01  0.2970E+01
      1.501  0.1204E+00  0.2997E+01
      1.722  0.1192E+00  0.3023E+01
      1.943  0.1530E+00  0.3057E+01
      2.164  0.2271E+00  0.3107E+01
      2.385  0.3105E+00  0.3176E+01
      2.606  0.2994E+00  0.3242E+01
      2.827  0.2975E+00  0.3307E+01
      3.048  0.3879E+00  0.3393E+01
      3.269  0.3465E+00  0.3470E+01
      3.490  0.3777E+00  0.3553E+01
      3.711  0.5227E+00  0.3669E+01
      3.932  0.5825E+00  0.3797E+01
      4.153  0.6275E+00  0.3936E+01
      4.374  0.6333E+00  0.4076E+01
      4.595  0.6029E+00  0.4209E+01
      4.816  0.5709E+00  0.4335E+01
      5.037  0.5473E+00  0.4456E+01
      5.258  0.4287E+00  0.4551E+01
      5.479  0.3711E+00  0.4633E+01
      5.700  0.3178E+00  0.4703E+01
      5.920  0.2782E+00  0.4765E+01
      6.141  0.2239E+00  0.4814E+01
      6.362  0.1683E+00  0.4851E+01
      6.583  0.9457E-01  0.4872E+01
      6.804  0.8850E-01  0.4892E+01
      7.025  0.1426E+00  0.4923E+01
      7.246  0.1520E+00  0.4957E+01
      7.467  0.2253E+00  0.5007E+01
      7.688  0.2166E+00  0.5055E+01
      7.909  0.2289E+00  0.5105E+01
      8.130  0.2196E+00  0.5154E+01
      8.351  0.2715E+00  0.5214E+01
      8.572  0.2754E+00  0.5274E+01
      8.793  0.3455E+00  0.5351E+01
      9.014  0.4044E+00  0.5440E+01
      9.235  0.4299E+00  0.5535E+01
      9.456  0.4518E+00  0.5635E+01
      9.677  0.4298E+00  0.5730E+01
      9.898  0.4323E+00  0.5825E+01
     10.119  0.4795E+00  0.5931E+01
     10.340  0.4520E+00  0.6031E+01
     10.560  0.4227E+00  0.6125E+01
     10.781  0.4187E+00  0.6217E+01
     11.002  0.1031E+00  0.6240E+01
     11.223  0.4076E-03  0.6240E+01
     11.444  0.1305E-08  0.6240E+01
     11.665  0.0000E+00  0.6240E+01
     11.886  0.0000E+00  0.6240E+01
     12.107  0.0000E+00  0.6240E+01
     12.328  0.0000E+00  0.6240E+01
     12.549  0.0000E+00  0.6240E+01
     12.770  0.0000E+00  0.6240E+01
     12.991  0.0000E+00  0.6240E+01
     13.212  0.0000E+00  0.6240E+01
     13.433  0.0000E+00  0.6240E+01
     13.654  0.0000E+00  0.6240E+01
     13.875  0.0000E+00  0.6240E+01
