HECN                                    
           1
     8.888063    0.015750   -0.008076
     0.021960    8.899059   -0.012386
     0.023941   -0.027757    8.917543
   Zr   Hf   Ti   N    C    Cr   Nb
   7   6   7  13  19   6   6
Direct configuration=     1
   0.00365034  0.99305066  0.99907507
   0.27131110  0.99865672  0.24951536
   0.24812915  0.49615969  0.24796613
   0.49832573  0.49961321  0.00084482
   0.50171878  0.24443732  0.74648138
   0.00010624  0.49974505  0.50534640
   0.49459260  0.75997473  0.74878594
   0.99941301  0.24596874  0.24343934
   0.74214950  0.75398792  0.00654330
   0.99720717  0.24555891  0.75706803
   0.74729095  0.24077578  0.49941327
   0.00077877  0.75718778  0.74967951
   0.24863369  0.50018762  0.75174881
   0.25938122  0.23941233  0.99191267
   0.50372625  0.25776475  0.24994260
   0.73319364  0.99211658  0.25440472
   0.74122248  0.24649318  0.00072971
   0.25232987  0.75041418  0.99981714
   0.25487537  0.24596311  0.50615479
   0.25308674  0.75358055  0.49958376
   0.25344811  0.24637312  0.24540247
   0.26092021  0.00123641  0.99359303
   0.99827176  0.24827182  0.99953322
   0.74589130  0.24505222  0.24763117
   0.74048370  0.00418348  0.00181554
   0.51249069  0.00506264  0.25854232
   0.99528675  0.49666216  0.24431175
   0.49512448  0.76381511  0.00667258
   0.99956278  0.00319949  0.74500700
   0.75192030  0.24558138  0.75323703
   0.74659567  0.99991317  0.49626378
   0.49804549  0.24500242  0.49157516
   0.50779494  0.00179791  0.74507744
   0.99810105  0.99710493  0.25210134
   0.50250511  0.23889547  0.00439335
   0.25554878  0.74840943  0.24824516
   0.23903627  0.50008018  0.99848986
   0.00374569  0.74258499  0.00167107
   0.74434440  0.75347428  0.25376996
   0.76030919  0.49538173  0.00262821
   0.50264116  0.49711540  0.25355902
   0.24874524  0.24033460  0.74926118
   0.25970319  0.99970486  0.50819424
   0.00309894  0.24475181  0.49988902
   0.24634033  0.75994746  0.75170666
   0.25491157  0.49733677  0.50035065
   0.00106464  0.75619863  0.49739874
   0.99650523  0.50189309  0.76164921
   0.74826043  0.76030539  0.75262874
   0.74550996  0.50196018  0.50035350
   0.49545010  0.76155477  0.48745476
   0.50190296  0.50197461  0.74602251
   0.51597997  0.01286280  0.97170839
   0.00219865  0.51888798  0.98710479
   0.49761588  0.72779824  0.25990185
   0.24271224  0.00253587  0.73395658
   0.48239244  0.98846742  0.51274280
   0.72812676  0.98162420  0.77772229
   0.00786589  0.75305563  0.25144074
   0.74704781  0.50613581  0.25250693
   0.01738246  0.00009472  0.49997857
   0.49837863  0.51122818  0.49873132
   0.74906002  0.51279720  0.75315975
   0.74655658  0.75830299  0.49416373
HECN                                    
           1
     8.875825    0.013570   -0.007700
     0.019765    8.890268   -0.010070
     0.024279   -0.025428    8.907844
   Zr   Hf   Ti   N    C    Cr   Nb
   7   6   7  13  19   6   6
Direct configuration=     2
   0.00390348  0.99289686  0.99938088
   0.27185186  0.99856785  0.24990052
   0.24814419  0.49635767  0.24828980
   0.49815567  0.49929058  0.00091676
   0.50197794  0.24439355  0.74632016
  -0.00017588  0.49998722  0.50497427
   0.49486573  0.75994978  0.74859046
   0.99932831  0.24596045  0.24366863
   0.74218835  0.75378109  0.00674966
   0.99703929  0.24538519  0.75700839
   0.74690095  0.24068207  0.49966753
   0.00072357  0.75764653  0.74943404
   0.24882391  0.50006164  0.75154368
   0.25990722  0.23893397  0.99200140
   0.50360917  0.25826695  0.24991111
   0.73302932  0.99211591  0.25376210
   0.74080109  0.24597410  0.00072534
   0.25275238  0.75051719  0.99996201
   0.25495764  0.24606120  0.50614862
   0.25290811  0.75360665  0.49956486
   0.25333157  0.24638682  0.24518350
   0.26094114  0.00146756  0.99401675
   0.99831767  0.24807050  0.99971185
   0.74628987  0.24507104  0.24756954
   0.74070295  0.00426436  0.00144751
   0.51208301  0.00536041  0.25855525
   0.99526608  0.49680822  0.24414950
   0.49496840  0.76363926  0.00664575
   0.99967106  0.00321481  0.74465210
   0.75184940  0.24542753  0.75319635
   0.74687876  0.00014791  0.49598049
   0.49824749  0.24527547  0.49183660
   0.50896055  0.00183840  0.74531663
   0.99852595  0.99721475  0.25223114
   0.50215876  0.23907984  0.00443943
   0.25572135  0.74820725  0.24796126
   0.23904322  0.49991980  0.99832015
   0.00336901  0.74256100  0.00171084
   0.74412277  0.75325936  0.25370229
   0.76007800  0.49567142  0.00257686
   0.50268713  0.49696173  0.25363926
   0.24878839  0.24032159  0.74944020
   0.25986626  0.99984479  0.50772616
   0.00293547  0.24432932  0.49949592
   0.24643479  0.76026307  0.75178976
   0.25518582  0.49738121  0.50048899
   0.00099426  0.75631989  0.49730574
   0.99647807  0.50197653  0.76189007
   0.74831687  0.76018056  0.75280680
   0.74545581  0.50196918  0.50039843
   0.49559513  0.76141780  0.48781014
   0.50195106  0.50190341  0.74582325
   0.51538590  0.01275035  0.97080959
   0.00234021  0.51916796  0.98708004
   0.49754516  0.72757593  0.26010614
   0.24298598  0.00237900  0.73329890
   0.48164116  0.98863896  0.51468657
   0.72745919  0.98168426  0.77860636
   0.00771241  0.75256657  0.25145696
   0.74724316  0.50664991  0.25224970
   0.01712962 -0.00007553  0.49989131
   0.49820638  0.51122753  0.49849348
   0.74914964  0.51298040  0.75306499
   0.74629319  0.75826314  0.49391735
HECN                                    
           1
     8.875649    0.013539   -0.007695
     0.019733    8.890142   -0.010036
     0.024284   -0.025394    8.907704
   Zr   Hf   Ti   N    C    Cr   Nb
   7   6   7  13  19   6   6
Direct configuration=     3
   0.00390712  0.99289465  0.99938528
   0.27185964  0.99856657  0.24990607
   0.24814440  0.49636051  0.24829446
   0.49815322  0.49928594  0.00091780
   0.50198167  0.24439292  0.74631784
  -0.00017994  0.49999071  0.50496892
   0.49486966  0.75994943  0.74858765
   0.99932709  0.24596033  0.24367192
   0.74218890  0.75377812  0.00675263
   0.99703688  0.24538269  0.75700754
   0.74689534  0.24068072  0.49967118
   0.00072278  0.75765313  0.74943051
   0.24882665  0.50005983  0.75154073
   0.25991479  0.23892709  0.99200268
   0.50360748  0.25827418  0.24991066
   0.73302696  0.99211590  0.25375285
   0.74079502  0.24596663  0.00072528
   0.25275846  0.75051867  0.99996409
   0.25495883  0.24606261  0.50614853
   0.25290554  0.75360702  0.49956458
   0.25332989  0.24638702  0.24518035
   0.26094144  0.00147088  0.99402285
   0.99831833  0.24806761  0.99971442
   0.74629560  0.24507131  0.24756865
   0.74070611  0.00426553  0.00144221
   0.51207714  0.00536470  0.25855543
   0.99526578  0.49681032  0.24414717
   0.49496615  0.76363673  0.00664536
   0.99967262  0.00321503  0.74464699
   0.75184838  0.24542531  0.75319577
   0.74688283  0.00015128  0.49597641
   0.49825040  0.24527939  0.49184036
   0.50897732  0.00183899  0.74532007
   0.99853207  0.99721633  0.25223300
   0.50215378  0.23908249  0.00444009
   0.25572384  0.74820435  0.24795718
   0.23904332  0.49991749  0.99831771
   0.00336359  0.74256065  0.00171142
   0.74411958  0.75325627  0.25370132
   0.76007468  0.49567558  0.00257612
   0.50268779  0.49695951  0.25364041
   0.24878902  0.24032141  0.74944277
   0.25986861  0.99984680  0.50771943
   0.00293311  0.24432324  0.49949026
   0.24643615  0.76026762  0.75179095
   0.25518976  0.49738185  0.50049098
   0.00099325  0.75632163  0.49730440
   0.99647768  0.50197772  0.76189354
   0.74831768  0.76017876  0.75280936
   0.74545503  0.50196931  0.50039908
   0.49559722  0.76141583  0.48781526
   0.50195175  0.50190239  0.74582039
   0.51537735  0.01274874  0.97079666
   0.00234225  0.51917199  0.98707968
   0.49754414  0.72757273  0.26010908
   0.24298992  0.00237675  0.73328943
   0.48163035  0.98864142  0.51471454
   0.72744959  0.98168512  0.77861908
   0.00771020  0.75255954  0.25145719
   0.74724597  0.50665731  0.25224600
   0.01712598 -0.00007798  0.49989005
   0.49820390  0.51122752  0.49849006
   0.74915093  0.51298304  0.75306362
   0.74628940  0.75826257  0.49391381
HECN                                    
           1
     8.881457    0.012325   -0.007623
     0.018521    8.896565   -0.009292
     0.024380   -0.024663    8.914654
   Zr   Hf   Ti   N    C    Cr   Nb
   7   6   7  13  19   6   6
Direct configuration=     4
   0.00420512  0.99281789  0.99965614
   0.27218343  0.99849529  0.25016278
   0.24812864  0.49640991  0.24842799
   0.49799621  0.49911275  0.00089387
   0.50207160  0.24461243  0.74623048
  -0.00034523  0.50009036  0.50482439
   0.49503375  0.75969979  0.74849827
   0.99927509  0.24591672  0.24375527
   0.74214365  0.75366123  0.00682936
   0.99695540  0.24527591  0.75699508
   0.74669473  0.24059439  0.49972897
   0.00071805  0.75791140  0.74928934
   0.24886450  0.50000812  0.75144663
   0.26029691  0.23854469  0.99211036
   0.50353877  0.25864534  0.24993804
   0.73286393  0.99216834  0.25316104
   0.74048828  0.24555227  0.00075179
   0.25309951  0.75059602  0.00007223
   0.25499641  0.24616724  0.50610162
   0.25283663  0.75362025  0.49957049
   0.25331682  0.24642469  0.24503118
   0.26104455  0.00158890  0.99432955
   0.99832877  0.24789375  0.99979110
   0.74651029  0.24507597  0.24747963
   0.74082978  0.00428929  0.00127276
   0.51193180  0.00563134  0.25861008
   0.99525546  0.49696104  0.24397626
   0.49479700  0.76350482  0.00665067
   0.99979933  0.00325193  0.74442068
   0.75181077  0.24524095  0.75318537
   0.74711303  0.00026554  0.49564938
   0.49830480  0.24544880  0.49201245
   0.50989283  0.00182003  0.74535473
   0.99882431  0.99721779  0.25230554
   0.50190256  0.23916483  0.00447001
   0.25590146  0.74808418  0.24776003
   0.23899599  0.49980091  0.99823370
   0.00316069  0.74252186  0.00170812
   0.74389612  0.75320546  0.25361871
   0.75991325  0.49583149  0.00250107
   0.50270389  0.49686106  0.25363484
   0.24882436  0.24023977  0.74954605
   0.25982637  0.99996700  0.50741580
   0.00281503  0.24411984  0.49926826
   0.24652456  0.76057914  0.75184641
   0.25526420  0.49741305  0.50056706
   0.00091330  0.75634256  0.49722036
   0.99649712  0.50206337  0.76201685
   0.74837563  0.76015456  0.75293561
   0.74540349  0.50201225  0.50039933
   0.49559555  0.76142651  0.48808514
   0.50202040  0.50185014  0.74568947
   0.51469374  0.01264292  0.97031659
   0.00245401  0.51938672  0.98710399
   0.49750770  0.72743172  0.26027818
   0.24325250  0.00225899  0.73269914
   0.48118177  0.98885258  0.51655953
   0.72721680  0.98173538  0.77928982
   0.00759056  0.75228833  0.25141138
   0.74740549  0.50686713  0.25203648
   0.01686528 -0.00014068  0.49964654
   0.49818398  0.51116623  0.49841896
   0.74919194  0.51306284  0.75305389
   0.74611775  0.75829436  0.49375530
HECN                                    
           1
     8.885082    0.011568   -0.007579
     0.017765    8.900574   -0.008828
     0.024440   -0.024206    8.918991
   Zr   Hf   Ti   N    C    Cr   Nb
   7   6   7  13  19   6   6
Direct configuration=     5
   0.00439097  0.99277003  0.99982505
   0.27238537  0.99845086  0.25032288
   0.24811882  0.49644071  0.24851127
   0.49789827  0.49900473  0.00087895
   0.50212771  0.24474934  0.74617599
  -0.00044830  0.50015251  0.50473425
   0.49513606  0.75954413  0.74844254
   0.99924265  0.24588952  0.24380725
   0.74211541  0.75358832  0.00687722
   0.99690457  0.24520931  0.75698732
   0.74656961  0.24054053  0.49976501
   0.00071512  0.75807247  0.74920130
   0.24888810  0.49997588  0.75138795
   0.26053520  0.23830623  0.99217753
   0.50349595  0.25887681  0.24995510
   0.73276226  0.99220107  0.25279198
   0.74029694  0.24529384  0.00076834
   0.25331223  0.75064429  0.00013966
   0.25501986  0.24623250  0.50607236
   0.25279366  0.75362848  0.49957418
   0.25330867  0.24644820  0.24493816
   0.26110886  0.00166250  0.99452081
   0.99833526  0.24778532  0.99983892
   0.74664419  0.24507890  0.24742411
   0.74090691  0.00430412  0.00116709
   0.51184117  0.00579761  0.25864414
   0.99524904  0.49705504  0.24386967
   0.49469150  0.76342254  0.00665399
   0.99987836  0.00327496  0.74427955
   0.75178729  0.24512597  0.75317889
   0.74725661  0.00033683  0.49544544
   0.49833874  0.24555445  0.49211976
   0.51046381  0.00180829  0.74537634
   0.99900657  0.99721873  0.25235077
   0.50174588  0.23921616  0.00448866
   0.25601223  0.74800926  0.24763709
   0.23896646  0.49972821  0.99818132
   0.00303414  0.74249764  0.00170606
   0.74375674  0.75317376  0.25356720
   0.75981259  0.49592871  0.00245426
   0.50271392  0.49679967  0.25363138
   0.24884640  0.24018886  0.74961046
   0.25980005  0.00004197  0.50722645
   0.00274136  0.24399299  0.49912983
   0.24657972  0.76077343  0.75188098
   0.25531062  0.49743251  0.50061451
   0.00086343  0.75635560  0.49716795
   0.99650925  0.50211678  0.76209374
   0.74841176  0.76013947  0.75301434
   0.74537136  0.50203903  0.50039949
   0.49559451  0.76143316  0.48825344
   0.50206321  0.50181757  0.74560783
   0.51426737  0.01257689  0.97001723
   0.00252373  0.51952064  0.98711914
   0.49748496  0.72734377  0.26038363
   0.24341625  0.00218561  0.73233104
   0.48090201  0.98898414  0.51771006
   0.72707162  0.98176667  0.77970809
   0.00751592  0.75211918  0.25138283
   0.74750499  0.50699801  0.25190580
   0.01670269 -0.00017980  0.49949470
   0.49817155  0.51112801  0.49837463
   0.74921753  0.51311262  0.75304781
   0.74601069  0.75831418  0.49365645
HECN                                    
           1
     8.885924    0.011392   -0.007568
     0.017590    8.901505   -0.008720
     0.024454   -0.024100    8.919999
   Zr   Hf   Ti   N    C    Cr   Nb
   7   6   7  13  19   6   6
Direct configuration=     6
   0.00443412  0.99275893  0.99986426
   0.27243225  0.99844054  0.25036004
   0.24811654  0.49644786  0.24853060
   0.49787554  0.49897965  0.00087549
   0.50214074  0.24478113  0.74616334
  -0.00047223  0.50016693  0.50471333
   0.49515981  0.75950799  0.74842960
   0.99923512  0.24588320  0.24381931
   0.74210886  0.75357140  0.00688833
   0.99689277  0.24519385  0.75698552
   0.74654056  0.24052803  0.49977337
   0.00071444  0.75810987  0.74918086
   0.24889358  0.49996840  0.75137433
   0.26059051  0.23825088  0.99219312
   0.50348601  0.25893054  0.24995905
   0.73273866  0.99220866  0.25270631
   0.74025251  0.24523384  0.00077218
   0.25336161  0.75065549  0.00015531
   0.25502531  0.24624764  0.50606556
   0.25278368  0.75363040  0.49957503
   0.25330677  0.24645366  0.24491657
   0.26112379  0.00167958  0.99456521
   0.99833676  0.24776015  0.99985003
   0.74667527  0.24507958  0.24741122
   0.74092482  0.00430757  0.00114256
   0.51182014  0.00583621  0.25865205
   0.99524755  0.49707686  0.24384493
   0.49466700  0.76340344  0.00665476
   0.99989671  0.00328030  0.74424679
   0.75178184  0.24509928  0.75317739
   0.74728995  0.00035339  0.49539809
   0.49834662  0.24557897  0.49214466
   0.51059637  0.00180557  0.74538136
   0.99904888  0.99721895  0.25236127
   0.50170951  0.23922808  0.00449299
   0.25603794  0.74799188  0.24760855
   0.23895960  0.49971133  0.99816916
   0.00300476  0.74249202  0.00170559
   0.74372438  0.75316639  0.25355524
   0.75978922  0.49595127  0.00244339
   0.50271625  0.49678541  0.25363057
   0.24885151  0.24017704  0.74962542
   0.25979394  0.00005938  0.50718249
   0.00272425  0.24396354  0.49909770
   0.24659253  0.76081853  0.75188900
   0.25532140  0.49743703  0.50062552
   0.00085186  0.75635863  0.49715578
   0.99651206  0.50212918  0.76211159
   0.74842015  0.76013596  0.75303261
   0.74536390  0.50204525  0.50039953
   0.49559427  0.76143470  0.48829251
   0.50207315  0.50181001  0.74558888
   0.51416839  0.01256156  0.96994773
   0.00253991  0.51955174  0.98712265
   0.49747968  0.72732335  0.26040811
   0.24345427  0.00216858  0.73224559
   0.48083706  0.98901466  0.51797714
   0.72703792  0.98177393  0.77980519
   0.00749859  0.75207992  0.25137620
   0.74752810  0.50702840  0.25187547
   0.01666494 -0.00018888  0.49945945
   0.49816867  0.51111914  0.49836434
   0.74922347  0.51312417  0.75304640
   0.74598584  0.75831878  0.49363350
HECN                                    
           1
     8.886798    0.011741   -0.008115
     0.017942    8.900039   -0.010299
     0.023909   -0.025675    8.921196
   Zr   Hf   Ti   N    C    Cr   Nb
   7   6   7  13  19   6   6
Direct configuration=     7
   0.00478653  0.99274163  0.99997825
   0.27254840  0.99840712  0.25043280
   0.24808680  0.49635073  0.24837771
   0.49777723  0.49902852  0.00076922
   0.50199940  0.24517930  0.74623834
  -0.00045603  0.50006322  0.50493241
   0.49516324  0.75913529  0.74851990
   0.99924767  0.24579334  0.24363024
   0.74190623  0.75364130  0.00677316
   0.99693957  0.24512422  0.75707924
   0.74665629  0.24041044  0.49952595
   0.00080806  0.75809369  0.74921039
   0.24869006  0.50003949  0.75148056
   0.26076117  0.23805510  0.99224379
   0.50352050  0.25905110  0.25006720
   0.73243123  0.99229491  0.25230544
   0.74007006  0.24505547  0.00081727
   0.25350556  0.75066486  0.00022333
   0.25497968  0.24632058  0.50604107
   0.25290299  0.75365581  0.49959529
   0.25340549  0.24648768  0.24489935
   0.26127790  0.00161220  0.99471778
   0.99827620  0.24754007  0.99976192
   0.74660550  0.24509296  0.24735021
   0.74081201  0.00416707  0.00125984
   0.51203983  0.00605540  0.25873804
   0.99526312  0.49713040  0.24377434
   0.49460528  0.76327388  0.00661304
   0.00011054  0.00333345  0.74427329
   0.75179200  0.24492554  0.75314436
   0.74743354  0.00029121  0.49494270
   0.49824302  0.24557760  0.49219657
   0.51108663  0.00172584  0.74518118
   0.99913216  0.99709910  0.25230506
   0.50170380  0.23914881  0.00443215
   0.25611233  0.74802729  0.24760404
   0.23887434  0.49972302  0.99820598
   0.00309572  0.74247286  0.00164071
   0.74357033  0.75331720  0.25349565
   0.75971203  0.49590363  0.00235795
   0.50271227  0.49686055  0.25353310
   0.24886573  0.24003470  0.74958644
   0.25945558  0.00011472  0.50724446
   0.00264537  0.24410986  0.49916482
   0.24664674  0.76101516  0.75187833
   0.25513194  0.49744526  0.50059073
   0.00074771  0.75627374  0.49708783
   0.99657369  0.50219329  0.76201667
   0.74846106  0.76026015  0.75306523
   0.74533619  0.50213225  0.50029423
   0.49544813  0.76164749  0.48838293
   0.50211493  0.50180473  0.74559857
   0.51352272  0.01257257  0.97007242
   0.00260735  0.51979541  0.98710633
   0.49750371  0.72719719  0.26068129
   0.24358086  0.00214272  0.73170677
   0.48069635  0.98914721  0.51942138
   0.72740985  0.98162320  0.78018606
   0.00752499  0.75220446  0.25127020
   0.74750659  0.50687270  0.25174772
   0.01652513 -0.00013979  0.49905103
   0.49830230  0.51107970  0.49846312
   0.74926754  0.51312813  0.75320735
   0.74593724  0.75847301  0.49350740
HECN                                    
           1
     8.887725    0.012112   -0.008696
     0.018316    8.898483   -0.011973
     0.023331   -0.027346    8.922467
   Zr   Hf   Ti   N    C    Cr   Nb
   7   6   7  13  19   6   6
Direct configuration=     8
   0.00516035  0.99272328  0.00009917
   0.27267161  0.99837167  0.25050997
   0.24805526  0.49624764  0.24821552
   0.49767294  0.49908036  0.00065649
   0.50184947  0.24560179  0.74631795
  -0.00043883  0.49995322  0.50516477
   0.49516690  0.75873987  0.74861560
   0.99926098  0.24569796  0.24342967
   0.74169130  0.75371546  0.00665101
   0.99698922  0.24505036  0.75717863
   0.74677903  0.24028563  0.49926350
   0.00090736  0.75807652  0.74924172
   0.24847418  0.50011496  0.75159323
   0.26094220  0.23784738  0.99229750
   0.50355708  0.25917902  0.25018193
   0.73210510  0.99238635  0.25188024
   0.73987654  0.24486625  0.00086505
   0.25365824  0.75067481  0.00029548
   0.25493128  0.24639797  0.50601511
   0.25302954  0.75368278  0.49961679
   0.25351020  0.24652376  0.24488110
   0.26144139  0.00154073  0.99487961
   0.99821197  0.24730656  0.99966843
   0.74653149  0.24510713  0.24728550
   0.74069237  0.00401803  0.00138420
   0.51227286  0.00628797  0.25882930
   0.99527962  0.49718719  0.24369948
   0.49453982  0.76313642  0.00656876
   0.00033735  0.00338984  0.74430142
   0.75180279  0.24474119  0.75310930
   0.74758583  0.00022515  0.49445968
   0.49813314  0.24557616  0.49225162
   0.51160664  0.00164119  0.74496887
   0.99922049  0.99697193  0.25224543
   0.50169775  0.23906469  0.00436761
   0.25619122  0.74806486  0.24759927
   0.23878391  0.49973542  0.99824503
   0.00319220  0.74245251  0.00157190
   0.74340691  0.75347721  0.25343246
   0.75963014  0.49585307  0.00226732
   0.50270803  0.49694026  0.25342972
   0.24888080  0.23988367  0.74954508
   0.25909667  0.00017346  0.50731019
   0.00256170  0.24426512  0.49923603
   0.24670423  0.76122377  0.75186705
   0.25493097  0.49745399  0.50055381
   0.00063725  0.75618367  0.49701574
   0.99663905  0.50226129  0.76191601
   0.74850444  0.76039191  0.75309986
   0.74530679  0.50222454  0.50018255
   0.49529310  0.76187328  0.48847886
   0.50215926  0.50179912  0.74560885
   0.51283786  0.01258430  0.97020464
   0.00267887  0.52005394  0.98708908
   0.49752923  0.72706339  0.26097102
   0.24371511  0.00211518  0.73113526
   0.48054719  0.98928811  0.52095327
   0.72780440  0.98146333  0.78059004
   0.00755298  0.75233659  0.25115779
   0.74748378  0.50670749  0.25161220
   0.01637680 -0.00008777  0.49861783
   0.49844405  0.51103787  0.49856790
   0.74931429  0.51313236  0.75337806
   0.74588567  0.75863662  0.49337368
HECN                                    
           1
     8.889578    0.012853   -0.009856
     0.019064    8.895372   -0.015323
     0.022176   -0.030687    8.925008
   Zr   Hf   Ti   N    C    Cr   Nb
   7   6   7  13  19   6   6
Direct configuration=     9
   0.00590792  0.99268660  0.00034103
   0.27291802  0.99830077  0.25066429
   0.24799217  0.49604136  0.24789116
   0.49746437  0.49918402  0.00043109
   0.50154962  0.24644695  0.74647730
  -0.00040440  0.49973327  0.50562938
   0.49517426  0.75794893  0.74880683
   0.99928758  0.24550709  0.24302857
   0.74126145  0.75386377  0.00640675
   0.99708854  0.24490264  0.75737737
   0.74702446  0.24003585  0.49873863
   0.00110595  0.75804218  0.74930437
   0.24804247  0.50026597  0.75181853
   0.26130424  0.23743187  0.99240485
   0.50363025  0.25943496  0.25041142
   0.73145285  0.99256913  0.25102997
   0.73948956  0.24448776  0.00096049
   0.25396360  0.75069472  0.00043979
   0.25483449  0.24655276  0.50596322
   0.25328261  0.75373672  0.49965981
   0.25371960  0.24659593  0.24484464
   0.26176834  0.00139781  0.99520322
   0.99808351  0.24683943  0.99948138
   0.74638348  0.24513548  0.24715609
   0.74045313  0.00371995  0.00163282
   0.51273886  0.00675319  0.25901191
   0.99531261  0.49730077  0.24354980
   0.49440892  0.76286142  0.00648016
   0.00079092  0.00350263  0.74435773
   0.75182437  0.24437243  0.75303912
   0.74789031  0.00009281  0.49349376
   0.49791340  0.24557331  0.49236169
   0.51264655  0.00147173  0.74454435
   0.99939715  0.99671752  0.25212613
   0.50168564  0.23889640  0.00423851
   0.25634899  0.74814000  0.24758975
   0.23860306  0.49976026  0.99832311
   0.00338513  0.74241177  0.00143431
   0.74308008  0.75379726  0.25330614
   0.75946639  0.49575190  0.00208604
   0.50269954  0.49709966  0.25322303
   0.24891096  0.23958153  0.74946230
   0.25837895  0.00029101  0.50744158
   0.00239437  0.24457572  0.49937849
   0.24681918  0.76164107  0.75184458
   0.25452908  0.49747146  0.50047997
   0.00041634  0.75600347  0.49687152
   0.99676974  0.50239728  0.76171475
   0.74859120  0.76065549  0.75316915
   0.74524798  0.50240912  0.49995926
   0.49498309  0.76232498  0.48867078
   0.50224790  0.50178790  0.74562942
   0.51146830  0.01260788  0.97046894
   0.00282187  0.52057107  0.98705467
   0.49758031  0.72679584  0.26155035
   0.24398349  0.00205986  0.72999240
   0.48024908  0.98957055  0.52401664
   0.72859348  0.98114365  0.78139787
   0.00760893  0.75260084  0.25093306
   0.74743816  0.50637694  0.25134112
   0.01608012  0.00001613  0.49775155
   0.49872755  0.51095422  0.49877744
   0.74940781  0.51314087  0.75371946
   0.74578251  0.75896386  0.49310632
HECN                                    
           1
     8.888247    0.012321   -0.009023
     0.018527    8.897606   -0.012918
     0.023006   -0.028288    8.923183
   Zr   Hf   Ti   N    C    Cr   Nb
   7   6   7  13  19   6   6
Direct configuration=    10
   0.00537115  0.99271293  0.00016733
   0.27274108  0.99835168  0.25055349
   0.24803749  0.49618963  0.24812409
   0.49761415  0.49910960  0.00059290
   0.50176495  0.24583974  0.74636270
  -0.00042918  0.49989116  0.50529587
   0.49516891  0.75851708  0.74866975
   0.99926851  0.24564432  0.24331658
   0.74157011  0.75375726  0.00658211
   0.99701720  0.24500871  0.75723472
   0.74684828  0.24021544  0.49911550
   0.00096336  0.75806684  0.74925938
   0.24835242  0.50015740  0.75165678
   0.26104426  0.23773036  0.99232786
   0.50357771  0.25925104  0.25024659
   0.73192125  0.99243801  0.25164042
   0.73976738  0.24475962  0.00089211
   0.25374435  0.75068040  0.00033615
   0.25490400  0.24644157  0.50600044
   0.25310091  0.75369797  0.49962889
   0.25356926  0.24654411  0.24487078
   0.26153355  0.00150041  0.99497090
   0.99817573  0.24717505  0.99961581
   0.74648977  0.24511514  0.24724900
   0.74062486  0.00393401  0.00145443
   0.51240429  0.00641896  0.25888064
   0.99528894  0.49721922  0.24365723
   0.49450290  0.76305899  0.00654386
   0.00046526  0.00342162  0.74431723
   0.75180886  0.24463737  0.75308961
   0.74767178  0.00018816  0.49418723
   0.49807116  0.24557531  0.49228269
   0.51189993  0.00159364  0.74484908
   0.99927031  0.99690033  0.25221183
   0.50169434  0.23901733  0.00433124
   0.25623572  0.74808603  0.24759655
   0.23873290  0.49974239  0.99826706
   0.00324662  0.74244108  0.00153309
   0.74331477  0.75356735  0.25339677
   0.75958397  0.49582462  0.00221623
   0.50270566  0.49698520  0.25337138
   0.24888930  0.23979861  0.74952181
   0.25889426  0.00020648  0.50734728
   0.00251452  0.24435254  0.49927614
   0.24673668  0.76134130  0.75186059
   0.25481764  0.49745891  0.50053301
   0.00057495  0.75613295  0.49697513
   0.99667593  0.50229965  0.76185919
   0.74852892  0.76046612  0.75311932
   0.74529024  0.50227658  0.50011953
   0.49520569  0.76200041  0.48853290
   0.50218425  0.50179596  0.74561465
   0.51245161  0.01259079  0.97027931
   0.00271923  0.52019959  0.98707922
   0.49754357  0.72698789  0.26113449
   0.24379090  0.00209993  0.73081289
   0.48046285  0.98936681  0.52181729
   0.72802683  0.98137314  0.78081791
   0.00756880  0.75241107  0.25109433
   0.74747092  0.50661447  0.25153583
   0.01629322 -0.00005829  0.49837348
   0.49852398  0.51101427  0.49862700
   0.74934063  0.51313467  0.75347435
   0.74585662  0.75872884  0.49329819
HECN                                    
           1
     8.881978    0.011892   -0.008730
     0.018087    8.895175   -0.012987
     0.023281   -0.028358    8.919060
   Zr   Hf   Ti   N    C    Cr   Nb
   7   6   7  13  19   6   6
Direct configuration=    11
   0.00562880  0.99258036 -0.00006512
   0.27304999  0.99844592  0.25076269
   0.24791520  0.49623615  0.24819022
   0.49757318  0.49908275  0.00062161
   0.50193494  0.24576596  0.74633304
  -0.00047754  0.49991459  0.50523960
   0.49521197  0.75855703  0.74879419
   0.99934989  0.24578695  0.24313330
   0.74152645  0.75379465  0.00659593
   0.99690700  0.24490547  0.75732410
   0.74687040  0.24022282  0.49907593
   0.00090998  0.75821978  0.74917423
   0.24828852  0.50019674  0.75165875
   0.26111197  0.23773842  0.99236194
   0.50354643  0.25925752  0.25033316
   0.73174256  0.99265544  0.25120928
   0.73970955  0.24473284  0.00084023
   0.25373560  0.75066337  0.00049268
   0.25482730  0.24655706  0.50593763
   0.25304832  0.75364923  0.49958487
   0.25363275  0.24645188  0.24487462
   0.26176777  0.00132438  0.99501937
   0.99809758  0.24706528  0.99957761
   0.74638739  0.24515537  0.24718720
   0.74036836  0.00383206  0.00168657
   0.51226421  0.00654482  0.25877283
   0.99526980  0.49708154  0.24362726
   0.49452981  0.76291035  0.00652388
   0.00067083  0.00334322  0.74435266
   0.75175554  0.24450009  0.75298429
   0.74771835  0.00010727  0.49375093
   0.49802240  0.24540916  0.49225731
   0.51226359  0.00169601  0.74492494
   0.99934731  0.99697033  0.25206874
   0.50177972  0.23910116  0.00430419
   0.25621653  0.74811552  0.24772045
   0.23859165  0.49981918  0.99824782
   0.00336638  0.74243063  0.00150006
   0.74326428  0.75355380  0.25333549
   0.75964618  0.49567462  0.00220265
   0.50265556  0.49709079  0.25341449
   0.24885054  0.23973329  0.74948635
   0.25882215  0.00018456  0.50738709
   0.00251514  0.24442129  0.49926675
   0.24675120  0.76137180  0.75181323
   0.25482324  0.49746013  0.50051819
   0.00053169  0.75617754  0.49691611
   0.99663656  0.50227666  0.76180022
   0.74862512  0.76049525  0.75303923
   0.74532112  0.50229771  0.49999217
   0.49525338  0.76222082  0.48859201
   0.50204273  0.50184345  0.74569180
   0.51195862  0.01252849  0.97047818
   0.00274314  0.52042541  0.98711884
   0.49761791  0.72706591  0.26153437
   0.24368528  0.00213248  0.73059781
   0.48023102  0.98951285  0.52248462
   0.72860264  0.98120275  0.78104632
   0.00766687  0.75233227  0.25108007
   0.74746117  0.50646046  0.25137258
   0.01601770 -0.00010781  0.49827553
   0.49840100  0.51092822  0.49865744
   0.74957911  0.51300434  0.75369994
   0.74583658  0.75889134  0.49321966
HECN                                    
           1
     8.880668    0.011802   -0.008668
     0.017996    8.894667   -0.013002
     0.023339   -0.028372    8.918198
   Zr   Hf   Ti   N    C    Cr   Nb
   7   6   7  13  19   6   6
Direct configuration=    12
   0.00568269  0.99255265 -0.00011372
   0.27311460  0.99846563  0.25080643
   0.24788963  0.49624588  0.24820404