  64  64   1   0
  0.1081319E+02  0.8835075E-09  0.8832676E-09  0.8868764E-09  0.5000000E-15
  1.000000000000000E-004
  CAR 
 HEBCN                                   
     14.00000000    -58.00000000 1000      9.01576547      1.00000000
    -58.000  0.0000E+00  0.0000E+00
    -57.928  0.0000E+00  0.0000E+00
    -57.856  0.0000E+00  0.0000E+00
    -57.784  0.0000E+00  0.0000E+00
    -57.712  0.0000E+00  0.0000E+00
    -57.640  0.0000E+00  0.0000E+00
    -57.568  0.0000E+00  0.0000E+00
    -57.495  0.0000E+00  0.0000E+00
    -57.423  0.0000E+00  0.0000E+00
    -57.351  0.0000E+00  0.0000E+00
    -57.279  0.0000E+00  0.0000E+00
    -57.207  0.0000E+00  0.0000E+00
    -57.135  0.0000E+00  0.0000E+00
    -57.063  0.0000E+00  0.0000E+00
    -56.991  0.0000E+00  0.0000E+00
    -56.919  0.0000E+00  0.0000E+00
    -56.847  0.0000E+00  0.0000E+00
    -56.775  0.0000E+00  0.0000E+00
    -56.703  0.0000E+00  0.0000E+00
    -56.631  0.0000E+00  0.0000E+00
    -56.559  0.1171E-12  0.8436E-14
    -56.486  0.2190E-09  0.1579E-10
    -56.414  0.1503E-06  0.1085E-07
    -56.342  0.3787E-04  0.2740E-05
    -56.270  0.3554E-02  0.2589E-03
    -56.198  0.1267E+00  0.9393E-02
    -56.126  0.1771E+01  0.1370E+00
    -56.054  0.1021E+02  0.8732E+00
    -55.982  0.2696E+02  0.2816E+01
    -55.910  0.4004E+02  0.5702E+01
    -55.838  0.4530E+02  0.8966E+01
    -55.766  0.4152E+02  0.1196E+02
    -55.694  0.2235E+02  0.1357E+02
    -55.622  0.5422E+01  0.1396E+02
    -55.550  0.5312E+00  0.1400E+02
    -55.477  0.2011E-01  0.1400E+02
    -55.405  0.2873E-03  0.1400E+02
    -55.333  0.1524E-05  0.1400E+02
    -55.261  0.2968E-08  0.1400E+02
    -55.189  0.2106E-11  0.1400E+02
    -55.117  0.0000E+00  0.1400E+02
    -55.045  0.0000E+00  0.1400E+02
    -54.973  0.0000E+00  0.1400E+02
    -54.901  0.0000E+00  0.1400E+02
    -54.829  0.0000E+00  0.1400E+02
    -54.757  0.0000E+00  0.1400E+02
    -54.685  0.0000E+00  0.1400E+02
    -54.613  0.0000E+00  0.1400E+02
    -54.541  0.0000E+00  0.1400E+02
    -54.468  0.0000E+00  0.1400E+02
    -54.396  0.0000E+00  0.1400E+02
    -54.324  0.0000E+00  0.1400E+02
    -54.252  0.0000E+00  0.1400E+02
    -54.180  0.0000E+00  0.1400E+02
    -54.108  0.0000E+00  0.1400E+02
    -54.036  0.0000E+00  0.1400E+02
    -53.964  0.0000E+00  0.1400E+02
    -53.892  0.0000E+00  0.1400E+02
    -53.820  0.0000E+00  0.1400E+02
    -53.748  0.0000E+00  0.1400E+02
    -53.676  0.0000E+00  0.1400E+02
    -53.604  0.0000E+00  0.1400E+02
    -53.532  0.0000E+00  0.1400E+02
    -53.459  0.0000E+00  0.1400E+02
    -53.387  0.0000E+00  0.1400E+02
    -53.315  0.0000E+00  0.1400E+02
    -53.243  0.0000E+00  0.1400E+02
    -53.171  0.0000E+00  0.1400E+02
    -53.099  0.0000E+00  0.1400E+02
    -53.027  0.0000E+00  0.1400E+02
    -52.955  0.0000E+00  0.1400E+02
    -52.883  0.0000E+00  0.1400E+02
    -52.811  0.0000E+00  0.1400E+02
    -52.739  0.0000E+00  0.1400E+02
    -52.667  0.0000E+00  0.1400E+02
    -52.595  0.0000E+00  0.1400E+02
    -52.523  0.0000E+00  0.1400E+02
    -52.450  0.0000E+00  0.1400E+02
    -52.378  0.0000E+00  0.1400E+02
    -52.306  0.0000E+00  0.1400E+02
    -52.234  0.0000E+00  0.1400E+02
    -52.162  0.0000E+00  0.1400E+02
    -52.090  0.0000E+00  0.1400E+02
    -52.018  0.0000E+00  0.1400E+02
    -51.946  0.0000E+00  0.1400E+02
    -51.874  0.0000E+00  0.1400E+02
    -51.802  0.0000E+00  0.1400E+02
    -51.730  0.0000E+00  0.1400E+02
    -51.658  0.0000E+00  0.1400E+02
    -51.586  0.0000E+00  0.1400E+02
    -51.514  0.0000E+00  0.1400E+02
    -51.441  0.0000E+00  0.1400E+02
    -51.369  0.0000E+00  0.1400E+02
    -51.297  0.0000E+00  0.1400E+02
    -51.225  0.0000E+00  0.1400E+02
    -51.153  0.0000E+00  0.1400E+02
    -51.081  0.0000E+00  0.1400E+02
    -51.009  0.0000E+00  0.1400E+02
    -50.937  0.0000E+00  0.1400E+02
    -50.865  0.0000E+00  0.1400E+02
    -50.793  0.0000E+00  0.1400E+02
    -50.721  0.0000E+00  0.1400E+02
    -50.649  0.0000E+00  0.1400E+02
    -50.577  0.0000E+00  0.1400E+02
    -50.505  0.0000E+00  0.1400E+02
    -50.432  0.0000E+00  0.1400E+02
    -50.360  0.0000E+00  0.1400E+02
    -50.288  0.0000E+00  0.1400E+02
    -50.216  0.0000E+00  0.1400E+02
    -50.144  0.0000E+00  0.1400E+02
    -50.072  0.0000E+00  0.1400E+02
    -50.000  0.0000E+00  0.1400E+02
    -49.928  0.0000E+00  0.1400E+02
    -49.856  0.0000E+00  0.1400E+02
    -49.784  0.0000E+00  0.1400E+02
    -49.712  0.0000E+00  0.1400E+02
    -49.640  0.0000E+00  0.1400E+02
    -49.568  0.0000E+00  0.1400E+02
    -49.495  0.0000E+00  0.1400E+02
    -49.423  0.0000E+00  0.1400E+02
    -49.351  0.0000E+00  0.1400E+02
    -49.279  0.0000E+00  0.1400E+02
    -49.207  0.0000E+00  0.1400E+02
    -49.135  0.0000E+00  0.1400E+02
    -49.063  0.0000E+00  0.1400E+02
    -48.991  0.0000E+00  0.1400E+02
    -48.919  0.0000E+00  0.1400E+02
    -48.847  0.0000E+00  0.1400E+02
    -48.775  0.0000E+00  0.1400E+02
    -48.703  0.0000E+00  0.1400E+02
    -48.631  0.0000E+00  0.1400E+02
    -48.559  0.0000E+00  0.1400E+02
    -48.486  0.0000E+00  0.1400E+02
    -48.414  0.0000E+00  0.1400E+02
    -48.342  0.0000E+00  0.1400E+02
    -48.270  0.0000E+00  0.1400E+02
    -48.198  0.0000E+00  0.1400E+02
    -48.126  0.0000E+00  0.1400E+02
    -48.054  0.0000E+00  0.1400E+02
    -47.982  0.0000E+00  0.1400E+02
    -47.910  0.0000E+00  0.1400E+02
    -47.838  0.0000E+00  0.1400E+02
    -47.766  0.0000E+00  0.1400E+02
    -47.694  0.0000E+00  0.1400E+02
    -47.622  0.0000E+00  0.1400E+02
    -47.550  0.0000E+00  0.1400E+02
    -47.477  0.8673E-12  0.1400E+02
    -47.405  0.1242E-08  0.1400E+02
    -47.333  0.6438E-06  0.1400E+02
    -47.261  0.1214E-03  0.1400E+02
    -47.189  0.8406E-02  0.1400E+02
    -47.117  0.2173E+00  0.1402E+02
    -47.045  0.2170E+01  0.1417E+02
    -46.973  0.9161E+01  0.1483E+02
    -46.901  0.2033E+02  0.1630E+02
    -46.829  0.3019E+02  0.1847E+02
    -46.757  0.2983E+02  0.2062E+02
    -46.685  0.2095E+02  0.2213E+02
    -46.613  0.1544E+02  0.2325E+02
    -46.541  0.1234E+02  0.2413E+02
    -46.468  0.1205E+02  0.2500E+02
    -46.396  0.9728E+01  0.2570E+02
    -46.324  0.3568E+01  0.2596E+02
    -46.252  0.5106E+00  0.2600E+02
    -46.180  0.2765E-01  0.2600E+02
    -46.108  0.5579E-03  0.2600E+02
    -46.036  0.4143E-05  0.2600E+02
    -45.964  0.1122E-07  0.2600E+02
    -45.892  0.1100E-10  0.2600E+02
    -45.820  0.6162E-14  0.2600E+02
    -45.748  0.0000E+00  0.2600E+02
    -45.676  0.0000E+00  0.2600E+02
    -45.604  0.0000E+00  0.2600E+02
    -45.532  0.0000E+00  0.2600E+02
    -45.459  0.0000E+00  0.2600E+02
    -45.387  0.0000E+00  0.2600E+02
    -45.315  0.0000E+00  0.2600E+02
    -45.243  0.0000E+00  0.2600E+02
    -45.171  0.0000E+00  0.2600E+02
    -45.099  0.0000E+00  0.2600E+02
    -45.027  0.0000E+00  0.2600E+02
    -44.955  0.0000E+00  0.2600E+02
    -44.883  0.0000E+00  0.2600E+02
    -44.811  0.0000E+00  0.2600E+02
    -44.739  0.0000E+00  0.2600E+02
    -44.667  0.0000E+00  0.2600E+02
    -44.595  0.0000E+00  0.2600E+02
    -44.523  0.0000E+00  0.2600E+02
    -44.450  0.0000E+00  0.2600E+02
    -44.378  0.0000E+00  0.2600E+02
    -44.306  0.0000E+00  0.2600E+02
    -44.234  0.0000E+00  0.2600E+02
    -44.162  0.0000E+00  0.2600E+02
    -44.090  0.0000E+00  0.2600E+02
    -44.018  0.0000E+00  0.2600E+02
    -43.946  0.0000E+00  0.2600E+02
    -43.874  0.0000E+00  0.2600E+02
    -43.802  0.0000E+00  0.2600E+02
    -43.730  0.0000E+00  0.2600E+02
    -43.658  0.0000E+00  0.2600E+02
    -43.586  0.0000E+00  0.2600E+02
    -43.514  0.0000E+00  0.2600E+02
    -43.441  0.0000E+00  0.2600E+02
    -43.369  0.0000E+00  0.2600E+02
    -43.297  0.0000E+00  0.2600E+02
    -43.225  0.0000E+00  0.2600E+02
    -43.153  0.0000E+00  0.2600E+02
    -43.081  0.0000E+00  0.2600E+02
    -43.009  0.0000E+00  0.2600E+02
    -42.937  0.0000E+00  0.2600E+02
    -42.865  0.0000E+00  0.2600E+02
    -42.793  0.0000E+00  0.2600E+02
    -42.721  0.0000E+00  0.2600E+02
    -42.649  0.0000E+00  0.2600E+02
    -42.577  0.0000E+00  0.2600E+02
    -42.505  0.0000E+00  0.2600E+02
    -42.432  0.0000E+00  0.2600E+02
    -42.360  0.0000E+00  0.2600E+02
    -42.288  0.0000E+00  0.2600E+02
    -42.216  0.0000E+00  0.2600E+02
    -42.144  0.0000E+00  0.2600E+02
    -42.072  0.0000E+00  0.2600E+02
    -42.000  0.0000E+00  0.2600E+02
    -41.928  0.0000E+00  0.2600E+02
    -41.856  0.0000E+00  0.2600E+02
    -41.784  0.0000E+00  0.2600E+02
    -41.712  0.0000E+00  0.2600E+02
    -41.640  0.0000E+00  0.2600E+02
    -41.568  0.0000E+00  0.2600E+02
    -41.495  0.0000E+00  0.2600E+02
    -41.423  0.0000E+00  0.2600E+02
    -41.351  0.0000E+00  0.2600E+02
    -41.279  0.0000E+00  0.2600E+02
    -41.207  0.0000E+00  0.2600E+02
    -41.135  0.0000E+00  0.2600E+02
    -41.063  0.0000E+00  0.2600E+02
    -40.991  0.0000E+00  0.2600E+02
    -40.919  0.0000E+00  0.2600E+02
    -40.847  0.0000E+00  0.2600E+02
    -40.775  0.0000E+00  0.2600E+02
    -40.703  0.0000E+00  0.2600E+02
    -40.631  0.0000E+00  0.2600E+02
    -40.559  0.0000E+00  0.2600E+02
    -40.486  0.0000E+00  0.2600E+02
    -40.414  0.0000E+00  0.2600E+02
    -40.342  0.0000E+00  0.2600E+02
    -40.270  0.0000E+00  0.2600E+02
    -40.198  0.0000E+00  0.2600E+02
    -40.126  0.0000E+00  0.2600E+02
    -40.054  0.0000E+00  0.2600E+02
    -39.982  0.0000E+00  0.2600E+02
    -39.910  0.0000E+00  0.2600E+02
    -39.838  0.0000E+00  0.2600E+02
    -39.766  0.0000E+00  0.2600E+02
    -39.694  0.0000E+00  0.2600E+02
    -39.622  0.0000E+00  0.2600E+02
    -39.550  0.0000E+00  0.2600E+02
    -39.477  0.0000E+00  0.2600E+02
    -39.405  0.0000E+00  0.2600E+02
    -39.333  0.0000E+00  0.2600E+02
    -39.261  0.0000E+00  0.2600E+02
    -39.189  0.0000E+00  0.2600E+02
    -39.117  0.0000E+00  0.2600E+02
    -39.045  0.0000E+00  0.2600E+02
    -38.973  0.0000E+00  0.2600E+02
    -38.901  0.0000E+00  0.2600E+02
    -38.829  0.0000E+00  0.2600E+02
    -38.757  0.0000E+00  0.2600E+02
    -38.685  0.0000E+00  0.2600E+02
    -38.613  0.0000E+00  0.2600E+02
    -38.541  0.0000E+00  0.2600E+02
    -38.468  0.0000E+00  0.2600E+02
    -38.396  0.0000E+00  0.2600E+02
    -38.324  0.0000E+00  0.2600E+02
    -38.252  0.0000E+00  0.2600E+02
    -38.180  0.0000E+00  0.2600E+02
    -38.108  0.0000E+00  0.2600E+02
    -38.036  0.0000E+00  0.2600E+02
    -37.964  0.0000E+00  0.2600E+02
    -37.892  0.0000E+00  0.2600E+02
    -37.820  0.0000E+00  0.2600E+02
    -37.748  0.0000E+00  0.2600E+02
    -37.676  0.0000E+00  0.2600E+02
    -37.604  0.0000E+00  0.2600E+02
    -37.532  0.0000E+00  0.2600E+02
    -37.459  0.0000E+00  0.2600E+02
    -37.387  0.0000E+00  0.2600E+02
    -37.315  0.0000E+00  0.2600E+02
    -37.243  0.0000E+00  0.2600E+02
    -37.171  0.0000E+00  0.2600E+02
    -37.099  0.0000E+00  0.2600E+02
    -37.027  0.0000E+00  0.2600E+02
    -36.955  0.0000E+00  0.2600E+02
    -36.883  0.0000E+00  0.2600E+02
    -36.811  0.0000E+00  0.2600E+02
    -36.739  0.0000E+00  0.2600E+02
    -36.667  0.0000E+00  0.2600E+02
    -36.595  0.0000E+00  0.2600E+02
    -36.523  0.0000E+00  0.2600E+02
    -36.450  0.0000E+00  0.2600E+02
    -36.378  0.0000E+00  0.2600E+02
    -36.306  0.0000E+00  0.2600E+02
    -36.234  0.0000E+00  0.2600E+02
    -36.162  0.0000E+00  0.2600E+02
    -36.090  0.0000E+00  0.2600E+02
    -36.018  0.0000E+00  0.2600E+02
    -35.946  0.0000E+00  0.2600E+02
    -35.874  0.0000E+00  0.2600E+02
    -35.802  0.0000E+00  0.2600E+02
    -35.730  0.0000E+00  0.2600E+02
    -35.658  0.0000E+00  0.2600E+02
    -35.586  0.0000E+00  0.2600E+02
    -35.514  0.0000E+00  0.2600E+02
    -35.441  0.0000E+00  0.2600E+02
    -35.369  0.0000E+00  0.2600E+02
    -35.297  0.0000E+00  0.2600E+02
    -35.225  0.0000E+00  0.2600E+02
    -35.153  0.0000E+00  0.2600E+02
    -35.081  0.0000E+00  0.2600E+02
    -35.009  0.0000E+00  0.2600E+02
    -34.937  0.0000E+00  0.2600E+02
    -34.865  0.0000E+00  0.2600E+02
    -34.793  0.0000E+00  0.2600E+02
    -34.721  0.0000E+00  0.2600E+02
    -34.649  0.0000E+00  0.2600E+02
    -34.577  0.0000E+00  0.2600E+02
    -34.505  0.0000E+00  0.2600E+02
    -34.432  0.0000E+00  0.2600E+02
    -34.360  0.0000E+00  0.2600E+02
    -34.288  0.0000E+00  0.2600E+02
    -34.216  0.0000E+00  0.2600E+02
    -34.144  0.0000E+00  0.2600E+02
    -34.072  0.0000E+00  0.2600E+02
    -34.000  0.0000E+00  0.2600E+02
    -33.928  0.0000E+00  0.2600E+02
    -33.856  0.0000E+00  0.2600E+02
    -33.784  0.0000E+00  0.2600E+02
    -33.712  0.0000E+00  0.2600E+02
    -33.640  0.0000E+00  0.2600E+02
    -33.568  0.0000E+00  0.2600E+02
    -33.495  0.0000E+00  0.2600E+02
    -33.423  0.0000E+00  0.2600E+02
    -33.351  0.0000E+00  0.2600E+02
    -33.279  0.0000E+00  0.2600E+02
    -33.207  0.0000E+00  0.2600E+02
    -33.135  0.0000E+00  0.2600E+02
    -33.063  0.0000E+00  0.2600E+02
    -32.991  0.0000E+00  0.2600E+02
    -32.919  0.0000E+00  0.2600E+02
    -32.847  0.0000E+00  0.2600E+02
    -32.775  0.0000E+00  0.2600E+02
    -32.703  0.0000E+00  0.2600E+02
    -32.631  0.0000E+00  0.2600E+02
    -32.559  0.0000E+00  0.2600E+02
    -32.486  0.0000E+00  0.2600E+02
    -32.414  0.0000E+00  0.2600E+02
    -32.342  0.0000E+00  0.2600E+02
    -32.270  0.0000E+00  0.2600E+02
    -32.198  0.0000E+00  0.2600E+02
    -32.126  0.0000E+00  0.2600E+02
    -32.054  0.0000E+00  0.2600E+02
    -31.982  0.0000E+00  0.2600E+02
    -31.910  0.0000E+00  0.2600E+02
    -31.838  0.0000E+00  0.2600E+02
    -31.766  0.0000E+00  0.2600E+02
    -31.694  0.0000E+00  0.2600E+02
    -31.622  0.0000E+00  0.2600E+02
    -31.550  0.0000E+00  0.2600E+02
    -31.477  0.0000E+00  0.2600E+02
    -31.405  0.0000E+00  0.2600E+02
    -31.333  0.0000E+00  0.2600E+02
    -31.261  0.0000E+00  0.2600E+02
    -31.189  0.0000E+00  0.2600E+02
    -31.117  0.9534E-12  0.2600E+02
    -31.045  0.1351E-08  0.2600E+02
    -30.973  0.6923E-06  0.2600E+02
    -30.901  0.1294E-03  0.2600E+02
    -30.829  0.8935E-02  0.2600E+02
    -30.757  0.2327E+00  0.2602E+02
    -30.685  0.2369E+01  0.2619E+02
    -30.613  0.1002E+02  0.2691E+02
    -30.541  0.1963E+02  0.2833E+02
    -30.468  0.2373E+02  0.3004E+02
    -30.396  0.3255E+02  0.3238E+02
    -30.324  0.5747E+02  0.3652E+02
    -30.252  0.9492E+02  0.4336E+02
    -30.180  0.1123E+03  0.5146E+02
    -30.108  0.8910E+02  0.5788E+02
    -30.036  0.5972E+02  0.6218E+02
    -29.964  0.6029E+02  0.6653E+02
    -29.892  0.9393E+02  0.7330E+02
    -29.820  0.1316E+03  0.8278E+02
    -29.748  0.1420E+03  0.9302E+02
    -29.676  0.1021E+03  0.1004E+03
    -29.604  0.4128E+02  0.1033E+03
    -29.532  0.8282E+01  0.1039E+03
    -29.459  0.7460E+00  0.1040E+03
    -29.387  0.2787E-01  0.1040E+03
    -29.315  0.4090E-03  0.1040E+03
    -29.243  0.2277E-05  0.1040E+03
    -29.171  0.4710E-08  0.1040E+03
    -29.099  0.3566E-11  0.1040E+03
    -29.027  0.0000E+00  0.1040E+03
    -28.955  0.0000E+00  0.1040E+03
    -28.883  0.0000E+00  0.1040E+03
    -28.811  0.0000E+00  0.1040E+03
    -28.739  0.0000E+00  0.1040E+03
    -28.667  0.0000E+00  0.1040E+03
    -28.595  0.0000E+00  0.1040E+03
    -28.523  0.0000E+00  0.1040E+03
    -28.450  0.0000E+00  0.1040E+03
    -28.378  0.0000E+00  0.1040E+03
    -28.306  0.0000E+00  0.1040E+03
    -28.234  0.0000E+00  0.1040E+03
    -28.162  0.0000E+00  0.1040E+03
    -28.090  0.0000E+00  0.1040E+03
    -28.018  0.0000E+00  0.1040E+03
    -27.946  0.0000E+00  0.1040E+03
    -27.874  0.0000E+00  0.1040E+03
    -27.802  0.0000E+00  0.1040E+03
    -27.730  0.0000E+00  0.1040E+03
    -27.658  0.0000E+00  0.1040E+03
    -27.586  0.0000E+00  0.1040E+03
    -27.514  0.0000E+00  0.1040E+03
    -27.441  0.0000E+00  0.1040E+03
    -27.369  0.0000E+00  0.1040E+03
    -27.297  0.0000E+00  0.1040E+03
    -27.225  0.0000E+00  0.1040E+03
    -27.153  0.0000E+00  0.1040E+03
    -27.081  0.0000E+00  0.1040E+03
    -27.009  0.1277E-13  0.1040E+03
    -26.937  0.3316E-10  0.1040E+03
    -26.865  0.2985E-07  0.1040E+03
    -26.793  0.9847E-05  0.1040E+03
    -26.721  0.1206E-02  0.1040E+03
    -26.649  0.5587E-01  0.1040E+03
    -26.577  0.1007E+01  0.1041E+03
    -26.505  0.7416E+01  0.1046E+03
    -26.432  0.2435E+02  0.1064E+03
    -26.360  0.4202E+02  0.1094E+03
    -26.288  0.5007E+02  0.1130E+03
    -26.216  0.5781E+02  0.1172E+03
    -26.144  0.6988E+02  0.1222E+03
    -26.072  0.7955E+02  0.1279E+03
    -26.000  0.8016E+02  0.1337E+03
    -25.928  0.5667E+02  0.1378E+03
    -25.856  0.2405E+02  0.1395E+03
    -25.784  0.5753E+01  0.1399E+03
    -25.712  0.6872E+00  0.1400E+03
    -25.640  0.3560E-01  0.1400E+03
    -25.568  0.7296E-03  0.1400E+03
    -25.495  0.5639E-05  0.1400E+03
    -25.423  0.1605E-07  0.1400E+03
    -25.351  0.1660E-10  0.1400E+03
    -25.279  0.6162E-14  0.1400E+03
    -25.207  0.0000E+00  0.1400E+03
    -25.135  0.0000E+00  0.1400E+03
    -25.063  0.0000E+00  0.1400E+03
    -24.991  0.0000E+00  0.1400E+03
    -24.919  0.0000E+00  0.1400E+03
    -24.847  0.0000E+00  0.1400E+03
    -24.775  0.0000E+00  0.1400E+03
    -24.703  0.0000E+00  0.1400E+03
    -24.631  0.0000E+00  0.1400E+03
    -24.559  0.0000E+00  0.1400E+03
    -24.486  0.0000E+00  0.1400E+03
    -24.414  0.0000E+00  0.1400E+03
    -24.342  0.0000E+00  0.1400E+03
    -24.270  0.0000E+00  0.1400E+03
    -24.198  0.0000E+00  0.1400E+03
    -24.126  0.0000E+00  0.1400E+03
    -24.054  0.0000E+00  0.1400E+03
    -23.982  0.0000E+00  0.1400E+03
    -23.910  0.0000E+00  0.1400E+03
    -23.838  0.3412E-12  0.1400E+03
    -23.766  0.5511E-09  0.1400E+03
    -23.694  0.3217E-06  0.1400E+03
    -23.622  0.6830E-04  0.1400E+03
    -23.550  0.5315E-02  0.1400E+03
    -23.477  0.1534E+00  0.1400E+03
    -23.405  0.1667E+01  0.1401E+03
    -23.333  0.7051E+01  0.1406E+03
    -23.261  0.1342E+02  0.1416E+03
    -23.189  0.2040E+02  0.1431E+03
    -23.117  0.3936E+02  0.1459E+03
    -23.045  0.6467E+02  0.1506E+03
    -22.973  0.7876E+02  0.1563E+03
    -22.901  0.7482E+02  0.1616E+03
    -22.829  0.5602E+02  0.1657E+03
    -22.757  0.3602E+02  0.1683E+03
    -22.685  0.3090E+02  0.1705E+03
    -22.613  0.3446E+02  0.1730E+03
    -22.541  0.2776E+02  0.1750E+03
    -22.468  0.1163E+02  0.1758E+03
    -22.396  0.2222E+01  0.1760E+03
    -22.324  0.3931E+00  0.1760E+03
    -22.252  0.2189E+01  0.1762E+03
    -22.180  0.9351E+01  0.1768E+03
    -22.108  0.2036E+02  0.1783E+03
    -22.036  0.2639E+02  0.1802E+03
    -21.964  0.2007E+02  0.1817E+03
    -21.892  0.1966E+02  0.1831E+03
    -21.820  0.4981E+02  0.1867E+03
    -21.748  0.8099E+02  0.1925E+03
    -21.676  0.7240E+02  0.1977E+03
    -21.604  0.5023E+02  0.2013E+03
    -21.532  0.4531E+02  0.2046E+03
    -21.459  0.5711E+02  0.2087E+03
    -21.387  0.6005E+02  0.2131E+03
    -21.315  0.3881E+02  0.2159E+03
    -21.243  0.1907E+02  0.2172E+03
    -21.171  0.8437E+01  0.2178E+03
    -21.099  0.2086E+01  0.2180E+03
    -21.027  0.2122E+00  0.2180E+03
    -20.955  0.8225E-02  0.2180E+03
    -20.883  0.1185E-03  0.2180E+03
    -20.811  0.6274E-06  0.2180E+03
    -20.739  0.1209E-08  0.2180E+03
    -20.667  0.8423E-12  0.2180E+03
    -20.595  0.0000E+00  0.2180E+03
    -20.523  0.0000E+00  0.2180E+03
    -20.450  0.0000E+00  0.2180E+03
    -20.378  0.0000E+00  0.2180E+03
    -20.306  0.0000E+00  0.2180E+03
    -20.234  0.0000E+00  0.2180E+03
    -20.162  0.0000E+00  0.2180E+03
    -20.090  0.0000E+00  0.2180E+03
    -20.018  0.0000E+00  0.2180E+03
    -19.946  0.0000E+00  0.2180E+03
    -19.874  0.0000E+00  0.2180E+03
    -19.802  0.0000E+00  0.2180E+03
    -19.730  0.0000E+00  0.2180E+03
    -19.658  0.0000E+00  0.2180E+03
    -19.586  0.0000E+00  0.2180E+03
    -19.514  0.0000E+00  0.2180E+03
    -19.441  0.0000E+00  0.2180E+03
    -19.369  0.0000E+00  0.2180E+03
    -19.297  0.0000E+00  0.2180E+03
    -19.225  0.0000E+00  0.2180E+03
    -19.153  0.0000E+00  0.2180E+03
    -19.081  0.0000E+00  0.2180E+03
    -19.009  0.0000E+00  0.2180E+03
    -18.937  0.0000E+00  0.2180E+03
    -18.865  0.0000E+00  0.2180E+03
    -18.793  0.0000E+00  0.2180E+03
    -18.721  0.0000E+00  0.2180E+03
    -18.649  0.0000E+00  0.2180E+03
    -18.577  0.0000E+00  0.2180E+03
    -18.505  0.0000E+00  0.2180E+03
    -18.432  0.0000E+00  0.2180E+03
    -18.360  0.0000E+00  0.2180E+03
    -18.288  0.0000E+00  0.2180E+03
    -18.216  0.0000E+00  0.2180E+03
    -18.144  0.0000E+00  0.2180E+03
    -18.072  0.0000E+00  0.2180E+03
    -18.000  0.0000E+00  0.2180E+03
    -17.928  0.0000E+00  0.2180E+03
    -17.856  0.0000E+00  0.2180E+03
    -17.784  0.0000E+00  0.2180E+03
    -17.712  0.0000E+00  0.2180E+03
    -17.640  0.0000E+00  0.2180E+03
    -17.568  0.0000E+00  0.2180E+03
    -17.495  0.0000E+00  0.2180E+03
    -17.423  0.0000E+00  0.2180E+03
    -17.351  0.0000E+00  0.2180E+03
    -17.279  0.0000E+00  0.2180E+03
    -17.207  0.0000E+00  0.2180E+03
    -17.135  0.0000E+00  0.2180E+03
    -17.063  0.0000E+00  0.2180E+03
    -16.991  0.0000E+00  0.2180E+03
    -16.919  0.0000E+00  0.2180E+03
    -16.847  0.0000E+00  0.2180E+03
    -16.775  0.0000E+00  0.2180E+03
    -16.703  0.0000E+00  0.2180E+03
    -16.631  0.0000E+00  0.2180E+03
    -16.559  0.0000E+00  0.2180E+03
    -16.486  0.0000E+00  0.2180E+03
    -16.414  0.0000E+00  0.2180E+03
    -16.342  0.0000E+00  0.2180E+03
    -16.270  0.0000E+00  0.2180E+03
    -16.198  0.0000E+00  0.2180E+03
    -16.126  0.0000E+00  0.2180E+03
    -16.054  0.0000E+00  0.2180E+03
    -15.982  0.0000E+00  0.2180E+03
    -15.910  0.0000E+00  0.2180E+03
    -15.838  0.0000E+00  0.2180E+03
    -15.766  0.0000E+00  0.2180E+03
    -15.694  0.0000E+00  0.2180E+03
    -15.622  0.0000E+00  0.2180E+03
    -15.550  0.0000E+00  0.2180E+03
    -15.477  0.0000E+00  0.2180E+03
    -15.405  0.0000E+00  0.2180E+03
    -15.333  0.0000E+00  0.2180E+03
    -15.261  0.0000E+00  0.2180E+03
    -15.189  0.0000E+00  0.2180E+03
    -15.117  0.0000E+00  0.2180E+03
    -15.045  0.0000E+00  0.2180E+03
    -14.973  0.0000E+00  0.2180E+03
    -14.901  0.0000E+00  0.2180E+03
    -14.829  0.0000E+00  0.2180E+03
    -14.757  0.0000E+00  0.2180E+03
    -14.685  0.0000E+00  0.2180E+03
    -14.613  0.0000E+00  0.2180E+03
    -14.541  0.0000E+00  0.2180E+03
    -14.468  0.0000E+00  0.2180E+03
    -14.396  0.0000E+00  0.2180E+03
    -14.324  0.0000E+00  0.2180E+03
    -14.252  0.0000E+00  0.2180E+03
    -14.180  0.0000E+00  0.2180E+03
    -14.108  0.0000E+00  0.2180E+03
    -14.036  0.0000E+00  0.2180E+03
    -13.964  0.0000E+00  0.2180E+03
    -13.892  0.0000E+00  0.2180E+03
    -13.820  0.0000E+00  0.2180E+03
    -13.748  0.0000E+00  0.2180E+03
    -13.676  0.0000E+00  0.2180E+03
    -13.604  0.0000E+00  0.2180E+03
    -13.532  0.0000E+00  0.2180E+03
    -13.459  0.0000E+00  0.2180E+03
    -13.387  0.0000E+00  0.2180E+03
    -13.315  0.0000E+00  0.2180E+03
    -13.243  0.0000E+00  0.2180E+03
    -13.171  0.0000E+00  0.2180E+03
    -13.099  0.0000E+00  0.2180E+03
    -13.027  0.0000E+00  0.2180E+03
    -12.955  0.0000E+00  0.2180E+03
    -12.883  0.0000E+00  0.2180E+03
    -12.811  0.0000E+00  0.2180E+03
    -12.739  0.0000E+00  0.2180E+03
    -12.667  0.0000E+00  0.2180E+03
    -12.595  0.0000E+00  0.2180E+03
    -12.523  0.0000E+00  0.2180E+03
    -12.450  0.0000E+00  0.2180E+03
    -12.378  0.0000E+00  0.2180E+03
    -12.306  0.0000E+00  0.2180E+03
    -12.234  0.0000E+00  0.2180E+03
    -12.162  0.0000E+00  0.2180E+03
    -12.090  0.0000E+00  0.2180E+03
    -12.018  0.0000E+00  0.2180E+03
    -11.946  0.0000E+00  0.2180E+03
    -11.874  0.0000E+00  0.2180E+03
    -11.802  0.0000E+00  0.2180E+03
    -11.730  0.0000E+00  0.2180E+03
    -11.658  0.0000E+00  0.2180E+03
    -11.586  0.0000E+00  0.2180E+03
    -11.514  0.0000E+00  0.2180E+03
    -11.441  0.0000E+00  0.2180E+03
    -11.369  0.0000E+00  0.2180E+03
    -11.297  0.0000E+00  0.2180E+03
    -11.225  0.0000E+00  0.2180E+03
    -11.153  0.0000E+00  0.2180E+03
    -11.081  0.0000E+00  0.2180E+03
    -11.009  0.0000E+00  0.2180E+03
    -10.937  0.0000E+00  0.2180E+03
    -10.865  0.0000E+00  0.2180E+03
    -10.793  0.0000E+00  0.2180E+03
    -10.721  0.0000E+00  0.2180E+03
    -10.649  0.0000E+00  0.2180E+03
    -10.577  0.0000E+00  0.2180E+03
    -10.505  0.0000E+00  0.2180E+03
    -10.432  0.0000E+00  0.2180E+03
    -10.360  0.0000E+00  0.2180E+03
    -10.288  0.0000E+00  0.2180E+03
    -10.216  0.0000E+00  0.2180E+03
    -10.144  0.0000E+00  0.2180E+03
    -10.072  0.0000E+00  0.2180E+03
    -10.000  0.0000E+00  0.2180E+03
     -9.928  0.0000E+00  0.2180E+03
     -9.856  0.0000E+00  0.2180E+03
     -9.784  0.0000E+00  0.2180E+03
     -9.712  0.0000E+00  0.2180E+03
     -9.640  0.0000E+00  0.2180E+03
     -9.568  0.0000E+00  0.2180E+03
     -9.495  0.0000E+00  0.2180E+03
     -9.423  0.0000E+00  0.2180E+03
     -9.351  0.0000E+00  0.2180E+03
     -9.279  0.0000E+00  0.2180E+03
     -9.207  0.0000E+00  0.2180E+03
     -9.135  0.0000E+00  0.2180E+03
     -9.063  0.0000E+00  0.2180E+03
     -8.991  0.0000E+00  0.2180E+03
     -8.919  0.0000E+00  0.2180E+03
     -8.847  0.0000E+00  0.2180E+03
     -8.775  0.0000E+00  0.2180E+03
     -8.703  0.0000E+00  0.2180E+03
     -8.631  0.0000E+00  0.2180E+03
     -8.559  0.0000E+00  0.2180E+03
     -8.486  0.0000E+00  0.2180E+03
     -8.414  0.0000E+00  0.2180E+03
     -8.342  0.4279E-15  0.2180E+03
     -8.270  0.9945E-12  0.2180E+03
     -8.198  0.8492E-09  0.2180E+03
     -8.126  0.2771E-06  0.2180E+03
     -8.054  0.3544E-04  0.2180E+03
     -7.982  0.1832E-02  0.2180E+03
     -7.910  0.3968E-01  0.2180E+03
     -7.838  0.3765E+00  0.2180E+03
     -7.766  0.1680E+01  0.2182E+03
     -7.694  0.4011E+01  0.2184E+03
     -7.622  0.6062E+01  0.2189E+03
     -7.550  0.6404E+01  0.2193E+03
     -7.477  0.4884E+01  0.2197E+03
     -7.405  0.3017E+01  0.2199E+03
     -7.333  0.2544E+01  0.2201E+03
     -7.261  0.4596E+01  0.2204E+03
     -7.189  0.8433E+01  0.2210E+03
     -7.117  0.1074E+02  0.2218E+03
     -7.045  0.1071E+02  0.2226E+03
     -6.973  0.1101E+02  0.2234E+03
     -6.901  0.1276E+02  0.2243E+03
     -6.829  0.1748E+02  0.2255E+03
     -6.757  0.2097E+02  0.2271E+03
     -6.685  0.2119E+02  0.2286E+03
     -6.613  0.2155E+02  0.2301E+03
     -6.541  0.1703E+02  0.2314E+03
     -6.468  0.7683E+01  0.2319E+03
     -6.396  0.4669E+01  0.2323E+03
     -6.324  0.1115E+02  0.2331E+03
     -6.252  0.1928E+02  0.2345E+03
     -6.180  0.2402E+02  0.2362E+03
     -6.108  0.2490E+02  0.2380E+03
     -6.036  0.1902E+02  0.2393E+03
     -5.964  0.1136E+02  0.2402E+03
     -5.892  0.1072E+02  0.2409E+03
     -5.820  0.1059E+02  0.2417E+03
     -5.748  0.8552E+01  0.2423E+03
     -5.676  0.1042E+02  0.2431E+03
     -5.604  0.8969E+01  0.2437E+03
     -5.532  0.3386E+01  0.2440E+03
     -5.459  0.5228E+00  0.2440E+03
     -5.387  0.3221E-01  0.2440E+03
     -5.315  0.7740E-03  0.2440E+03
     -5.243  0.7108E-05  0.2440E+03
     -5.171  0.2452E-07  0.2440E+03
     -5.099  0.3137E-10  0.2440E+03
     -5.027  0.1455E-13  0.2440E+03
     -4.955  0.0000E+00  0.2440E+03
     -4.883  0.0000E+00  0.2440E+03
     -4.811  0.0000E+00  0.2440E+03
     -4.739  0.0000E+00  0.2440E+03
     -4.667  0.3751E-14  0.2440E+03
     -4.595  0.6284E-11  0.2440E+03
     -4.523  0.3958E-08  0.2440E+03
     -4.450  0.9605E-06  0.2440E+03
     -4.378  0.9216E-04  0.2440E+03
     -4.306  0.3611E-02  0.2440E+03
     -4.234  0.6041E-01  0.2440E+03
     -4.162  0.4614E+00  0.2440E+03
     -4.090  0.1788E+01  0.2442E+03
     -4.018  0.4027E+01  0.2445E+03
     -3.946  0.5938E+01  0.2449E+03
     -3.874  0.6207E+01  0.2453E+03
     -3.802  0.4881E+01  0.2457E+03
     -3.730  0.3278E+01  0.2459E+03
     -3.658  0.3102E+01  0.2461E+03
     -3.586  0.4967E+01  0.2465E+03
     -3.514  0.7415E+01  0.2470E+03
     -3.441  0.8302E+01  0.2476E+03
     -3.369  0.8160E+01  0.2482E+03
     -3.297  0.9275E+01  0.2489E+03
     -3.225  0.1058E+02  0.2497E+03
     -3.153  0.1180E+02  0.2505E+03
     -3.081  0.1397E+02  0.2515E+03
     -3.009  0.1593E+02  0.2527E+03
     -2.937  0.1799E+02  0.2540E+03
     -2.865  0.2023E+02  0.2554E+03
     -2.793  0.2169E+02  0.2570E+03
     -2.721  0.2239E+02  0.2586E+03
     -2.649  0.2317E+02  0.2603E+03
     -2.577  0.2567E+02  0.2621E+03
     -2.505  0.2715E+02  0.2641E+03
     -2.432  0.2558E+02  0.2659E+03
     -2.360  0.2422E+02  0.2677E+03
     -2.288  0.2421E+02  0.2694E+03
     -2.216  0.2371E+02  0.2711E+03
     -2.144  0.2016E+02  0.2726E+03
     -2.072  0.1668E+02  0.2738E+03
     -2.000  0.1693E+02  0.2750E+03
     -1.928  0.1741E+02  0.2762E+03
     -1.856  0.1619E+02  0.2774E+03
     -1.784  0.1476E+02  0.2785E+03
     -1.712  0.1337E+02  0.2794E+03
     -1.640  0.1104E+02  0.2802E+03
     -1.568  0.8461E+01  0.2808E+03
     -1.495  0.6150E+01  0.2813E+03
     -1.423  0.4183E+01  0.2816E+03
     -1.351  0.2999E+01  0.2818E+03
     -1.279  0.1851E+01  0.2819E+03
     -1.207  0.7296E+00  0.2820E+03
     -1.135  0.1648E+00  0.2820E+03
     -1.063  0.2022E-01  0.2820E+03
     -0.991  0.1214E-02  0.2820E+03
     -0.919  0.3163E-04  0.2820E+03
     -0.847  0.3294E-06  0.2820E+03
     -0.775  0.1309E-08  0.2820E+03
     -0.703  0.1940E-11  0.2820E+03
     -0.631  0.1070E-14  0.2820E+03
     -0.559  0.0000E+00  0.2820E+03
     -0.486  0.0000E+00  0.2820E+03
     -0.414  0.0000E+00  0.2820E+03
     -0.342  0.0000E+00  0.2820E+03
     -0.270  0.0000E+00  0.2820E+03
     -0.198  0.0000E+00  0.2820E+03
     -0.126  0.6918E-15  0.2820E+03
     -0.054  0.1284E-11  0.2820E+03
      0.018  0.8768E-09  0.2820E+03
      0.090  0.2213E-06  0.2820E+03
      0.162  0.2109E-04  0.2820E+03
      0.234  0.7888E-03  0.2820E+03
      0.306  0.1245E-01  0.2820E+03
      0.378  0.9418E-01  0.2820E+03
      0.450  0.3977E+00  0.2820E+03
      0.523  0.1034E+01  0.2821E+03
      0.595  0.1751E+01  0.2822E+03
      0.667  0.2380E+01  0.2824E+03
      0.739  0.3481E+01  0.2827E+03
      0.811  0.4912E+01  0.2830E+03
      0.883  0.6056E+01  0.2835E+03
      0.955  0.7304E+01  0.2840E+03
      1.027  0.8065E+01  0.2846E+03
      1.099  0.7807E+01  0.2851E+03
      1.171  0.8084E+01  0.2857E+03
      1.243  0.9314E+01  0.2864E+03
      1.315  0.1080E+02  0.2872E+03
      1.387  0.1237E+02  0.2880E+03
      1.459  0.1311E+02  0.2890E+03