 running on   24 total cores
 distrk:  each k-point on   24 cores,    1 groups
 distr:  one band on    1 cores,   24 groups
 using from now: INCAR     
 vasp.5.4.4.18Apr17-6-g9f103f2a35 (build Oct 18 2021 20:38:43) complex          
  
 POSCAR found type information on POSCAR  Zr Mo Hf N  C  Ta Nb
 POSCAR found :  7 types and      64 ions
 scaLAPACK will be used

 ----------------------------------------------------------------------------- 
|                                                                             |
|           W    W    AA    RRRRR   N    N  II  N    N   GGGG   !!!           |
|           W    W   A  A   R    R  NN   N  II  NN   N  G    G  !!!           |
|           W    W  A    A  R    R  N N  N  II  N N  N  G       !!!           |
|           W WW W  AAAAAA  RRRRR   N  N N  II  N  N N  G  GGG   !            |
|           WW  WW  A    A  R   R   N   NN  II  N   NN  G    G                |
|           W    W  A    A  R    R  N    N  II  N    N   GGGG   !!!           |
|                                                                             |
|      For optimal performance we recommend to set                            |
|        NCORE= 4 - approx SQRT( number of cores)                             |
|      NCORE specifies how many cores store one orbital (NPAR=cpu/NCORE).     |
|      This setting can  greatly improve the performance of VASP for DFT.     |
|      The default,   NCORE=1            might be grossly inefficient         |
|      on modern multi-core architectures or massively parallel machines.     |
|      Do your own testing !!!!                                               |
|      Unfortunately you need to use the default for GW and RPA calculations. |
|      (for HF NCORE is supported but not extensively tested yet)             |
|                                                                             |
 ----------------------------------------------------------------------------- 


 ----------------------------------------------------------------------------- 
|                                                                             |
|  ADVICE TO THIS USER RUNNING 'VASP/VAMP'   (HEAR YOUR MASTER'S VOICE ...):  |
|                                                                             |
|      You have a (more or less) 'large supercell' and for larger cells       |
|      it might be more efficient to use real space projection operators      |
|      So try LREAL= Auto  in the INCAR   file.                               |
|      Mind: If you want to do a very accurate calculations keep the          |
|      reciprocal projection scheme          (i.e. LREAL=.FALSE.)             |
|                                                                             |
 ----------------------------------------------------------------------------- 

 LDA part: xc-table for Pade appr. of Perdew
 POSCAR, INCAR and KPOINTS ok, starting setup
 FFT: planning ...
 WAVECAR not read
 entering main loop
       N       E                     dE             d eps       ncg     rms          rms(c)
DAV:   1     0.381292918474E+04    0.38129E+04   -0.21264E+05  8064   0.140E+03
DAV:   2    -0.246240120676E+03   -0.40592E+04   -0.38624E+04  9432   0.524E+02
DAV:   3    -0.748471815996E+03   -0.50223E+03   -0.49192E+03 13512   0.153E+02
DAV:   4    -0.778837413774E+03   -0.30366E+02   -0.29974E+02 14064   0.368E+01
DAV:   5    -0.781642394685E+03   -0.28050E+01   -0.27945E+01 13776   0.897E+00    0.563E+01
RMM:   6    -0.681840388953E+03    0.99802E+02   -0.80081E+02 12591   0.346E+01    0.200E+01
RMM:   7    -0.668165373212E+03    0.13675E+02   -0.69198E+01 13658   0.182E+01    0.130E+01
RMM:   8    -0.665000576665E+03    0.31648E+01   -0.11823E+01 13700   0.501E+00    0.770E+00
RMM:   9    -0.664667355463E+03    0.33322E+00   -0.40894E+00 13484   0.351E+00    0.517E+00
RMM:  10    -0.664431114491E+03    0.23624E+00   -0.20283E+00 14071   0.191E+00    0.262E+00
RMM:  11    -0.664366718634E+03    0.64396E-01   -0.59863E-01 13901   0.143E+00    0.125E+00
RMM:  12    -0.664388295489E+03   -0.21577E-01   -0.52465E-01 14162   0.856E-01    0.971E-01
RMM:  13    -0.664392545955E+03   -0.42505E-02   -0.18512E-01 14700   0.527E-01    0.778E-01
RMM:  14    -0.664390591634E+03    0.19543E-02   -0.77435E-02 13852   0.331E-01    0.505E-01
RMM:  15    -0.664389598417E+03    0.99322E-03   -0.55449E-02 14257   0.314E-01    0.133E-01
RMM:  16    -0.664390441475E+03   -0.84306E-03   -0.16289E-02 15088   0.168E-01    0.103E-01
RMM:  17    -0.664390846403E+03   -0.40493E-03   -0.81246E-03 14401   0.960E-02    0.822E-02
RMM:  18    -0.664391113690E+03   -0.26729E-03   -0.42471E-03 14339   0.749E-02    0.372E-02
RMM:  19    -0.664391263275E+03   -0.14959E-03   -0.21420E-03 13204   0.492E-02    0.231E-02
RMM:  20    -0.664391353572E+03   -0.90297E-04   -0.12776E-03 12990   0.432E-02    0.209E-02
RMM:  21    -0.664391412451E+03   -0.58879E-04   -0.64450E-04 12007   0.297E-02    0.881E-03
RMM:  22    -0.664391444541E+03   -0.32090E-04   -0.36713E-04 11271   0.270E-02    0.564E-03
RMM:  23    -0.664391463146E+03   -0.18605E-04   -0.21030E-04 10273   0.197E-02    0.327E-03
WARNING in EDDRMM: call to ZHEGV failed, returncode =   6  3     10
RMM:  24    -0.664391476009E+03   -0.12864E-04   -0.13307E-04  9081   0.179E-02    0.209E-03
RMM:  25    -0.664391482339E+03   -0.63292E-05   -0.72380E-05  8215   0.171E-02
   1 F= -.66439148E+03 E0= -.66434249E+03  d E =-.979883E-01
 writing wavefunctions
