<?xml version="1.0" encoding="ISO-8859-1"?>
<modeling>
 <generator>
  <i name="program" type="string">vasp </i>
  <i name="version" type="string">5.4.4.18Apr17-6-g9f103f2a35  </i>
  <i name="subversion" type="string">(build Oct 18 2021 20:38:43) complex            parallel </i>
  <i name="platform" type="string">LinuxIFC </i>
  <i name="date" type="string">2025 11 12 </i>
  <i name="time" type="string">17:07:37 </i>
 </generator>
 <incar>
  <i type="string" name="SYSTEM">HEBCN</i>
  <i type="int" name="ISTART">     0</i>
  <i type="string" name="PREC">normal</i>
  <i type="string" name="ALGO">Fast</i>
  <i type="int" name="ICHARG">     2</i>
  <i type="int" name="NELM">    60</i>
  <i type="int" name="IBRION">    -1</i>
  <i name="EDIFF">      0.00001000</i>
  <i name="EDIFFG">     -0.01000000</i>
  <i type="int" name="NSW">     0</i>
  <i type="int" name="ISIF">     2</i>
  <i name="ENCUT">    400.00000000</i>
  <i name="POTIM">      0.50000000</i>
  <i type="logical" name="LREAL"> F  </i>
  <i type="int" name="ISMEAR">     0</i>
  <i name="SIGMA">      0.10000000</i>
  <i type="logical" name="LWAVE"> T  </i>
  <i type="logical" name="LCHARG"> T  </i>
  <v type="int" name="KPOINT_BSE">    -1     0     0     0</v>
  <i type="int" name="NELM">    60</i>
 </incar>
 <structure name="primitive_cell" >
  <crystal>
   <varray name="basis" >
    <v>       9.03972867      -0.00879691       0.00953501 </v>
    <v>      -0.00313273       9.06033028       0.00116777 </v>
    <v>       0.04202810      -0.01453105       9.01823866 </v>
   </varray>
   <i name="volume">    738.61642026 </i>
   <varray name="rec_basis" >
    <v>       0.11062337       0.00003832      -0.00051548 </v>
    <v>       0.00010722       0.11037127       0.00017734 </v>
    <v>      -0.00011698      -0.00001433       0.11088692 </v>
   </varray>
  </crystal>
  <varray name="positions" >
   <v>      -0.00385612      -0.00111428      -0.00014060 </v>
   <v>      -0.00078041       0.00098963      -0.25139882 </v>
   <v>      -0.25655066       0.00206690      -0.00332426 </v>
   <v>       0.00000910      -0.25397996       0.00150828 </v>
   <v>      -0.00416244      -0.00237751       0.25416458 </v>
   <v>       0.00057065       0.25421950       0.01124952 </v>
   <v>       0.25632949      -0.00006706      -0.00518756 </v>
   <v>       0.23028326       0.00369011      -0.25372847 </v>
   <v>      -0.23493453      -0.01213728      -0.25508881 </v>
   <v>      -0.00369655      -0.23648381       0.25317624 </v>
   <v>      -0.23048040      -0.26261745      -0.00311528 </v>
   <v>       0.24219828      -0.25232224      -0.00291387 </v>
   <v>      -0.24290099       0.25779145      -0.00764552 </v>
   <v>      -0.25138595      -0.00108358       0.25429125 </v>
   <v>      -0.01257679       0.23107217       0.26824219 </v>
   <v>       0.24425967       0.25226850      -0.00512155 </v>
   <v>       0.25018339       0.00044227       0.25139747 </v>
   <v>      -0.00877692      -0.26720373      -0.24584093 </v>
   <v>       0.01948111       0.27592937      -0.24903762 </v>
   <v>      -0.24245552       0.23755138      -0.25095756 </v>
   <v>      -0.25032296       0.24885476       0.24227306 </v>
   <v>       0.24337191      -0.24468247      -0.24899619 </v>
   <v>      -0.25109374      -0.24751778      -0.25002759 </v>
   <v>      -0.25312860      -0.25169470       0.24584709 </v>
   <v>       0.25335381       0.24497162      -0.25057428 </v>
   <v>       0.25099659      -0.24891305       0.24947487 </v>
   <v>       0.24973189       0.24849423       0.25210920 </v>
   <v>      -0.49766125       0.00681899       0.00806253 </v>
   <v>      -0.00126296      -0.49519393      -0.00067544 </v>
   <v>      -0.00090992       0.00293078       0.49930503 </v>
   <v>      -0.00496960       0.24856423      -0.48597238 </v>
   <v>      -0.49637643       0.24246183       0.00120418 </v>
   <v>      -0.49363667       0.00016967      -0.24977603 </v>
   <v>      -0.49740213       0.00080995       0.24902777 </v>
   <v>      -0.00463582      -0.24517890      -0.49597475 </v>
   <v>       0.49658800      -0.23589301       0.00355498 </v>
   <v>      -0.24281895      -0.49817106      -0.00045828 </v>
   <v>       0.25047022      -0.00001634      -0.49483814 </v>
   <v>      -0.00514986       0.49666995       0.24350717 </v>
   <v>       0.00256329      -0.49875761      -0.24638714 </v>
   <v>      -0.25556328       0.00198612      -0.49598076 </v>
   <v>       0.24405054       0.49943566      -0.00274656 </v>
   <v>      -0.23024873       0.25884506       0.47914419 </v>
   <v>      -0.25775394      -0.48303354      -0.25218037 </v>
   <v>       0.24430152      -0.25061156      -0.49557396 </v>
   <v>       0.24565374       0.25114586      -0.49520449 </v>
   <v>      -0.24762885      -0.25735464       0.49692604 </v>
   <v>       0.49836155      -0.24578095      -0.25048804 </v>
   <v>      -0.49644269       0.25630059       0.25307916 </v>
   <v>      -0.49879509      -0.25568408       0.25221235 </v>
   <v>       0.26269579       0.48755306      -0.25158795 </v>
   <v>      -0.25400421      -0.49780128       0.25316053 </v>
   <v>      -0.49883209       0.24589837      -0.25660377 </v>
   <v>       0.24945717       0.49987491       0.25085290 </v>
   <v>       0.49361013      -0.01202654       0.49016878 </v>
   <v>      -0.49935883      -0.49809901      -0.00100305 </v>
   <v>      -0.00229917       0.49993588       0.49972288 </v>
   <v>      -0.49822618       0.24081808       0.49540614 </v>
   <v>       0.49863831      -0.24945758       0.49697020 </v>
   <v>      -0.49701389      -0.49788889       0.25279214 </v>
   <v>      -0.25323479       0.49555246      -0.49926923 </v>
   <v>      -0.49826250      -0.49996391      -0.25419821 </v>
   <v>       0.25251330       0.49964993      -0.49630180 </v>
   <v>       0.49991922      -0.48734466       0.49948823 </v>
  </varray>
 </structure>
 <varray name="primitive_index" >
  <v type="int" >        1 </v>
  <v type="int" >       29 </v>
  <v type="int" >       25 </v>
  <v type="int" >       38 </v>
  <v type="int" >       34 </v>
  <v type="int" >       23 </v>
  <v type="int" >       22 </v>
  <v type="int" >       56 </v>
  <v type="int" >       58 </v>
  <v type="int" >       59 </v>
  <v type="int" >        9 </v>
  <v type="int" >       18 </v>
  <v type="int" >       17 </v>
  <v type="int" >       16 </v>
  <v type="int" >        8 </v>
  <v type="int" >       14 </v>
  <v type="int" >        2 </v>
  <v type="int" >       12 </v>
  <v type="int" >       10 </v>
  <v type="int" >       30 </v>
  <v type="int" >       24 </v>
  <v type="int" >       45 </v>
  <v type="int" >       49 </v>
  <v type="int" >       39 </v>
  <v type="int" >       42 </v>
  <v type="int" >       36 </v>
  <v type="int" >       21 </v>
  <v type="int" >       53 </v>
  <v type="int" >       54 </v>
  <v type="int" >       61 </v>
  <v type="int" >       44 </v>
  <v type="int" >       35 </v>
  <v type="int" >       33 </v>
  <v type="int" >       26 </v>
  <v type="int" >       47 </v>
  <v type="int" >       28 </v>
  <v type="int" >       40 </v>
  <v type="int" >       43 </v>
  <v type="int" >       27 </v>
  <v type="int" >       48 </v>
  <v type="int" >       31 </v>
  <v type="int" >       37 </v>
  <v type="int" >       11 </v>
  <v type="int" >       63 </v>
  <v type="int" >       20 </v>
  <v type="int" >       19 </v>
  <v type="int" >       64 </v>
  <v type="int" >        7 </v>
  <v type="int" >       15 </v>
  <v type="int" >       55 </v>
  <v type="int" >       13 </v>
  <v type="int" >       60 </v>
  <v type="int" >        5 </v>
  <v type="int" >        3 </v>
  <v type="int" >       57 </v>
  <v type="int" >        4 </v>
  <v type="int" >        6 </v>
  <v type="int" >       32 </v>
  <v type="int" >       51 </v>
  <v type="int" >       41 </v>
  <v type="int" >       50 </v>
  <v type="int" >       52 </v>
  <v type="int" >       46 </v>
  <v type="int" >       62 </v>
 </varray>
 <kpoints>
  <generation param="Gamma">
   <v type="int" name="divisions">       3        3        3 </v>
   <v name="usershift">      0.00000000       0.00000000       0.00000000 </v>
   <v name="genvec1">      0.33333333      -0.00000000      -0.00000000 </v>
   <v name="genvec2">      0.00000000       0.33333333       0.00000000 </v>
   <v name="genvec3">      0.00000000       0.00000000       0.33333333 </v>
   <v name="shift">      0.00000000       0.00000000       0.00000000 </v>
  </generation>
  <varray name="kpointlist" >
   <v>       0.00000000       0.00000000       0.00000000 </v>
   <v>       0.33333333      -0.00000000       0.00000000 </v>
   <v>      -0.00000000       0.33333333       0.00000000 </v>
   <v>       0.33333333       0.33333333       0.00000000 </v>
   <v>      -0.33333333       0.33333333       0.00000000 </v>
   <v>       0.00000000       0.00000000       0.33333333 </v>
   <v>       0.33333333      -0.00000000       0.33333333 </v>
   <v>      -0.33333333      -0.00000000       0.33333333 </v>
   <v>       0.00000000       0.33333333       0.33333333 </v>
   <v>       0.33333333       0.33333333       0.33333333 </v>
   <v>      -0.33333333       0.33333333       0.33333333 </v>
   <v>      -0.00000000      -0.33333333       0.33333333 </v>
   <v>       0.33333333      -0.33333333       0.33333333 </v>
   <v>      -0.33333333      -0.33333333       0.33333333 </v>
  </varray>
  <varray name="weights" >
   <v>       0.03703704 </v>
   <v>       0.07407407 </v>
   <v>       0.07407407 </v>
   <v>       0.07407407 </v>
   <v>       0.07407407 </v>
   <v>       0.07407407 </v>
   <v>       0.07407407 </v>
   <v>       0.07407407 </v>
   <v>       0.07407407 </v>
   <v>       0.07407407 </v>
   <v>       0.07407407 </v>
   <v>       0.07407407 </v>
   <v>       0.07407407 </v>
   <v>       0.07407407 </v>
  </varray>
 </kpoints>
 <parameters>
  <separator name="general" >
   <i type="string" name="SYSTEM">HEBCN</i>
   <i type="logical" name="LCOMPAT"> F  </i>
  </separator>
  <separator name="electronic" >
   <i type="string" name="PREC">normal</i>
   <i name="ENMAX">    400.00000000</i>
   <i name="ENAUG">    644.87300000</i>
   <i name="EDIFF">      0.00001000</i>
   <i type="int" name="IALGO">    68</i>
   <i type="int" name="IWAVPR">    10</i>
   <i type="int" name="NBANDS">   288</i>
   <i name="NELECT">    475.00000000</i>
   <i type="int" name="TURBO">     0</i>
   <i type="int" name="IRESTART">     0</i>
   <i type="int" name="NREBOOT">     0</i>
   <i type="int" name="NMIN">     0</i>
   <i name="EREF">      0.00000000</i>
   <separator name="electronic smearing" >
    <i type="int" name="ISMEAR">     0</i>
    <i name="SIGMA">      0.10000000</i>
    <i name="KSPACING">      0.50000000</i>
    <i type="logical" name="KGAMMA"> T  </i>
   </separator>
   <separator name="electronic projectors" >
    <i type="logical" name="LREAL"> F  </i>
    <v name="ROPT">      0.00000000      0.00000000      0.00000000      0.00000000      0.00000000      0.00000000      0.00000000</v>
    <i type="int" name="LMAXPAW">  -100</i>
    <i type="int" name="LMAXMIX">     2</i>
    <i type="logical" name="NLSPLINE"> F  </i>
   </separator>
   <separator name="electronic startup" >
    <i type="int" name="ISTART">     0</i>
    <i type="int" name="ICHARG">     2</i>
    <i type="int" name="INIWAV">     1</i>
   </separator>
   <separator name="electronic spin" >
    <i type="int" name="ISPIN">     1</i>
    <i type="logical" name="LNONCOLLINEAR"> F  </i>
    <v name="MAGMOM">      1.00000000      1.00000000      1.00000000      1.00000000      1.00000000      1.00000000      1.00000000      1.00000000      1.00000000      1.00000000      1.00000000      1.00000000      1.00000000      1.00000000      1.00000000      1.00000000      1.00000000      1.00000000      1.00000000      1.00000000
      1.00000000      1.00000000      1.00000000      1.00000000      1.00000000      1.00000000      1.00000000      1.00000000      1.00000000      1.00000000      1.00000000      1.00000000      1.00000000      1.00000000      1.00000000      1.00000000      1.00000000      1.00000000      1.00000000      1.00000000
      1.00000000      1.00000000      1.00000000      1.00000000      1.00000000      1.00000000      1.00000000      1.00000000      1.00000000      1.00000000      1.00000000      1.00000000      1.00000000      1.00000000      1.00000000      1.00000000      1.00000000      1.00000000      1.00000000      1.00000000
      1.00000000      1.00000000      1.00000000      1.00000000</v>
    <i name="NUPDOWN">     -1.00000000</i>
    <i type="logical" name="LSORBIT"> F  </i>
    <v name="SAXIS">      0.00000000      0.00000000      1.00000000</v>
    <i type="logical" name="LSPIRAL"> F  </i>
    <v name="QSPIRAL">      0.00000000      0.00000000      0.00000000</v>
    <i type="logical" name="LZEROZ"> F  </i>
   </separator>
   <separator name="electronic exchange-correlation" >
    <i type="logical" name="LASPH"> F  </i>
    <i type="logical" name="LMETAGGA"> F  </i>
   </separator>
   <separator name="electronic convergence" >
    <i type="int" name="NELM">    60</i>
    <i type="int" name="NELMDL">    -5</i>
    <i type="int" name="NELMIN">     2</i>
    <i name="ENINI">    400.00000000</i>
    <separator name="electronic convergence detail" >
     <i type="logical" name="LDIAG"> T  </i>
     <i type="logical" name="LSUBROT"> F  </i>
     <i name="WEIMIN">      0.00000000</i>
     <i name="EBREAK">      0.00000001</i>
     <i name="DEPER">      0.30000000</i>
     <i type="int" name="NRMM">     4</i>
     <i name="TIME">      0.40000000</i>
    </separator>
   </separator>
   <separator name="electronic mixer" >
    <i name="AMIX">      0.40000000</i>
    <i name="BMIX">      1.00000000</i>
    <i name="AMIN">      0.10000000</i>
    <i name="AMIX_MAG">      1.60000000</i>
    <i name="BMIX_MAG">      1.00000000</i>
    <separator name="electronic mixer details" >
     <i type="int" name="IMIX">     4</i>
     <i type="logical" name="MIXFIRST"> F  </i>
     <i type="int" name="MAXMIX">   -45</i>
     <i name="WC">    100.00000000</i>
     <i type="int" name="INIMIX">     1</i>
     <i type="int" name="MIXPRE">     1</i>
     <i type="int" name="MREMOVE">     5</i>
    </separator>
   </separator>
   <separator name="electronic dipolcorrection" >
    <i type="logical" name="LDIPOL"> F  </i>
    <i type="logical" name="LMONO"> F  </i>
    <i type="int" name="IDIPOL">     0</i>
    <i name="EPSILON">      1.00000000</i>
    <v name="DIPOL">   -100.00000000   -100.00000000   -100.00000000</v>
    <i name="EFIELD">      0.00000000</i>
   </separator>
  </separator>
  <separator name="grids" >
   <i type="int" name="NGX">    48</i>
   <i type="int" name="NGY">    48</i>
   <i type="int" name="NGZ">    48</i>
   <i type="int" name="NGXF">    96</i>
   <i type="int" name="NGYF">    96</i>
   <i type="int" name="NGZF">    96</i>
   <i type="logical" name="ADDGRID"> F  </i>
  </separator>
  <separator name="ionic" >
   <i type="int" name="NSW">     0</i>
   <i type="int" name="IBRION">    -1</i>
   <i type="int" name="MDALGO">     0</i>
   <i type="int" name="ISIF">     2</i>
   <i name="PSTRESS">      0.00000000</i>
   <i name="EDIFFG">     -0.01000000</i>
   <i type="int" name="NFREE">     0</i>
   <i name="POTIM">      0.50000000</i>
   <i name="SMASS">     -3.00000000</i>
   <i name="SCALEE">      1.00000000</i>
  </separator>
  <separator name="ionic md" >
   <i name="TEBEG">      0.00010000</i>
   <i name="TEEND">      0.00010000</i>
   <i type="int" name="NBLOCK">     1</i>
   <i type="int" name="KBLOCK">     1</i>
   <i type="int" name="NPACO">   256</i>
   <i name="APACO">     16.00000000</i>
  </separator>
  <separator name="symmetry" >
   <i type="int" name="ISYM">     2</i>
   <i name="SYMPREC">      0.00001000</i>
  </separator>
  <separator name="dos" >
   <i type="int" name="LORBIT">     0</i>
   <v name="RWIGS">     -1.00000000     -1.00000000     -1.00000000     -1.00000000     -1.00000000     -1.00000000     -1.00000000</v>
   <i type="int" name="NEDOS">   301</i>
   <i name="EMIN">     10.00000000</i>
   <i name="EMAX">    -10.00000000</i>
   <i name="EFERMI">      0.00000000</i>
  </separator>
  <separator name="writing" >
   <i type="int" name="NWRITE">     2</i>
   <i type="logical" name="LWAVE"> T  </i>
   <i type="logical" name="LDOWNSAMPLE"> F  </i>
   <i type="logical" name="LCHARG"> T  </i>
   <i type="logical" name="LPARD"> F  </i>
   <i type="logical" name="LVTOT"> F  </i>
   <i type="logical" name="LVHAR"> F  </i>
   <i type="logical" name="LELF"> F  </i>
   <i type="logical" name="LOPTICS"> F  </i>
   <v name="STM">      0.00000000      0.00000000      0.00000000      0.00000000      0.00000000      0.00000000      0.00000000</v>
  </separator>
  <separator name="performance" >
   <i type="int" name="NPAR">    24</i>
   <i type="int" name="NSIM">     4</i>
   <i type="int" name="NBLK">    -1</i>
   <i type="logical" name="LPLANE"> T  </i>
   <i type="logical" name="LSCALAPACK"> T  </i>
   <i type="logical" name="LSCAAWARE"> F  </i>
   <i type="logical" name="LSCALU"> F  </i>
   <i type="logical" name="LASYNC"> F  </i>
   <i type="logical" name="LORBITALREAL"> F  </i>
  </separator>
  <separator name="miscellaneous" >
   <i type="int" name="IDIOT">     3</i>
   <i type="int" name="ISPECIAL">     0</i>
   <i type="logical" name="LMUSIC"> F  </i>
   <v name="POMASS">     91.22400000     95.94000000    178.49000000     14.00100000     12.01100000    180.94800000     92.91000000</v>
   <v name="DARWINR">      0.00000000      0.00000000      0.00000000      0.00000000      0.00000000      0.00000000      0.00000000</v>
   <v name="DARWINV">      1.00000000      1.00000000      1.00000000      1.00000000      1.00000000      1.00000000      1.00000000</v>
   <i type="logical" name="LCORR"> T  </i>
  </separator>
  <i type="logical" name="GGA_COMPAT"> T  </i>
  <i type="logical" name="LBERRY"> F  </i>
  <i type="int" name="ICORELEVEL">     0</i>
  <i type="logical" name="LDAU"> F  </i>
  <i type="int" name="I_CONSTRAINED_M">     0</i>
  <separator name="electronic exchange-correlation" >
   <i type="string" name="GGA">--</i>
   <i type="int" name="VOSKOWN">     0</i>
   <i type="logical" name="LHFCALC"> F  </i>
   <i type="string" name="PRECFOCK"></i>
   <i type="logical" name="LSYMGRAD"> F  </i>
   <i type="logical" name="LHFONE"> F  </i>
   <i type="logical" name="LRHFCALC"> F  </i>
   <i type="logical" name="LTHOMAS"> F  </i>
   <i type="logical" name="LMODELHF"> F  </i>
   <i name="ENCUT4O">     -1.00000000</i>
   <i type="int" name="EXXOEP">     0</i>
   <i type="int" name="FOURORBIT">     0</i>
   <i name="AEXX">      0.00000000</i>
   <i name="HFALPHA">      0.00000000</i>
   <i name="MCALPHA">      0.00000000</i>
   <i name="ALDAX">      1.00000000</i>
   <i name="AGGAX">      1.00000000</i>
   <i name="ALDAC">      1.00000000</i>
   <i name="AGGAC">      1.00000000</i>
   <i type="int" name="NKREDX">     1</i>
   <i type="int" name="NKREDY">     1</i>
   <i type="int" name="NKREDZ">     1</i>
   <i type="logical" name="SHIFTRED"> F  </i>
   <i type="logical" name="ODDONLY"> F  </i>
   <i type="logical" name="EVENONLY"> F  </i>
   <i type="int" name="LMAXFOCK">     0</i>
   <i type="int" name="NMAXFOCKAE">     0</i>
   <i type="logical" name="LFOCKAEDFT"> F  </i>
   <i name="HFSCREEN">      0.00000000</i>
   <i name="HFSCREENC">      0.00000000</i>
   <i type="int" name="NBANDSGWLOW">     0</i>
  </separator>
  <separator name="vdW DFT" >
   <i type="logical" name="LUSE_VDW"> F  </i>
   <i name="Zab_VDW">     -0.84910000</i>
   <i name="PARAM1">      0.12340000</i>
   <i name="PARAM2">      1.00000000</i>
   <i name="PARAM3">      0.00000000</i>
  </separator>
  <separator name="model GW" >
   <i type="int" name="MODEL_GW">     0</i>
   <i name="MODEL_EPS0">      6.92452894</i>
   <i name="MODEL_ALPHA">      1.00000000</i>
  </separator>
  <separator name="linear response parameters" >
   <i type="logical" name="LEPSILON"> F  </i>
   <i type="logical" name="LRPA"> F  </i>
   <i type="logical" name="LNABLA"> F  </i>
   <i type="logical" name="LVEL"> F  </i>
   <i type="int" name="KINTER">     0</i>
   <i name="CSHIFT">      0.10000000</i>
   <i name="OMEGAMAX">     -1.00000000</i>
   <i name="DEG_THRESHOLD">      0.00200000</i>
   <i name="RTIME">     -0.10000000</i>
   <i name="WPLASMAI">      0.00000000</i>
   <v name="DFIELD">      0.00000000      0.00000000      0.00000000</v>
   <v name="WPLASMA">      0.00000000      0.00000000      0.00000000      0.00000000      0.00000000      0.00000000      0.00000000      0.00000000      0.00000000</v>
  </separator>
  <separator name="orbital magnetization" >
   <i type="logical" name="NUCIND"> F  </i>
   <v name="MAGPOS">      0.00000000      0.00000000      0.00000000</v>
   <i type="logical" name="LNICSALL"> T  </i>
   <i type="logical" name="ORBITALMAG"> F  </i>
   <i type="logical" name="LMAGBLOCH"> F  </i>
   <i type="logical" name="LCHIMAG"> F  </i>
   <i type="logical" name="LGAUGE"> T  </i>
   <i type="int" name="MAGATOM">     0</i>
   <v name="MAGDIPOL">      0.00000000      0.00000000      0.00000000</v>
   <v name="AVECCONST">      0.00000000      0.00000000      0.00000000</v>
  </separator>
  <separator name="response functions" >
   <i type="logical" name="LADDER"> F  </i>
   <i type="logical" name="LRPAFORCE"> F  </i>
   <i type="logical" name="LFXC"> F  </i>
   <i type="logical" name="LHARTREE"> T  </i>
   <i type="int" name="IBSE">     0</i>
   <v type="int" name="KPOINT">    -1     0     0     0</v>
   <i type="logical" name="LTCTE"> F  </i>
   <i type="logical" name="LTETE"> F  </i>
   <i type="logical" name="LTRIPLET"> F  </i>
   <i type="logical" name="LFXCEPS"> F  </i>
   <i type="logical" name="LFXHEG"> F  </i>
   <i type="int" name="NATURALO">     2</i>
   <i type="logical" name="L2ORDER"> F  </i>
   <i type="logical" name="LMP2LT"> F  </i>
   <i type="logical" name="LUSEW"> F  </i>
   <i name="ENCUTGW">     -2.00000000</i>
   <i name="ENCUTGWSOFT">     -2.00000000</i>
   <i name="ENCUTLF">     -1.00000000</i>
   <i type="int" name="LMAXMP2">    -1</i>
   <i name="SCISSOR">      0.00000000</i>
   <i type="int" name="NOMEGA">     0</i>
   <i type="int" name="NOMEGAR">     0</i>
   <i type="int" name="NBANDSGW">    -1</i>
   <i type="int" name="NBANDSO">    -1</i>
   <i type="int" name="NBANDSV">    -1</i>
   <i type="int" name="NELM">    60</i>
   <i type="int" name="NELMHF">     1</i>
   <i type="int" name="DIM">     3</i>
   <i type="int" name="ANTIRES">     0</i>
   <i name="OMEGAMAX">    -30.00000000</i>
   <i name="OMEGAMIN">    -30.00000000</i>
   <i name="OMEGATL">   -200.00000000</i>
   <i type="int" name="OMEGAGRID">   140</i>
   <i name="CSHIFT">     -0.10000000</i>
   <i type="logical" name="SELFENERGY"> F  </i>
   <i type="logical" name="LSPECTRAL"> F  </i>
   <i type="logical" name="LSPECTRALGW"> F  </i>
   <i type="logical" name="LSINGLES"> F  </i>
   <i type="logical" name="LFERMIGW"> F  </i>
   <i type="logical" name="ODDONLYGW"> F  </i>
   <i type="logical" name="EVENONLYGW"> F  </i>
   <i type="int" name="NKREDLFX">     1</i>
   <i type="int" name="NKREDLFY">     1</i>
   <i type="int" name="NKREDLFZ">     1</i>
   <i type="int" name="MAXMEM">  2800</i>
   <i type="int" name="TELESCOPE">     0</i>
   <i type="int" name="TAUPAR">     1</i>
   <i type="int" name="OMEGAPAR">    -1</i>
   <i name="LAMBDA">      1.00000000</i>
  </separator>
  <separator name="External order field" >
   <i name="OFIELD_KAPPA">      0.00000000</i>
   <v name="OFIELD_K">      0.00000000      0.00000000      0.00000000</v>
   <i name="OFIELD_Q6_NEAR">      0.00000000</i>
   <i name="OFIELD_Q6_FAR">      0.00000000</i>
   <i name="OFIELD_A">      0.00000000</i>
  </separator>
 </parameters>
 <atominfo>
  <atoms>      64 </atoms>
  <types>       7 </types>
  <array name="atoms" >
   <dimension dim="1">ion</dimension>
   <field type="string">element</field>
   <field type="int">atomtype</field>
   <set>
    <rc><c>Zr</c><c>   1</c></rc>
    <rc><c>Zr</c><c>   1</c></rc>
    <rc><c>Zr</c><c>   1</c></rc>
    <rc><c>Zr</c><c>   1</c></rc>
    <rc><c>Zr</c><c>   1</c></rc>
    <rc><c>Zr</c><c>   1</c></rc>
    <rc><c>Zr</c><c>   1</c></rc>
    <rc><c>Mo</c><c>   2</c></rc>
    <rc><c>Mo</c><c>   2</c></rc>
    <rc><c>Mo</c><c>   2</c></rc>
    <rc><c>Mo</c><c>   2</c></rc>
    <rc><c>Mo</c><c>   2</c></rc>
    <rc><c>Mo</c><c>   2</c></rc>
    <rc><c>Hf</c><c>   3</c></rc>
    <rc><c>Hf</c><c>   3</c></rc>
    <rc><c>Hf</c><c>   3</c></rc>
    <rc><c>Hf</c><c>   3</c></rc>
    <rc><c>Hf</c><c>   3</c></rc>
    <rc><c>Hf</c><c>   3</c></rc>
    <rc><c>Hf</c><c>   3</c></rc>
    <rc><c>N </c><c>   4</c></rc>
    <rc><c>N </c><c>   4</c></rc>
    <rc><c>N </c><c>   4</c></rc>
    <rc><c>N </c><c>   4</c></rc>
    <rc><c>N </c><c>   4</c></rc>
    <rc><c>N </c><c>   4</c></rc>
    <rc><c>N </c><c>   4</c></rc>
    <rc><c>N </c><c>   4</c></rc>
    <rc><c>N </c><c>   4</c></rc>
    <rc><c>N </c><c>   4</c></rc>
    <rc><c>N </c><c>   4</c></rc>
    <rc><c>N </c><c>   4</c></rc>
    <rc><c>N </c><c>   4</c></rc>
    <rc><c>C </c><c>   5</c></rc>
    <rc><c>C </c><c>   5</c></rc>
    <rc><c>C </c><c>   5</c></rc>
    <rc><c>C </c><c>   5</c></rc>
    <rc><c>C </c><c>   5</c></rc>
    <rc><c>C </c><c>   5</c></rc>
    <rc><c>C </c><c>   5</c></rc>
    <rc><c>C </c><c>   5</c></rc>
    <rc><c>C </c><c>   5</c></rc>
    <rc><c>C </c><c>   5</c></rc>
    <rc><c>C </c><c>   5</c></rc>
    <rc><c>C </c><c>   5</c></rc>
    <rc><c>C </c><c>   5</c></rc>
    <rc><c>C </c><c>   5</c></rc>
    <rc><c>C </c><c>   5</c></rc>
    <rc><c>C </c><c>   5</c></rc>
    <rc><c>C </c><c>   5</c></rc>
    <rc><c>C </c><c>   5</c></rc>
    <rc><c>C </c><c>   5</c></rc>
    <rc><c>Ta</c><c>   6</c></rc>
    <rc><c>Ta</c><c>   6</c></rc>
    <rc><c>Ta</c><c>   6</c></rc>
    <rc><c>Ta</c><c>   6</c></rc>
    <rc><c>Ta</c><c>   6</c></rc>
    <rc><c>Ta</c><c>   6</c></rc>
    <rc><c>Nb</c><c>   7</c></rc>
    <rc><c>Nb</c><c>   7</c></rc>
    <rc><c>Nb</c><c>   7</c></rc>
    <rc><c>Nb</c><c>   7</c></rc>
    <rc><c>Nb</c><c>   7</c></rc>
    <rc><c>Nb</c><c>   7</c></rc>
   </set>
  </array>
  <array name="atomtypes" >
   <dimension dim="1">type</dimension>
   <field type="int">atomspertype</field>
   <field type="string">element</field>
   <field>mass</field>
   <field>valence</field>
   <field type="string">pseudopotential</field>
   <set>
    <rc><c>   7</c><c>Zr</c><c>     91.22400000</c><c>     12.00000000</c><c> PAW_PBE Zr_sv 07Sep2000                </c></rc>
    <rc><c>   6</c><c>Mo</c><c>     95.94000000</c><c>      6.00000000</c><c> PAW_PBE Mo 08Apr2002                   </c></rc>
    <rc><c>   7</c><c>Hf</c><c>    178.49000000</c><c>     10.00000000</c><c> PAW_PBE Hf_pv 06Sep2000                </c></rc>
    <rc><c>  13</c><c>N </c><c>     14.00100000</c><c>      5.00000000</c><c> PAW_PBE N 08Apr2002                    </c></rc>
    <rc><c>  19</c><c>C </c><c>     12.01100000</c><c>      4.00000000</c><c> PAW_PBE C 08Apr2002                    </c></rc>
    <rc><c>   6</c><c>Ta</c><c>    180.94800000</c><c>     11.00000000</c><c> PAW_PBE Ta_pv 07Sep2000                </c></rc>
    <rc><c>   6</c><c>Nb</c><c>     92.91000000</c><c>     13.00000000</c><c> PAW_PBE Nb_sv 17Jan2003                </c></rc>
   </set>
  </array>
 </atominfo>
 <structure name="initialpos" >
  <crystal>
   <varray name="basis" >
    <v>       9.03972867      -0.00879691       0.00953501 </v>
    <v>      -0.00313273       9.06033028       0.00116777 </v>
    <v>       0.04202810      -0.01453105       9.01823866 </v>
   </varray>
   <i name="volume">    738.61642026 </i>
   <varray name="rec_basis" >
    <v>       0.11062337       0.00003832      -0.00051548 </v>
    <v>       0.00010722       0.11037127       0.00017734 </v>
    <v>      -0.00011698      -0.00001433       0.11088692 </v>
   </varray>
  </crystal>
  <varray name="positions" >
   <v>       0.99614388       0.99888572       0.99985940 </v>
   <v>       0.25018339       0.00044227       0.25139747 </v>
   <v>       0.24945717       0.49987491       0.25085290 </v>
   <v>       0.50064117       0.50190099       0.99899695 </v>
   <v>       0.50116791       0.24589837       0.74339623 </v>
   <v>       0.99770083       0.49993588       0.49972288 </v>
   <v>       0.49836155       0.75421905       0.74951196 </v>
   <v>       0.98742321       0.23107217       0.26824219 </v>
   <v>       0.76951960       0.73738255       0.99688472 </v>
   <v>       0.01948111       0.27592937       0.75096238 </v>
   <v>       0.76975127       0.25884506       0.47914419 </v>
   <v>       0.99122308       0.73279627       0.75415907 </v>
   <v>       0.26269579       0.48755306       0.74841205 </v>
   <v>       0.24425967       0.25226850       0.99487845 </v>
   <v>       0.50355731       0.25630059       0.25307916 </v>
   <v>       0.74861405       0.99891642       0.25429125 </v>
   <v>       0.75709901       0.25779145       0.99235448 </v>
   <v>       0.24219828       0.74767776       0.99708613 </v>
   <v>       0.24565374       0.25114586       0.50479551 </v>
   <v>       0.24430152       0.74938844       0.50442604 </v>
   <v>       0.24973189       0.24849423       0.25210920 </v>
   <v>       0.25632949       0.99993294       0.99481244 </v>
   <v>       0.00057065       0.25421950       0.01124952 </v>
   <v>       0.74967704       0.24885476       0.24227306 </v>
   <v>       0.74344934       0.00206690       0.99667574 </v>
   <v>       0.50259787       0.00080995       0.24902777 </v>
   <v>       0.99485014       0.49666995       0.24350717 </v>
   <v>       0.49658800       0.76410699       0.00355498 </v>
   <v>       0.99921959       0.00098963       0.74860118 </v>
   <v>       0.75754448       0.23755138       0.74904244 </v>
   <v>       0.74443672       0.00198612       0.50401924 </v>
   <v>       0.50177382       0.24081808       0.49540614 </v>
   <v>       0.50636333       0.00016967       0.75022397 </v>
   <v>       0.99583756       0.99762249       0.25416458 </v>
   <v>       0.50362357       0.24246183       0.00120418 </v>
   <v>       0.25099659       0.75108695       0.24947487 </v>
   <v>       0.24405054       0.49943566       0.99725344 </v>
   <v>       0.00000910       0.74602004       0.00150828 </v>
   <v>       0.74687140       0.74830530       0.24584709 </v>
   <v>       0.75718105       0.50182894       0.99954172 </v>
   <v>       0.50298611       0.50211111       0.25279214 </v>
   <v>       0.25335381       0.24497162       0.74942572 </v>
   <v>       0.25047022       0.99998366       0.50516186 </v>
   <v>       0.99503040       0.24856423       0.51402762 </v>
   <v>       0.24337191       0.75531753       0.75100381 </v>
   <v>       0.25251330       0.49964993       0.50369820 </v>
   <v>       0.99536418       0.75482110       0.50402525 </v>
   <v>       0.00256329       0.50124239       0.75361286 </v>
   <v>       0.74890626       0.75248222       0.74997241 </v>
   <v>       0.74676521       0.49555246       0.50073077 </v>
   <v>       0.49863831       0.75054242       0.49697020 </v>
   <v>       0.50173750       0.50003609       0.74580179 </v>
   <v>       0.50233875       0.00681899       0.00806253 </v>
   <v>       0.99873704       0.50480607       0.99932456 </v>
   <v>       0.50120491       0.74431592       0.25221235 </v>
   <v>       0.23028326       0.00369011       0.74627153 </v>
   <v>       0.49361013       0.98797346       0.49016878 </v>
   <v>       0.76506547       0.98786272       0.74491119 </v>
   <v>       0.99630345       0.76351619       0.25317624 </v>
   <v>       0.74599579       0.50219872       0.25316053 </v>
   <v>       0.99909008       0.00293078       0.49930503 </v>
   <v>       0.49991922       0.51265534       0.49948823 </v>
   <v>       0.74224606       0.51696646       0.74781963 </v>
   <v>       0.75237115       0.74264536       0.49692604 </v>
  </varray>
 </structure>
 <calculation>
  <scstep>
   <time name="dav">   30.54   31.18</time>
   <time name="total">   30.58   31.22</time>
   <energy>
    <i name="alphaZ">   3932.95660159 </i>
    <i name="ewald"> -35561.67098314 </i>
    <i name="hartreedc">  -5408.86493780 </i>
    <i name="XCdc">   1147.66732375 </i>
    <i name="pawpsdc">  22733.95488290 </i>
    <i name="pawaedc"> -21916.34231637 </i>
    <i name="eentropy">     -0.06038526 </i>
    <i name="bandstr">    739.74734165 </i>
    <i name="atom">  38145.54165741 </i>
    <i name="e_fr_energy">   3812.92918474 </i>
    <i name="e_wo_entrp">   3812.98957001 </i>
    <i name="e_0_energy">   3812.95937737 </i>
   </energy>
  </scstep>
  <scstep>
   <time name="dav">   34.39   34.75</time>
   <time name="total">   34.39   34.75</time>
   <energy>
    <i name="e_fr_energy">   -246.24012068 </i>
    <i name="e_wo_entrp">   -246.16064824 </i>
    <i name="e_0_energy">   -246.20038446 </i>
   </energy>
  </scstep>
  <scstep>
   <time name="dav">   46.70   47.06</time>
   <time name="total">   46.70   47.06</time>
   <energy>
    <i name="e_fr_energy">   -748.47181600 </i>
    <i name="e_wo_entrp">   -748.39153484 </i>
    <i name="e_0_energy">   -748.43167542 </i>
   </energy>
  </scstep>
  <scstep>
   <time name="dav">   47.85   48.55</time>
   <time name="total">   47.86   48.55</time>
   <energy>
    <i name="e_fr_energy">   -778.83741377 </i>
    <i name="e_wo_entrp">   -778.75243026 </i>
    <i name="e_0_energy">   -778.79492202 </i>
   </energy>
  </scstep>
  <scstep>
   <time name="dav">   46.61   47.95</time>
   <time name="total">   46.96   48.31</time>
   <energy>
    <i name="e_fr_energy">   -781.64239469 </i>
    <i name="e_wo_entrp">   -781.55535264 </i>
    <i name="e_0_energy">   -781.59887366 </i>
   </energy>
  </scstep>
  <scstep>
   <time name="diag">    1.86    1.87</time>
   <time name="diis">   32.15   32.44</time>
   <time name="orth">    0.42    0.43</time>
   <time name="total">   34.82   35.13</time>
   <energy>
    <i name="e_fr_energy">   -681.84038895 </i>
    <i name="e_wo_entrp">   -681.73429257 </i>
    <i name="e_0_energy">   -681.78734076 </i>
   </energy>
  </scstep>
  <scstep>
   <time name="diag">    1.84    1.86</time>
   <time name="diis">   35.44   35.69</time>
   <time name="orth">    0.44    0.44</time>
   <time name="total">   38.10   38.38</time>
   <energy>
    <i name="e_fr_energy">   -668.16537321 </i>
    <i name="e_wo_entrp">   -668.06169732 </i>
    <i name="e_0_energy">   -668.11353527 </i>
   </energy>
  </scstep>
  <scstep>
   <time name="diag">    1.85    1.88</time>
   <time name="diis">   35.00   35.41</time>
   <time name="orth">    0.43    0.43</time>
   <time name="total">   37.66   38.11</time>
   <energy>
    <i name="e_fr_energy">   -665.00057666 </i>
    <i name="e_wo_entrp">   -664.89936236 </i>
    <i name="e_0_energy">   -664.94996951 </i>
   </energy>
  </scstep>
  <scstep>
   <time name="diag">    1.86    1.89</time>
   <time name="diis">   34.33   35.38</time>
   <time name="orth">    0.41    0.41</time>
   <time name="total">   36.99   38.08</time>
   <energy>
    <i name="e_fr_energy">   -664.66735546 </i>
    <i name="e_wo_entrp">   -664.57184334 </i>
    <i name="e_0_energy">   -664.61959940 </i>
   </energy>
  </scstep>
  <scstep>
   <time name="diag">    1.82    1.86</time>
   <time name="diis">   35.12   36.16</time>
   <time name="orth">    0.42    0.43</time>
   <time name="total">   37.76   38.85</time>
   <energy>
    <i name="e_fr_energy">   -664.43111449 </i>
    <i name="e_wo_entrp">   -664.33404809 </i>
    <i name="e_0_energy">   -664.38258129 </i>
   </energy>
  </scstep>
  <scstep>
   <time name="diag">    1.87    1.88</time>
   <time name="diis">   36.36   36.55</time>
   <time name="orth">    0.42    0.43</time>
   <time name="total">   39.04   39.25</time>
   <energy>
    <i name="e_fr_energy">   -664.36671863 </i>
    <i name="e_wo_entrp">   -664.26861967 </i>
    <i name="e_0_energy">   -664.31766915 </i>
   </energy>
  </scstep>
  <scstep>
   <time name="diag">    1.88    1.89</time>
   <time name="diis">   36.77   37.08</time>
   <time name="orth">    0.41    0.41</time>
   <time name="total">   39.44   39.77</time>
   <energy>
    <i name="e_fr_energy">   -664.38829549 </i>
    <i name="e_wo_entrp">   -664.28960903 </i>
    <i name="e_0_energy">   -664.33895226 </i>
   </energy>
  </scstep>
  <scstep>
   <time name="diag">    1.86    1.90</time>
   <time name="diis">   37.45   38.26</time>
   <time name="orth">    0.42    0.43</time>
   <time name="total">   40.12   40.98</time>
   <energy>
    <i name="e_fr_energy">   -664.39254595 </i>
    <i name="e_wo_entrp">   -664.29425764 </i>
    <i name="e_0_energy">   -664.34340180 </i>
   </energy>
  </scstep>
  <scstep>
   <time name="diag">    1.86    1.88</time>
   <time name="diis">   36.23   36.63</time>
   <time name="orth">    0.42    0.42</time>
   <time name="total">   38.89   39.32</time>
   <energy>
    <i name="e_fr_energy">   -664.39059163 </i>
    <i name="e_wo_entrp">   -664.29224437 </i>
    <i name="e_0_energy">   -664.34141800 </i>
   </energy>
  </scstep>
  <scstep>
   <time name="diag">    1.88    1.90</time>
   <time name="diis">   35.99   36.36</time>
   <time name="orth">    0.41    0.41</time>
   <time name="total">   38.66   39.06</time>
   <energy>
    <i name="e_fr_energy">   -664.38959842 </i>
    <i name="e_wo_entrp">   -664.29155937 </i>
    <i name="e_0_energy">   -664.34057890 </i>
   </energy>
  </scstep>
  <scstep>
   <time name="diag">    1.86    1.90</time>
   <time name="diis">   38.12   38.47</time>
   <time name="orth">    0.42    0.42</time>
   <time name="total">   40.78   41.18</time>
   <energy>
    <i name="e_fr_energy">   -664.39044147 </i>
    <i name="e_wo_entrp">   -664.29260153 </i>
    <i name="e_0_energy">   -664.34152150 </i>
   </energy>
  </scstep>
  <scstep>
   <time name="diag">    1.85    1.87</time>
   <time name="diis">   37.39   37.56</time>
   <time name="orth">    0.41    0.41</time>
   <time name="total">   40.05   40.23</time>
   <energy>
    <i name="e_fr_energy">   -664.39084640 </i>
    <i name="e_wo_entrp">   -664.29282331 </i>
    <i name="e_0_energy">   -664.34183486 </i>
   </energy>
  </scstep>
  <scstep>
   <time name="diag">    1.89    1.90</time>
   <time name="diis">   37.38   37.76</time>
   <time name="orth">    0.41    0.42</time>
   <time name="total">   40.07   40.47</time>
   <energy>
    <i name="e_fr_energy">   -664.39111369 </i>
    <i name="e_wo_entrp">   -664.29309961 </i>
    <i name="e_0_energy">   -664.34210665 </i>
   </energy>
  </scstep>
  <scstep>
   <time name="diag">    1.84    1.85</time>
   <time name="diis">   35.78   36.19</time>
   <time name="orth">    0.42    0.43</time>
   <time name="total">   38.43   38.86</time>
   <energy>
    <i name="e_fr_energy">   -664.39126327 </i>
    <i name="e_wo_entrp">   -664.29326202 </i>
    <i name="e_0_energy">   -664.34226265 </i>
   </energy>
  </scstep>
  <scstep>
   <time name="diag">    1.85    1.87</time>
   <time name="diis">   35.48   35.93</time>
   <time name="orth">    0.41    0.41</time>
   <time name="total">   38.13   38.60</time>
   <energy>
    <i name="e_fr_energy">   -664.39135357 </i>
    <i name="e_wo_entrp">   -664.29335389 </i>
    <i name="e_0_energy">   -664.34235373 </i>
   </energy>
  </scstep>
  <scstep>
   <time name="diag">    1.85    1.86</time>
   <time name="diis">   32.58   32.88</time>
   <time name="orth">    0.41    0.41</time>
   <time name="total">   35.23   35.55</time>
   <energy>
    <i name="e_fr_energy">   -664.39141245 </i>
    <i name="e_wo_entrp">   -664.29343120 </i>
    <i name="e_0_energy">   -664.34242183 </i>
   </energy>
  </scstep>
  <scstep>
   <time name="diag">    1.84    1.87</time>
   <time name="diis">   30.93   31.78</time>
   <time name="orth">    0.41    0.42</time>
   <time name="total">   33.58   34.47</time>
   <energy>
    <i name="e_fr_energy">   -664.39144454 </i>
    <i name="e_wo_entrp">   -664.29345666 </i>
    <i name="e_0_energy">   -664.34245060 </i>
   </energy>
  </scstep>
  <scstep>
   <time name="diag">    1.86    1.89</time>
   <time name="diis">   28.63   29.05</time>
   <time name="orth">    0.42    0.42</time>
   <time name="total">   31.30   31.77</time>
   <energy>
    <i name="e_fr_energy">   -664.39146315 </i>
    <i name="e_wo_entrp">   -664.29347290 </i>
    <i name="e_0_energy">   -664.34246802 </i>
   </energy>
  </scstep>
  <scstep>
   <time name="diag">    1.87    1.88</time>
   <time name="diis">   25.41   25.56</time>
   <time name="orth">    0.42    0.42</time>
   <time name="total">   28.11   28.26</time>
   <energy>
    <i name="e_fr_energy">   -664.39147601 </i>
    <i name="e_wo_entrp">   -664.29348648 </i>
    <i name="e_0_energy">   -664.34248124 </i>
   </energy>
  </scstep>
  <scstep>
   <time name="diag">    1.88    1.89</time>
   <time name="diis">   23.76   23.91</time>
   <time name="orth">    0.41    0.41</time>
   <time name="total">   26.08   26.25</time>
   <energy>
    <i name="alphaZ">   3932.95660159 </i>
    <i name="ewald"> -35561.67098314 </i>
    <i name="hartreedc">  -5184.18818372 </i>
    <i name="XCdc">   1151.94800694 </i>
    <i name="pawpsdc">  24415.10288484 </i>
    <i name="pawaedc"> -23629.27257190 </i>
    <i name="eentropy">     -0.09798830 </i>
    <i name="bandstr">  -3934.71090605 </i>
    <i name="atom">  38145.54165741 </i>
    <i name="e_fr_energy">   -664.39148234 </i>
    <i name="e_wo_entrp">   -664.29349404 </i>
    <i name="e_0_energy">   -664.34248819 </i>
   </energy>
  </scstep>
  <structure>
   <crystal>
    <varray name="basis" >
     <v>       9.03972867      -0.00879691       0.00953501 </v>
     <v>      -0.00313273       9.06033028       0.00116777 </v>
     <v>       0.04202810      -0.01453105       9.01823866 </v>
    </varray>
    <i name="volume">    738.61642026 </i>
    <varray name="rec_basis" >
     <v>       0.11062337       0.00003832      -0.00051548 </v>
     <v>       0.00010722       0.11037127       0.00017734 </v>
     <v>      -0.00011698      -0.00001433       0.11088692 </v>
    </varray>
   </crystal>
   <varray name="positions" >
    <v>       0.99614388       0.99888572       0.99985940 </v>
    <v>       0.25018339       0.00044227       0.25139747 </v>
    <v>       0.24945717       0.49987491       0.25085290 </v>
    <v>       0.50064117       0.50190099       0.99899695 </v>
    <v>       0.50116791       0.24589837       0.74339623 </v>
    <v>       0.99770083       0.49993588       0.49972288 </v>
    <v>       0.49836155       0.75421905       0.74951196 </v>
    <v>       0.98742321       0.23107217       0.26824219 </v>
    <v>       0.76951960       0.73738255       0.99688472 </v>
    <v>       0.01948111       0.27592937       0.75096238 </v>
    <v>       0.76975127       0.25884506       0.47914419 </v>
    <v>       0.99122308       0.73279627       0.75415907 </v>
    <v>       0.26269579       0.48755306       0.74841205 </v>
    <v>       0.24425967       0.25226850       0.99487845 </v>
    <v>       0.50355731       0.25630059       0.25307916 </v>
    <v>       0.74861405       0.99891642       0.25429125 </v>
    <v>       0.75709901       0.25779145       0.99235448 </v>
    <v>       0.24219828       0.74767776       0.99708613 </v>
    <v>       0.24565374       0.25114586       0.50479551 </v>
    <v>       0.24430152       0.74938844       0.50442604 </v>
    <v>       0.24973189       0.24849423       0.25210920 </v>
    <v>       0.25632949       0.99993294       0.99481244 </v>
    <v>       0.00057065       0.25421950       0.01124952 </v>
    <v>       0.74967704       0.24885476       0.24227306 </v>
    <v>       0.74344934       0.00206690       0.99667574 </v>
    <v>       0.50259787       0.00080995       0.24902777 </v>
    <v>       0.99485014       0.49666995       0.24350717 </v>
    <v>       0.49658800       0.76410699       0.00355498 </v>
    <v>       0.99921959       0.00098963       0.74860118 </v>
    <v>       0.75754448       0.23755138       0.74904244 </v>
    <v>       0.74443672       0.00198612       0.50401924 </v>
    <v>       0.50177382       0.24081808       0.49540614 </v>
    <v>       0.50636333       0.00016967       0.75022397 </v>
    <v>       0.99583756       0.99762249       0.25416458 </v>
    <v>       0.50362357       0.24246183       0.00120418 </v>
    <v>       0.25099659       0.75108695       0.24947487 </v>
    <v>       0.24405054       0.49943566       0.99725344 </v>
    <v>       0.00000910       0.74602004       0.00150828 </v>
    <v>       0.74687140       0.74830530       0.24584709 </v>
    <v>       0.75718105       0.50182894       0.99954172 </v>
    <v>       0.50298611       0.50211111       0.25279214 </v>
    <v>       0.25335381       0.24497162       0.74942572 </v>
    <v>       0.25047022       0.99998366       0.50516186 </v>
    <v>       0.99503040       0.24856423       0.51402762 </v>
    <v>       0.24337191       0.75531753       0.75100381 </v>
    <v>       0.25251330       0.49964993       0.50369820 </v>
    <v>       0.99536418       0.75482110       0.50402525 </v>
    <v>       0.00256329       0.50124239       0.75361286 </v>
    <v>       0.74890626       0.75248222       0.74997241 </v>
    <v>       0.74676521       0.49555246       0.50073077 </v>
    <v>       0.49863831       0.75054242       0.49697020 </v>
    <v>       0.50173750       0.50003609       0.74580179 </v>
    <v>       0.50233875       0.00681899       0.00806253 </v>
    <v>       0.99873704       0.50480607       0.99932456 </v>
    <v>       0.50120491       0.74431592       0.25221235 </v>
    <v>       0.23028326       0.00369011       0.74627153 </v>
    <v>       0.49361013       0.98797346       0.49016878 </v>
    <v>       0.76506547       0.98786272       0.74491119 </v>
    <v>       0.99630345       0.76351619       0.25317624 </v>
    <v>       0.74599579       0.50219872       0.25316053 </v>
    <v>       0.99909008       0.00293078       0.49930503 </v>
    <v>       0.49991922       0.51265534       0.49948823 </v>
    <v>       0.74224606       0.51696646       0.74781963 </v>
    <v>       0.75237115       0.74264536       0.49692604 </v>
   </varray>
  </structure>
  <varray name="forces" >
   <v>       0.00038517       0.00523593       0.00119266 </v>
   <v>       0.00105974       0.00157899      -0.00389546 </v>
   <v>       0.00897875       0.00150454      -0.00892279 </v>
   <v>       0.00057038       0.03924216       0.00297506 </v>
   <v>      -0.00083492       0.01770126       0.00346978 </v>
   <v>       0.00271766      -0.00484234      -0.00045475 </v>
   <v>       0.00235613       0.01420997      -0.01778357 </v>
   <v>       0.00017798       0.00002448      -0.00275485 </v>
   <v>       0.01132754       0.00713067       0.00646559 </v>
   <v>       0.00016466       0.00001473       0.00292715 </v>
   <v>      -0.00041102      -0.00760911       0.00014523 </v>
   <v>       0.00394462       0.00090021      -0.00342401 </v>
   <v>       0.00436211       0.00060139       0.00756494 </v>
   <v>      -0.00204509       0.00704413      -0.00029115 </v>
   <v>       0.00070609       0.02200021       0.00199818 </v>
   <v>       0.00077386       0.00335795       0.00913572 </v>
   <v>      -0.00029949       0.01238648       0.00175277 </v>
   <v>      -0.00029418       0.01963319       0.00244984 </v>
   <v>      -0.00254293      -0.00024625       0.00318155 </v>
   <v>       0.00273800       0.00002200       0.00146922 </v>
   <v>      -0.00038738      -0.00161062       0.00228520 </v>
   <v>      -0.02187982       0.01530965      -0.00281966 </v>
   <v>      -0.00148886      -0.00852691      -0.00086135 </v>
   <v>      -0.00171933      -0.00054884       0.00367493 </v>
   <v>       0.01609648       0.01145027      -0.00159034 </v>
   <v>      -0.00185655       0.00686724       0.00671303 </v>
   <v>      -0.00306208      -0.00211781      -0.00144224 </v>
   <v>      -0.00302384      -0.31238286      -0.00268385 </v>
   <v>       0.00031075       0.00113754      -0.00343802 </v>
   <v>      -0.00038926       0.00417486      -0.00002584 </v>
   <v>      -0.00028718       0.00327046       0.00175488 </v>
   <v>      -0.00279272      -0.01448022       0.00059956 </v>
   <v>       0.00050996       0.00715655      -0.01267419 </v>
   <v>      -0.00265245       0.00127442       0.00021517 </v>
   <v>       0.00169409       0.05974933      -0.00522405 </v>
   <v>       0.00184759      -0.00002914       0.00069194 </v>
   <v>       0.00913983       0.00343728      -0.00044507 </v>
   <v>      -0.01047703      -0.01226629      -0.00127784 </v>
   <v>      -0.00052399       0.00437312      -0.00232972 </v>
   <v>      -0.00675049       0.00266249      -0.00192036 </v>
   <v>      -0.00013157       0.00445725      -0.00901976 </v>
   <v>      -0.00072459       0.00349836      -0.00174575 </v>
   <v>       0.00036047      -0.00164539       0.00425998 </v>
   <v>       0.00631045       0.00143024       0.00519041 </v>
   <v>       0.00119457      -0.00104571       0.00231253 </v>
   <v>      -0.00041899      -0.00177427       0.00236862 </v>
   <v>      -0.00056396       0.00190451       0.00191519 </v>
   <v>      -0.00018952      -0.00087162      -0.00311341 </v>
   <v>       0.00107278       0.00388134       0.00487489 </v>
   <v>       0.00024023      -0.00110637      -0.00429215 </v>
   <v>       0.00015296      -0.00500415      -0.00341691 </v>
   <v>       0.00304093       0.00523363       0.01121217 </v>
   <v>      -0.00382537       0.04425632      -0.00743848 </v>
   <v>       0.00029878      -0.00036091      -0.00122503 </v>
   <v>       0.00165687       0.01789855       0.01288708 </v>
   <v>      -0.00050728       0.00103940       0.00438162 </v>
   <v>      -0.00388310       0.00647990       0.01303264 </v>
   <v>      -0.00248781       0.00085508      -0.00430452 </v>
   <v>       0.00121921       0.00100286       0.00042268 </v>
   <v>      -0.00645599       0.00712781      -0.00660813 </v>
   <v>       0.00595631       0.00103400      -0.00346264 </v>
   <v>      -0.00329354      -0.00233037      -0.00629965 </v>
   <v>      -0.00739888      -0.00282030       0.00047864 </v>
   <v>       0.00223425       0.00806872       0.00118669 </v>
  </varray>
  <varray name="stress" >
   <v>       0.28951319      -0.18717591       0.14323797 </v>
   <v>      -0.18717568       0.22229382       0.23822630 </v>
   <v>       0.14323977       0.23822828       0.14906772 </v>
  </varray>
  <energy>
   <i name="e_fr_energy">   -664.39148234 </i>
   <i name="e_wo_entrp">   -664.34248819 </i>
   <i name="e_0_energy">     -0.09798830 </i>
  </energy>
  <time name="totalsc"> 1015.74 1029.06</time>
  <eigenvalues>
   <array>
    <dimension dim="1">band</dimension>
    <dimension dim="2">kpoint</dimension>
    <dimension dim="3">spin</dimension>
    <field>eigene</field>
    <field>occ</field>
    <set>
     <set comment="spin 1">
      <set comment="kpoint 1">
       <r>  -47.2181    1.0000 </r>
       <r>  -47.1955    1.0000 </r>
       <r>  -47.1632    1.0000 </r>
       <r>  -47.1531    1.0000 </r>
       <r>  -47.1055    1.0000 </r>
       <r>  -46.9986    1.0000 </r>
       <r>  -40.7572    1.0000 </r>
       <r>  -40.5113    1.0000 </r>
       <r>  -40.4217    1.0000 </r>
       <r>  -40.2874    1.0000 </r>
       <r>  -40.2115    1.0000 </r>
       <r>  -40.1816    1.0000 </r>
       <r>  -40.1600    1.0000 </r>
       <r>  -27.2897    1.0000 </r>
       <r>  -27.2387    1.0000 </r>
       <r>  -27.2021    1.0000 </r>
       <r>  -27.1903    1.0000 </r>
       <r>  -27.1692    1.0000 </r>
       <r>  -27.1400    1.0000 </r>
       <r>  -27.0927    1.0000 </r>
       <r>  -27.0449    1.0000 </r>
       <r>  -26.9635    1.0000 </r>
       <r>  -26.9400    1.0000 </r>
       <r>  -26.9270    1.0000 </r>
       <r>  -26.8538    1.0000 </r>
       <r>  -26.7915    1.0000 </r>
       <r>  -26.7022    1.0000 </r>
       <r>  -26.6582    1.0000 </r>
       <r>  -26.6446    1.0000 </r>
       <r>  -26.5936    1.0000 </r>
       <r>  -26.5755    1.0000 </r>
       <r>  -23.5418    1.0000 </r>
       <r>  -23.5073    1.0000 </r>
       <r>  -23.4957    1.0000 </r>
       <r>  -23.4227    1.0000 </r>
       <r>  -23.3946    1.0000 </r>
       <r>  -23.3670    1.0000 </r>
       <r>  -23.3398    1.0000 </r>
       <r>  -23.3349    1.0000 </r>
       <r>  -23.3123    1.0000 </r>
       <r>  -23.2811    1.0000 </r>
       <r>  -23.2482    1.0000 </r>
       <r>  -23.2416    1.0000 </r>
       <r>  -23.2170    1.0000 </r>
       <r>  -23.1778    1.0000 </r>
       <r>  -23.1558    1.0000 </r>
       <r>  -23.1206    1.0000 </r>
       <r>  -23.0810    1.0000 </r>
       <r>  -23.0561    1.0000 </r>
       <r>  -22.7299    1.0000 </r>
       <r>  -22.6223    1.0000 </r>
       <r>  -22.5940    1.0000 </r>
       <r>  -22.5699    1.0000 </r>
       <r>  -22.5589    1.0000 </r>
       <r>  -22.5218    1.0000 </r>
       <r>  -22.4758    1.0000 </r>
       <r>  -22.4554    1.0000 </r>
       <r>  -22.3962    1.0000 </r>
       <r>  -22.1538    1.0000 </r>
       <r>  -22.1205    1.0000 </r>
       <r>  -22.1184    1.0000 </r>
       <r>  -22.0799    1.0000 </r>
       <r>  -22.0422    1.0000 </r>
       <r>  -22.0142    1.0000 </r>
       <r>  -22.0022    1.0000 </r>
       <r>  -21.9802    1.0000 </r>
       <r>  -21.9472    1.0000 </r>
       <r>  -21.6861    1.0000 </r>
       <r>  -21.6587    1.0000 </r>
       <r>  -21.6521    1.0000 </r>
       <r>  -19.0950    1.0000 </r>
       <r>  -19.0444    1.0000 </r>
       <r>  -19.0418    1.0000 </r>
       <r>  -18.8695    1.0000 </r>
       <r>  -18.8098    1.0000 </r>
       <r>  -18.8052    1.0000 </r>
       <r>  -18.7889    1.0000 </r>
       <r>  -18.7288    1.0000 </r>
       <r>  -18.7195    1.0000 </r>
       <r>  -18.7076    1.0000 </r>
       <r>  -18.6233    1.0000 </r>
       <r>  -18.6009    1.0000 </r>
       <r>  -18.5684    1.0000 </r>
       <r>  -18.5494    1.0000 </r>
       <r>  -18.5021    1.0000 </r>
       <r>  -18.4913    1.0000 </r>
       <r>  -18.4667    1.0000 </r>
       <r>  -18.4550    1.0000 </r>
       <r>  -18.4283    1.0000 </r>
       <r>  -18.3902    1.0000 </r>
       <r>  -18.2517    1.0000 </r>
       <r>   -7.8630    1.0000 </r>
       <r>   -7.3685    1.0000 </r>
       <r>   -7.3390    1.0000 </r>
       <r>   -7.1702    1.0000 </r>
       <r>   -6.9529    1.0000 </r>
       <r>   -6.7852    1.0000 </r>
       <r>   -6.5795    1.0000 </r>
       <r>   -6.5268    1.0000 </r>
       <r>   -6.4559    1.0000 </r>
       <r>   -6.3796    1.0000 </r>
       <r>   -6.3648    1.0000 </r>
       <r>   -6.2535    1.0000 </r>
       <r>   -6.1163    1.0000 </r>
       <r>   -3.9133    1.0000 </r>
       <r>   -3.3954    1.0000 </r>
       <r>   -3.2541    1.0000 </r>
       <r>   -3.1227    1.0000 </r>
       <r>   -3.0898    1.0000 </r>
       <r>   -2.9820    1.0000 </r>
       <r>   -2.8783    1.0000 </r>
       <r>   -2.7435    1.0000 </r>
       <r>   -2.6896    1.0000 </r>
       <r>   -2.6247    1.0000 </r>
       <r>   -2.5475    1.0000 </r>
       <r>   -2.5063    1.0000 </r>
       <r>   -2.3472    1.0000 </r>
       <r>   -2.2492    1.0000 </r>
       <r>   -2.2171    1.0000 </r>
       <r>   -1.9055    1.0000 </r>
       <r>   -1.8251    1.0000 </r>
       <r>   -1.4636    1.0000 </r>
       <r>   -1.4585    1.0000 </r>
       <r>    0.5433    1.0000 </r>
       <r>    0.5899    1.0000 </r>
       <r>    0.6409    1.0000 </r>
       <r>    0.6604    1.0000 </r>
       <r>    1.4345    1.0000 </r>
       <r>    1.4875    1.0000 </r>
       <r>    1.5560    1.0000 </r>
       <r>    1.7397    1.0000 </r>
       <r>    1.7735    1.0000 </r>
       <r>    1.8123    1.0000 </r>
       <r>    1.8303    1.0000 </r>
       <r>    1.8774    1.0000 </r>
       <r>    1.9296    1.0000 </r>
       <r>    1.9572    1.0000 </r>
       <r>    2.0424    1.0000 </r>
       <r>    2.1746    1.0000 </r>
       <r>    2.4321    1.0000 </r>
       <r>    2.5124    1.0000 </r>
       <r>    2.5339    1.0000 </r>
       <r>    2.6432    1.0000 </r>
       <r>    2.7202    1.0000 </r>
       <r>    2.7698    1.0000 </r>
       <r>    2.8335    1.0000 </r>
       <r>    2.8775    1.0000 </r>
       <r>    2.9499    1.0000 </r>
       <r>    2.9799    1.0000 </r>
       <r>    3.0163    1.0000 </r>
       <r>    3.0249    1.0000 </r>
       <r>    3.0923    1.0000 </r>
       <r>    3.1348    1.0000 </r>
       <r>    3.2126    1.0000 </r>
       <r>    3.2426    1.0000 </r>
       <r>    3.2790    1.0000 </r>
       <r>    3.3032    1.0000 </r>
       <r>    3.3174    1.0000 </r>
       <r>    3.3581    1.0000 </r>
       <r>    3.3885    1.0000 </r>
       <r>    3.4427    1.0000 </r>
       <r>    3.4768    1.0000 </r>
       <r>    3.5354    1.0000 </r>
       <r>    3.5363    1.0000 </r>
       <r>    3.6016    1.0000 </r>
       <r>    3.6114    1.0000 </r>
       <r>    3.6599    1.0000 </r>
       <r>    3.6840    1.0000 </r>
       <r>    3.7184    1.0000 </r>
       <r>    3.7545    1.0000 </r>
       <r>    3.7574    1.0000 </r>
       <r>    3.8005    1.0000 </r>
       <r>    3.8815    1.0000 </r>
       <r>    3.9117    1.0000 </r>
       <r>    3.9245    1.0000 </r>
       <r>    3.9788    1.0000 </r>
       <r>    3.9969    1.0000 </r>
       <r>    4.0210    1.0000 </r>
       <r>    4.0432    1.0000 </r>
       <r>    4.0638    1.0000 </r>
       <r>    4.0845    1.0000 </r>
       <r>    4.1114    1.0000 </r>
       <r>    4.1420    1.0000 </r>
       <r>    4.1835    1.0000 </r>
       <r>    4.2063    1.0000 </r>
       <r>    4.2290    1.0000 </r>
       <r>    4.2510    1.0000 </r>
       <r>    4.3135    1.0000 </r>
       <r>    4.3295    1.0000 </r>
       <r>    4.3758    1.0000 </r>
       <r>    4.4060    1.0000 </r>
       <r>    4.4396    1.0000 </r>
       <r>    4.4547    1.0000 </r>
       <r>    4.5219    1.0000 </r>
       <r>    4.6146    1.0000 </r>
       <r>    4.6395    1.0000 </r>
       <r>    4.6948    1.0000 </r>
       <r>    4.7353    1.0000 </r>
       <r>    4.7982    1.0000 </r>
       <r>    4.8469    1.0000 </r>
       <r>    4.8868    1.0000 </r>
       <r>    5.4174    1.0000 </r>
       <r>    5.4337    1.0000 </r>
       <r>    5.5097    1.0000 </r>
       <r>    5.5998    1.0000 </r>
       <r>    5.6817    1.0000 </r>
       <r>    5.7268    1.0000 </r>
       <r>    5.7630    1.0000 </r>
       <r>    5.7723    1.0000 </r>
       <r>    5.8089    1.0000 </r>
       <r>    5.8792    1.0000 </r>
       <r>    5.9167    1.0000 </r>
       <r>    5.9640    1.0000 </r>
       <r>    6.0047    1.0000 </r>
       <r>    6.0316    1.0000 </r>
       <r>    6.1544    1.0000 </r>
       <r>    6.2087    1.0000 </r>
       <r>    6.2363    1.0000 </r>
       <r>    6.2634    1.0000 </r>
       <r>    6.3558    1.0000 </r>
       <r>    6.4050    1.0000 </r>
       <r>    6.5284    1.0000 </r>
       <r>    6.6502    1.0000 </r>
       <r>    6.7510    1.0000 </r>
       <r>    6.9244    1.0000 </r>
       <r>    7.2422    1.0000 </r>
       <r>    7.2828    1.0000 </r>
       <r>    7.3098    1.0000 </r>
       <r>    7.4945    1.0000 </r>
       <r>    7.5747    1.0000 </r>
       <r>    7.6551    1.0000 </r>
       <r>    8.3209    0.9999 </r>
       <r>    8.3423    0.9997 </r>
       <r>    8.6520    0.1761 </r>
       <r>    8.7077    0.0429 </r>
       <r>    8.8195    0.0005 </r>
       <r>    8.8935    0.0000 </r>
       <r>    8.9916    0.0000 </r>
       <r>    9.1261    0.0000 </r>
       <r>    9.1947    0.0000 </r>
       <r>    9.2315    0.0000 </r>
       <r>    9.2861    0.0000 </r>
       <r>    9.3203    0.0000 </r>
       <r>    9.4173    0.0000 </r>
       <r>    9.4627    0.0000 </r>
       <r>    9.5214    0.0000 </r>
       <r>    9.5464    0.0000 </r>
       <r>    9.6122    0.0000 </r>
       <r>    9.6666    0.0000 </r>
       <r>    9.7233    0.0000 </r>
       <r>    9.7897    0.0000 </r>
       <r>    9.8466    0.0000 </r>
       <r>    9.8533    0.0000 </r>
       <r>    9.9383    0.0000 </r>
       <r>    9.9678    0.0000 </r>
       <r>   10.0235    0.0000 </r>
       <r>   10.0867    0.0000 </r>
       <r>   10.1059    0.0000 </r>
       <r>   10.1228    0.0000 </r>
       <r>   10.1699    0.0000 </r>
       <r>   10.2227    0.0000 </r>
       <r>   10.2522    0.0000 </r>
       <r>   10.2835    0.0000 </r>
       <r>   10.3162    0.0000 </r>
       <r>   10.3639    0.0000 </r>
       <r>   10.4062    0.0000 </r>
       <r>   10.4588    0.0000 </r>
       <r>   10.4939    0.0000 </r>
       <r>   10.5279    0.0000 </r>
       <r>   10.5924    0.0000 </r>
       <r>   10.6069    0.0000 </r>
       <r>   10.6801    0.0000 </r>
       <r>   10.6873    0.0000 </r>
       <r>   10.7930    0.0000 </r>
       <r>   10.8173    0.0000 </r>
       <r>   10.8615    0.0000 </r>
       <r>   10.8874    0.0000 </r>
       <r>   10.9450    0.0000 </r>
       <r>   10.9503    0.0000 </r>
       <r>   11.0243    0.0000 </r>
       <r>   11.0546    0.0000 </r>
       <r>   11.1483    0.0000 </r>
       <r>   11.1917    0.0000 </r>
       <r>   11.2517    0.0000 </r>
       <r>   11.2647    0.0000 </r>
       <r>   11.3382    0.0000 </r>
       <r>   11.4830    0.0000 </r>
       <r>   11.5605    0.0000 </r>
      </set>
      <set comment="kpoint 2">
       <r>  -47.2181    1.0000 </r>
       <r>  -47.1955    1.0000 </r>
       <r>  -47.1632    1.0000 </r>
       <r>  -47.1531    1.0000 </r>
       <r>  -47.1055    1.0000 </r>
       <r>  -46.9986    1.0000 </r>
       <r>  -40.7572    1.0000 </r>
       <r>  -40.5113    1.0000 </r>
       <r>  -40.4218    1.0000 </r>
       <r>  -40.2874    1.0000 </r>
       <r>  -40.2116    1.0000 </r>
       <r>  -40.1815    1.0000 </r>
       <r>  -40.1601    1.0000 </r>
       <r>  -27.2889    1.0000 </r>
       <r>  -27.2393    1.0000 </r>
       <r>  -27.2021    1.0000 </r>
       <r>  -27.1904    1.0000 </r>
       <r>  -27.1692    1.0000 </r>
       <r>  -27.1391    1.0000 </r>
       <r>  -27.0962    1.0000 </r>
       <r>  -27.0422    1.0000 </r>
       <r>  -26.9634    1.0000 </r>
       <r>  -26.9403    1.0000 </r>
       <r>  -26.9270    1.0000 </r>
       <r>  -26.8539    1.0000 </r>
       <r>  -26.7915    1.0000 </r>
       <r>  -26.7022    1.0000 </r>
       <r>  -26.6582    1.0000 </r>
       <r>  -26.6447    1.0000 </r>
       <r>  -26.5936    1.0000 </r>
       <r>  -26.5755    1.0000 </r>
       <r>  -23.5404    1.0000 </r>
       <r>  -23.5071    1.0000 </r>
       <r>  -23.4947    1.0000 </r>
       <r>  -23.4227    1.0000 </r>
       <r>  -23.3940    1.0000 </r>
       <r>  -23.3671    1.0000 </r>
       <r>  -23.3403    1.0000 </r>
       <r>  -23.3368    1.0000 </r>
       <r>  -23.3128    1.0000 </r>
       <r>  -23.2847    1.0000 </r>
       <r>  -23.2483    1.0000 </r>
       <r>  -23.2413    1.0000 </r>
       <r>  -23.2170    1.0000 </r>
       <r>  -23.1798    1.0000 </r>
       <r>  -23.1533    1.0000 </r>
       <r>  -23.1211    1.0000 </r>
       <r>  -23.0810    1.0000 </r>
       <r>  -23.0530    1.0000 </r>
       <r>  -22.7309    1.0000 </r>
       <r>  -22.6224    1.0000 </r>
       <r>  -22.5933    1.0000 </r>
       <r>  -22.5691    1.0000 </r>
       <r>  -22.5588    1.0000 </r>
       <r>  -22.5215    1.0000 </r>
       <r>  -22.4760    1.0000 </r>
       <r>  -22.4565    1.0000 </r>
       <r>  -22.3953    1.0000 </r>
       <r>  -22.1538    1.0000 </r>
       <r>  -22.1205    1.0000 </r>
       <r>  -22.1184    1.0000 </r>
       <r>  -22.0799    1.0000 </r>
       <r>  -22.0423    1.0000 </r>
       <r>  -22.0143    1.0000 </r>
       <r>  -22.0023    1.0000 </r>
       <r>  -21.9802    1.0000 </r>
       <r>  -21.9473    1.0000 </r>
       <r>  -21.6861    1.0000 </r>
       <r>  -21.6587    1.0000 </r>
       <r>  -21.6521    1.0000 </r>
       <r>  -19.0950    1.0000 </r>
       <r>  -19.0444    1.0000 </r>
       <r>  -19.0412    1.0000 </r>
       <r>  -18.8702    1.0000 </r>
       <r>  -18.8100    1.0000 </r>
       <r>  -18.8056    1.0000 </r>
       <r>  -18.7890    1.0000 </r>
       <r>  -18.7297    1.0000 </r>
       <r>  -18.7220    1.0000 </r>
       <r>  -18.7059    1.0000 </r>
       <r>  -18.6233    1.0000 </r>
       <r>  -18.6009    1.0000 </r>
       <r>  -18.5690    1.0000 </r>
       <r>  -18.5506    1.0000 </r>
       <r>  -18.4997    1.0000 </r>
       <r>  -18.4910    1.0000 </r>
       <r>  -18.4623    1.0000 </r>
       <r>  -18.4522    1.0000 </r>
       <r>  -18.4301    1.0000 </r>
       <r>  -18.3903    1.0000 </r>
       <r>  -18.2558    1.0000 </r>
       <r>   -7.7748    1.0000 </r>
       <r>   -7.3984    1.0000 </r>
       <r>   -7.2858    1.0000 </r>
       <r>   -7.1302    1.0000 </r>
       <r>   -6.9341    1.0000 </r>
       <r>   -6.8020    1.0000 </r>
       <r>   -6.6393    1.0000 </r>
       <r>   -6.5314    1.0000 </r>
       <r>   -6.5062    1.0000 </r>
       <r>   -6.4301    1.0000 </r>
       <r>   -6.3626    1.0000 </r>
       <r>   -6.2631    1.0000 </r>
       <r>   -6.1138    1.0000 </r>
       <r>   -3.7882    1.0000 </r>
       <r>   -3.4367    1.0000 </r>
       <r>   -3.2713    1.0000 </r>
       <r>   -3.1231    1.0000 </r>
       <r>   -3.0574    1.0000 </r>
       <r>   -2.9550    1.0000 </r>
       <r>   -2.8983    1.0000 </r>
       <r>   -2.8140    1.0000 </r>
       <r>   -2.7264    1.0000 </r>
       <r>   -2.6330    1.0000 </r>
       <r>   -2.5344    1.0000 </r>
       <r>   -2.4592    1.0000 </r>
       <r>   -2.4142    1.0000 </r>
       <r>   -2.3632    1.0000 </r>
       <r>   -2.2250    1.0000 </r>
       <r>   -2.0310    1.0000 </r>
       <r>   -1.9958    1.0000 </r>
       <r>   -1.6831    1.0000 </r>
       <r>   -1.6369    1.0000 </r>
       <r>    0.8307    1.0000 </r>
       <r>    0.8577    1.0000 </r>
       <r>    0.9142    1.0000 </r>
       <r>    0.9931    1.0000 </r>
       <r>    1.3698    1.0000 </r>
       <r>    1.3996    1.0000 </r>
       <r>    1.5231    1.0000 </r>
       <r>    1.5760    1.0000 </r>
       <r>    1.9159    1.0000 </r>
       <r>    1.9599    1.0000 </r>
       <r>    2.0375    1.0000 </r>
       <r>    2.0761    1.0000 </r>
       <r>    2.1611    1.0000 </r>
       <r>    2.1970    1.0000 </r>
       <r>    2.2224    1.0000 </r>
       <r>    2.3544    1.0000 </r>
       <r>    2.4590    1.0000 </r>
       <r>    2.5085    1.0000 </r>
       <r>    2.5553    1.0000 </r>
       <r>    2.6309    1.0000 </r>
       <r>    2.6924    1.0000 </r>
       <r>    2.7411    1.0000 </r>
       <r>    2.7704    1.0000 </r>
       <r>    2.8523    1.0000 </r>
       <r>    2.8734    1.0000 </r>
       <r>    2.9761    1.0000 </r>
       <r>    2.9827    1.0000 </r>
       <r>    3.0505    1.0000 </r>
       <r>    3.0993    1.0000 </r>
       <r>    3.1195    1.0000 </r>
       <r>    3.1406    1.0000 </r>
       <r>    3.1803    1.0000 </r>
       <r>    3.2122    1.0000 </r>
       <r>    3.3158    1.0000 </r>
       <r>    3.3515    1.0000 </r>
       <r>    3.3887    1.0000 </r>
       <r>    3.4484    1.0000 </r>
       <r>    3.4787    1.0000 </r>
       <r>    3.4997    1.0000 </r>
       <r>    3.5714    1.0000 </r>
       <r>    3.6054    1.0000 </r>
       <r>    3.6742    1.0000 </r>
       <r>    3.6849    1.0000 </r>
       <r>    3.7500    1.0000 </r>
       <r>    3.7602    1.0000 </r>
       <r>    3.7920    1.0000 </r>
       <r>    3.8110    1.0000 </r>
       <r>    3.8354    1.0000 </r>
       <r>    3.8739    1.0000 </r>
       <r>    3.9015    1.0000 </r>
       <r>    3.9461    1.0000 </r>
       <r>    3.9861    1.0000 </r>
       <r>    4.0266    1.0000 </r>
       <r>    4.0309    1.0000 </r>
       <r>    4.0791    1.0000 </r>
       <r>    4.1179    1.0000 </r>
       <r>    4.1309    1.0000 </r>
       <r>    4.1618    1.0000 </r>
       <r>    4.2114    1.0000 </r>
       <r>    4.2262    1.0000 </r>
       <r>    4.2593    1.0000 </r>
       <r>    4.2880    1.0000 </r>
       <r>    4.3017    1.0000 </r>
       <r>    4.3323    1.0000 </r>
       <r>    4.3672    1.0000 </r>
       <r>    4.4007    1.0000 </r>
       <r>    4.4187    1.0000 </r>
       <r>    4.4888    1.0000 </r>
       <r>    4.5198    1.0000 </r>
       <r>    4.5428    1.0000 </r>
       <r>    4.5739    1.0000 </r>
       <r>    4.5881    1.0000 </r>
       <r>    4.6246    1.0000 </r>
       <r>    4.6696    1.0000 </r>
       <r>    4.7270    1.0000 </r>
       <r>    4.7532    1.0000 </r>
       <r>    4.7762    1.0000 </r>
       <r>    4.8390    1.0000 </r>
       <r>    4.8762    1.0000 </r>
       <r>    4.9987    1.0000 </r>
       <r>    5.0727    1.0000 </r>
       <r>    5.1147    1.0000 </r>
       <r>    5.1913    1.0000 </r>
       <r>    5.2430    1.0000 </r>
       <r>    5.2759    1.0000 </r>
       <r>    5.4168    1.0000 </r>
       <r>    5.4835    1.0000 </r>
       <r>    5.5765    1.0000 </r>
       <r>    5.7469    1.0000 </r>
       <r>    5.8799    1.0000 </r>
       <r>    5.9589    1.0000 </r>
       <r>    5.9729    1.0000 </r>
       <r>    6.0324    1.0000 </r>
       <r>    6.0643    1.0000 </r>
       <r>    6.2392    1.0000 </r>
       <r>    6.4079    1.0000 </r>
       <r>    6.5153    1.0000 </r>
       <r>    6.6020    1.0000 </r>
       <r>    6.7694    1.0000 </r>
       <r>    6.8125    1.0000 </r>
       <r>    6.8925    1.0000 </r>
       <r>    7.0181    1.0000 </r>
       <r>    7.0938    1.0000 </r>
       <r>    7.1873    1.0000 </r>
       <r>    7.3015    1.0000 </r>
       <r>    7.4164    1.0000 </r>
       <r>    7.8202    1.0000 </r>
       <r>    7.9987    1.0000 </r>
       <r>    8.1509    1.0000 </r>
       <r>    8.2023    1.0000 </r>
       <r>    8.3114    0.9999 </r>
       <r>    8.4530    0.9702 </r>
       <r>    8.5039    0.8780 </r>
       <r>    8.6494    0.1861 </r>
       <r>    8.7339    0.0184 </r>
       <r>    8.9617    0.0000 </r>
       <r>    9.0782    0.0000 </r>
       <r>    9.1299    0.0000 </r>
       <r>    9.2476    0.0000 </r>
       <r>    9.3203    0.0000 </r>
       <r>    9.3917    0.0000 </r>
       <r>    9.4228    0.0000 </r>
       <r>    9.4837    0.0000 </r>
       <r>    9.4997    0.0000 </r>
       <r>    9.5616    0.0000 </r>
       <r>    9.5906    0.0000 </r>
       <r>    9.6735    0.0000 </r>
       <r>    9.7435    0.0000 </r>
       <r>    9.7977    0.0000 </r>
       <r>    9.8220    0.0000 </r>
       <r>    9.8642    0.0000 </r>
       <r>    9.9145    0.0000 </r>
       <r>    9.9556    0.0000 </r>
       <r>   10.0032    0.0000 </r>
       <r>   10.0435    0.0000 </r>
       <r>   10.0837    0.0000 </r>
       <r>   10.1289    0.0000 </r>
       <r>   10.1631    0.0000 </r>
       <r>   10.1813    0.0000 </r>
       <r>   10.2411    0.0000 </r>
       <r>   10.3000    0.0000 </r>
       <r>   10.3212    0.0000 </r>
       <r>   10.3493    0.0000 </r>
       <r>   10.4161    0.0000 </r>
       <r>   10.4245    0.0000 </r>
       <r>   10.4941    0.0000 </r>
       <r>   10.5241    0.0000 </r>
       <r>   10.5796    0.0000 </r>
       <r>   10.6599    0.0000 </r>
       <r>   10.6611    0.0000 </r>
       <r>   10.6851    0.0000 </r>
       <r>   10.7288    0.0000 </r>
       <r>   10.7820    0.0000 </r>
       <r>   10.8398    0.0000 </r>
       <r>   10.8973    0.0000 </r>
       <r>   10.9326    0.0000 </r>
       <r>   10.9782    0.0000 </r>
       <r>   11.0495    0.0000 </r>
       <r>   11.0899    0.0000 </r>
       <r>   11.1596    0.0000 </r>
       <r>   11.2120    0.0000 </r>
       <r>   11.2403    0.0000 </r>
       <r>   11.3154    0.0000 </r>
       <r>   11.3922    0.0000 </r>
       <r>   11.4668    0.0000 </r>
      </set>
      <set comment="kpoint 3">
       <r>  -47.2181    1.0000 </r>
       <r>  -47.1955    1.0000 </r>
       <r>  -47.1632    1.0000 </r>
       <r>  -47.1531    1.0000 </r>
       <r>  -47.1055    1.0000 </r>
       <r>  -46.9986    1.0000 </r>
       <r>  -40.7572    1.0000 </r>
       <r>  -40.5113    1.0000 </r>
       <r>  -40.4218    1.0000 </r>
       <r>  -40.2874    1.0000 </r>
       <r>  -40.2115    1.0000 </r>
       <r>  -40.1816    1.0000 </r>
       <r>  -40.1600    1.0000 </r>
       <r>  -27.2897    1.0000 </r>
       <r>  -27.2387    1.0000 </r>
       <r>  -27.2021    1.0000 </r>
       <r>  -27.1903    1.0000 </r>
       <r>  -27.1692    1.0000 </r>
       <r>  -27.1400    1.0000 </r>
       <r>  -27.0927    1.0000 </r>
       <r>  -27.0448    1.0000 </r>
       <r>  -26.9635    1.0000 </r>
       <r>  -26.9400    1.0000 </r>
       <r>  -26.9270    1.0000 </r>
       <r>  -26.8538    1.0000 </r>
       <r>  -26.7915    1.0000 </r>
       <r>  -26.7022    1.0000 </r>
       <r>  -26.6583    1.0000 </r>
       <r>  -26.6446    1.0000 </r>
       <r>  -26.5936    1.0000 </r>
       <r>  -26.5755    1.0000 </r>
       <r>  -23.5400    1.0000 </r>
       <r>  -23.5065    1.0000 </r>
       <r>  -23.4957    1.0000 </r>
       <r>  -23.4221    1.0000 </r>
       <r>  -23.3948    1.0000 </r>
       <r>  -23.3669    1.0000 </r>
       <r>  -23.3396    1.0000 </r>
       <r>  -23.3354    1.0000 </r>
       <r>  -23.3123    1.0000 </r>
       <r>  -23.2848    1.0000 </r>
       <r>  -23.2486    1.0000 </r>
       <r>  -23.2433    1.0000 </r>
       <r>  -23.2177    1.0000 </r>
       <r>  -23.1791    1.0000 </r>
       <r>  -23.1546    1.0000 </r>
       <r>  -23.1217    1.0000 </r>
       <r>  -23.0815    1.0000 </r>
       <r>  -23.0533    1.0000 </r>
       <r>  -22.7269    1.0000 </r>
       <r>  -22.6201    1.0000 </r>
       <r>  -22.5936    1.0000 </r>
       <r>  -22.5697    1.0000 </r>
       <r>  -22.5587    1.0000 </r>
       <r>  -22.5222    1.0000 </r>
       <r>  -22.4783    1.0000 </r>
       <r>  -22.4555    1.0000 </r>
       <r>  -22.3965    1.0000 </r>
       <r>  -22.1530    1.0000 </r>
       <r>  -22.1205    1.0000 </r>
       <r>  -22.1179    1.0000 </r>
       <r>  -22.0800    1.0000 </r>
       <r>  -22.0443    1.0000 </r>
       <r>  -22.0142    1.0000 </r>
       <r>  -22.0018    1.0000 </r>
       <r>  -21.9808    1.0000 </r>
       <r>  -21.9465    1.0000 </r>
       <r>  -21.6861    1.0000 </r>
       <r>  -21.6586    1.0000 </r>
       <r>  -21.6522    1.0000 </r>
       <r>  -19.0949    1.0000 </r>
       <r>  -19.0442    1.0000 </r>
       <r>  -19.0413    1.0000 </r>
       <r>  -18.8616    1.0000 </r>
       <r>  -18.8105    1.0000 </r>
       <r>  -18.8060    1.0000 </r>
       <r>  -18.7928    1.0000 </r>
       <r>  -18.7341    1.0000 </r>
       <r>  -18.7196    1.0000 </r>
       <r>  -18.7063    1.0000 </r>
       <r>  -18.6233    1.0000 </r>
       <r>  -18.5992    1.0000 </r>
       <r>  -18.5670    1.0000 </r>
       <r>  -18.5509    1.0000 </r>
       <r>  -18.5017    1.0000 </r>
       <r>  -18.4934    1.0000 </r>
       <r>  -18.4666    1.0000 </r>
       <r>  -18.4551    1.0000 </r>
       <r>  -18.4269    1.0000 </r>
       <r>  -18.3915    1.0000 </r>
       <r>  -18.2514    1.0000 </r>
       <r>   -7.8343    1.0000 </r>
       <r>   -7.3704    1.0000 </r>
       <r>   -7.3333    1.0000 </r>
       <r>   -7.1668    1.0000 </r>
       <r>   -6.9316    1.0000 </r>
       <r>   -6.7911    1.0000 </r>
       <r>   -6.5575    1.0000 </r>
       <r>   -6.5255    1.0000 </r>
       <r>   -6.4453    1.0000 </r>
       <r>   -6.3804    1.0000 </r>
       <r>   -6.3678    1.0000 </r>
       <r>   -6.2479    1.0000 </r>
       <r>   -6.1080    1.0000 </r>
       <r>   -3.9584    1.0000 </r>
       <r>   -3.4123    1.0000 </r>
       <r>   -3.1739    1.0000 </r>
       <r>   -3.1564    1.0000 </r>
       <r>   -3.0924    1.0000 </r>
       <r>   -3.0060    1.0000 </r>
       <r>   -2.9339    1.0000 </r>
       <r>   -2.7930    1.0000 </r>
       <r>   -2.7148    1.0000 </r>
       <r>   -2.6688    1.0000 </r>
       <r>   -2.6159    1.0000 </r>
       <r>   -2.5477    1.0000 </r>
       <r>   -2.4512    1.0000 </r>
       <r>   -2.2637    1.0000 </r>
       <r>   -2.1906    1.0000 </r>
       <r>   -2.0087    1.0000 </r>
       <r>   -1.9872    1.0000 </r>
       <r>   -1.6266    1.0000 </r>
       <r>   -1.5810    1.0000 </r>
       <r>    0.7623    1.0000 </r>
       <r>    0.7977    1.0000 </r>
       <r>    0.9696    1.0000 </r>
       <r>    0.9940    1.0000 </r>
       <r>    1.5720    1.0000 </r>
       <r>    1.5941    1.0000 </r>
       <r>    1.6246    1.0000 </r>
       <r>    1.6444    1.0000 </r>
       <r>    1.7056    1.0000 </r>
       <r>    1.7894    1.0000 </r>
       <r>    1.8597    1.0000 </r>
       <r>    1.9928    1.0000 </r>
       <r>    2.0535    1.0000 </r>
       <r>    2.1347    1.0000 </r>
       <r>    2.2185    1.0000 </r>
       <r>    2.3555    1.0000 </r>
       <r>    2.4345    1.0000 </r>
       <r>    2.5663    1.0000 </r>
       <r>    2.6110    1.0000 </r>
       <r>    2.6873    1.0000 </r>
       <r>    2.7565    1.0000 </r>
       <r>    2.7908    1.0000 </r>
       <r>    2.8443    1.0000 </r>
       <r>    2.8629    1.0000 </r>
       <r>    2.9177    1.0000 </r>
       <r>    2.9705    1.0000 </r>
       <r>    3.0133    1.0000 </r>
       <r>    3.0791    1.0000 </r>
       <r>    3.1323    1.0000 </r>
       <r>    3.1710    1.0000 </r>
       <r>    3.2118    1.0000 </r>
       <r>    3.2355    1.0000 </r>
       <r>    3.3073    1.0000 </r>
       <r>    3.3319    1.0000 </r>
       <r>    3.3953    1.0000 </r>
       <r>    3.4211    1.0000 </r>
       <r>    3.4720    1.0000 </r>
       <r>    3.5008    1.0000 </r>
       <r>    3.5250    1.0000 </r>
       <r>    3.5748    1.0000 </r>
       <r>    3.6024    1.0000 </r>
       <r>    3.6557    1.0000 </r>
       <r>    3.6657    1.0000 </r>
       <r>    3.7272    1.0000 </r>
       <r>    3.7513    1.0000 </r>
       <r>    3.7981    1.0000 </r>
       <r>    3.8053    1.0000 </r>
       <r>    3.8357    1.0000 </r>
       <r>    3.8585    1.0000 </r>
       <r>    3.8930    1.0000 </r>
       <r>    3.9291    1.0000 </r>
       <r>    3.9481    1.0000 </r>
       <r>    3.9664    1.0000 </r>
       <r>    4.0197    1.0000 </r>
       <r>    4.0557    1.0000 </r>
       <r>    4.0723    1.0000 </r>
       <r>    4.0961    1.0000 </r>
       <r>    4.1216    1.0000 </r>
       <r>    4.1556    1.0000 </r>
       <r>    4.1975    1.0000 </r>
       <r>    4.2132    1.0000 </r>
       <r>    4.2472    1.0000 </r>
       <r>    4.2745    1.0000 </r>
       <r>    4.3130    1.0000 </r>
       <r>    4.3341    1.0000 </r>
       <r>    4.3687    1.0000 </r>
       <r>    4.3928    1.0000 </r>
       <r>    4.4361    1.0000 </r>
       <r>    4.4837    1.0000 </r>
       <r>    4.5341    1.0000 </r>
       <r>    4.5730    1.0000 </r>
       <r>    4.6080    1.0000 </r>
       <r>    4.6622    1.0000 </r>
       <r>    4.6796    1.0000 </r>
       <r>    4.7240    1.0000 </r>
       <r>    4.7875    1.0000 </r>
       <r>    4.8544    1.0000 </r>
       <r>    4.8753    1.0000 </r>
       <r>    4.9879    1.0000 </r>
       <r>    5.0328    1.0000 </r>
       <r>    5.0733    1.0000 </r>
       <r>    5.1088    1.0000 </r>
       <r>    5.1695    1.0000 </r>
       <r>    5.2814    1.0000 </r>
       <r>    5.3235    1.0000 </r>
       <r>    5.3800    1.0000 </r>
       <r>    5.4792    1.0000 </r>
       <r>    5.5859    1.0000 </r>
       <r>    5.6093    1.0000 </r>
       <r>    5.6482    1.0000 </r>
       <r>    5.8074    1.0000 </r>
       <r>    5.9784    1.0000 </r>
       <r>    6.0414    1.0000 </r>
       <r>    6.1676    1.0000 </r>
       <r>    6.4080    1.0000 </r>
       <r>    6.4701    1.0000 </r>
[...]
      </set>
     </set>
    </set>
   </array>
  </eigenvalues>
  <separator name="orbital magnetization" >
   <v name="MAGDIPOLOUT">      0.00000000      0.00000000      0.00000000</v>
  </separator>
  <dos>
   <i name="efermi">      8.58626313 </i>
   <total>
    <array>
     <dimension dim="1">gridpoints</dimension>
     <dimension dim="2">spin</dimension>
     <field>energy</field>
     <field>total</field>
     <field>integrated</field>
     <set>
      <set comment="spin 1">
       <r>   -50.1736     0.0000     0.0000 </r>
       <r>   -49.9569     0.0000     0.0000 </r>
       <r>   -49.7401     0.0000     0.0000 </r>
       <r>   -49.5234     0.0000     0.0000 </r>
       <r>   -49.3067     0.0000     0.0000 </r>
       <r>   -49.0899     0.0000     0.0000 </r>
       <r>   -48.8732     0.0000     0.0000 </r>
       <r>   -48.6565     0.0000     0.0000 </r>
       <r>   -48.4397     0.0000     0.0000 </r>
       <r>   -48.2230     0.0000     0.0000 </r>
       <r>   -48.0063     0.0000     0.0000 </r>
       <r>   -47.7895     0.0000     0.0000 </r>
       <r>   -47.5728     0.0000     0.0000 </r>
       <r>   -47.3561     0.3930     0.0852 </r>
       <r>   -47.1393    29.1645     6.4061 </r>
       <r>   -46.9226    24.4530    11.7059 </r>
       <r>   -46.7059     1.3570    12.0000 </r>
       <r>   -46.4891     0.0002    12.0000 </r>
       <r>   -46.2724     0.0000    12.0000 </r>
       <r>   -46.0557     0.0000    12.0000 </r>
       <r>   -45.8389     0.0000    12.0000 </r>
       <r>   -45.6222     0.0000    12.0000 </r>
       <r>   -45.4055     0.0000    12.0000 </r>
       <r>   -45.1887     0.0000    12.0000 </r>
       <r>   -44.9720     0.0000    12.0000 </r>
       <r>   -44.7553     0.0000    12.0000 </r>
       <r>   -44.5385     0.0000    12.0000 </r>
       <r>   -44.3218     0.0000    12.0000 </r>
       <r>   -44.1051     0.0000    12.0000 </r>
       <r>   -43.8883     0.0000    12.0000 </r>
       <r>   -43.6716     0.0000    12.0000 </r>
       <r>   -43.4549     0.0000    12.0000 </r>
       <r>   -43.2381     0.0000    12.0000 </r>
       <r>   -43.0214     0.0000    12.0000 </r>
       <r>   -42.8047     0.0000    12.0000 </r>
       <r>   -42.5879     0.0000    12.0000 </r>
       <r>   -42.3712     0.0000    12.0000 </r>
       <r>   -42.1545     0.0000    12.0000 </r>
       <r>   -41.9377     0.0000    12.0000 </r>
       <r>   -41.7210     0.0000    12.0000 </r>
       <r>   -41.5043     0.0000    12.0000 </r>
       <r>   -41.2875     0.0000    12.0000 </r>
       <r>   -41.0708     0.0000    12.0000 </r>
       <r>   -40.8541     0.7875    12.1707 </r>
       <r>   -40.6373     8.3804    13.9870 </r>
       <r>   -40.4206    13.3352    16.8772 </r>
       <r>   -40.2039    24.2583    22.1347 </r>
       <r>   -39.9871    17.7329    25.9780 </r>
       <r>   -39.7704     0.1014    26.0000 </r>
       <r>   -39.5537     0.0000    26.0000 </r>
       <r>   -39.3369     0.0000    26.0000 </r>
       <r>   -39.1202     0.0000    26.0000 </r>
       <r>   -38.9035     0.0000    26.0000 </r>
       <r>   -38.6867     0.0000    26.0000 </r>
       <r>   -38.4700     0.0000    26.0000 </r>
       <r>   -38.2533     0.0000    26.0000 </r>
       <r>   -38.0365     0.0000    26.0000 </r>
       <r>   -37.8198     0.0000    26.0000 </r>
       <r>   -37.6031     0.0000    26.0000 </r>
       <r>   -37.3863     0.0000    26.0000 </r>
       <r>   -37.1696     0.0000    26.0000 </r>
       <r>   -36.9529     0.0000    26.0000 </r>
       <r>   -36.7362     0.0000    26.0000 </r>
       <r>   -36.5194     0.0000    26.0000 </r>
       <r>   -36.3027     0.0000    26.0000 </r>
       <r>   -36.0860     0.0000    26.0000 </r>
       <r>   -35.8692     0.0000    26.0000 </r>
       <r>   -35.6525     0.0000    26.0000 </r>
       <r>   -35.4358     0.0000    26.0000 </r>
       <r>   -35.2190     0.0000    26.0000 </r>
       <r>   -35.0023     0.0000    26.0000 </r>
       <r>   -34.7856     0.0000    26.0000 </r>
       <r>   -34.5688     0.0000    26.0000 </r>
       <r>   -34.3521     0.0000    26.0000 </r>
       <r>   -34.1354     0.0000    26.0000 </r>
       <r>   -33.9186     0.0000    26.0000 </r>
       <r>   -33.7019     0.0000    26.0000 </r>
       <r>   -33.4852     0.0000    26.0000 </r>
       <r>   -33.2684     0.0000    26.0000 </r>
       <r>   -33.0517     0.0000    26.0000 </r>
       <r>   -32.8350     0.0000    26.0000 </r>
       <r>   -32.6182     0.0000    26.0000 </r>
       <r>   -32.4015     0.0000    26.0000 </r>
       <r>   -32.1848     0.0000    26.0000 </r>
       <r>   -31.9680     0.0000    26.0000 </r>
       <r>   -31.7513     0.0000    26.0000 </r>
       <r>   -31.5346     0.0000    26.0000 </r>
       <r>   -31.3178     0.0000    26.0000 </r>
       <r>   -31.1011     0.0000    26.0000 </r>
       <r>   -30.8844     0.0000    26.0000 </r>
       <r>   -30.6676     0.0000    26.0000 </r>
       <r>   -30.4509     0.0000    26.0000 </r>
       <r>   -30.2342     0.0000    26.0000 </r>
       <r>   -30.0174     0.0000    26.0000 </r>
       <r>   -29.8007     0.0000    26.0000 </r>
       <r>   -29.5840     0.0000    26.0000 </r>
       <r>   -29.3672     0.0000    26.0000 </r>
       <r>   -29.1505     0.0000    26.0000 </r>
       <r>   -28.9338     0.0000    26.0000 </r>
       <r>   -28.7170     0.0000    26.0000 </r>
       <r>   -28.5003     0.0000    26.0000 </r>
       <r>   -28.2836     0.0000    26.0000 </r>
       <r>   -28.0668     0.0000    26.0000 </r>
       <r>   -27.8501     0.0000    26.0000 </r>
       <r>   -27.6334     0.0000    26.0000 </r>
       <r>   -27.4166     0.3988    26.0864 </r>
       <r>   -27.1999    28.9418    32.3591 </r>
       <r>   -26.9832    50.3326    43.2678 </r>
       <r>   -26.7664    38.5139    51.6150 </r>
       <r>   -26.5497    40.5958    60.4135 </r>
       <r>   -26.3330     7.3163    61.9992 </r>
       <r>   -26.1162     0.0039    62.0000 </r>
       <r>   -25.8995     0.0000    62.0000 </r>
       <r>   -25.6828     0.0000    62.0000 </r>
       <r>   -25.4660     0.0000    62.0000 </r>
       <r>   -25.2493     0.0000    62.0000 </r>
       <r>   -25.0326     0.0000    62.0000 </r>
       <r>   -24.8158     0.0000    62.0000 </r>
       <r>   -24.5991     0.0000    62.0000 </r>
       <r>   -24.3824     0.0000    62.0000 </r>
       <r>   -24.1656     0.0000    62.0000 </r>
       <r>   -23.9489     0.0000    62.0000 </r>
       <r>   -23.7322     0.0412    62.0089 </r>
       <r>   -23.5154    15.1175    65.2854 </r>
       <r>   -23.2987    65.7827    79.5427 </r>
       <r>   -23.0820    69.1410    94.5278 </r>
       <r>   -22.8652    16.2179    98.0428 </r>
       <r>   -22.6485    15.6315   101.4306 </r>
       <r>   -22.4318    53.4457   113.0140 </r>
       <r>   -22.2151    17.4684   116.8000 </r>
       <r>   -21.9983    54.0658   128.5179 </r>
       <r>   -21.7816    26.6754   134.2993 </r>
       <r>   -21.5649    24.0541   139.5126 </r>
       <r>   -21.3481     2.2487   140.0000 </r>
       <r>   -21.1314     0.0001   140.0000 </r>
       <r>   -20.9147     0.0000   140.0000 </r>
       <r>   -20.6979     0.0000   140.0000 </r>
       <r>   -20.4812     0.0000   140.0000 </r>
       <r>   -20.2645     0.0000   140.0000 </r>
       <r>   -20.0477     0.0000   140.0000 </r>
       <r>   -19.8310     0.0000   140.0000 </r>
       <r>   -19.6143     0.0000   140.0000 </r>
       <r>   -19.3975     0.0001   140.0000 </r>
       <r>   -19.1808     1.5109   140.3275 </r>
       <r>   -18.9641    24.5125   145.6401 </r>
       <r>   -18.7473    42.3801   154.8253 </r>
       <r>   -18.5306    61.5178   168.1582 </r>
       <r>   -18.3139    54.2571   179.9175 </r>
       <r>   -18.0971     9.4870   181.9737 </r>
       <r>   -17.8804     0.1215   182.0000 </r>
       <r>   -17.6637     0.0000   182.0000 </r>
       <r>   -17.4469     0.0000   182.0000 </r>
       <r>   -17.2302     0.0000   182.0000 </r>
       <r>   -17.0135     0.0000   182.0000 </r>
       <r>   -16.7967     0.0000   182.0000 </r>
       <r>   -16.5800     0.0000   182.0000 </r>
       <r>   -16.3633     0.0000   182.0000 </r>
       <r>   -16.1465     0.0000   182.0000 </r>
       <r>   -15.9298     0.0000   182.0000 </r>
       <r>   -15.7131     0.0000   182.0000 </r>
       <r>   -15.4963     0.0000   182.0000 </r>
       <r>   -15.2796     0.0000   182.0000 </r>
       <r>   -15.0629     0.0000   182.0000 </r>
       <r>   -14.8461     0.0000   182.0000 </r>
       <r>   -14.6294     0.0000   182.0000 </r>
       <r>   -14.4127     0.0000   182.0000 </r>
       <r>   -14.1959     0.0000   182.0000 </r>
       <r>   -13.9792     0.0000   182.0000 </r>
       <r>   -13.7625     0.0000   182.0000 </r>
       <r>   -13.5457     0.0000   182.0000 </r>
       <r>   -13.3290     0.0000   182.0000 </r>
       <r>   -13.1123     0.0000   182.0000 </r>
       <r>   -12.8955     0.0000   182.0000 </r>
       <r>   -12.6788     0.0000   182.0000 </r>
       <r>   -12.4621     0.0000   182.0000 </r>
       <r>   -12.2453     0.0000   182.0000 </r>
       <r>   -12.0286     0.0000   182.0000 </r>
       <r>   -11.8119     0.0000   182.0000 </r>
       <r>   -11.5951     0.0000   182.0000 </r>
       <r>   -11.3784     0.0000   182.0000 </r>
       <r>   -11.1617     0.0000   182.0000 </r>
       <r>   -10.9449     0.0000   182.0000 </r>
       <r>   -10.7282     0.0000   182.0000 </r>
       <r>   -10.5115     0.0000   182.0000 </r>
       <r>   -10.2947     0.0000   182.0000 </r>
       <r>   -10.0780     0.0000   182.0000 </r>
       <r>    -9.8613     0.0000   182.0000 </r>
       <r>    -9.6445     0.0000   182.0000 </r>
       <r>    -9.4278     0.0000   182.0000 </r>
       <r>    -9.2111     0.0000   182.0000 </r>
       <r>    -8.9943     0.0000   182.0000 </r>
       <r>    -8.7776     0.0000   182.0000 </r>
       <r>    -8.5609     0.0000   182.0000 </r>
       <r>    -8.3442     0.0000   182.0000 </r>
       <r>    -8.1274     0.0000   182.0000 </r>
       <r>    -7.9107     0.2258   182.0490 </r>
       <r>    -7.6940     4.9206   183.1154 </r>
       <r>    -7.4772     5.1603   184.2338 </r>
       <r>    -7.2605    14.5748   187.3926 </r>
       <r>    -7.0438    11.1480   189.8088 </r>
       <r>    -6.8270    13.6370   192.7644 </r>
       <r>    -6.6103    13.3823   195.6648 </r>
       <r>    -6.3936    27.8686   201.7048 </r>
       <r>    -6.1768    20.9226   206.2394 </r>
       <r>    -5.9601     8.0418   207.9823 </r>
       <r>    -5.7434     0.0815   208.0000 </r>
       <r>    -5.5266     0.0000   208.0000 </r>
       <r>    -5.3099     0.0000   208.0000 </r>
       <r>    -5.0932     0.0000   208.0000 </r>
       <r>    -4.8764     0.0000   208.0000 </r>
       <r>    -4.6597     0.0000   208.0000 </r>
       <r>    -4.4430     0.0000   208.0000 </r>
       <r>    -4.2262     0.0001   208.0000 </r>
       <r>    -4.0095     0.2268   208.0492 </r>
       <r>    -3.7928     4.4716   209.0183 </r>
       <r>    -3.5760     4.9288   210.0865 </r>
       <r>    -3.3593     9.0271   212.0430 </r>
       <r>    -3.1426    13.7457   215.0222 </r>
       <r>    -2.9258    24.9695   220.4339 </r>
       <r>    -2.7091    26.2446   226.1219 </r>
       <r>    -2.4924    27.6848   232.1221 </r>
       <r>    -2.2756    21.8269   236.8527 </r>
       <r>    -2.0589    18.7865   240.9244 </r>
       <r>    -1.8422    12.3302   243.5967 </r>
       <r>    -1.6254     8.4985   245.4386 </r>
       <r>    -1.4087     2.4267   245.9646 </r>
       <r>    -1.1920     0.1633   246.0000 </r>
       <r>    -0.9752     0.0000   246.0000 </r>
       <r>    -0.7585     0.0000   246.0000 </r>
       <r>    -0.5418     0.0000   246.0000 </r>
       <r>    -0.3250     0.0000   246.0000 </r>
       <r>    -0.1083     0.0000   246.0000 </r>
       <r>     0.1084     0.0000   246.0000 </r>
       <r>     0.3252     0.0004   246.0001 </r>
       <r>     0.5419     0.2973   246.0645 </r>
       <r>     0.7586     1.8540   246.4663 </r>
       <r>     0.9754     7.6174   248.1173 </r>
       <r>     1.1921     9.9474   250.2732 </r>
       <r>     1.4088    14.2854   253.3693 </r>
       <r>     1.6256    16.1849   256.8771 </r>
       <r>     1.8423    21.6191   261.5627 </r>
       <r>     2.0590    27.9114   267.6120 </r>
       <r>     2.2758    26.3483   273.3225 </r>
       <r>     2.4925    28.0420   279.4001 </r>
       <r>     2.7092    33.3272   286.6233 </r>
       <r>     2.9260    36.7164   294.5809 </r>
       <r>     3.1427    39.3135   303.1014 </r>
       <r>     3.3594    45.5889   312.9820 </r>
       <r>     3.5762    51.5097   324.1459 </r>
       <r>     3.7929    60.4886   337.2557 </r>
       <r>     4.0096    67.4088   351.8654 </r>
       <r>     4.2264    68.8028   366.7773 </r>
       <r>     4.4431    65.1930   380.9067 </r>
       <r>     4.6598    57.5326   393.3759 </r>
       <r>     4.8766    47.9099   403.7596 </r>
       <r>     5.0933    37.6219   411.9135 </r>
       <r>     5.3100    32.1041   418.8715 </r>
       <r>     5.5267    25.5208   424.4027 </r>
       <r>     5.7435    22.3648   429.2499 </r>
       <r>     5.9602    16.5338   432.8333 </r>
       <r>     6.1769    16.0874   436.3200 </r>
       <r>     6.3937     7.7454   437.9986 </r>
       <r>     6.6104    11.0689   440.3976 </r>
       <r>     6.8271    17.9956   444.2979 </r>
       <r>     7.0439    14.1554   447.3658 </r>
       <r>     7.2606    16.0204   450.8380 </r>
       <r>     7.4773    16.2325   454.3561 </r>
       <r>     7.6941    17.6031   458.1713 </r>
       <r>     7.9108    16.8921   461.8323 </r>
       <r>     8.1275    18.9413   465.9375 </r>
       <r>     8.3443    19.8950   470.2494 </r>
       <r>     8.5610    19.5890   474.4950 </r>
       <r>     8.7777    19.2955   478.6770 </r>
       <r>     8.9945    22.7119   483.5994 </r>
       <r>     9.2112    27.4391   489.5464 </r>
       <r>     9.4279    31.0645   496.2791 </r>
       <r>     9.6447    34.6313   503.7848 </r>
       <r>     9.8614    37.0640   511.8178 </r>
       <r>    10.0781    38.2047   520.0980 </r>
       <r>    10.2949    39.5925   528.6790 </r>
       <r>    10.5116    40.5209   537.4612 </r>
       <r>    10.7283    38.8512   545.8815 </r>
       <r>    10.9451    39.8569   554.5198 </r>
       <r>    11.1618    36.8267   562.5014 </r>
       <r>    11.3785    30.1423   569.0342 </r>
       <r>    11.5953    21.2540   573.6407 </r>
       <r>    11.8120     9.0754   575.6076 </r>
       <r>    12.0287     1.7907   575.9957 </r>
       <r>    12.2455     0.0198   576.0000 </r>
       <r>    12.4622     0.0000   576.0000 </r>
       <r>    12.6789     0.0000   576.0000 </r>
       <r>    12.8957     0.0000   576.0000 </r>
       <r>    13.1124     0.0000   576.0000 </r>
       <r>    13.3291     0.0000   576.0000 </r>
       <r>    13.5459     0.0000   576.0000 </r>
       <r>    13.7626     0.0000   576.0000 </r>
       <r>    13.9793     0.0000   576.0000 </r>
       <r>    14.1961     0.0000   576.0000 </r>
       <r>    14.4128     0.0000   576.0000 </r>
       <r>    14.6295     0.0000   576.0000 </r>
       <r>    14.8463     0.0000   576.0000 </r>
      </set>
     </set>
    </array>
   </total>
  </dos>
 </calculation>
 <structure name="finalpos" >
  <crystal>
   <varray name="basis" >
    <v>       9.03972867      -0.00879691       0.00953501 </v>
    <v>      -0.00313273       9.06033028       0.00116777 </v>
    <v>       0.04202810      -0.01453105       9.01823866 </v>
   </varray>
   <i name="volume">    738.61642026 </i>
   <varray name="rec_basis" >
    <v>       0.11062337       0.00003832      -0.00051548 </v>
    <v>       0.00010722       0.11037127       0.00017734 </v>
    <v>      -0.00011698      -0.00001433       0.11088692 </v>
   </varray>
  </crystal>
  <varray name="positions" >
   <v>       0.99614388       0.99888572       0.99985940 </v>
   <v>       0.25018339       0.00044227       0.25139747 </v>
   <v>       0.24945717       0.49987491       0.25085290 </v>
   <v>       0.50064117       0.50190099       0.99899695 </v>
   <v>       0.50116791       0.24589837       0.74339623 </v>
   <v>       0.99770083       0.49993588       0.49972288 </v>
   <v>       0.49836155       0.75421905       0.74951196 </v>
   <v>       0.98742321       0.23107217       0.26824219 </v>
   <v>       0.76951960       0.73738255       0.99688472 </v>
   <v>       0.01948111       0.27592937       0.75096238 </v>
   <v>       0.76975127       0.25884506       0.47914419 </v>
   <v>       0.99122308       0.73279627       0.75415907 </v>
   <v>       0.26269579       0.48755306       0.74841205 </v>
   <v>       0.24425967       0.25226850       0.99487845 </v>
   <v>       0.50355731       0.25630059       0.25307916 </v>
   <v>       0.74861405       0.99891642       0.25429125 </v>
   <v>       0.75709901       0.25779145       0.99235448 </v>
   <v>       0.24219828       0.74767776       0.99708613 </v>
   <v>       0.24565374       0.25114586       0.50479551 </v>
   <v>       0.24430152       0.74938844       0.50442604 </v>
   <v>       0.24973189       0.24849423       0.25210920 </v>
   <v>       0.25632949       0.99993294       0.99481244 </v>
   <v>       0.00057065       0.25421950       0.01124952 </v>
   <v>       0.74967704       0.24885476       0.24227306 </v>
   <v>       0.74344934       0.00206690       0.99667574 </v>
   <v>       0.50259787       0.00080995       0.24902777 </v>
   <v>       0.99485014       0.49666995       0.24350717 </v>
   <v>       0.49658800       0.76410699       0.00355498 </v>
   <v>       0.99921959       0.00098963       0.74860118 </v>
   <v>       0.75754448       0.23755138       0.74904244 </v>
   <v>       0.74443672       0.00198612       0.50401924 </v>
   <v>       0.50177382       0.24081808       0.49540614 </v>
   <v>       0.50636333       0.00016967       0.75022397 </v>
   <v>       0.99583756       0.99762249       0.25416458 </v>
   <v>       0.50362357       0.24246183       0.00120418 </v>
   <v>       0.25099659       0.75108695       0.24947487 </v>
   <v>       0.24405054       0.49943566       0.99725344 </v>
   <v>       0.00000910       0.74602004       0.00150828 </v>
   <v>       0.74687140       0.74830530       0.24584709 </v>
   <v>       0.75718105       0.50182894       0.99954172 </v>
   <v>       0.50298611       0.50211111       0.25279214 </v>
   <v>       0.25335381       0.24497162       0.74942572 </v>
   <v>       0.25047022       0.99998366       0.50516186 </v>
   <v>       0.99503040       0.24856423       0.51402762 </v>
   <v>       0.24337191       0.75531753       0.75100381 </v>
   <v>       0.25251330       0.49964993       0.50369820 </v>
   <v>       0.99536418       0.75482110       0.50402525 </v>
   <v>       0.00256329       0.50124239       0.75361286 </v>
   <v>       0.74890626       0.75248222       0.74997241 </v>
   <v>       0.74676521       0.49555246       0.50073077 </v>
   <v>       0.49863831       0.75054242       0.49697020 </v>
   <v>       0.50173750       0.50003609       0.74580179 </v>
   <v>       0.50233875       0.00681899       0.00806253 </v>
   <v>       0.99873704       0.50480607       0.99932456 </v>
   <v>       0.50120491       0.74431592       0.25221235 </v>
   <v>       0.23028326       0.00369011       0.74627153 </v>
   <v>       0.49361013       0.98797346       0.49016878 </v>
   <v>       0.76506547       0.98786272       0.74491119 </v>
   <v>       0.99630345       0.76351619       0.25317624 </v>
   <v>       0.74599579       0.50219872       0.25316053 </v>
   <v>       0.99909008       0.00293078       0.49930503 </v>
   <v>       0.49991922       0.51265534       0.49948823 </v>
   <v>       0.74224606       0.51696646       0.74781963 </v>
   <v>       0.75237115       0.74264536       0.49692604 </v>
  </varray>
 </structure>
</modeling>
