HEBCN                                   
           1
     9.039729   -0.008797    0.009535
    -0.003133    9.060330    0.001168
     0.042028   -0.014531    9.018239
   Zr   Mo   Hf   N    C    Ta   Nb
   7   6   7  13  19   6   6
Direct configuration=     1
   0.99614388  0.99888572  0.99985940
   0.25018339  0.00044227  0.25139747
   0.24945717  0.49987491  0.25085290
   0.50064117  0.50190099  0.99899695
   0.50116791  0.24589837  0.74339623
   0.99770083  0.49993588  0.49972288
   0.49836155  0.75421905  0.74951196
   0.98742321  0.23107217  0.26824219
   0.76951960  0.73738255  0.99688472
   0.01948111  0.27592937  0.75096238
   0.76975127  0.25884506  0.47914419
   0.99122308  0.73279627  0.75415907
   0.26269579  0.48755306  0.74841205
   0.24425967  0.25226850  0.99487845
   0.50355731  0.25630059  0.25307916
   0.74861405  0.99891642  0.25429125
   0.75709901  0.25779145  0.99235448
   0.24219828  0.74767776  0.99708613
   0.24565374  0.25114586  0.50479551
   0.24430152  0.74938844  0.50442604
   0.24973189  0.24849423  0.25210920
   0.25632949  0.99993294  0.99481244
   0.00057065  0.25421950  0.01124952
   0.74967704  0.24885476  0.24227306
   0.74344934  0.00206690  0.99667574
   0.50259787  0.00080995  0.24902777
   0.99485014  0.49666995  0.24350717
   0.49658800  0.76410699  0.00355498
   0.99921959  0.00098963  0.74860118
   0.75754448  0.23755138  0.74904244
   0.74443672  0.00198612  0.50401924
   0.50177382  0.24081808  0.49540614
   0.50636333  0.00016967  0.75022397
   0.99583756  0.99762249  0.25416458
   0.50362357  0.24246183  0.00120418
   0.25099659  0.75108695  0.24947487
   0.24405054  0.49943566  0.99725344
   0.00000910  0.74602004  0.00150828
   0.74687140  0.74830530  0.24584709
   0.75718105  0.50182894  0.99954172
   0.50298611  0.50211111  0.25279214
   0.25335381  0.24497162  0.74942572
   0.25047022  0.99998366  0.50516186
   0.99503040  0.24856423  0.51402762
   0.24337191  0.75531753  0.75100381
   0.25251330  0.49964993  0.50369820
   0.99536418  0.75482110  0.50402525
   0.00256329  0.50124239  0.75361286
   0.74890626  0.75248222  0.74997241
   0.74676521  0.49555246  0.50073077
   0.49863831  0.75054242  0.49697020
   0.50173750  0.50003609  0.74580179
   0.50233875  0.00681899  0.00806253
   0.99873704  0.50480607  0.99932456
   0.50120491  0.74431592  0.25221235
   0.23028326  0.00369011  0.74627153
   0.49361013  0.98797346  0.49016878
   0.76506547  0.98786272  0.74491119
   0.99630345  0.76351619  0.25317624
   0.74599579  0.50219872  0.25316053
   0.99909008  0.00293078  0.49930503
   0.49991922  0.51265534  0.49948823
   0.74224606  0.51696646  0.74781963
   0.75237115  0.74264536  0.49692604
