  64  64   0   0
  0.1034865E+02  0.8675641E-09  0.8781706E-09  0.8693326E-09  0.5000000E-15
  1.000000000000000E-004
  CAR 
 HECN                                    
     13.95632141    -60.32847614  301      8.04885004      1.00000000
    -60.328  0.0000E+00  0.0000E+00
    -60.081  0.0000E+00  0.0000E+00
    -59.833  0.0000E+00  0.0000E+00
    -59.586  0.0000E+00  0.0000E+00
    -59.338  0.0000E+00  0.0000E+00
    -59.090  0.0000E+00  0.0000E+00
    -58.843  0.0000E+00  0.0000E+00
    -58.595  0.0000E+00  0.0000E+00
    -58.348  0.0000E+00  0.0000E+00
    -58.100  0.0000E+00  0.0000E+00
    -57.852  0.0000E+00  0.0000E+00
    -57.605  0.0000E+00  0.0000E+00
    -57.357  0.4039E-09  0.1000E-09
    -57.109  0.1058E-02  0.2619E-03
    -56.862  0.1720E+00  0.4285E-01
    -56.614  0.3734E+00  0.1353E+00
    -56.367  0.1891E-01  0.1400E+00
    -56.119  0.5217E-06  0.1400E+00
    -55.871  0.0000E+00  0.1400E+00
    -55.624  0.0000E+00  0.1400E+00
    -55.376  0.0000E+00  0.1400E+00
    -55.129  0.0000E+00  0.1400E+00
    -54.881  0.0000E+00  0.1400E+00
    -54.633  0.0000E+00  0.1400E+00
    -54.386  0.0000E+00  0.1400E+00
    -54.138  0.0000E+00  0.1400E+00
    -53.890  0.0000E+00  0.1400E+00
    -53.643  0.0000E+00  0.1400E+00
    -53.395  0.0000E+00  0.1400E+00
    -53.148  0.0000E+00  0.1400E+00
    -52.900  0.0000E+00  0.1400E+00
    -52.652  0.0000E+00  0.1400E+00
    -52.405  0.0000E+00  0.1400E+00
    -52.157  0.0000E+00  0.1400E+00
    -51.910  0.0000E+00  0.1400E+00
    -51.662  0.0000E+00  0.1400E+00
    -51.414  0.0000E+00  0.1400E+00
    -51.167  0.0000E+00  0.1400E+00
    -50.919  0.0000E+00  0.1400E+00
    -50.671  0.0000E+00  0.1400E+00
    -50.424  0.0000E+00  0.1400E+00
    -50.176  0.0000E+00  0.1400E+00
    -49.929  0.0000E+00  0.1400E+00
    -49.681  0.0000E+00  0.1400E+00
    -49.433  0.0000E+00  0.1400E+00
    -49.186  0.0000E+00  0.1400E+00
    -48.938  0.0000E+00  0.1400E+00
    -48.691  0.0000E+00  0.1400E+00
    -48.443  0.0000E+00  0.1400E+00
    -48.195  0.0000E+00  0.1400E+00
    -47.948  0.0000E+00  0.1400E+00
    -47.700  0.0000E+00  0.1400E+00
    -47.452  0.0000E+00  0.1400E+00
    -47.205  0.0000E+00  0.1400E+00
    -46.957  0.0000E+00  0.1400E+00
    -46.710  0.0000E+00  0.1400E+00
    -46.462  0.0000E+00  0.1400E+00
    -46.214  0.0000E+00  0.1400E+00
    -45.967  0.0000E+00  0.1400E+00
    -45.719  0.0000E+00  0.1400E+00
    -45.472  0.0000E+00  0.1400E+00
    -45.224  0.0000E+00  0.1400E+00
    -44.976  0.0000E+00  0.1400E+00
    -44.729  0.0000E+00  0.1400E+00
    -44.481  0.0000E+00  0.1400E+00
    -44.233  0.0000E+00  0.1400E+00
    -43.986  0.0000E+00  0.1400E+00
    -43.738  0.0000E+00  0.1400E+00
    -43.491  0.0000E+00  0.1400E+00
    -43.243  0.0000E+00  0.1400E+00
    -42.995  0.0000E+00  0.1400E+00
    -42.748  0.0000E+00  0.1400E+00
    -42.500  0.0000E+00  0.1400E+00
    -42.253  0.0000E+00  0.1400E+00
    -42.005  0.0000E+00  0.1400E+00
    -41.757  0.0000E+00  0.1400E+00
    -41.510  0.0000E+00  0.1400E+00
    -41.262  0.0000E+00  0.1400E+00
    -41.014  0.0000E+00  0.1400E+00
    -40.767  0.0000E+00  0.1400E+00
    -40.519  0.0000E+00  0.1400E+00
    -40.272  0.0000E+00  0.1400E+00
    -40.024  0.0000E+00  0.1400E+00
    -39.776  0.0000E+00  0.1400E+00
    -39.529  0.0000E+00  0.1400E+00
    -39.281  0.0000E+00  0.1400E+00
    -39.034  0.0000E+00  0.1400E+00
    -38.786  0.0000E+00  0.1400E+00
    -38.538  0.0000E+00  0.1400E+00
    -38.291  0.0000E+00  0.1400E+00
    -38.043  0.0000E+00  0.1400E+00
    -37.795  0.0000E+00  0.1400E+00
    -37.548  0.0000E+00  0.1400E+00
    -37.300  0.0000E+00  0.1400E+00
    -37.053  0.0000E+00  0.1400E+00
    -36.805  0.0000E+00  0.1400E+00
    -36.557  0.0000E+00  0.1400E+00
    -36.310  0.6812E-15  0.1400E+00
    -36.062  0.1247E-05  0.1400E+00
    -35.814  0.2797E-01  0.1469E+00
    -35.567  0.5994E+00  0.2953E+00
    -35.319  0.7605E+00  0.4836E+00
    -35.072  0.6602E-01  0.5000E+00
    -34.824  0.3986E-04  0.5000E+00
    -34.576  0.4299E-12  0.5000E+00
    -34.329  0.0000E+00  0.5000E+00
    -34.081  0.0000E+00  0.5000E+00
    -33.834  0.0000E+00  0.5000E+00
    -33.586  0.0000E+00  0.5000E+00
    -33.338  0.0000E+00  0.5000E+00
    -33.091  0.0000E+00  0.5000E+00
    -32.843  0.0000E+00  0.5000E+00
    -32.595  0.0000E+00  0.5000E+00
    -32.348  0.0000E+00  0.5000E+00
    -32.100  0.0000E+00  0.5000E+00
    -31.853  0.1568E-10  0.5000E+00
    -31.605  0.2935E-03  0.5001E+00
    -31.357  0.2083E+00  0.5517E+00
    -31.110  0.8466E+00  0.7613E+00
    -30.862  0.7631E+00  0.9502E+00
    -30.615  0.1132E+01  0.1231E+01
    -30.367  0.1991E+00  0.1280E+01
    -30.119  0.4171E-03  0.1280E+01
    -29.872  0.2948E-10  0.1280E+01
    -29.624  0.0000E+00  0.1280E+01
    -29.376  0.0000E+00  0.1280E+01
    -29.129  0.0000E+00  0.1280E+01
    -28.881  0.0000E+00  0.1280E+01
    -28.634  0.0000E+00  0.1280E+01
    -28.386  0.0000E+00  0.1280E+01
    -28.138  0.8927E-08  0.1280E+01
    -27.891  0.4537E-02  0.1281E+01
    -27.643  0.2729E+00  0.1349E+01
    -27.396  0.2799E+00  0.1418E+01
    -27.148  0.5777E+00  0.1561E+01
    -26.900  0.2557E+00  0.1624E+01
    -26.653  0.6319E-01  0.1640E+01
    -26.405  0.1341E-04  0.1640E+01
    -26.157  0.4936E-13  0.1640E+01
    -25.910  0.0000E+00  0.1640E+01
    -25.662  0.0000E+00  0.1640E+01
    -25.415  0.0000E+00  0.1640E+01
    -25.167  0.0000E+00  0.1640E+01
    -24.919  0.0000E+00  0.1640E+01
    -24.672  0.0000E+00  0.1640E+01
    -24.424  0.0000E+00  0.1640E+01
    -24.177  0.0000E+00  0.1640E+01
    -23.929  0.0000E+00  0.1640E+01
    -23.681  0.5004E-09  0.1640E+01
    -23.434  0.1145E-02  0.1640E+01
    -23.186  0.8876E-01  0.1662E+01
    -22.938  0.3019E+00  0.1737E+01
    -22.691  0.3212E+00  0.1817E+01
    -22.443  0.2156E+00  0.1870E+01
    -22.196  0.4733E+00  0.1987E+01
    -21.948  0.2556E+00  0.2050E+01
    -21.700  0.3863E-01  0.2060E+01
    -21.453  0.1173E-05  0.2060E+01
    -21.205  0.2521E-15  0.2060E+01
    -20.958  0.0000E+00  0.2060E+01
    -20.710  0.0000E+00  0.2060E+01
    -20.462  0.0000E+00  0.2060E+01
    -20.215  0.0000E+00  0.2060E+01
    -19.967  0.0000E+00  0.2060E+01
    -19.719  0.0000E+00  0.2060E+01
    -19.472  0.0000E+00  0.2060E+01
    -19.224  0.0000E+00  0.2060E+01
    -18.977  0.0000E+00  0.2060E+01
    -18.729  0.0000E+00  0.2060E+01
    -18.481  0.0000E+00  0.2060E+01
    -18.234  0.0000E+00  0.2060E+01
    -17.986  0.0000E+00  0.2060E+01
    -17.739  0.0000E+00  0.2060E+01
    -17.491  0.0000E+00  0.2060E+01
    -17.243  0.0000E+00  0.2060E+01
    -16.996  0.0000E+00  0.2060E+01
    -16.748  0.0000E+00  0.2060E+01
    -16.500  0.0000E+00  0.2060E+01
    -16.253  0.0000E+00  0.2060E+01
    -16.005  0.0000E+00  0.2060E+01
    -15.758  0.0000E+00  0.2060E+01
    -15.510  0.0000E+00  0.2060E+01
    -15.262  0.0000E+00  0.2060E+01
    -15.015  0.0000E+00  0.2060E+01
    -14.767  0.0000E+00  0.2060E+01
    -14.520  0.0000E+00  0.2060E+01
    -14.272  0.0000E+00  0.2060E+01
    -14.024  0.0000E+00  0.2060E+01
    -13.777  0.0000E+00  0.2060E+01
    -13.529  0.0000E+00  0.2060E+01
    -13.281  0.0000E+00  0.2060E+01
    -13.034  0.0000E+00  0.2060E+01
    -12.786  0.0000E+00  0.2060E+01
    -12.539  0.0000E+00  0.2060E+01
    -12.291  0.0000E+00  0.2060E+01
    -12.043  0.0000E+00  0.2060E+01
    -11.796  0.0000E+00  0.2060E+01
    -11.548  0.0000E+00  0.2060E+01
    -11.301  0.0000E+00  0.2060E+01
    -11.053  0.0000E+00  0.2060E+01
    -10.805  0.0000E+00  0.2060E+01
    -10.558  0.0000E+00  0.2060E+01
    -10.310  0.0000E+00  0.2060E+01
    -10.062  0.0000E+00  0.2060E+01
     -9.815  0.0000E+00  0.2060E+01
     -9.567  0.0000E+00  0.2060E+01
     -9.320  0.0000E+00  0.2060E+01
     -9.072  0.1356E-12  0.2060E+01
     -8.824  0.4789E-05  0.2060E+01
     -8.577  0.6268E-02  0.2062E+01
     -8.329  0.5482E-01  0.2075E+01
     -8.082  0.6490E-01  0.2091E+01
     -7.834  0.8744E-01  0.2113E+01
     -7.586  0.1069E+00  0.2139E+01
     -7.339  0.1703E+00  0.2181E+01
     -7.091  0.1573E+00  0.2220E+01
     -6.843  0.1766E+00  0.2264E+01
     -6.596  0.1376E+00  0.2298E+01
     -6.348  0.8018E-01  0.2318E+01
     -6.101  0.7729E-02  0.2320E+01
     -5.853  0.6630E-07  0.2320E+01
     -5.605  0.1251E-04  0.2320E+01
     -5.358  0.1276E-01  0.2323E+01
     -5.110  0.5921E-01  0.2338E+01
     -4.862  0.2049E-01  0.2343E+01
     -4.615  0.8071E-01  0.2363E+01
     -4.367  0.1024E+00  0.2388E+01
     -4.120  0.1409E+00  0.2423E+01
     -3.872  0.2099E+00  0.2475E+01
     -3.624  0.2166E+00  0.2529E+01
     -3.377  0.2086E+00  0.2580E+01
     -3.129  0.2006E+00  0.2630E+01
     -2.882  0.1364E+00  0.2664E+01
     -2.634  0.9129E-01  0.2686E+01
     -2.386  0.5333E-01  0.2700E+01
     -2.139  0.1502E-02  0.2700E+01
     -1.891  0.1207E-06  0.2700E+01
     -1.643  0.1421E-15  0.2700E+01
     -1.396  0.0000E+00  0.2700E+01
     -1.148  0.0000E+00  0.2700E+01
     -0.901  0.1710E-13  0.2700E+01
     -0.653  0.1846E-05  0.2700E+01
     -0.405  0.3352E-02  0.2701E+01
     -0.158  0.1341E-01  0.2704E+01
      0.090  0.7506E-01  0.2723E+01
      0.337  0.7962E-01  0.2742E+01
      0.585  0.1374E+00  0.2776E+01
      0.833  0.1688E+00  0.2818E+01
      1.080  0.2672E+00  0.2884E+01
      1.328  0.2813E+00  0.2954E+01
      1.576  0.2362E+00  0.3013E+01
      1.823  0.3091E+00  0.3089E+01
      2.071  0.3063E+00  0.3165E+01
      2.318  0.3277E+00  0.3246E+01
      2.566  0.4584E+00  0.3360E+01
      2.814  0.5256E+00  0.3490E+01
      3.061  0.6005E+00  0.3638E+01
      3.309  0.5800E+00  0.3782E+01
      3.556  0.5798E+00  0.3926E+01
      3.804  0.5565E+00  0.4063E+01
      4.052  0.5087E+00  0.4189E+01
      4.299  0.4029E+00  0.4289E+01
      4.547  0.3443E+00  0.4374E+01
      4.795  0.3176E+00  0.4453E+01
      5.042  0.2777E+00  0.4522E+01
      5.290  0.1959E+00  0.4570E+01
      5.537  0.1372E+00  0.4604E+01
      5.785  0.8153E-01  0.4625E+01
      6.033  0.1241E+00  0.4655E+01
      6.280  0.1990E+00  0.4705E+01
      6.528  0.1848E+00  0.4750E+01
      6.775  0.1789E+00  0.4795E+01
      7.023  0.2063E+00  0.4846E+01
      7.271  0.2279E+00  0.4902E+01
      7.518  0.2857E+00  0.4973E+01
      7.766  0.2845E+00  0.5043E+01
      8.014  0.2692E+00  0.5110E+01
      8.261  0.3003E+00  0.5184E+01
      8.509  0.4030E+00  0.5284E+01
      8.756  0.5164E+00  0.5412E+01
      9.004  0.5562E+00  0.5550E+01
      9.252  0.4773E+00  0.5668E+01
      9.499  0.4893E+00  0.5789E+01
      9.747  0.4524E+00  0.5901E+01
      9.994  0.4436E+00  0.6011E+01
     10.242  0.4174E+00  0.6114E+01
     10.490  0.3867E+00  0.6210E+01
     10.737  0.1208E+00  0.6240E+01
     10.985  0.3561E-03  0.6240E+01
     11.233  0.7842E-10  0.6240E+01
     11.480  0.0000E+00  0.6240E+01
     11.728  0.0000E+00  0.6240E+01
     11.975  0.0000E+00  0.6240E+01
     12.223  0.0000E+00  0.6240E+01
     12.471  0.0000E+00  0.6240E+01
     12.718  0.0000E+00  0.6240E+01
     12.966  0.0000E+00  0.6240E+01
     13.213  0.0000E+00  0.6240E+01
     13.461  0.0000E+00  0.6240E+01
     13.709  0.0000E+00  0.6240E+01
     13.956  0.0000E+00  0.6240E+01
