<?xml version="1.0" encoding="ISO-8859-1"?>
<modeling>
 <generator>
  <i name="program" type="string">vasp </i>
  <i name="version" type="string">5.4.4.18Apr17-6-g9f103f2a35  </i>
  <i name="subversion" type="string">(build Oct 18 2021 20:38:43) complex            parallel </i>
  <i name="platform" type="string">LinuxIFC </i>
  <i name="date" type="string">2024 06 24 </i>
  <i name="time" type="string">10:46:48 </i>
 </generator>
 <incar>
  <i type="string" name="SYSTEM">HECN</i>
  <i type="int" name="ISTART">     0</i>
  <i type="string" name="PREC">normal</i>
  <i type="string" name="ALGO">Fast</i>
  <i type="int" name="ICHARG">     2</i>
  <i type="int" name="NELM">    60</i>
  <i type="int" name="IBRION">     2</i>
  <i name="EDIFF">      0.00001000</i>
  <i name="EDIFFG">     -0.01000000</i>
  <i type="int" name="NSW">   100</i>
  <i type="int" name="ISIF">     3</i>
  <i name="ENCUT">    400.00000000</i>
  <i name="POTIM">      0.50000000</i>
  <i type="logical" name="LREAL"> F  </i>
  <i type="int" name="ISMEAR">     0</i>
  <i name="SIGMA">      0.10000000</i>
  <i type="logical" name="LWAVE"> F  </i>
  <i type="logical" name="LCHARG"> F  </i>
  <v type="int" name="KPOINT_BSE">    -1     0     0     0</v>
  <i type="int" name="NELM">    60</i>
 </incar>
 <structure name="primitive_cell" >
  <crystal>
   <varray name="basis" >
    <v>       8.67563976       0.00400499      -0.00229158 </v>
    <v>       0.00964775       8.78170063       0.00165214 </v>
    <v>       0.02887887      -0.01362091       8.69326753 </v>
   </varray>
   <i name="volume">    662.31329457 </i>
   <varray name="rec_basis" >
    <v>       0.11526523      -0.00012656      -0.00038311 </v>
    <v>      -0.00005252       0.11387318       0.00017859 </v>
    <v>       0.00003039      -0.00002167       0.11503141 </v>
   </varray>
  </crystal>
  <varray name="positions" >
   <v>      -0.00292656      -0.00928331      -0.00078348 </v>
   <v>      -0.25172110      -0.00301527       0.00983464 </v>
   <v>      -0.00191736      -0.25591014       0.00459270 </v>
   <v>      -0.00055934      -0.00091708       0.25537937 </v>
   <v>      -0.01127748       0.00224856      -0.26107972 </v>
   <v>       0.00245745       0.24918133       0.00146208 </v>
   <v>       0.26039445       0.00016650      -0.00633063 </v>
   <v>       0.00152689      -0.22501336       0.25835514 </v>
   <v>      -0.25942022      -0.02325427      -0.23410196 </v>
   <v>       0.23772964       0.01087025      -0.25279183 </v>
   <v>      -0.24516508      -0.25703070       0.01005523 </v>
   <v>       0.25070863      -0.24847398       0.00021022 </v>
   <v>      -0.00274070      -0.25378692      -0.25367572 </v>
   <v>       0.25309141      -0.00487234       0.24917019 </v>
   <v>      -0.24364441       0.25469732      -0.00583913 </v>
   <v>       0.24866298       0.24707123      -0.00219333 </v>
   <v>      -0.00294887       0.23713979       0.26227919 </v>
   <v>      -0.25504514      -0.01109868       0.26786914 </v>
   <v>       0.00246216       0.25453398      -0.26037163 </v>
   <v>       0.24342835      -0.24670996      -0.24985501 </v>
   <v>      -0.25244953      -0.24752335      -0.25141288 </v>
   <v>      -0.24421714       0.24455322      -0.25109909 </v>
   <v>       0.25134753      -0.25073028       0.24938645 </v>
   <v>      -0.24527491      -0.25922597       0.25520645 </v>
   <v>      -0.24686891       0.24626631       0.25480275 </v>
   <v>       0.24969721       0.24973020       0.24855360 </v>
   <v>       0.25047931       0.25193187      -0.25149755 </v>
   <v>      -0.48389089       0.01483120      -0.02153326 </v>
   <v>      -0.00065096      -0.48843845      -0.01533252 </v>
   <v>       0.02332982      -0.00095233       0.49767004 </v>
   <v>      -0.49442178      -0.23979744       0.00723194 </v>
   <v>      -0.24298414      -0.49660954       0.00282128 </v>
   <v>      -0.49531739      -0.00022912       0.24765859 </v>
   <v>      -0.00855087       0.48084625       0.24248838 </v>
   <v>      -0.00846460      -0.24062525       0.49888800 </v>
   <v>       0.24447578      -0.49958311      -0.00313155 </v>
   <v>      -0.00743142      -0.49935845      -0.24937760 </v>
   <v>      -0.26294405       0.00414263      -0.48962262 </v>
   <v>      -0.49565649       0.24741628      -0.00010185 </v>
   <v>       0.24806664      -0.00189521      -0.49738606 </v>
   <v>      -0.00202850       0.24459436      -0.49889709 </v>
   <v>      -0.49839658       0.00041799      -0.26395457 </v>
   <v>      -0.26139410      -0.47477698      -0.25903376 </v>
   <v>       0.49954244      -0.24375003      -0.25193243 </v>
   <v>       0.24965513      -0.49643263       0.24906642 </v>
   <v>       0.24664711      -0.24986565       0.49927249 </v>
   <v>      -0.26276822      -0.48667219       0.26349344 </v>
   <v>      -0.24606357      -0.26787105       0.49289478 </v>
   <v>      -0.49686491       0.24509777      -0.25095644 </v>
   <v>      -0.49633486      -0.26168362       0.25828562 </v>
   <v>      -0.49445546       0.25438531       0.25265694 </v>
   <v>      -0.24814556       0.26001436      -0.49253356 </v>
   <v>       0.25716752       0.49563271      -0.25273258 </v>
   <v>       0.25465169       0.24839868       0.49919237 </v>
   <v>       0.47791205      -0.01771281       0.49831721 </v>
   <v>      -0.00551406      -0.49639618       0.49923479 </v>
   <v>      -0.49565934       0.49583184      -0.00204949 </v>
   <v>      -0.49441419       0.23304292       0.49728622 </v>
   <v>      -0.49536436      -0.24750072       0.49794660 </v>
   <v>      -0.49676726      -0.49532405       0.25565064 </v>
   <v>      -0.49604546      -0.49831476      -0.25785847 </v>
   <v>      -0.25526093       0.49960159      -0.49827342 </v>
   <v>       0.25668665      -0.49953823       0.49912236 </v>
   <v>      -0.49815375      -0.47247131       0.49940410 </v>
  </varray>
 </structure>
 <varray name="primitive_index" >
  <v type="int" >        1 </v>
  <v type="int" >       25 </v>
  <v type="int" >       38 </v>
  <v type="int" >       34 </v>
  <v type="int" >       29 </v>
  <v type="int" >       23 </v>
  <v type="int" >       22 </v>
  <v type="int" >       59 </v>
  <v type="int" >       58 </v>
  <v type="int" >       56 </v>
  <v type="int" >        9 </v>
  <v type="int" >       18 </v>
  <v type="int" >       12 </v>
  <v type="int" >        2 </v>
  <v type="int" >       17 </v>
  <v type="int" >       14 </v>
  <v type="int" >        8 </v>
  <v type="int" >       16 </v>
  <v type="int" >       10 </v>
  <v type="int" >       45 </v>
  <v type="int" >       49 </v>
  <v type="int" >       30 </v>
  <v type="int" >       36 </v>
  <v type="int" >       39 </v>
  <v type="int" >       24 </v>
  <v type="int" >       21 </v>
  <v type="int" >       42 </v>
  <v type="int" >       53 </v>
  <v type="int" >       54 </v>
  <v type="int" >       61 </v>
  <v type="int" >       28 </v>
  <v type="int" >       40 </v>
  <v type="int" >       26 </v>
  <v type="int" >       27 </v>
  <v type="int" >       47 </v>
  <v type="int" >       37 </v>
  <v type="int" >       48 </v>
  <v type="int" >       31 </v>
  <v type="int" >       35 </v>
  <v type="int" >       43 </v>
  <v type="int" >       44 </v>
  <v type="int" >       33 </v>
  <v type="int" >       63 </v>
  <v type="int" >        7 </v>
  <v type="int" >        3 </v>
  <v type="int" >       20 </v>
  <v type="int" >       60 </v>
  <v type="int" >       64 </v>
  <v type="int" >        5 </v>
  <v type="int" >       55 </v>
  <v type="int" >       15 </v>
  <v type="int" >       11 </v>
  <v type="int" >       13 </v>
  <v type="int" >       19 </v>
  <v type="int" >       57 </v>
  <v type="int" >        6 </v>
  <v type="int" >        4 </v>
  <v type="int" >       32 </v>
  <v type="int" >       51 </v>
  <v type="int" >       41 </v>
  <v type="int" >       52 </v>
  <v type="int" >       50 </v>
  <v type="int" >       46 </v>
  <v type="int" >       62 </v>
 </varray>
 <kpoints>
  <generation param="Gamma">
   <v type="int" name="divisions">       3        3        3 </v>
   <v name="usershift">      0.00000000       0.00000000       0.00000000 </v>
   <v name="genvec1">      0.33333333      -0.00000000       0.00000000 </v>
   <v name="genvec2">     -0.00000000       0.33333333       0.00000000 </v>
   <v name="genvec3">      0.00000000      -0.00000000       0.33333333 </v>
   <v name="shift">      0.00000000       0.00000000       0.00000000 </v>
  </generation>
  <varray name="kpointlist" >
   <v>       0.00000000       0.00000000       0.00000000 </v>
   <v>       0.33333333       0.00000000      -0.00000000 </v>
   <v>      -0.00000000       0.33333333       0.00000000 </v>
   <v>       0.33333333       0.33333333      -0.00000000 </v>
   <v>      -0.33333333       0.33333333      -0.00000000 </v>
   <v>       0.00000000       0.00000000       0.33333333 </v>
   <v>       0.33333333      -0.00000000       0.33333333 </v>
   <v>      -0.33333333      -0.00000000       0.33333333 </v>
   <v>      -0.00000000       0.33333333       0.33333333 </v>
   <v>       0.33333333       0.33333333       0.33333333 </v>
   <v>      -0.33333333       0.33333333       0.33333333 </v>
   <v>       0.00000000      -0.33333333       0.33333333 </v>
   <v>       0.33333333      -0.33333333       0.33333333 </v>
   <v>      -0.33333333      -0.33333333       0.33333333 </v>
  </varray>
  <varray name="weights" >
   <v>       0.03703704 </v>
   <v>       0.07407407 </v>
   <v>       0.07407407 </v>
   <v>       0.07407407 </v>
   <v>       0.07407407 </v>
   <v>       0.07407407 </v>
   <v>       0.07407407 </v>
   <v>       0.07407407 </v>
   <v>       0.07407407 </v>
   <v>       0.07407407 </v>
   <v>       0.07407407 </v>
   <v>       0.07407407 </v>
   <v>       0.07407407 </v>
   <v>       0.07407407 </v>
  </varray>
 </kpoints>
 <parameters>
  <separator name="general" >
   <i type="string" name="SYSTEM">HECN</i>
   <i type="logical" name="LCOMPAT"> F  </i>
  </separator>
  <separator name="electronic" >
   <i type="string" name="PREC">normal</i>
   <i name="ENMAX">    400.00000000</i>
   <i name="ENAUG">    644.87300000</i>
   <i name="EDIFF">      0.00001000</i>
   <i type="int" name="IALGO">    68</i>
   <i type="int" name="IWAVPR">    11</i>
   <i type="int" name="NBANDS">   312</i>
   <i name="NELECT">    512.00000000</i>
   <i type="int" name="TURBO">     0</i>
   <i type="int" name="IRESTART">     0</i>
   <i type="int" name="NREBOOT">     0</i>
   <i type="int" name="NMIN">     0</i>
   <i name="EREF">      0.00000000</i>
   <separator name="electronic smearing" >
    <i type="int" name="ISMEAR">     0</i>
    <i name="SIGMA">      0.10000000</i>
    <i name="KSPACING">      0.50000000</i>
    <i type="logical" name="KGAMMA"> T  </i>
   </separator>
   <separator name="electronic projectors" >
    <i type="logical" name="LREAL"> F  </i>
    <v name="ROPT">      0.00000000      0.00000000      0.00000000      0.00000000      0.00000000      0.00000000      0.00000000</v>
    <i type="int" name="LMAXPAW">  -100</i>
    <i type="int" name="LMAXMIX">     2</i>
    <i type="logical" name="NLSPLINE"> F  </i>
   </separator>
   <separator name="electronic startup" >
    <i type="int" name="ISTART">     0</i>
    <i type="int" name="ICHARG">     2</i>
    <i type="int" name="INIWAV">     1</i>
   </separator>
   <separator name="electronic spin" >
    <i type="int" name="ISPIN">     1</i>
    <i type="logical" name="LNONCOLLINEAR"> F  </i>
    <v name="MAGMOM">      1.00000000      1.00000000      1.00000000      1.00000000      1.00000000      1.00000000      1.00000000      1.00000000      1.00000000      1.00000000      1.00000000      1.00000000      1.00000000      1.00000000      1.00000000      1.00000000      1.00000000      1.00000000      1.00000000      1.00000000
      1.00000000      1.00000000      1.00000000      1.00000000      1.00000000      1.00000000      1.00000000      1.00000000      1.00000000      1.00000000      1.00000000      1.00000000      1.00000000      1.00000000      1.00000000      1.00000000      1.00000000      1.00000000      1.00000000      1.00000000
      1.00000000      1.00000000      1.00000000      1.00000000      1.00000000      1.00000000      1.00000000      1.00000000      1.00000000      1.00000000      1.00000000      1.00000000      1.00000000      1.00000000      1.00000000      1.00000000      1.00000000      1.00000000      1.00000000      1.00000000
      1.00000000      1.00000000      1.00000000      1.00000000</v>
    <i name="NUPDOWN">     -1.00000000</i>
    <i type="logical" name="LSORBIT"> F  </i>
    <v name="SAXIS">      0.00000000      0.00000000      1.00000000</v>
    <i type="logical" name="LSPIRAL"> F  </i>
    <v name="QSPIRAL">      0.00000000      0.00000000      0.00000000</v>
    <i type="logical" name="LZEROZ"> F  </i>
   </separator>
   <separator name="electronic exchange-correlation" >
    <i type="logical" name="LASPH"> F  </i>
    <i type="logical" name="LMETAGGA"> F  </i>
   </separator>
   <separator name="electronic convergence" >
    <i type="int" name="NELM">    60</i>
    <i type="int" name="NELMDL">    -5</i>
    <i type="int" name="NELMIN">     2</i>
    <i name="ENINI">    400.00000000</i>
    <separator name="electronic convergence detail" >
     <i type="logical" name="LDIAG"> T  </i>
     <i type="logical" name="LSUBROT"> F  </i>
     <i name="WEIMIN">      0.00100000</i>
     <i name="EBREAK">      0.00000001</i>
     <i name="DEPER">      0.30000000</i>
     <i type="int" name="NRMM">     4</i>
     <i name="TIME">      0.40000000</i>
    </separator>
   </separator>
   <separator name="electronic mixer" >
    <i name="AMIX">      0.40000000</i>
    <i name="BMIX">      1.00000000</i>
    <i name="AMIN">      0.10000000</i>
    <i name="AMIX_MAG">      1.60000000</i>
    <i name="BMIX_MAG">      1.00000000</i>
    <separator name="electronic mixer details" >
     <i type="int" name="IMIX">     4</i>
     <i type="logical" name="MIXFIRST"> F  </i>
     <i type="int" name="MAXMIX">   -45</i>
     <i name="WC">    100.00000000</i>
     <i type="int" name="INIMIX">     1</i>
     <i type="int" name="MIXPRE">     1</i>
     <i type="int" name="MREMOVE">     5</i>
    </separator>
   </separator>
   <separator name="electronic dipolcorrection" >
    <i type="logical" name="LDIPOL"> F  </i>
    <i type="logical" name="LMONO"> F  </i>
    <i type="int" name="IDIPOL">     0</i>
    <i name="EPSILON">      1.00000000</i>
    <v name="DIPOL">   -100.00000000   -100.00000000   -100.00000000</v>
    <i name="EFIELD">      0.00000000</i>
   </separator>
  </separator>
  <separator name="grids" >
   <i type="int" name="NGX">    42</i>
   <i type="int" name="NGY">    48</i>
   <i type="int" name="NGZ">    48</i>
   <i type="int" name="NGXF">    84</i>
   <i type="int" name="NGYF">    96</i>
   <i type="int" name="NGZF">    96</i>
   <i type="logical" name="ADDGRID"> F  </i>
  </separator>
  <separator name="ionic" >
   <i type="int" name="NSW">   100</i>
   <i type="int" name="IBRION">     2</i>
   <i type="int" name="MDALGO">     0</i>
   <i type="int" name="ISIF">     3</i>
   <i name="PSTRESS">      0.00000000</i>
   <i name="EDIFFG">     -0.01000000</i>
   <i type="int" name="NFREE">     1</i>
   <i name="POTIM">      0.50000000</i>
   <i name="SMASS">     -3.00000000</i>
   <i name="SCALEE">      1.00000000</i>
  </separator>
  <separator name="ionic md" >
   <i name="TEBEG">      0.00010000</i>
   <i name="TEEND">      0.00010000</i>
   <i type="int" name="NBLOCK">     1</i>
   <i type="int" name="KBLOCK">   100</i>
   <i type="int" name="NPACO">   256</i>
   <i name="APACO">     16.00000000</i>
  </separator>
  <separator name="symmetry" >
   <i type="int" name="ISYM">     2</i>
   <i name="SYMPREC">      0.00001000</i>
  </separator>
  <separator name="dos" >
   <i type="int" name="LORBIT">     0</i>
   <v name="RWIGS">     -1.00000000     -1.00000000     -1.00000000     -1.00000000     -1.00000000     -1.00000000     -1.00000000</v>
   <i type="int" name="NEDOS">   301</i>
   <i name="EMIN">     10.00000000</i>
   <i name="EMAX">    -10.00000000</i>
   <i name="EFERMI">      0.00000000</i>
  </separator>
  <separator name="writing" >
   <i type="int" name="NWRITE">     2</i>
   <i type="logical" name="LWAVE"> F  </i>
   <i type="logical" name="LDOWNSAMPLE"> F  </i>
   <i type="logical" name="LCHARG"> F  </i>
   <i type="logical" name="LPARD"> F  </i>
   <i type="logical" name="LVTOT"> F  </i>
   <i type="logical" name="LVHAR"> F  </i>
   <i type="logical" name="LELF"> F  </i>
   <i type="logical" name="LOPTICS"> F  </i>
   <v name="STM">      0.00000000      0.00000000      0.00000000      0.00000000      0.00000000      0.00000000      0.00000000</v>
  </separator>
  <separator name="performance" >
   <i type="int" name="NPAR">    24</i>
   <i type="int" name="NSIM">     4</i>
   <i type="int" name="NBLK">    -1</i>
   <i type="logical" name="LPLANE"> T  </i>
   <i type="logical" name="LSCALAPACK"> T  </i>
   <i type="logical" name="LSCAAWARE"> F  </i>
   <i type="logical" name="LSCALU"> F  </i>
   <i type="logical" name="LASYNC"> F  </i>
   <i type="logical" name="LORBITALREAL"> F  </i>
  </separator>
  <separator name="miscellaneous" >
   <i type="int" name="IDIOT">     3</i>
   <i type="int" name="ISPECIAL">     0</i>
   <i type="logical" name="LMUSIC"> F  </i>
   <v name="POMASS">     50.94100000    180.94800000    178.49000000     14.00100000     12.01100000     51.99600000    183.85000000</v>
   <v name="DARWINR">      0.00000000      0.00000000      0.00000000      0.00000000      0.00000000      0.00000000      0.00000000</v>
   <v name="DARWINV">      1.00000000      1.00000000      1.00000000      1.00000000      1.00000000      1.00000000      1.00000000</v>
   <i type="logical" name="LCORR"> T  </i>
  </separator>
  <i type="logical" name="GGA_COMPAT"> T  </i>
  <i type="logical" name="LBERRY"> F  </i>
  <i type="int" name="ICORELEVEL">     0</i>
  <i type="logical" name="LDAU"> F  </i>
  <i type="int" name="I_CONSTRAINED_M">     0</i>
  <separator name="electronic exchange-correlation" >
   <i type="string" name="GGA">--</i>
   <i type="int" name="VOSKOWN">     0</i>
   <i type="logical" name="LHFCALC"> F  </i>
   <i type="string" name="PRECFOCK"></i>
   <i type="logical" name="LSYMGRAD"> F  </i>
   <i type="logical" name="LHFONE"> F  </i>
   <i type="logical" name="LRHFCALC"> F  </i>
   <i type="logical" name="LTHOMAS"> F  </i>
   <i type="logical" name="LMODELHF"> F  </i>
   <i name="ENCUT4O">     -1.00000000</i>
   <i type="int" name="EXXOEP">     0</i>
   <i type="int" name="FOURORBIT">     0</i>
   <i name="AEXX">      0.00000000</i>
   <i name="HFALPHA">      0.00000000</i>
   <i name="MCALPHA">      0.00000000</i>
   <i name="ALDAX">      1.00000000</i>
   <i name="AGGAX">      1.00000000</i>
   <i name="ALDAC">      1.00000000</i>
   <i name="AGGAC">      1.00000000</i>
   <i type="int" name="NKREDX">     1</i>
   <i type="int" name="NKREDY">     1</i>
   <i type="int" name="NKREDZ">     1</i>
   <i type="logical" name="SHIFTRED"> F  </i>
   <i type="logical" name="ODDONLY"> F  </i>
   <i type="logical" name="EVENONLY"> F  </i>
   <i type="int" name="LMAXFOCK">     0</i>
   <i type="int" name="NMAXFOCKAE">     0</i>
   <i type="logical" name="LFOCKAEDFT"> F  </i>
   <i name="HFSCREEN">      0.00000000</i>
   <i name="HFSCREENC">      0.00000000</i>
   <i type="int" name="NBANDSGWLOW">     0</i>
  </separator>
  <separator name="vdW DFT" >
   <i type="logical" name="LUSE_VDW"> F  </i>
   <i name="Zab_VDW">     -0.84910000</i>
   <i name="PARAM1">      0.12340000</i>
   <i name="PARAM2">      1.00000000</i>
   <i name="PARAM3">      0.00000000</i>
  </separator>
  <separator name="model GW" >
   <i type="int" name="MODEL_GW">     0</i>
   <i name="MODEL_EPS0">      6.20918714</i>
   <i name="MODEL_ALPHA">      1.00000000</i>
  </separator>
  <separator name="linear response parameters" >
   <i type="logical" name="LEPSILON"> F  </i>
   <i type="logical" name="LRPA"> F  </i>
   <i type="logical" name="LNABLA"> F  </i>
   <i type="logical" name="LVEL"> F  </i>
   <i type="int" name="KINTER">     0</i>
   <i name="CSHIFT">      0.10000000</i>
   <i name="OMEGAMAX">     -1.00000000</i>
   <i name="DEG_THRESHOLD">      0.00200000</i>
   <i name="RTIME">     -0.10000000</i>
   <i name="WPLASMAI">      0.00000000</i>
   <v name="DFIELD">      0.00000000      0.00000000      0.00000000</v>
   <v name="WPLASMA">      0.00000000      0.00000000      0.00000000      0.00000000      0.00000000      0.00000000      0.00000000      0.00000000      0.00000000</v>
  </separator>
  <separator name="orbital magnetization" >
   <i type="logical" name="NUCIND"> F  </i>
   <v name="MAGPOS">      0.00000000      0.00000000      0.00000000</v>
   <i type="logical" name="LNICSALL"> T  </i>
   <i type="logical" name="ORBITALMAG"> F  </i>
   <i type="logical" name="LMAGBLOCH"> F  </i>
   <i type="logical" name="LCHIMAG"> F  </i>
   <i type="logical" name="LGAUGE"> T  </i>
   <i type="int" name="MAGATOM">     0</i>
   <v name="MAGDIPOL">      0.00000000      0.00000000      0.00000000</v>
   <v name="AVECCONST">      0.00000000      0.00000000      0.00000000</v>
  </separator>
  <separator name="response functions" >
   <i type="logical" name="LADDER"> F  </i>
   <i type="logical" name="LRPAFORCE"> F  </i>
   <i type="logical" name="LFXC"> F  </i>
   <i type="logical" name="LHARTREE"> T  </i>
   <i type="int" name="IBSE">     0</i>
   <v type="int" name="KPOINT">    -1     0     0     0</v>
   <i type="logical" name="LTCTE"> F  </i>
   <i type="logical" name="LTETE"> F  </i>
   <i type="logical" name="LTRIPLET"> F  </i>
   <i type="logical" name="LFXCEPS"> F  </i>
   <i type="logical" name="LFXHEG"> F  </i>
   <i type="int" name="NATURALO">     2</i>
   <i type="logical" name="L2ORDER"> F  </i>
   <i type="logical" name="LMP2LT"> F  </i>
   <i type="logical" name="LUSEW"> F  </i>
   <i name="ENCUTGW">     -2.00000000</i>
   <i name="ENCUTGWSOFT">     -2.00000000</i>
   <i name="ENCUTLF">     -1.00000000</i>
   <i type="int" name="LMAXMP2">    -1</i>
   <i name="SCISSOR">      0.00000000</i>
   <i type="int" name="NOMEGA">     0</i>
   <i type="int" name="NOMEGAR">     0</i>
   <i type="int" name="NBANDSGW">    -1</i>
   <i type="int" name="NBANDSO">    -1</i>
   <i type="int" name="NBANDSV">    -1</i>
   <i type="int" name="NELM">    60</i>
   <i type="int" name="NELMHF">     1</i>
   <i type="int" name="DIM">     3</i>
   <i type="int" name="ANTIRES">     0</i>
   <i name="OMEGAMAX">    -30.00000000</i>
   <i name="OMEGAMIN">    -30.00000000</i>
   <i name="OMEGATL">   -200.00000000</i>
   <i type="int" name="OMEGAGRID">   140</i>
   <i name="CSHIFT">     -0.10000000</i>
   <i type="logical" name="SELFENERGY"> F  </i>
   <i type="logical" name="LSPECTRAL"> F  </i>
   <i type="logical" name="LSPECTRALGW"> F  </i>
   <i type="logical" name="LSINGLES"> F  </i>
   <i type="logical" name="LFERMIGW"> F  </i>
   <i type="logical" name="ODDONLYGW"> F  </i>
   <i type="logical" name="EVENONLYGW"> F  </i>
   <i type="int" name="NKREDLFX">     1</i>
   <i type="int" name="NKREDLFY">     1</i>
   <i type="int" name="NKREDLFZ">     1</i>
   <i type="int" name="MAXMEM">  2800</i>
   <i type="int" name="TELESCOPE">     0</i>
   <i type="int" name="TAUPAR">     1</i>
   <i type="int" name="OMEGAPAR">    -1</i>
   <i name="LAMBDA">      1.00000000</i>
  </separator>
  <separator name="External order field" >
   <i name="OFIELD_KAPPA">      0.00000000</i>
   <v name="OFIELD_K">      0.00000000      0.00000000      0.00000000</v>
   <i name="OFIELD_Q6_NEAR">      0.00000000</i>
   <i name="OFIELD_Q6_FAR">      0.00000000</i>
   <i name="OFIELD_A">      0.00000000</i>
  </separator>
 </parameters>
 <atominfo>
  <atoms>      64 </atoms>
  <types>       7 </types>
  <array name="atoms" >
   <dimension dim="1">ion</dimension>
   <field type="string">element</field>
   <field type="int">atomtype</field>
   <set>
    <rc><c>V </c><c>   1</c></rc>
    <rc><c>V </c><c>   1</c></rc>
    <rc><c>V </c><c>   1</c></rc>
    <rc><c>V </c><c>   1</c></rc>
    <rc><c>V </c><c>   1</c></rc>
    <rc><c>V </c><c>   1</c></rc>
    <rc><c>V </c><c>   1</c></rc>
    <rc><c>Ta</c><c>   2</c></rc>
    <rc><c>Ta</c><c>   2</c></rc>
    <rc><c>Ta</c><c>   2</c></rc>
    <rc><c>Ta</c><c>   2</c></rc>
    <rc><c>Ta</c><c>   2</c></rc>
    <rc><c>Ta</c><c>   2</c></rc>
    <rc><c>Hf</c><c>   3</c></rc>
    <rc><c>Hf</c><c>   3</c></rc>
    <rc><c>Hf</c><c>   3</c></rc>
    <rc><c>Hf</c><c>   3</c></rc>
    <rc><c>Hf</c><c>   3</c></rc>
    <rc><c>Hf</c><c>   3</c></rc>
    <rc><c>Hf</c><c>   3</c></rc>
    <rc><c>N </c><c>   4</c></rc>
    <rc><c>N </c><c>   4</c></rc>
    <rc><c>N </c><c>   4</c></rc>
    <rc><c>N </c><c>   4</c></rc>
    <rc><c>N </c><c>   4</c></rc>
    <rc><c>N </c><c>   4</c></rc>
    <rc><c>N </c><c>   4</c></rc>
    <rc><c>N </c><c>   4</c></rc>
    <rc><c>N </c><c>   4</c></rc>
    <rc><c>N </c><c>   4</c></rc>
    <rc><c>N </c><c>   4</c></rc>
    <rc><c>N </c><c>   4</c></rc>
    <rc><c>N </c><c>   4</c></rc>
    <rc><c>C </c><c>   5</c></rc>
    <rc><c>C </c><c>   5</c></rc>
    <rc><c>C </c><c>   5</c></rc>
    <rc><c>C </c><c>   5</c></rc>
    <rc><c>C </c><c>   5</c></rc>
    <rc><c>C </c><c>   5</c></rc>
    <rc><c>C </c><c>   5</c></rc>
    <rc><c>C </c><c>   5</c></rc>
    <rc><c>C </c><c>   5</c></rc>
    <rc><c>C </c><c>   5</c></rc>
    <rc><c>C </c><c>   5</c></rc>
    <rc><c>C </c><c>   5</c></rc>
    <rc><c>C </c><c>   5</c></rc>
    <rc><c>C </c><c>   5</c></rc>
    <rc><c>C </c><c>   5</c></rc>
    <rc><c>C </c><c>   5</c></rc>
    <rc><c>C </c><c>   5</c></rc>
    <rc><c>C </c><c>   5</c></rc>
    <rc><c>C </c><c>   5</c></rc>
    <rc><c>Cr</c><c>   6</c></rc>
    <rc><c>Cr</c><c>   6</c></rc>
    <rc><c>Cr</c><c>   6</c></rc>
    <rc><c>Cr</c><c>   6</c></rc>
    <rc><c>Cr</c><c>   6</c></rc>
    <rc><c>Cr</c><c>   6</c></rc>
    <rc><c>W </c><c>   7</c></rc>
    <rc><c>W </c><c>   7</c></rc>
    <rc><c>W </c><c>   7</c></rc>
    <rc><c>W </c><c>   7</c></rc>
    <rc><c>W </c><c>   7</c></rc>
    <rc><c>W </c><c>   7</c></rc>
   </set>
  </array>
  <array name="atomtypes" >
   <dimension dim="1">type</dimension>
   <field type="int">atomspertype</field>
   <field type="string">element</field>
   <field>mass</field>
   <field>valence</field>
   <field type="string">pseudopotential</field>
   <set>
    <rc><c>   7</c><c>V </c><c>     50.94100000</c><c>     13.00000000</c><c> PAW_PBE V_sv 07Sep2000                 </c></rc>
    <rc><c>   6</c><c>Ta</c><c>    180.94800000</c><c>     11.00000000</c><c> PAW_PBE Ta_pv 07Sep2000                </c></rc>
    <rc><c>   7</c><c>Hf</c><c>    178.49000000</c><c>     10.00000000</c><c> PAW_PBE Hf_pv 06Sep2000                </c></rc>
    <rc><c>  13</c><c>N </c><c>     14.00100000</c><c>      5.00000000</c><c> PAW_PBE N 08Apr2002                    </c></rc>
    <rc><c>  19</c><c>C </c><c>     12.01100000</c><c>      4.00000000</c><c> PAW_PBE C 08Apr2002                    </c></rc>
    <rc><c>   6</c><c>Cr</c><c>     51.99600000</c><c>     12.00000000</c><c> PAW_PBE Cr_pv 07Sep2000                </c></rc>
    <rc><c>   6</c><c>W </c><c>    183.85000000</c><c>     12.00000000</c><c> PAW_PBE W_pv 06Sep2000                 </c></rc>
   </set>
  </array>
 </atominfo>
 <structure name="initialpos" >
  <crystal>
   <varray name="basis" >
    <v>       8.67563976       0.00400499      -0.00229158 </v>
    <v>       0.00964775       8.78170063       0.00165214 </v>
    <v>       0.02887887      -0.01362091       8.69326753 </v>
   </varray>
   <i name="volume">    662.31329457 </i>
   <varray name="rec_basis" >
    <v>       0.11526523      -0.00012656      -0.00038311 </v>
    <v>      -0.00005252       0.11387318       0.00017859 </v>
    <v>       0.00003039      -0.00002167       0.11503141 </v>
   </varray>
  </crystal>
  <varray name="positions" >
   <v>       0.99707344       0.99071669       0.99921652 </v>
   <v>       0.25309141       0.99512766       0.24917019 </v>
   <v>       0.24965513       0.50356737       0.24906642 </v>
   <v>       0.50434066       0.49583184       0.99795051 </v>
   <v>       0.50313509       0.24509777       0.74904356 </v>
   <v>       0.99448594       0.50360382       0.49923479 </v>
   <v>       0.49954244       0.75624997       0.74806757 </v>
   <v>       0.99705113       0.23713979       0.26227919 </v>
   <v>       0.75483492       0.74296930       0.01005523 </v>
   <v>       0.00246216       0.25453398       0.73962837 </v>
   <v>       0.75185444       0.26001436       0.50746644 </v>
   <v>       0.99725930       0.74621308       0.74632428 </v>
   <v>       0.25716752       0.49563271       0.74726742 </v>
   <v>       0.24866298       0.24707123       0.99780667 </v>
   <v>       0.50554454       0.25438531       0.25265694 </v>
   <v>       0.74495486       0.98890132       0.26786914 </v>
   <v>       0.75635559       0.25469732       0.99416087 </v>
   <v>       0.25070863       0.75152602       0.00021022 </v>
   <v>       0.25465169       0.24839868       0.49919237 </v>
   <v>       0.24664711       0.75013435       0.49927249 </v>
   <v>       0.24969721       0.24973020       0.24855360 </v>
   <v>       0.26039445       0.00016650       0.99366937 </v>
   <v>       0.00245745       0.24918133       0.00146208 </v>
   <v>       0.75313109       0.24626631       0.25480275 </v>
   <v>       0.74827890       0.99698473       0.00983464 </v>
   <v>       0.50468261       0.99977088       0.24765859 </v>
   <v>       0.99144913       0.48084625       0.24248838 </v>
   <v>       0.50557822       0.76020256       0.00723194 </v>
   <v>       0.98872252       0.00224856       0.73892028 </v>
   <v>       0.75578286       0.24455322       0.74890091 </v>
   <v>       0.73705595       0.00414263       0.51037738 </v>
   <v>       0.50558581       0.23304292       0.49728622 </v>
   <v>       0.50160342       0.00041799       0.73604543 </v>
   <v>       0.99944066       0.99908292       0.25537937 </v>
   <v>       0.50434351       0.24741628       0.99989815 </v>
   <v>       0.25134753       0.74926972       0.24938645 </v>
   <v>       0.24447578       0.50041689       0.99686845 </v>
   <v>       0.99808264       0.74408986       0.00459270 </v>
   <v>       0.75472509       0.74077403       0.25520645 </v>
   <v>       0.75701586       0.50339046       0.00282128 </v>
   <v>       0.50323274       0.50467595       0.25565064 </v>
   <v>       0.25047931       0.25193187       0.74850245 </v>
   <v>       0.24806664       0.99810479       0.50261394 </v>
   <v>       0.99797150       0.24459436       0.50110291 </v>
   <v>       0.24342835       0.75329004       0.75014499 </v>
   <v>       0.25668665       0.50046177       0.49912236 </v>
   <v>       0.99153540       0.75937475       0.49888800 </v>
   <v>       0.99256858       0.50064155       0.75062240 </v>
   <v>       0.74755047       0.75247665       0.74858712 </v>
   <v>       0.74473907       0.49960159       0.50172658 </v>
   <v>       0.50463564       0.75249928       0.49794660 </v>
   <v>       0.50395454       0.50168524       0.74214153 </v>
   <v>       0.51610911       0.01483120       0.97846674 </v>
   <v>       0.99934904       0.51156155       0.98466748 </v>
   <v>       0.50366514       0.73831638       0.25828562 </v>
   <v>       0.23772964       0.01087025       0.74720817 </v>
   <v>       0.47791205       0.98228719       0.49831721 </v>
   <v>       0.74057978       0.97674573       0.76589804 </v>
   <v>       0.00152689       0.77498664       0.25835514 </v>
   <v>       0.73723178       0.51332781       0.26349344 </v>
   <v>       0.02332982       0.99904767       0.49767004 </v>
   <v>       0.50184625       0.52752869       0.49940410 </v>
   <v>       0.73860590       0.52522302       0.74096624 </v>
   <v>       0.75393643       0.73212895       0.49289478 </v>
  </varray>
 </structure>
 <calculation>
  <scstep>
   <time name="dav">   18.47   18.55</time>
   <time name="total">   18.51   18.61</time>
   <energy>
    <i name="alphaZ">   4915.14161799 </i>
    <i name="ewald"> -43118.47765795 </i>
    <i name="hartreedc">  -8470.57693671 </i>
    <i name="XCdc">   1870.93579746 </i>
    <i name="pawpsdc">  31434.74183736 </i>
    <i name="pawaedc"> -31606.72214233 </i>
    <i name="eentropy">     -0.07496988 </i>
    <i name="bandstr">   1772.92548667 </i>
    <i name="atom">  49630.65262792 </i>
    <i name="e_fr_energy">   6428.54566053 </i>
    <i name="e_wo_entrp">   6428.62063041 </i>
    <i name="e_0_energy">   6428.58314547 </i>
   </energy>
  </scstep>
  <scstep>
   <time name="dav">   19.85   19.91</time>
   <time name="total">   19.85   19.91</time>
   <energy>
    <i name="e_fr_energy">    180.23604231 </i>
    <i name="e_wo_entrp">    180.37568996 </i>
    <i name="e_0_energy">    180.30586613 </i>
   </energy>
  </scstep>
  <scstep>
   <time name="dav">   26.16   26.23</time>
   <time name="total">   26.16   26.23</time>
   <energy>
    <i name="e_fr_energy">   -713.46232241 </i>
    <i name="e_wo_entrp">   -713.32890465 </i>
    <i name="e_0_energy">   -713.39561353 </i>
   </energy>
  </scstep>
  <scstep>
   <time name="dav">   28.79   28.86</time>
   <time name="total">   28.79   28.86</time>
   <energy>
    <i name="e_fr_energy">   -801.18503120 </i>
    <i name="e_wo_entrp">   -801.06329762 </i>
    <i name="e_0_energy">   -801.12416441 </i>
   </energy>
  </scstep>
  <scstep>
   <time name="dav">   29.24   29.26</time>
   <time name="total">   29.45   29.48</time>
   <energy>
    <i name="e_fr_energy">   -806.58293989 </i>
    <i name="e_wo_entrp">   -806.46598572 </i>
    <i name="e_0_energy">   -806.52446281 </i>
   </energy>
  </scstep>
  <scstep>
   <time name="diag">    1.66    1.66</time>
   <time name="diis">   16.03   16.09</time>
   <time name="orth">    0.41    0.41</time>
   <time name="total">   18.34   18.42</time>
   <energy>
    <i name="e_fr_energy">   -904.56138358 </i>
    <i name="e_wo_entrp">   -904.38811600 </i>
    <i name="e_0_energy">   -904.47474979 </i>
   </energy>
  </scstep>
  <scstep>
   <time name="diag">    1.68    1.68</time>
   <time name="diis">   17.32   17.33</time>
   <time name="orth">    0.41    0.41</time>
   <time name="total">   19.64   19.66</time>
   <energy>
    <i name="e_fr_energy">   -685.80572129 </i>
    <i name="e_wo_entrp">   -685.66969565 </i>
    <i name="e_0_energy">   -685.73770847 </i>
   </energy>
  </scstep>
  <scstep>
   <time name="diag">    1.65    1.66</time>
   <time name="diis">   17.40   17.46</time>
   <time name="orth">    0.41    0.41</time>
   <time name="total">   19.70   19.77</time>
   <energy>
    <i name="e_fr_energy">   -670.85282714 </i>
    <i name="e_wo_entrp">   -670.71527027 </i>
    <i name="e_0_energy">   -670.78404870 </i>
   </energy>
  </scstep>
  <scstep>
   <time name="diag">    1.66    1.66</time>
   <time name="diis">   17.57   17.58</time>
   <time name="orth">    0.41    0.41</time>
   <time name="total">   19.88   19.90</time>
   <energy>
    <i name="e_fr_energy">   -658.89947002 </i>
    <i name="e_wo_entrp">   -658.71559859 </i>
    <i name="e_0_energy">   -658.80753431 </i>
   </energy>
  </scstep>
  <scstep>
   <time name="diag">    1.71    1.73</time>
   <time name="diis">   17.04   17.13</time>
   <time name="orth">    0.41    0.41</time>
   <time name="total">   19.41   19.51</time>
   <energy>
    <i name="e_fr_energy">   -655.33191536 </i>
    <i name="e_wo_entrp">   -655.11666565 </i>
    <i name="e_0_energy">   -655.22429051 </i>
   </energy>
  </scstep>
  <scstep>
   <time name="diag">    1.65    1.66</time>
   <time name="diis">   17.25   17.28</time>
   <time name="orth">    0.41    0.41</time>
   <time name="total">   19.55   19.60</time>
   <energy>
    <i name="e_fr_energy">   -655.25770982 </i>
    <i name="e_wo_entrp">   -655.04901773 </i>
    <i name="e_0_energy">   -655.15336377 </i>
   </energy>
  </scstep>
  <scstep>
   <time name="diag">    1.66    1.66</time>
   <time name="diis">   16.97   17.04</time>
   <time name="orth">    0.41    0.41</time>
   <time name="total">   19.29   19.36</time>
   <energy>
    <i name="e_fr_energy">   -654.75362892 </i>
    <i name="e_wo_entrp">   -654.55059173 </i>
    <i name="e_0_energy">   -654.65211032 </i>
   </energy>
  </scstep>
  <scstep>
   <time name="diag">    1.66    1.66</time>
   <time name="diis">   16.96   16.97</time>
   <time name="orth">    0.41    0.41</time>
   <time name="total">   19.27   19.29</time>
   <energy>
    <i name="e_fr_energy">   -653.51260218 </i>
    <i name="e_wo_entrp">   -653.28374375 </i>
    <i name="e_0_energy">   -653.39817297 </i>
   </energy>
  </scstep>
  <scstep>
   <time name="diag">    1.66    1.66</time>
   <time name="diis">   17.60   17.61</time>
   <time name="orth">    0.40    0.40</time>
   <time name="total">   19.92   19.93</time>
   <energy>
    <i name="e_fr_energy">   -654.30290584 </i>
    <i name="e_wo_entrp">   -654.09668707 </i>
    <i name="e_0_energy">   -654.19979646 </i>
   </energy>
  </scstep>
  <scstep>
   <time name="diag">    1.65    1.66</time>
   <time name="diis">   16.42   16.45</time>
   <time name="orth">    0.42    0.42</time>
   <time name="total">   18.76   18.82</time>
   <energy>
    <i name="e_fr_energy">   -653.46659800 </i>
    <i name="e_wo_entrp">   -653.24861075 </i>
    <i name="e_0_energy">   -653.35760437 </i>
   </energy>
  </scstep>
  <scstep>
   <time name="diag">    1.67    1.68</time>
   <time name="diis">   17.23   17.25</time>
   <time name="orth">    0.41    0.41</time>
   <time name="total">   19.56   19.60</time>
   <energy>
    <i name="e_fr_energy">   -653.48829785 </i>
    <i name="e_wo_entrp">   -653.26355887 </i>
    <i name="e_0_energy">   -653.37592836 </i>
   </energy>
  </scstep>
  <scstep>
   <time name="diag">    1.66    1.66</time>
   <time name="diis">   17.36   17.37</time>
   <time name="orth">    0.41    0.41</time>
   <time name="total">   19.68   19.70</time>
   <energy>
    <i name="e_fr_energy">   -653.31786519 </i>
    <i name="e_wo_entrp">   -653.08918044 </i>
    <i name="e_0_energy">   -653.20352282 </i>
   </energy>
  </scstep>
  <scstep>
   <time name="diag">    1.66    1.66</time>
   <time name="diis">   17.15   17.19</time>
   <time name="orth">    0.42    0.42</time>
   <time name="total">   19.48   19.52</time>
   <energy>
    <i name="e_fr_energy">   -653.28504114 </i>
    <i name="e_wo_entrp">   -653.06240176 </i>
    <i name="e_0_energy">   -653.17372145 </i>
   </energy>
  </scstep>
  <scstep>
   <time name="diag">    1.66    1.66</time>
   <time name="diis">   17.68   17.72</time>
   <time name="orth">    0.41    0.41</time>
   <time name="total">   20.00   20.05</time>
   <energy>
    <i name="e_fr_energy">   -653.28747207 </i>
    <i name="e_wo_entrp">   -653.06144256 </i>
    <i name="e_0_energy">   -653.17445732 </i>
   </energy>
  </scstep>
  <scstep>
   <time name="diag">    1.66    1.66</time>
   <time name="diis">   17.42   17.47</time>
   <time name="orth">    0.41    0.41</time>
   <time name="total">   19.74   19.79</time>
   <energy>
    <i name="e_fr_energy">   -653.27523430 </i>
    <i name="e_wo_entrp">   -653.05275625 </i>
    <i name="e_0_energy">   -653.16399527 </i>
   </energy>
  </scstep>
  <scstep>
   <time name="diag">    1.65    1.66</time>
   <time name="diis">   17.04   17.11</time>
   <time name="orth">    0.40    0.41</time>
   <time name="total">   19.35   19.42</time>
   <energy>
    <i name="e_fr_energy">   -653.27430172 </i>
    <i name="e_wo_entrp">   -653.05045608 </i>
    <i name="e_0_energy">   -653.16237890 </i>
   </energy>
  </scstep>
  <scstep>
   <time name="diag">    1.66    1.68</time>
   <time name="diis">   17.35   17.38</time>
   <time name="orth">    0.41    0.41</time>
   <time name="total">   19.68   19.72</time>
   <energy>
    <i name="e_fr_energy">   -653.27257515 </i>
    <i name="e_wo_entrp">   -653.04854812 </i>
    <i name="e_0_energy">   -653.16056163 </i>
   </energy>
  </scstep>
  <scstep>
   <time name="diag">    1.66    1.66</time>
   <time name="diis">   16.89   16.90</time>
   <time name="orth">    0.41    0.41</time>
   <time name="total">   19.20   19.22</time>
   <energy>
    <i name="e_fr_energy">   -653.27226891 </i>
    <i name="e_wo_entrp">   -653.04783808 </i>
    <i name="e_0_energy">   -653.16005349 </i>
   </energy>
  </scstep>
  <scstep>
   <time name="diag">    1.66    1.66</time>
   <time name="diis">   16.68   16.71</time>
   <time name="orth">    0.42    0.42</time>
   <time name="total">   19.02   19.05</time>
   <energy>
    <i name="e_fr_energy">   -653.27180717 </i>
    <i name="e_wo_entrp">   -653.04792689 </i>
    <i name="e_0_energy">   -653.15986703 </i>
   </energy>
  </scstep>
  <scstep>
   <time name="diag">    1.69    1.71</time>
   <time name="diis">   14.87   14.90</time>
   <time name="orth">    0.41    0.41</time>
   <time name="total">   17.24   17.29</time>
   <energy>
    <i name="e_fr_energy">   -653.27203078 </i>
    <i name="e_wo_entrp">   -653.04784295 </i>
    <i name="e_0_energy">   -653.15993686 </i>
   </energy>
  </scstep>
  <scstep>
   <time name="diag">    1.66    1.66</time>
   <time name="diis">   14.41   14.42</time>
   <time name="orth">    0.41    0.41</time>
   <time name="total">   16.72   16.73</time>
   <energy>
    <i name="e_fr_energy">   -653.27191516 </i>
    <i name="e_wo_entrp">   -653.04785220 </i>
    <i name="e_0_energy">   -653.15988368 </i>
   </energy>
  </scstep>
  <scstep>
   <time name="diag">    1.66    1.66</time>
   <time name="diis">   10.53   10.55</time>
   <time name="orth">    0.41    0.41</time>
   <time name="total">   12.84   12.86</time>
   <energy>
    <i name="e_fr_energy">   -653.27192985 </i>
    <i name="e_wo_entrp">   -653.04793102 </i>
    <i name="e_0_energy">   -653.15993043 </i>
   </energy>
  </scstep>
  <scstep>
   <time name="diag">    1.65    1.66</time>
   <time name="diis">    9.82    9.82</time>
   <time name="orth">    0.41    0.41</time>
   <time name="total">   12.13   12.14</time>
   <energy>
    <i name="e_fr_energy">   -653.27194546 </i>
    <i name="e_wo_entrp">   -653.04794190 </i>
    <i name="e_0_energy">   -653.15994368 </i>
   </energy>
  </scstep>
  <scstep>
   <time name="diag">    1.67    1.68</time>
   <time name="diis">    9.42    9.44</time>
   <time name="orth">    0.42    0.42</time>
   <time name="total">   11.54   11.57</time>
   <energy>
    <i name="alphaZ">   4915.14161799 </i>
    <i name="ewald"> -43118.47765795 </i>
    <i name="hartreedc">  -7876.50230467 </i>
    <i name="XCdc">   1857.04116199 </i>
    <i name="pawpsdc">  33419.96566352 </i>
    <i name="pawaedc"> -33677.01506458 </i>
    <i name="eentropy">     -0.22399137 </i>
    <i name="bandstr">  -5803.85399835 </i>
    <i name="atom">  49630.65262792 </i>
    <i name="e_fr_energy">   -653.27194550 </i>
    <i name="e_wo_entrp">   -653.04795413 </i>
    <i name="e_0_energy">   -653.15994982 </i>
   </energy>
  </scstep>
  <structure>
   <crystal>
    <varray name="basis" >
     <v>       8.67563976       0.00400499      -0.00229158 </v>
     <v>       0.00964775       8.78170063       0.00165214 </v>
     <v>       0.02887887      -0.01362091       8.69326753 </v>
    </varray>
    <i name="volume">    662.31329457 </i>
    <varray name="rec_basis" >
     <v>       0.11526523      -0.00012656      -0.00038311 </v>
     <v>      -0.00005252       0.11387318       0.00017859 </v>
     <v>       0.00003039      -0.00002167       0.11503141 </v>
    </varray>
   </crystal>
   <varray name="positions" >
    <v>       0.99707344       0.99071669       0.99921652 </v>
    <v>       0.25309141       0.99512766       0.24917019 </v>
    <v>       0.24965513       0.50356737       0.24906642 </v>
    <v>       0.50434066       0.49583184       0.99795051 </v>
    <v>       0.50313509       0.24509777       0.74904356 </v>
    <v>       0.99448594       0.50360382       0.49923479 </v>
    <v>       0.49954244       0.75624997       0.74806757 </v>
    <v>       0.99705113       0.23713979       0.26227919 </v>
    <v>       0.75483492       0.74296930       0.01005523 </v>
    <v>       0.00246216       0.25453398       0.73962837 </v>
    <v>       0.75185444       0.26001436       0.50746644 </v>
    <v>       0.99725930       0.74621308       0.74632428 </v>
    <v>       0.25716752       0.49563271       0.74726742 </v>
    <v>       0.24866298       0.24707123       0.99780667 </v>
    <v>       0.50554454       0.25438531       0.25265694 </v>
    <v>       0.74495486       0.98890132       0.26786914 </v>
    <v>       0.75635559       0.25469732       0.99416087 </v>
    <v>       0.25070863       0.75152602       0.00021022 </v>
    <v>       0.25465169       0.24839868       0.49919237 </v>
    <v>       0.24664711       0.75013435       0.49927249 </v>
    <v>       0.24969721       0.24973020       0.24855360 </v>
    <v>       0.26039445       0.00016650       0.99366937 </v>
    <v>       0.00245745       0.24918133       0.00146208 </v>
    <v>       0.75313109       0.24626631       0.25480275 </v>
    <v>       0.74827890       0.99698473       0.00983464 </v>
    <v>       0.50468261       0.99977088       0.24765859 </v>
    <v>       0.99144913       0.48084625       0.24248838 </v>
    <v>       0.50557822       0.76020256       0.00723194 </v>
    <v>       0.98872252       0.00224856       0.73892028 </v>
    <v>       0.75578286       0.24455322       0.74890091 </v>
    <v>       0.73705595       0.00414263       0.51037738 </v>
    <v>       0.50558581       0.23304292       0.49728622 </v>
    <v>       0.50160342       0.00041799       0.73604543 </v>
    <v>       0.99944066       0.99908292       0.25537937 </v>
    <v>       0.50434351       0.24741628       0.99989815 </v>
    <v>       0.25134753       0.74926972       0.24938645 </v>
    <v>       0.24447578       0.50041689       0.99686845 </v>
    <v>       0.99808264       0.74408986       0.00459270 </v>
    <v>       0.75472509       0.74077403       0.25520645 </v>
    <v>       0.75701586       0.50339046       0.00282128 </v>
    <v>       0.50323274       0.50467595       0.25565064 </v>
    <v>       0.25047931       0.25193187       0.74850245 </v>
    <v>       0.24806664       0.99810479       0.50261394 </v>
    <v>       0.99797150       0.24459436       0.50110291 </v>
    <v>       0.24342835       0.75329004       0.75014499 </v>
    <v>       0.25668665       0.50046177       0.49912236 </v>
    <v>       0.99153540       0.75937475       0.49888800 </v>
    <v>       0.99256858       0.50064155       0.75062240 </v>
    <v>       0.74755047       0.75247665       0.74858712 </v>
    <v>       0.74473907       0.49960159       0.50172658 </v>
    <v>       0.50463564       0.75249928       0.49794660 </v>
    <v>       0.50395454       0.50168524       0.74214153 </v>
    <v>       0.51610911       0.01483120       0.97846674 </v>
    <v>       0.99934904       0.51156155       0.98466748 </v>
    <v>       0.50366514       0.73831638       0.25828562 </v>
    <v>       0.23772964       0.01087025       0.74720817 </v>
    <v>       0.47791205       0.98228719       0.49831721 </v>
    <v>       0.74057978       0.97674573       0.76589804 </v>
    <v>       0.00152689       0.77498664       0.25835514 </v>
    <v>       0.73723178       0.51332781       0.26349344 </v>
    <v>       0.02332982       0.99904767       0.49767004 </v>
    <v>       0.50184625       0.52752869       0.49940410 </v>
    <v>       0.73860590       0.52522302       0.74096624 </v>
    <v>       0.75393643       0.73212895       0.49289478 </v>
   </varray>
  </structure>
  <varray name="forces" >
   <v>       0.31184304      -0.47223771      -0.15711206 </v>
   <v>      -0.36772324      -0.76303183      -0.04610733 </v>
   <v>       0.83377725       0.81121495      -0.32368111 </v>
   <v>      -0.43486625      -0.68064141      -0.11883215 </v>
   <v>      -0.83247678      -0.51603934       0.85953288 </v>
   <v>       0.41753698      -0.50769883       0.62440564 </v>
   <v>      -0.05389751       0.70391418       0.01033801 </v>
   <v>       1.12453930       0.58338086      -1.06625524 </v>
   <v>      -1.25754855       1.15169623      -0.71376208 </v>
   <v>       0.43019282      -0.57098947       0.80305973 </v>
   <v>      -0.57957598      -0.91397861       0.58592675 </v>
   <v>       0.57578413       0.79415179       0.76873627 </v>
   <v>      -0.18326722       0.46530672       0.79265238 </v>
   <v>       0.27846924      -0.50057350       0.39383194 </v>
   <v>      -1.15294700      -0.76754366      -0.58804214 </v>
   <v>      -0.88728063       0.60711632      -1.00773757 </v>
   <v>      -0.31776939      -0.67721668      -0.40310326 </v>
   <v>       1.40158027       0.71325031       0.13893341 </v>
   <v>       0.65438770       0.14601566      -0.24755796 </v>
   <v>       0.64050325      -0.08765335      -0.12767279 </v>
   <v>      -0.00405076       0.14293505       0.04025668 </v>
   <v>      -0.32937809       0.05673013       0.30193575 </v>
   <v>      -0.08010988      -0.35608825       0.12609615 </v>
   <v>      -0.14876378       0.12253903      -0.17408774 </v>
   <v>       0.26035983      -0.13158071      -0.99586073 </v>
   <v>      -1.45997334      -0.22837642       0.16428458 </v>
   <v>       0.48344648       0.62727968       0.47119141 </v>
   <v>       0.01489206      -0.36137718      -0.55417644 </v>
   <v>      -0.19995205       0.06257713       1.09896927 </v>
   <v>      -0.96525234       0.08926153       0.02173733 </v>
   <v>       0.39649408      -0.26239004       0.39991416 </v>
   <v>      -0.03567709       0.27005441       0.93215635 </v>
   <v>       0.54059186      -0.04235164       0.61919533 </v>
   <v>       0.78535511       0.53532867      -1.53360242 </v>
   <v>      -0.13876165       0.38463994      -1.16204032 </v>
   <v>       0.38996181      -0.16225419      -0.00322064 </v>
   <v>       0.47173766      -0.09468789       0.98940662 </v>
   <v>       0.28946552       0.41728129       0.05162113 </v>
   <v>      -0.77531820       0.91364690      -0.69957431 </v>
   <v>      -0.51251991      -0.19009167       0.00524586 </v>
   <v>      -1.82210179       0.54215622      -1.46115231 </v>
   <v>       0.92488292      -0.73945982       0.08547345 </v>
   <v>       1.69606598      -0.01879517      -0.01470873 </v>
   <v>       0.17288879       1.18124324      -0.11563218 </v>
   <v>       1.05955560       0.25788750       0.06961149 </v>
   <v>      -0.97243291      -0.09792491      -0.97305543 </v>
   <v>       0.75621290      -1.29827564       0.38012554 </v>
   <v>       0.36132064       0.02759837      -0.28384393 </v>
   <v>      -1.08245357       1.35203564       0.30788087 </v>
   <v>       1.44658323      -0.63544541       0.19980639 </v>
   <v>      -0.42725436       1.59853457       0.29677793 </v>
   <v>      -0.50949510      -0.31282991       1.37974767 </v>
   <v>      -0.14413845       0.35560734      -0.99474667 </v>
   <v>       0.44043851       0.61141303      -0.51603587 </v>
   <v>      -0.21055724      -0.28513684      -0.46048673 </v>
   <v>       0.01605487      -0.21577101       0.57504337 </v>
   <v>      -0.34611120      -0.12758447       0.43299649 </v>
   <v>      -1.03498652      -0.28367822       0.66623054 </v>
   <v>       1.03047112      -1.17396811      -1.31501154 </v>
   <v>       0.78680260      -1.16602772      -1.59213745 </v>
   <v>      -0.78927507       0.62771299       0.61662454 </v>
   <v>      -0.98923156      -1.32004601      -0.13265148 </v>
   <v>       0.31152795      -1.57123381       1.69897985 </v>
   <v>      -0.25857611       1.38046976       0.87316282 </v>
  </varray>
  <varray name="stress" >
   <v>      38.48280176       0.68244983      -0.92679694 </v>
   <v>       0.68244931      20.47058090       0.62990840 </v>
   <v>      -0.92679654       0.62990412      40.52693046 </v>
  </varray>
  <energy>
   <i name="e_fr_energy">   -653.27194550 </i>
   <i name="e_wo_entrp">   -653.15994982 </i>
   <i name="e_0_energy">     -0.22399137 </i>
  </energy>
  <time name="totalsc">  603.23  604.65</time>
 </calculation>
 <calculation>
  <scstep>
   <time name="dav">   23.44   23.48</time>
   <time name="total">   23.70   23.75</time>
   <energy>
    <i name="alphaZ">   4765.93074642 </i>
    <i name="ewald"> -42669.14615323 </i>
    <i name="hartreedc">  -7819.71479414 </i>
    <i name="XCdc">   1835.54873260 </i>
    <i name="pawpsdc">  33419.86007812 </i>
    <i name="pawaedc"> -33676.90063934 </i>
    <i name="eentropy">     -0.24733027 </i>
    <i name="bandstr">  -6136.76699809 </i>
    <i name="atom">  49630.65262792 </i>
    <i name="e_fr_energy">   -650.78373001 </i>
    <i name="e_wo_entrp">   -650.53639973 </i>
    <i name="e_0_energy">   -650.66006487 </i>
   </energy>
  </scstep>
  <scstep>
   <time name="diag">    1.67    1.69</time>
   <time name="diis">   19.21   19.26</time>
   <time name="orth">    0.41    0.41</time>
   <time name="total">   21.53   21.62</time>
   <energy>
    <i name="e_fr_energy">   -711.39062270 </i>
    <i name="e_wo_entrp">   -711.24569541 </i>
    <i name="e_0_energy">   -711.31815905 </i>
   </energy>
  </scstep>
  <scstep>
   <time name="diag">    1.67    1.67</time>
   <time name="diis">   15.73   15.75</time>
   <time name="orth">    0.41    0.41</time>
   <time name="total">   18.05   18.07</time>
   <energy>
    <i name="e_fr_energy">   -662.30761782 </i>
    <i name="e_wo_entrp">   -662.12452691 </i>
    <i name="e_0_energy">   -662.21607237 </i>
   </energy>
  </scstep>
  <scstep>
   <time name="diag">    1.66    1.66</time>
   <time name="diis">   16.89   16.96</time>
   <time name="orth">    0.41    0.41</time>
   <time name="total">   19.20   19.28</time>
   <energy>
    <i name="e_fr_energy">   -659.16458177 </i>
    <i name="e_wo_entrp">   -658.97304180 </i>
    <i name="e_0_energy">   -659.06881179 </i>
   </energy>
  </scstep>
  <scstep>
   <time name="diag">    1.68    1.69</time>
   <time name="diis">   17.10   17.15</time>
   <time name="orth">    0.41    0.41</time>
   <time name="total">   19.43   19.50</time>
   <energy>
    <i name="e_fr_energy">   -656.55113613 </i>
    <i name="e_wo_entrp">   -656.35017607 </i>
    <i name="e_0_energy">   -656.45065610 </i>
   </energy>
  </scstep>
  <scstep>
   <time name="diag">    1.66    1.66</time>
   <time name="diis">   16.66   16.70</time>
   <time name="orth">    0.41    0.41</time>
   <time name="total">   18.98   19.02</time>
   <energy>
    <i name="e_fr_energy">   -656.09872321 </i>
    <i name="e_wo_entrp">   -655.87740566 </i>
    <i name="e_0_energy">   -655.98806443 </i>
   </energy>
  </scstep>
  <scstep>
   <time name="diag">    1.72    1.73</time>
   <time name="diis">   17.08   17.16</time>
   <time name="orth">    0.41    0.41</time>
   <time name="total">   19.46   19.56</time>
   <energy>
    <i name="e_fr_energy">   -655.65301070 </i>
    <i name="e_wo_entrp">   -655.44090727 </i>
    <i name="e_0_energy">   -655.54695898 </i>
   </energy>
  </scstep>
  <scstep>
   <time name="diag">    1.66    1.67</time>
   <time name="diis">   16.80   16.91</time>
   <time name="orth">    0.40    0.40</time>
   <time name="total">   19.12   19.23</time>
   <energy>
    <i name="e_fr_energy">   -655.86171890 </i>
    <i name="e_wo_entrp">   -655.65250782 </i>
    <i name="e_0_energy">   -655.75711336 </i>
   </energy>
  </scstep>
  <scstep>
   <time name="diag">    1.66    1.66</time>
   <time name="diis">   16.99   17.04</time>
   <time name="orth">    0.41    0.41</time>
   <time name="total">   19.30   19.36</time>
   <energy>
    <i name="e_fr_energy">   -655.39089103 </i>
    <i name="e_wo_entrp">   -655.17262824 </i>
    <i name="e_0_energy">   -655.28175963 </i>
   </energy>
  </scstep>
  <scstep>
   <time name="diag">    1.65    1.66</time>
   <time name="diis">   17.12   17.42</time>
   <time name="orth">    0.92    0.97</time>
   <time name="total">   19.99   20.36</time>
   <energy>
    <i name="e_fr_energy">   -655.38293621 </i>
    <i name="e_wo_entrp">   -655.16939581 </i>
    <i name="e_0_energy">   -655.27616601 </i>
   </energy>
  </scstep>
  <scstep>
   <time name="diag">    2.29    2.37</time>
   <time name="diis">   15.95   16.00</time>
   <time name="orth">    0.41    0.41</time>
   <time name="total">   18.95   19.11</time>
   <energy>
    <i name="e_fr_energy">   -655.41046750 </i>
    <i name="e_wo_entrp">   -655.19013641 </i>
    <i name="e_0_energy">   -655.30030195 </i>
   </energy>
  </scstep>
  <scstep>
   <time name="diag">    1.66    1.66</time>
   <time name="diis">   16.96   16.99</time>
   <time name="orth">    0.41    0.41</time>
   <time name="total">   19.28   19.31</time>
   <energy>
    <i name="e_fr_energy">   -655.31916964 </i>
    <i name="e_wo_entrp">   -655.10335357 </i>
    <i name="e_0_energy">   -655.21126160 </i>
   </energy>
  </scstep>
  <scstep>
   <time name="diag">    1.66    1.66</time>
   <time name="diis">   17.49   17.51</time>
   <time name="orth">    0.42    0.42</time>
   <time name="total">   19.84   19.86</time>
   <energy>
    <i name="e_fr_energy">   -655.32823216 </i>
    <i name="e_wo_entrp">   -655.11172478 </i>
    <i name="e_0_energy">   -655.21997847 </i>
   </energy>
  </scstep>
  <scstep>
   <time name="diag">    1.71    1.71</time>
   <time name="diis">   16.83   16.87</time>
   <time name="orth">    0.41    0.41</time>
   <time name="total">   19.20   19.25</time>
   <energy>
    <i name="e_fr_energy">   -655.31772870 </i>
    <i name="e_wo_entrp">   -655.10105484 </i>
    <i name="e_0_energy">   -655.20939177 </i>
   </energy>
  </scstep>
  <scstep>
   <time name="diag">    1.68    1.69</time>
   <time name="diis">   16.73   16.75</time>
   <time name="orth">    0.41    0.41</time>
   <time name="total">   19.07   19.10</time>
   <energy>
    <i name="e_fr_energy">   -655.31547837 </i>
    <i name="e_wo_entrp">   -655.09985320 </i>
    <i name="e_0_energy">   -655.20766578 </i>
   </energy>
  </scstep>
  <scstep>
   <time name="diag">    1.66    1.66</time>
   <time name="diis">   16.64   16.69</time>
   <time name="orth">    0.41    0.42</time>
   <time name="total">   18.98   19.03</time>
   <energy>
    <i name="e_fr_energy">   -655.31597877 </i>
    <i name="e_wo_entrp">   -655.10003259 </i>
    <i name="e_0_energy">   -655.20800568 </i>
   </energy>
  </scstep>
  <scstep>
   <time name="diag">    1.69    1.71</time>
   <time name="diis">   14.55   14.64</time>
   <time name="orth">    0.41    0.41</time>
   <time name="total">   16.89   17.01</time>
   <energy>
    <i name="e_fr_energy">   -655.31493891 </i>
    <i name="e_wo_entrp">   -655.09853784 </i>
    <i name="e_0_energy">   -655.20673838 </i>
   </energy>
  </scstep>
  <scstep>
   <time name="diag">    1.66    1.67</time>
   <time name="diis">   16.07   16.12</time>
   <time name="orth">    0.41    0.41</time>
   <time name="total">   18.39   18.44</time>
   <energy>
    <i name="e_fr_energy">   -655.31539752 </i>
    <i name="e_wo_entrp">   -655.09926133 </i>
    <i name="e_0_energy">   -655.20732943 </i>
   </energy>
  </scstep>
  <scstep>
   <time name="diag">    1.67    1.67</time>
   <time name="diis">   15.20   15.21</time>
   <time name="orth">    0.42    0.42</time>
   <time name="total">   17.54   17.57</time>
   <energy>
    <i name="e_fr_energy">   -655.31497056 </i>
    <i name="e_wo_entrp">   -655.09850752 </i>
    <i name="e_0_energy">   -655.20673904 </i>
   </energy>
  </scstep>
  <scstep>
   <time name="diag">    1.73    1.74</time>
   <time name="diis">   14.14   14.14</time>
   <time name="orth">    0.41    0.41</time>
   <time name="total">   16.52   16.54</time>
   <energy>
    <i name="e_fr_energy">   -655.31502568 </i>
    <i name="e_wo_entrp">   -655.09870070 </i>
    <i name="e_0_energy">   -655.20686319 </i>
   </energy>
  </scstep>
  <scstep>
   <time name="diag">    1.69    1.69</time>
   <time name="diis">   10.59   10.60</time>
   <time name="orth">    0.41    0.41</time>
   <time name="total">   12.94   12.95</time>
   <energy>
    <i name="e_fr_energy">   -655.31500473 </i>
    <i name="e_wo_entrp">   -655.09863740 </i>
    <i name="e_0_energy">   -655.20682107 </i>
   </energy>
  </scstep>
  <scstep>
   <time name="diag">    1.69    1.69</time>
   <time name="diis">   10.18   10.18</time>
   <time name="orth">    0.41    0.41</time>
   <time name="total">   12.52   12.54</time>
   <energy>
    <i name="e_fr_energy">   -655.31501353 </i>
    <i name="e_wo_entrp">   -655.09868039 </i>
    <i name="e_0_energy">   -655.20684696 </i>
   </energy>
  </scstep>
  <scstep>
   <time name="diag">    1.67    1.67</time>
   <time name="diis">    9.54    9.57</time>
   <time name="orth">    0.41    0.41</time>
   <time name="total">   11.64   11.68</time>
   <energy>
    <i name="alphaZ">   4765.93074642 </i>
    <i name="ewald"> -42669.14615323 </i>
    <i name="hartreedc">  -8046.86790912 </i>
    <i name="XCdc">   1847.77525061 </i>
    <i name="pawpsdc">  32996.82564980 </i>
    <i name="pawaedc"> -33248.98895676 </i>
    <i name="eentropy">     -0.21634118 </i>
    <i name="bandstr">  -5931.27992926 </i>
    <i name="atom">  49630.65262792 </i>
    <i name="e_fr_energy">   -655.31501480 </i>
    <i name="e_wo_entrp">   -655.09867361 </i>
    <i name="e_0_energy">   -655.20684420 </i>
   </energy>
  </scstep>
  <structure>
   <crystal>
    <varray name="basis" >
     <v>       8.77967456       0.00587500      -0.00482521 </v>
     <v>       0.01163043       8.83771911       0.00339391 </v>
     <v>       0.02671170      -0.01199532       8.80303845 </v>
    </varray>
    <i name="volume">    683.04887576 </i>
    <varray name="rec_basis" >
     <v>       0.11389935      -0.00014976      -0.00034582 </v>
     <v>      -0.00007563       0.11315141       0.00015441 </v>
     <v>       0.00006246      -0.00004371       0.11359689 </v>
    </varray>
   </crystal>
   <varray name="positions" >
    <v>       0.99881329       0.98812028       0.99834559 </v>
    <v>       0.25105212       0.99093645       0.24891458 </v>
    <v>       0.25429254       0.50801891       0.24727055 </v>
    <v>       0.50192886       0.49209278       0.99729113 </v>
    <v>       0.49849321       0.24227240       0.75381279 </v>
    <v>       0.99679930       0.50081908       0.50270102 </v>
    <v>       0.49923824       0.76011718       0.74812413 </v>
    <v>       0.00332050       0.24033258       0.25636313 </v>
    <v>       0.74784823       0.74929323       0.00609121 </v>
    <v>       0.00484297       0.25140306       0.74408611 </v>
    <v>       0.74862634       0.25499989       0.51071810 </v>
    <v>       0.00044201       0.75058096       0.75059034 </v>
    <v>       0.25613094       0.49819619       0.75166543 </v>
    <v>       0.25020724       0.24432400       0.99999314 </v>
    <v>       0.49914891       0.25016663       0.24939276 </v>
    <v>       0.74003588       0.99223011       0.26227484 </v>
    <v>       0.75460015       0.25097434       0.99192412 </v>
    <v>       0.25849547       0.75544194       0.00098253 </v>
    <v>       0.25829423       0.24919703       0.49781937 </v>
    <v>       0.25021165       0.74965010       0.49856501 </v>
    <v>       0.24967307       0.25051578       0.24877685 </v>
    <v>       0.25855695       0.00048159       0.99534440 </v>
    <v>       0.00201183       0.24722644       0.00216209 </v>
    <v>       0.75230633       0.24693836       0.25383632 </v>
    <v>       0.74974589       0.99625265       0.00430871 </v>
    <v>       0.49656249       0.99852140       0.24856837 </v>
    <v>       0.99412489       0.48429507       0.24510327 </v>
    <v>       0.50567348       0.75821251       0.00415699 </v>
    <v>       0.98758996       0.00260230       0.74501856 </v>
    <v>       0.75041443       0.24504621       0.74902003 </v>
    <v>       0.73925495       0.00270362       0.51259753 </v>
    <v>       0.50536854       0.23453460       0.50245881 </v>
    <v>       0.50459830       0.00018930       0.73948244 </v>
    <v>       0.00383286       0.00200857       0.24686936 </v>
    <v>       0.50359103       0.24951966       0.99344889 </v>
    <v>       0.25351705       0.74837735       0.24936932 </v>
    <v>       0.24708126       0.49990405       0.00235988 </v>
    <v>       0.99968877       0.74638193       0.00487915 </v>
    <v>       0.75042113       0.74578913       0.25132212 </v>
    <v>       0.75416695       0.50234753       0.00284984 </v>
    <v>       0.49312428       0.50764634       0.24753885 </v>
    <v>       0.25562524       0.24786801       0.74897891 </v>
    <v>       0.25749834       0.99799712       0.50253482 </v>
    <v>       0.99892781       0.25108213       0.50046023 </v>
    <v>       0.24931736       0.75470467       0.75053258 </v>
    <v>       0.25129782       0.49991789       0.49372115 </v>
    <v>       0.99574137       0.75224397       0.50099995 </v>
    <v>       0.99458285       0.50078980       0.74904774 </v>
    <v>       0.74151732       0.75990951       0.75029268 </v>
    <v>       0.75278327       0.49610879       0.50283818 </v>
    <v>       0.50224456       0.76128454       0.49959124 </v>
    <v>       0.50109780       0.49997987       0.74979791 </v>
    <v>       0.51532381       0.01677654       0.97294589 </v>
    <v>       0.00180399       0.51491482       0.98180379 </v>
    <v>       0.50250455       0.73674653       0.25573017 </v>
    <v>       0.23780961       0.00968981       0.75039958 </v>
    <v>       0.47598020       0.98159091       0.50071972 </v>
    <v>       0.73481395       0.97519569       0.76959401 </v>
    <v>       0.00728850       0.76852345       0.25106032 </v>
    <v>       0.74164350       0.50690647       0.25466038 </v>
    <v>       0.01892567       0.00250335       0.50109014 </v>
    <v>       0.49635594       0.52027832       0.49866789 </v>
    <v>       0.74031641       0.51660522       0.75039669 </v>
    <v>       0.75247400       0.73972081       0.49773851 </v>
   </varray>
  </structure>
  <varray name="forces" >
   <v>       0.45747358      -0.51972138      -0.05470829 </v>
   <v>      -0.39031315      -0.59876177       0.26682316 </v>
   <v>       0.96813872       0.78349072      -0.32922217 </v>
   <v>      -0.21087264      -0.66515723      -0.06507797 </v>
   <v>      -0.78582292      -0.34131696       0.54904023 </v>
   <v>       0.51702255      -0.37164174       0.74030539 </v>
   <v>       0.17428386       0.38118961      -0.47805280 </v>
   <v>       0.07117077       0.27198904       0.06369799 </v>
   <v>      -0.41079056      -0.06783379      -0.27329529 </v>
   <v>       0.60295060      -0.33971225      -0.07262818 </v>
   <v>       0.09766217      -0.18069907       0.22363991 </v>
   <v>      -0.08439185       0.16541003       0.27529023 </v>
   <v>      -0.15232250      -0.01907007       0.26358886 </v>
   <v>      -0.16600969      -0.13468276      -0.24422126 </v>
   <v>      -0.09265660       0.04048550      -0.29748953 </v>
   <v>       0.00241571       0.09345004      -0.35520248 </v>
   <v>      -0.07058825      -0.23652593      -0.02302784 </v>
   <v>       0.47982561       0.15291148      -0.02625964 </v>
   <v>      -0.37098103      -0.00020307       0.37097422 </v>
   <v>      -0.25496496       0.06708675       0.09102220 </v>
   <v>      -0.03247318      -0.03038865       0.03546849 </v>
   <v>      -0.18450042       0.03924623       0.19316696 </v>
   <v>      -0.03919581      -0.16251017       0.03778333 </v>
   <v>      -0.15146291      -0.03377992      -0.02811345 </v>
   <v>      -0.03520528       0.06078428      -0.50706238 </v>
   <v>      -0.26347466       0.03841374       0.16088720 </v>
   <v>      -0.04988234       0.58020782       0.31421700 </v>
   <v>       0.14753360      -0.15036372      -0.37089999 </v>
   <v>       0.05398804       0.04583288       0.39609268 </v>
   <v>      -0.09481696       0.33818223      -0.11988012 </v>
   <v>       0.68418076      -0.10268116      -0.31703106 </v>
   <v>       0.14141726       0.69168664      -0.03280094 </v>
   <v>       0.41297785       0.03900764       0.57443784 </v>
   <v>       0.05924424      -0.71830657      -0.07871145 </v>
   <v>      -0.13602898       0.09174153      -0.17082765 </v>
   <v>       0.26287350      -0.00044704      -0.05491988 </v>
   <v>       0.03665663       0.11105945       0.24001309 </v>
   <v>       0.10022075       0.10157127      -0.03257194 </v>
   <v>      -0.17518949      -0.35053324       0.33901809 </v>
   <v>      -0.09488305       0.08768330       0.03033219 </v>
   <v>       0.14474823       0.09944565      -0.17657631 </v>
   <v>       0.14300851      -0.12396635       0.12705432 </v>
   <v>      -0.55377692       0.15058897       0.16315434 </v>
   <v>       0.04496936       0.32373562      -0.07079197 </v>
   <v>       0.35165044       0.15099141       0.08651508 </v>
   <v>      -0.26412981      -0.00907230       0.07634640 </v>
   <v>       0.00016568      -0.27198686      -0.26783037 </v>
   <v>       0.24941512       0.08933627       0.10769162 </v>
   <v>       0.11509158      -0.70116640      -0.15558393 </v>
   <v>      -0.11086910       0.55126271      -0.12881683 </v>
   <v>       0.29691397      -0.52025496      -0.16989903 </v>
   <v>       0.17656645      -0.06103561       0.06169290 </v>
   <v>       0.04316055       0.31176289      -0.87339066 </v>
   <v>       0.24199021       0.79353733      -0.70163805 </v>
   <v>      -0.29371400      -0.84942872       0.23376385 </v>
   <v>      -0.32875441      -0.33728963       0.06911913 </v>
   <v>      -0.10895619      -0.05761590       0.47891570 </v>
   <v>      -1.07199140       0.12796746       0.60313526 </v>
   <v>      -0.14213552       0.47339629      -0.20405181 </v>
   <v>      -0.80759699       0.60805801      -0.47142652 </v>
   <v>       0.61811640       0.07265277      -0.41178660 </v>
   <v>       0.53543632       0.36972908      -0.32284684 </v>
   <v>      -0.10431378       0.43945890       0.62056100 </v>
   <v>      -0.19820367      -0.78720030       0.09289456 </v>
  </varray>
  <varray name="stress" >
   <v>     -91.80410374      -2.67246662      -1.82119827 </v>
   <v>      -2.67246717     -92.03228153       0.97098301 </v>
   <v>      -1.82120063       0.97098250     -95.21152307 </v>
  </varray>
  <energy>
   <i name="e_fr_energy">   -655.31501480 </i>
   <i name="e_wo_entrp">   -655.20684420 </i>
   <i name="e_0_energy">     -0.21634118 </i>
  </energy>
  <time name="totalsc">  461.23  462.88</time>
 </calculation>
 <calculation>
  <scstep>
   <time name="dav">   23.84   23.85</time>
   <time name="total">   24.10   24.11</time>
   <energy>
    <i name="alphaZ">   4787.36063800 </i>
    <i name="ewald"> -42743.90004934 </i>
    <i name="hartreedc">  -8047.27546674 </i>
    <i name="XCdc">   1850.85699454 </i>
    <i name="pawpsdc">  32997.06024921 </i>
    <i name="pawaedc"> -33249.24285844 </i>
    <i name="eentropy">     -0.21071674 </i>
    <i name="bandstr">  -5880.54946122 </i>
    <i name="atom">  49630.65262792 </i>
    <i name="e_fr_energy">   -655.24804282 </i>
    <i name="e_wo_entrp">   -655.03732607 </i>
    <i name="e_0_energy">   -655.14268444 </i>
   </energy>
  </scstep>
  <scstep>
   <time name="diag">    1.71    1.72</time>
   <time name="diis">   17.11   17.16</time>
   <time name="orth">    0.40    0.41</time>
   <time name="total">   19.48   19.54</time>
   <energy>
    <i name="e_fr_energy">   -656.73334256 </i>
    <i name="e_wo_entrp">   -656.52744697 </i>
    <i name="e_0_energy">   -656.63039476 </i>
   </energy>
  </scstep>
  <scstep>
   <time name="diag">    1.67    1.67</time>
   <time name="diis">   16.18   16.20</time>
   <time name="orth">    0.41    0.41</time>
   <time name="total">   18.50   18.52</time>
   <energy>
    <i name="e_fr_energy">   -655.79700412 </i>
    <i name="e_wo_entrp">   -655.58382230 </i>
    <i name="e_0_energy">   -655.69041321 </i>
   </energy>
  </scstep>
  <scstep>
   <time name="diag">    1.67    1.67</time>
   <time name="diis">   16.05   16.07</time>
   <time name="orth">    0.41    0.41</time>
   <time name="total">   18.37   18.40</time>
   <energy>
    <i name="e_fr_energy">   -655.43832366 </i>
    <i name="e_wo_entrp">   -655.22167206 </i>
    <i name="e_0_energy">   -655.32999786 </i>
   </energy>
  </scstep>
  <scstep>
   <time name="diag">    1.66    1.66</time>
   <time name="diis">   16.66   16.69</time>
   <time name="orth">    0.41    0.41</time>
   <time name="total">   18.97   19.01</time>
   <energy>
    <i name="e_fr_energy">   -655.39216803 </i>
    <i name="e_wo_entrp">   -655.17501932 </i>
    <i name="e_0_energy">   -655.28359367 </i>
   </energy>
  </scstep>
  <scstep>
   <time name="diag">    1.66    1.69</time>
   <time name="diis">   17.06   17.12</time>
   <time name="orth">    0.41    0.41</time>
   <time name="total">   19.37   19.47</time>
   <energy>
    <i name="e_fr_energy">   -655.39402658 </i>
    <i name="e_wo_entrp">   -655.17944531 </i>
    <i name="e_0_energy">   -655.28673595 </i>
   </energy>
  </scstep>
  <scstep>
   <time name="diag">    1.66    1.66</time>
   <time name="diis">   16.18   16.23</time>
   <time name="orth">    0.41    0.41</time>
   <time name="total">   18.49   18.55</time>
   <energy>
    <i name="e_fr_energy">   -655.37175240 </i>
    <i name="e_wo_entrp">   -655.15353211 </i>
    <i name="e_0_energy">   -655.26264225 </i>
   </energy>
  </scstep>
  <scstep>
   <time name="diag">    1.69    1.69</time>
   <time name="diis">   16.69   16.72</time>
   <time name="orth">    0.41    0.41</time>
   <time name="total">   19.05   19.07</time>
   <energy>
    <i name="e_fr_energy">   -655.37878115 </i>
    <i name="e_wo_entrp">   -655.16160297 </i>
    <i name="e_0_energy">   -655.27019206 </i>
   </energy>
  </scstep>
  <scstep>
   <time name="diag">    1.66    1.66</time>
   <time name="diis">   16.03   16.08</time>
   <time name="orth">    0.40    0.41</time>
   <time name="total">   18.35   18.40</time>
   <energy>
    <i name="e_fr_energy">   -655.37002169 </i>
    <i name="e_wo_entrp">   -655.15241267 </i>
    <i name="e_0_energy">   -655.26121718 </i>
   </energy>
  </scstep>
  <scstep>
   <time name="diag">    1.67    1.69</time>
   <time name="diis">   15.37   15.46</time>
   <time name="orth">    0.40    0.41</time>
   <time name="total">   17.70   17.81</time>
   <energy>
    <i name="e_fr_energy">   -655.36811047 </i>
    <i name="e_wo_entrp">   -655.14964773 </i>
    <i name="e_0_energy">   -655.25887910 </i>
   </energy>
  </scstep>
  <scstep>
   <time name="diag">    1.65    1.65</time>
   <time name="diis">   16.11   16.25</time>
   <time name="orth">    0.40    0.40</time>
   <time name="total">   18.42   18.56</time>
   <energy>
    <i name="e_fr_energy">   -655.36888173 </i>
    <i name="e_wo_entrp">   -655.15098573 </i>
    <i name="e_0_energy">   -655.25993373 </i>
   </energy>
  </scstep>
  <scstep>
   <time name="diag">    1.66    1.67</time>
   <time name="diis">   14.48   14.54</time>
   <time name="orth">    0.41    0.41</time>
   <time name="total">   16.80   16.87</time>
   <energy>
    <i name="e_fr_energy">   -655.36752252 </i>
    <i name="e_wo_entrp">   -655.14966873 </i>
    <i name="e_0_energy">   -655.25859563 </i>
   </energy>
  </scstep>
  <scstep>
   <time name="diag">    1.66    1.66</time>
   <time name="diis">   14.35   14.39</time>
   <time name="orth">    0.41    0.41</time>
   <time name="total">   16.67   16.73</time>
   <energy>
    <i name="e_fr_energy">   -655.36734532 </i>
    <i name="e_wo_entrp">   -655.14910293 </i>
    <i name="e_0_energy">   -655.25822413 </i>
   </energy>
  </scstep>
  <scstep>
   <time name="diag">    1.66    1.67</time>
   <time name="diis">   13.95   14.02</time>
   <time name="orth">    0.42    0.42</time>
   <time name="total">   16.31   16.39</time>
   <energy>
    <i name="e_fr_energy">   -655.36738535 </i>
    <i name="e_wo_entrp">   -655.14946587 </i>
    <i name="e_0_energy">   -655.25842561 </i>
   </energy>
  </scstep>
  <scstep>
   <time name="diag">    1.67    1.68</time>
   <time name="diis">   11.81   11.85</time>
   <time name="orth">    0.42    0.42</time>
   <time name="total">   14.16   14.21</time>
   <energy>
    <i name="e_fr_energy">   -655.36733181 </i>
    <i name="e_wo_entrp">   -655.14931206 </i>
    <i name="e_0_energy">   -655.25832194 </i>
   </energy>
  </scstep>
  <scstep>
   <time name="diag">    1.66    1.66</time>
   <time name="diis">   10.06   10.08</time>
   <time name="orth">    0.41    0.41</time>
   <time name="total">   12.37   12.40</time>
   <energy>
    <i name="e_fr_energy">   -655.36737041 </i>
    <i name="e_wo_entrp">   -655.14920419 </i>
    <i name="e_0_energy">   -655.25828730 </i>
   </energy>
  </scstep>
  <scstep>
   <time name="diag">    1.66    1.66</time>
   <time name="diis">    9.45    9.50</time>
   <time name="orth">    0.41    0.41</time>
   <time name="total">   11.76   11.81</time>
   <energy>
    <i name="e_fr_energy">   -655.36733342 </i>
    <i name="e_wo_entrp">   -655.14929908 </i>
    <i name="e_0_energy">   -655.25831625 </i>
   </energy>
  </scstep>
  <scstep>
   <time name="diag">    1.66    1.66</time>
   <time name="diis">    9.58    9.62</time>
   <time name="orth">    0.40    0.40</time>
   <time name="total">   11.90   11.95</time>
   <energy>
    <i name="e_fr_energy">   -655.36734342 </i>
    <i name="e_wo_entrp">   -655.14928418 </i>
    <i name="e_0_energy">   -655.25831380 </i>
   </energy>
  </scstep>
  <scstep>
   <time name="diag">    1.66    1.66</time>
   <time name="diis">    9.31    9.31</time>
   <time name="orth">    0.40    0.40</time>
   <time name="total">   11.41   11.41</time>
   <energy>
    <i name="alphaZ">   4787.36063800 </i>
    <i name="ewald"> -42743.90004934 </i>
    <i name="hartreedc">  -8013.01153553 </i>
    <i name="XCdc">   1849.01357693 </i>
    <i name="pawpsdc">  33047.98320701 </i>
    <i name="pawaedc"> -33300.82110702 </i>
    <i name="eentropy">     -0.21804854 </i>
    <i name="bandstr">  -5912.42664869 </i>
    <i name="atom">  49630.65262792 </i>
    <i name="e_fr_energy">   -655.36733926 </i>
    <i name="e_wo_entrp">   -655.14929072 </i>
    <i name="e_0_energy">   -655.25831499 </i>
   </energy>
  </scstep>
  <structure>
   <crystal>
    <varray name="basis" >
     <v>       8.76446275       0.00560157      -0.00445475 </v>
     <v>       0.01134053       8.82952818       0.00313923 </v>
     <v>       0.02702858      -0.01223301       8.78698791 </v>
    </varray>
    <i name="volume">    679.99131138 </i>
    <varray name="rec_basis" >
     <v>       0.11409704      -0.00014642      -0.00035116 </v>
     <v>      -0.00007230       0.11325637       0.00015789 </v>
     <v>       0.00005787      -0.00004054       0.11380441 </v>
    </varray>
   </crystal>
   <varray name="positions" >
    <v>       0.99856186       0.98849755       0.99847120 </v>
    <v>       0.25134664       0.99154533       0.24895145 </v>
    <v>       0.25362272       0.50737222       0.24752980 </v>
    <v>       0.50227724       0.49263594       0.99738634 </v>
    <v>       0.49916360       0.24268290       0.75312425 </v>
    <v>       0.99646482       0.50122385       0.50220034 </v>
    <v>       0.49928231       0.75955530       0.74811608 </v>
    <v>       0.00241501       0.23986871       0.25721721 </v>
    <v>       0.74885808       0.74837409       0.00666407 </v>
    <v>       0.00449869       0.25185816       0.74344225 </v>
[...]
      </set>
     </set>
    </set>
   </array>
  </eigenvalues>
  <separator name="orbital magnetization" >
   <v name="MAGDIPOLOUT">      0.00000000      0.00000000      0.00000000</v>
  </separator>
  <dos>
   <i name="efermi">      8.04885004 </i>
   <total>
    <array>
     <dimension dim="1">gridpoints</dimension>
     <dimension dim="2">spin</dimension>
     <field>energy</field>
     <field>total</field>
     <field>integrated</field>
     <set>
      <set comment="spin 1">
       <r>   -60.3285     0.0000     0.0000 </r>
       <r>   -60.0809     0.0000     0.0000 </r>
       <r>   -59.8332     0.0000     0.0000 </r>
       <r>   -59.5856     0.0000     0.0000 </r>
       <r>   -59.3380     0.0000     0.0000 </r>
       <r>   -59.0904     0.0000     0.0000 </r>
       <r>   -58.8428     0.0000     0.0000 </r>
       <r>   -58.5952     0.0000     0.0000 </r>
       <r>   -58.3475     0.0000     0.0000 </r>
       <r>   -58.0999     0.0000     0.0000 </r>
       <r>   -57.8523     0.0000     0.0000 </r>
       <r>   -57.6047     0.0000     0.0000 </r>
       <r>   -57.3571     0.0000     0.0000 </r>
       <r>   -57.1095     0.1058     0.0262 </r>
       <r>   -56.8619    17.2005     4.2853 </r>
       <r>   -56.6142    37.3416    13.5317 </r>
       <r>   -56.3666     1.8912    14.0000 </r>
       <r>   -56.1190     0.0001    14.0000 </r>
       <r>   -55.8714     0.0000    14.0000 </r>
       <r>   -55.6238     0.0000    14.0000 </r>
       <r>   -55.3762     0.0000    14.0000 </r>
       <r>   -55.1285     0.0000    14.0000 </r>
       <r>   -54.8809     0.0000    14.0000 </r>
       <r>   -54.6333     0.0000    14.0000 </r>
       <r>   -54.3857     0.0000    14.0000 </r>
       <r>   -54.1381     0.0000    14.0000 </r>
       <r>   -53.8905     0.0000    14.0000 </r>
       <r>   -53.6428     0.0000    14.0000 </r>
       <r>   -53.3952     0.0000    14.0000 </r>
       <r>   -53.1476     0.0000    14.0000 </r>
       <r>   -52.9000     0.0000    14.0000 </r>
       <r>   -52.6524     0.0000    14.0000 </r>
       <r>   -52.4048     0.0000    14.0000 </r>
       <r>   -52.1571     0.0000    14.0000 </r>
       <r>   -51.9095     0.0000    14.0000 </r>
       <r>   -51.6619     0.0000    14.0000 </r>
       <r>   -51.4143     0.0000    14.0000 </r>
       <r>   -51.1667     0.0000    14.0000 </r>
       <r>   -50.9191     0.0000    14.0000 </r>
       <r>   -50.6715     0.0000    14.0000 </r>
       <r>   -50.4238     0.0000    14.0000 </r>
       <r>   -50.1762     0.0000    14.0000 </r>
       <r>   -49.9286     0.0000    14.0000 </r>
       <r>   -49.6810     0.0000    14.0000 </r>
       <r>   -49.4334     0.0000    14.0000 </r>
       <r>   -49.1858     0.0000    14.0000 </r>
       <r>   -48.9381     0.0000    14.0000 </r>
       <r>   -48.6905     0.0000    14.0000 </r>
       <r>   -48.4429     0.0000    14.0000 </r>
       <r>   -48.1953     0.0000    14.0000 </r>
       <r>   -47.9477     0.0000    14.0000 </r>
       <r>   -47.7001     0.0000    14.0000 </r>
       <r>   -47.4524     0.0000    14.0000 </r>
       <r>   -47.2048     0.0000    14.0000 </r>
       <r>   -46.9572     0.0000    14.0000 </r>
       <r>   -46.7096     0.0000    14.0000 </r>
       <r>   -46.4620     0.0000    14.0000 </r>
       <r>   -46.2144     0.0000    14.0000 </r>
       <r>   -45.9667     0.0000    14.0000 </r>
       <r>   -45.7191     0.0000    14.0000 </r>
       <r>   -45.4715     0.0000    14.0000 </r>
       <r>   -45.2239     0.0000    14.0000 </r>
       <r>   -44.9763     0.0000    14.0000 </r>
       <r>   -44.7287     0.0000    14.0000 </r>
       <r>   -44.4811     0.0000    14.0000 </r>
       <r>   -44.2334     0.0000    14.0000 </r>
       <r>   -43.9858     0.0000    14.0000 </r>
       <r>   -43.7382     0.0000    14.0000 </r>
       <r>   -43.4906     0.0000    14.0000 </r>
       <r>   -43.2430     0.0000    14.0000 </r>
       <r>   -42.9954     0.0000    14.0000 </r>
       <r>   -42.7477     0.0000    14.0000 </r>
       <r>   -42.5001     0.0000    14.0000 </r>
       <r>   -42.2525     0.0000    14.0000 </r>
       <r>   -42.0049     0.0000    14.0000 </r>
       <r>   -41.7573     0.0000    14.0000 </r>
       <r>   -41.5097     0.0000    14.0000 </r>
       <r>   -41.2620     0.0000    14.0000 </r>
       <r>   -41.0144     0.0000    14.0000 </r>
       <r>   -40.7668     0.0000    14.0000 </r>
       <r>   -40.5192     0.0000    14.0000 </r>
       <r>   -40.2716     0.0000    14.0000 </r>
       <r>   -40.0240     0.0000    14.0000 </r>
       <r>   -39.7763     0.0000    14.0000 </r>
       <r>   -39.5287     0.0000    14.0000 </r>
       <r>   -39.2811     0.0000    14.0000 </r>
       <r>   -39.0335     0.0000    14.0000 </r>
       <r>   -38.7859     0.0000    14.0000 </r>
       <r>   -38.5383     0.0000    14.0000 </r>
       <r>   -38.2907     0.0000    14.0000 </r>
       <r>   -38.0430     0.0000    14.0000 </r>
       <r>   -37.7954     0.0000    14.0000 </r>
       <r>   -37.5478     0.0000    14.0000 </r>
       <r>   -37.3002     0.0000    14.0000 </r>
       <r>   -37.0526     0.0000    14.0000 </r>
       <r>   -36.8050     0.0000    14.0000 </r>
       <r>   -36.5573     0.0000    14.0000 </r>
       <r>   -36.3097     0.0000    14.0000 </r>
       <r>   -36.0621     0.0001    14.0000 </r>
       <r>   -35.8145     2.7971    14.6926 </r>
       <r>   -35.5669    59.9368    29.5339 </r>
       <r>   -35.3193    76.0467    48.3643 </r>
       <r>   -35.0716     6.6017    49.9990 </r>
       <r>   -34.8240     0.0040    50.0000 </r>
       <r>   -34.5764     0.0000    50.0000 </r>
       <r>   -34.3288     0.0000    50.0000 </r>
       <r>   -34.0812     0.0000    50.0000 </r>
       <r>   -33.8336     0.0000    50.0000 </r>
       <r>   -33.5859     0.0000    50.0000 </r>
       <r>   -33.3383     0.0000    50.0000 </r>
       <r>   -33.0907     0.0000    50.0000 </r>
       <r>   -32.8431     0.0000    50.0000 </r>
       <r>   -32.5955     0.0000    50.0000 </r>
       <r>   -32.3479     0.0000    50.0000 </r>
       <r>   -32.1003     0.0000    50.0000 </r>
       <r>   -31.8526     0.0000    50.0000 </r>
       <r>   -31.6050     0.0294    50.0073 </r>
       <r>   -31.3574    20.8335    55.1660 </r>
       <r>   -31.1098    84.6628    76.1298 </r>
       <r>   -30.8622    76.3066    95.0246 </r>
       <r>   -30.6146   113.2156   123.0586 </r>
       <r>   -30.3669    19.9142   127.9897 </r>
       <r>   -30.1193     0.0417   128.0000 </r>
       <r>   -29.8717     0.0000   128.0000 </r>
       <r>   -29.6241     0.0000   128.0000 </r>
       <r>   -29.3765     0.0000   128.0000 </r>
       <r>   -29.1289     0.0000   128.0000 </r>
       <r>   -28.8812     0.0000   128.0000 </r>
       <r>   -28.6336     0.0000   128.0000 </r>
       <r>   -28.3860     0.0000   128.0000 </r>
       <r>   -28.1384     0.0000   128.0000 </r>
       <r>   -27.8908     0.4537   128.1124 </r>
       <r>   -27.6432    27.2856   134.8687 </r>
       <r>   -27.3955    27.9890   141.7992 </r>
       <r>   -27.1479    57.7652   156.1028 </r>
       <r>   -26.9003    25.5726   162.4350 </r>
       <r>   -26.6527     6.3189   163.9997 </r>
       <r>   -26.4051     0.0013   164.0000 </r>
       <r>   -26.1575     0.0000   164.0000 </r>
       <r>   -25.9099     0.0000   164.0000 </r>
       <r>   -25.6622     0.0000   164.0000 </r>
       <r>   -25.4146     0.0000   164.0000 </r>
       <r>   -25.1670     0.0000   164.0000 </r>
       <r>   -24.9194     0.0000   164.0000 </r>
       <r>   -24.6718     0.0000   164.0000 </r>
       <r>   -24.4242     0.0000   164.0000 </r>
       <r>   -24.1765     0.0000   164.0000 </r>
       <r>   -23.9289     0.0000   164.0000 </r>
       <r>   -23.6813     0.0000   164.0000 </r>
       <r>   -23.4337     0.1145   164.0283 </r>
       <r>   -23.1861     8.8762   166.2262 </r>
       <r>   -22.9385    30.1911   173.7020 </r>
       <r>   -22.6908    32.1190   181.6552 </r>
       <r>   -22.4432    21.5645   186.9949 </r>
       <r>   -22.1956    47.3288   198.7143 </r>
       <r>   -21.9480    25.5601   205.0434 </r>
       <r>   -21.7004     3.8633   206.0000 </r>
       <r>   -21.4528     0.0001   206.0000 </r>
       <r>   -21.2051     0.0000   206.0000 </r>
       <r>   -20.9575     0.0000   206.0000 </r>
       <r>   -20.7099     0.0000   206.0000 </r>
       <r>   -20.4623     0.0000   206.0000 </r>
       <r>   -20.2147     0.0000   206.0000 </r>
       <r>   -19.9671     0.0000   206.0000 </r>
       <r>   -19.7195     0.0000   206.0000 </r>
       <r>   -19.4718     0.0000   206.0000 </r>
       <r>   -19.2242     0.0000   206.0000 </r>
       <r>   -18.9766     0.0000   206.0000 </r>
       <r>   -18.7290     0.0000   206.0000 </r>
       <r>   -18.4814     0.0000   206.0000 </r>
       <r>   -18.2338     0.0000   206.0000 </r>
       <r>   -17.9861     0.0000   206.0000 </r>
       <r>   -17.7385     0.0000   206.0000 </r>
       <r>   -17.4909     0.0000   206.0000 </r>
       <r>   -17.2433     0.0000   206.0000 </r>
       <r>   -16.9957     0.0000   206.0000 </r>
       <r>   -16.7481     0.0000   206.0000 </r>
       <r>   -16.5004     0.0000   206.0000 </r>
       <r>   -16.2528     0.0000   206.0000 </r>
       <r>   -16.0052     0.0000   206.0000 </r>
       <r>   -15.7576     0.0000   206.0000 </r>
       <r>   -15.5100     0.0000   206.0000 </r>
       <r>   -15.2624     0.0000   206.0000 </r>
       <r>   -15.0147     0.0000   206.0000 </r>
       <r>   -14.7671     0.0000   206.0000 </r>
       <r>   -14.5195     0.0000   206.0000 </r>
       <r>   -14.2719     0.0000   206.0000 </r>
       <r>   -14.0243     0.0000   206.0000 </r>
       <r>   -13.7767     0.0000   206.0000 </r>
       <r>   -13.5291     0.0000   206.0000 </r>
       <r>   -13.2814     0.0000   206.0000 </r>
       <r>   -13.0338     0.0000   206.0000 </r>
       <r>   -12.7862     0.0000   206.0000 </r>
       <r>   -12.5386     0.0000   206.0000 </r>
       <r>   -12.2910     0.0000   206.0000 </r>
       <r>   -12.0434     0.0000   206.0000 </r>
       <r>   -11.7957     0.0000   206.0000 </r>
       <r>   -11.5481     0.0000   206.0000 </r>
       <r>   -11.3005     0.0000   206.0000 </r>
       <r>   -11.0529     0.0000   206.0000 </r>
       <r>   -10.8053     0.0000   206.0000 </r>
       <r>   -10.5577     0.0000   206.0000 </r>
       <r>   -10.3100     0.0000   206.0000 </r>
       <r>   -10.0624     0.0000   206.0000 </r>
       <r>    -9.8148     0.0000   206.0000 </r>
       <r>    -9.5672     0.0000   206.0000 </r>
       <r>    -9.3196     0.0000   206.0000 </r>
       <r>    -9.0720     0.0000   206.0000 </r>
       <r>    -8.8243     0.0005   206.0001 </r>
       <r>    -8.5767     0.6268   206.1553 </r>
       <r>    -8.3291     5.4821   207.5128 </r>
       <r>    -8.0815     6.4901   209.1198 </r>
       <r>    -7.8339     8.7443   211.2851 </r>
       <r>    -7.5863    10.6895   213.9320 </r>
       <r>    -7.3387    17.0293   218.1487 </r>
       <r>    -7.0910    15.7339   222.0447 </r>
       <r>    -6.8434    17.6562   226.4166 </r>
       <r>    -6.5958    13.7574   229.8232 </r>
       <r>    -6.3482     8.0182   231.8086 </r>
       <r>    -6.1006     0.7729   232.0000 </r>
       <r>    -5.8530     0.0000   232.0000 </r>
       <r>    -5.6053     0.0013   232.0003 </r>
       <r>    -5.3577     1.2758   232.3162 </r>
       <r>    -5.1101     5.9213   233.7824 </r>
       <r>    -4.8625     2.0488   234.2897 </r>
       <r>    -4.6149     8.0707   236.2882 </r>
       <r>    -4.3673    10.2370   238.8230 </r>
       <r>    -4.1196    14.0870   242.3112 </r>
       <r>    -3.8720    20.9905   247.5088 </r>
       <r>    -3.6244    21.6624   252.8727 </r>
       <r>    -3.3768    20.8582   258.0376 </r>
       <r>    -3.1292    20.0600   263.0047 </r>
       <r>    -2.8816    13.6380   266.3817 </r>
       <r>    -2.6340     9.1293   268.6423 </r>
       <r>    -2.3863     5.3329   269.9628 </r>
       <r>    -2.1387     0.1502   270.0000 </r>
       <r>    -1.8911     0.0000   270.0000 </r>
       <r>    -1.6435     0.0000   270.0000 </r>
       <r>    -1.3959     0.0000   270.0000 </r>
       <r>    -1.1483     0.0000   270.0000 </r>
       <r>    -0.9006     0.0000   270.0000 </r>
       <r>    -0.6530     0.0002   270.0000 </r>
       <r>    -0.4054     0.3352   270.0830 </r>
       <r>    -0.1578     1.3414   270.4152 </r>
       <r>     0.0898     7.5064   272.2739 </r>
       <r>     0.3374     7.9618   274.2454 </r>
       <r>     0.5851    13.7392   277.6474 </r>
       <r>     0.8327    16.8808   281.8274 </r>
       <r>     1.0803    26.7244   288.4448 </r>
       <r>     1.3279    28.1269   295.4094 </r>
       <r>     1.5755    23.6246   301.2593 </r>
       <r>     1.8231    30.9127   308.9137 </r>
       <r>     2.0708    30.6345   316.4993 </r>
       <r>     2.3184    32.7723   324.6143 </r>
       <r>     2.5660    45.8392   335.9648 </r>
       <r>     2.8136    52.5603   348.9795 </r>
       <r>     3.0612    60.0493   363.8487 </r>
       <r>     3.3088    58.0033   378.2113 </r>
       <r>     3.5564    57.9757   392.5670 </r>
       <r>     3.8041    55.6452   406.3456 </r>
       <r>     4.0517    50.8666   418.9410 </r>
       <r>     4.2993    40.2934   428.9183 </r>
       <r>     4.5469    34.4283   437.4433 </r>
       <r>     4.7945    31.7625   445.3082 </r>
       <r>     5.0421    27.7652   452.1833 </r>
       <r>     5.2898    19.5946   457.0353 </r>
       <r>     5.5374    13.7191   460.4323 </r>
       <r>     5.7850     8.1528   462.4511 </r>
       <r>     6.0326    12.4053   465.5229 </r>
       <r>     6.2802    19.9026   470.4510 </r>
       <r>     6.5278    18.4833   475.0278 </r>
       <r>     6.7755    17.8947   479.4588 </r>
       <r>     7.0231    20.6330   484.5679 </r>
       <r>     7.2707    22.7899   490.2110 </r>
       <r>     7.5183    28.5714   497.2858 </r>
       <r>     7.7659    28.4505   504.3306 </r>
       <r>     8.0135    26.9209   510.9966 </r>
       <r>     8.2612    30.0299   518.4325 </r>
       <r>     8.5088    40.3020   528.4119 </r>
       <r>     8.7564    51.6400   541.1988 </r>
       <r>     9.0040    55.6182   554.9708 </r>
       <r>     9.2516    47.7259   566.7885 </r>
       <r>     9.4992    48.9320   578.9048 </r>
       <r>     9.7468    45.2394   590.1068 </r>
       <r>     9.9945    44.3564   601.0902 </r>
       <r>    10.2421    41.7388   611.4254 </r>
       <r>    10.4897    38.6676   621.0001 </r>
       <r>    10.7373    12.0796   623.9912 </r>
       <r>    10.9849     0.0356   624.0000 </r>
       <r>    11.2325     0.0000   624.0000 </r>
       <r>    11.4802     0.0000   624.0000 </r>
       <r>    11.7278     0.0000   624.0000 </r>
       <r>    11.9754     0.0000   624.0000 </r>
       <r>    12.2230     0.0000   624.0000 </r>
       <r>    12.4706     0.0000   624.0000 </r>
       <r>    12.7182     0.0000   624.0000 </r>
       <r>    12.9659     0.0000   624.0000 </r>
       <r>    13.2135     0.0000   624.0000 </r>
       <r>    13.4611     0.0000   624.0000 </r>
       <r>    13.7087     0.0000   624.0000 </r>
       <r>    13.9563     0.0000   624.0000 </r>
      </set>
     </set>
    </array>
   </total>
  </dos>
 </calculation>
 <structure name="finalpos" >
  <crystal>
   <varray name="basis" >
    <v>       8.71321159      -0.01441092      -0.00641422 </v>
    <v>      -0.00878141       8.73428589       0.01130544 </v>
    <v>       0.02492539      -0.00400900       8.75499722 </v>
   </varray>
   <i name="volume">    666.28819541 </i>
   <varray name="rec_basis" >
    <v>       0.11476820       0.00011581      -0.00032669 </v>
    <v>       0.00018940       0.11449145       0.00005189 </v>
    <v>       0.00008384      -0.00014776       0.11422018 </v>
   </varray>
  </crystal>
  <varray name="positions" >
   <v>       0.00645016       0.98050494       0.02496963 </v>
   <v>       0.23366674       0.98033256       0.24823879 </v>
   <v>       0.27175394       0.51682209       0.24446022 </v>
   <v>       0.49842138       0.47694697       0.99168062 </v>
   <v>       0.47882455       0.23756015       0.75820242 </v>
   <v>       0.00408399       0.49647600       0.52839194 </v>
   <v>       0.50664207       0.75571522       0.73276371 </v>
   <v>      -0.00113416       0.26621986       0.25613950 </v>
   <v>       0.74335003       0.75016071      -0.00239647 </v>
   <v>       0.01082650       0.23753770       0.74605725 </v>
   <v>       0.74955022       0.25621480       0.51296020 </v>
   <v>       0.00123025       0.75939285       0.74947224 </v>
   <v>       0.25581366       0.50374737       0.75430872 </v>
   <v>       0.24274993       0.24408425       0.00228137 </v>
   <v>       0.49334582       0.24010181       0.24740523 </v>
   <v>       0.73925794       0.98956268       0.25633908 </v>
   <v>       0.75338407       0.24737317       0.99011396 </v>
   <v>       0.26980990       0.75763951      -0.00106767 </v>
   <v>       0.25258158       0.25174837       0.49870564 </v>
   <v>       0.25083845       0.75083108       0.49847189 </v>
   <v>       0.24451042       0.25275742       0.24965706 </v>
   <v>       0.24571954       0.00022253      -0.00019232 </v>
   <v>      -0.00182792       0.24059053       0.00285106 </v>
   <v>       0.74757932       0.24683247       0.25190991 </v>
   <v>       0.75503862       0.99625566      -0.00251459 </v>
   <v>       0.49478531       0.99598050       0.22636968 </v>
   <v>       0.99565938       0.50032300       0.24681921 </v>
   <v>       0.51010859       0.75692570      -0.01412128 </v>
   <v>       0.00221648       0.00070590       0.74984742 </v>
   <v>       0.74875622       0.24507077       0.74738182 </v>
   <v>       0.75285378       0.00447399       0.50484698 </v>
   <v>       0.50457104       0.24617690       0.50492717 </v>
   <v>       0.50369465       0.00295602       0.75345293 </v>
   <v>      -0.00132317       0.00446103       0.24908799 </v>
   <v>       0.49843575       0.24852286       0.99173335 </v>
   <v>       0.26359349       0.75078274       0.24866039 </v>
   <v>       0.24741406       0.50216680       0.00572292 </v>
   <v>       0.00390223       0.74974048       0.00121374 </v>
   <v>       0.74461975       0.74199769       0.24758928 </v>
   <v>       0.75639528       0.50193784       0.00162500 </v>
   <v>       0.49216157       0.50451395       0.24244980 </v>
   <v>       0.25468914       0.24442022       0.75145264 </v>
   <v>       0.25446679       0.00060937       0.49530340 </v>
   <v>      -0.00196726       0.25381566       0.50079687 </v>
   <v>       0.25744355       0.75792587       0.74899682 </v>
   <v>       0.24724834       0.50166917       0.49438217 </v>
   <v>       0.99523046       0.74863946       0.49837924 </v>
   <v>       0.99935861       0.50042898       0.75369811 </v>
   <v>       0.74547532       0.76072143       0.74312032 </v>
   <v>       0.75816961       0.49645778       0.49640801 </v>
   <v>       0.50559381       0.77099602       0.49585475 </v>
   <v>       0.50409020       0.49899689       0.75066505 </v>
   <v>       0.51557616       0.02127924       0.98848435 </v>
   <v>       0.00526208       0.52657259       0.97112616 </v>
   <v>       0.50298883       0.73045314       0.27809750 </v>
   <v>       0.25840527       0.00025933       0.74158011 </v>
   <v>       0.47017683      -0.00523843       0.53676399 </v>
   <v>       0.72129877       0.97969889       0.77671827 </v>
   <v>       0.00559868       0.75452164       0.24960905 </v>
   <v>       0.72502634       0.50682464       0.24305781 </v>
   <v>       0.01303766       0.00330487       0.48605572 </v>
   <v>       0.49995709       0.51073127       0.49977724 </v>
   <v>       0.74401485       0.51457954       0.75452139 </v>
   <v>       0.74854785       0.72996531       0.49833539 </v>
  </varray>
 </structure>
</modeling>
