HECN                                    
           1
     8.675640    0.004005   -0.002292
     0.009648    8.781701    0.001652
     0.028879   -0.013621    8.693268
   V    Ta   Hf   N    C    Cr   W 
   7   6   7  13  19   6   6
Direct configuration=     1
   0.99707344  0.99071669  0.99921652
   0.25309141  0.99512766  0.24917019
   0.24965513  0.50356737  0.24906642
   0.50434066  0.49583184  0.99795051
   0.50313509  0.24509777  0.74904356
   0.99448594  0.50360382  0.49923479
   0.49954244  0.75624997  0.74806757
   0.99705113  0.23713979  0.26227919
   0.75483492  0.74296930  0.01005523
   0.00246216  0.25453398  0.73962837
   0.75185444  0.26001436  0.50746644
   0.99725930  0.74621308  0.74632428
   0.25716752  0.49563271  0.74726742
   0.24866298  0.24707123  0.99780667
   0.50554454  0.25438531  0.25265694
   0.74495486  0.98890132  0.26786914
   0.75635559  0.25469732  0.99416087
   0.25070863  0.75152602  0.00021022
   0.25465169  0.24839868  0.49919237
   0.24664711  0.75013435  0.49927249
   0.24969721  0.24973020  0.24855360
   0.26039445  0.00016650  0.99366937
   0.00245745  0.24918133  0.00146208
   0.75313109  0.24626631  0.25480275
   0.74827890  0.99698473  0.00983464
   0.50468261  0.99977088  0.24765859
   0.99144913  0.48084625  0.24248838
   0.50557822  0.76020256  0.00723194
   0.98872252  0.00224856  0.73892028
   0.75578286  0.24455322  0.74890091
   0.73705595  0.00414263  0.51037738
   0.50558581  0.23304292  0.49728622
   0.50160342  0.00041799  0.73604543
   0.99944066  0.99908292  0.25537937
   0.50434351  0.24741628  0.99989815
   0.25134753  0.74926972  0.24938645
   0.24447578  0.50041689  0.99686845
   0.99808264  0.74408986  0.00459270
   0.75472509  0.74077403  0.25520645
   0.75701586  0.50339046  0.00282128
   0.50323274  0.50467595  0.25565064
   0.25047931  0.25193187  0.74850245
   0.24806664  0.99810479  0.50261394
   0.99797150  0.24459436  0.50110291
   0.24342835  0.75329004  0.75014499
   0.25668665  0.50046177  0.49912236
   0.99153540  0.75937475  0.49888800
   0.99256858  0.50064155  0.75062240
   0.74755047  0.75247665  0.74858712
   0.74473907  0.49960159  0.50172658
   0.50463564  0.75249928  0.49794660
   0.50395454  0.50168524  0.74214153
   0.51610911  0.01483120  0.97846674
   0.99934904  0.51156155  0.98466748
   0.50366514  0.73831638  0.25828562
   0.23772964  0.01087025  0.74720817
   0.47791205  0.98228719  0.49831721
   0.74057978  0.97674573  0.76589804
   0.00152689  0.77498664  0.25835514
   0.73723178  0.51332781  0.26349344
   0.02332982  0.99904767  0.49767004
   0.50184625  0.52752869  0.49940410
   0.73860590  0.52522302  0.74096624
   0.75393643  0.73212895  0.49289478
HECN                                    
           1
     8.779675    0.005875   -0.004825
     0.011630    8.837719    0.003394
     0.026712   -0.011995    8.803038
   V    Ta   Hf   N    C    Cr   W 
   7   6   7  13  19   6   6
Direct configuration=     2
   0.99881329  0.98812028  0.99834559
   0.25105212  0.99093645  0.24891458
   0.25429254  0.50801891  0.24727055
   0.50192886  0.49209278  0.99729113
   0.49849321  0.24227240  0.75381279
   0.99679930  0.50081908  0.50270102
   0.49923824  0.76011718  0.74812413
   0.00332050  0.24033258  0.25636313
   0.74784823  0.74929323  0.00609121
   0.00484297  0.25140306  0.74408611
   0.74862634  0.25499989  0.51071810
   0.00044201  0.75058096  0.75059034
   0.25613094  0.49819619  0.75166543
   0.25020724  0.24432400  0.99999314
   0.49914891  0.25016663  0.24939276
   0.74003588  0.99223011  0.26227484
   0.75460015  0.25097434  0.99192412
   0.25849547  0.75544194  0.00098253
   0.25829423  0.24919703  0.49781937
   0.25021165  0.74965010  0.49856501
   0.24967307  0.25051578  0.24877685
   0.25855695  0.00048159  0.99534440
   0.00201183  0.24722644  0.00216209
   0.75230633  0.24693836  0.25383632
   0.74974589  0.99625265  0.00430871
   0.49656249  0.99852140  0.24856837
   0.99412489  0.48429507  0.24510327
   0.50567348  0.75821251  0.00415699
   0.98758996  0.00260230  0.74501856
   0.75041443  0.24504621  0.74902003
   0.73925495  0.00270362  0.51259753
   0.50536854  0.23453460  0.50245881
   0.50459830  0.00018930  0.73948244
   0.00383286  0.00200857  0.24686936
   0.50359103  0.24951966  0.99344889
   0.25351705  0.74837735  0.24936932
   0.24708126  0.49990405  0.00235988
   0.99968877  0.74638193  0.00487915
   0.75042113  0.74578913  0.25132212
   0.75416695  0.50234753  0.00284984
   0.49312428  0.50764634  0.24753885
   0.25562524  0.24786801  0.74897891
   0.25749834  0.99799712  0.50253482
   0.99892781  0.25108213  0.50046023
   0.24931736  0.75470467  0.75053258
   0.25129782  0.49991789  0.49372115
   0.99574137  0.75224397  0.50099995
   0.99458285  0.50078980  0.74904774
   0.74151732  0.75990951  0.75029268
   0.75278327  0.49610879  0.50283818
   0.50224456  0.76128454  0.49959124
   0.50109780  0.49997987  0.74979791
   0.51532381  0.01677654  0.97294589
   0.00180399  0.51491482  0.98180379
   0.50250455  0.73674653  0.25573017
   0.23780961  0.00968981  0.75039958
   0.47598020  0.98159091  0.50071972
   0.73481395  0.97519569  0.76959401
   0.00728850  0.76852345  0.25106032
   0.74164350  0.50690647  0.25466038
   0.01892567  0.00250335  0.50109014
   0.49635594  0.52027832  0.49866789
   0.74031641  0.51660522  0.75039669
   0.75247400  0.73972081  0.49773851
HECN                                    
           1
     8.764463    0.005602   -0.004455
     0.011341    8.829528    0.003139
     0.027029   -0.012233    8.786988
   V    Ta   Hf   N    C    Cr   W 
   7   6   7  13  19   6   6
Direct configuration=     3
   0.99856186  0.98849755  0.99847120
   0.25134664  0.99154533  0.24895145
   0.25362272  0.50737222  0.24752980
   0.50227724  0.49263594  0.99738634
   0.49916360  0.24268290  0.75312425
   0.99646482  0.50122385  0.50220034
   0.49928231  0.75955530  0.74811608
   0.00241501  0.23986871  0.25721721
   0.74885808  0.74837409  0.00666407
   0.00449869  0.25185816  0.74344225
   0.74909246  0.25572845  0.51024856
  -0.00001788  0.74994656  0.74997433
   0.25628061  0.49782384  0.75103049
   0.24998394  0.24472326  0.99967729
   0.50007299  0.25077928  0.24986423
   0.74074694  0.99174615  0.26308293
   0.75485376  0.25151514  0.99224706
   0.25737048  0.75487325  0.00087081
   0.25776801  0.24908111  0.49801750
   0.24969664  0.74972055  0.49866700
   0.24967657  0.25040165  0.24874463
   0.25882239  0.00043580  0.99510262
   0.00207612  0.24751047  0.00206098
   0.75242556  0.24684067  0.25397592
   0.74953414  0.99635889  0.00510654
   0.49773565  0.99870273  0.24843731
   0.99373828  0.48379414  0.24472568
   0.50565978  0.75850156  0.00460093
   0.98775335  0.00255105  0.74413805
   0.75119010  0.24497443  0.74900307
   0.73893709  0.00291283  0.51227682
   0.50539977  0.23431801  0.50171197
   0.50416543  0.00022271  0.73898603
   0.00319870  0.00158337  0.24809807
   0.50370009  0.24921384  0.99438022
   0.25320355  0.74850707  0.24937168
   0.24670456  0.49997880  0.00156682
   0.99945676  0.74604896  0.00483779
   0.75104331  0.74506024  0.25188332
   0.75457854  0.50249898  0.00284580
   0.49458524  0.50721423  0.24871066
   0.25488158  0.24845862  0.74890978
   0.25613559  0.99801304  0.50254585
   0.99878987  0.25013952  0.50055318
   0.24846651  0.75449932  0.75047641
   0.25207664  0.49999659  0.49450126
   0.99513335  0.75328020  0.50069461
   0.99429189  0.50076827  0.74927503
   0.74238919  0.75882945  0.75004686
   0.75162084  0.49661654  0.50267724
   0.50259025  0.76000809  0.49935412
   0.50151019  0.50022779  0.74869243
   0.51543757  0.01649371  0.97374316
   0.00144951  0.51442760  0.98221729
   0.50267230  0.73697451  0.25609917
   0.23779788  0.00986142  0.74993872
   0.47625921  0.98169208  0.50037287
   0.73564683  0.97542084  0.76906052
   0.00645613  0.76946245  0.25211324
   0.74100624  0.50783931  0.25593546
   0.01956197  0.00200124  0.50059657
   0.49714901  0.52133155  0.49877422
   0.74006860  0.51785764  0.74903466
   0.75268534  0.73861787  0.49703938
HECN                                    
           1
     8.644646    0.000865   -0.009849
     0.006513    8.673461    0.006207
     0.021193   -0.008927    8.663532
   V    Ta   Hf   N    C    Cr   W 
   7   6   7  13  19   6   6
Direct configuration=     4
   0.00162065  0.98459041  0.99762377
   0.24831428  0.98621873  0.24987283
   0.26081050  0.51358406  0.24496025
   0.49977408  0.48739004  0.99668196
   0.49279059  0.23934246  0.75866032
   0.00010370  0.49780929  0.50755041
   0.49981492  0.76373271  0.74618370
   0.00695300  0.24311884  0.25351671
   0.74249778  0.75243423  0.00282136
   0.00855550  0.24830760  0.74615279
   0.74731174  0.25153333  0.51333859
   0.00173094  0.75361506  0.75403995
   0.25493090  0.49947622  0.75505948
   0.25037782  0.24229995  0.00020335
   0.49533058  0.24805414  0.24647114
   0.73749035  0.99439303  0.25782396
   0.75337083  0.24802078  0.99060937
   0.26465388  0.75818807  0.00129678
   0.25874840  0.24961690  0.49858897
   0.25109820  0.74970806  0.49855830
   0.24954165  0.25083940  0.24903595
   0.25681008  0.00081783  0.99702999
   0.00160795  0.24551271  0.00271729
   0.75124766  0.24716088  0.25321761
   0.75039327  0.99605725 -0.00073099
   0.49109993  0.99801949  0.24970504
   0.99537958  0.48852119  0.24781220
   0.50630685  0.75650985  0.00098517
   0.98717018  0.00297611  0.74990802
   0.74715476  0.24669024  0.74860629
   0.74321604  0.00147077  0.51245489
   0.50580830  0.23814935  0.50505125
   0.50790803  0.00020321  0.74367852
   0.00639992  0.00056795  0.24205734
   0.50264077  0.25106664  0.98923358
   0.25578362  0.74789029  0.24913291
   0.24864436  0.50005021  0.00633113
   0.00093761  0.74804994  0.00494446
   0.74739693  0.74701162  0.25072033
   0.75225764  0.50214652  0.00299287
   0.48833895  0.50969758  0.24249769
   0.25901779  0.24517381  0.74974855
   0.26015205  0.99852272  0.50316701
   0.99962469  0.25599517  0.49980317
   0.25393548  0.75607911  0.75108165
   0.24731286  0.49959484  0.49118702
   0.99804843  0.74728985  0.50096139
   0.99670602  0.50124362  0.74862006
   0.73874751  0.76099375  0.75059275
   0.75661434  0.49659445  0.50286307
   0.50210450  0.76377096  0.49980366
   0.50030007  0.49884051  0.75413621
   0.51507187  0.01910255  0.96640330
   0.00407370  0.51995479  0.97733971
   0.50071660  0.73238328  0.25534153
   0.23650101  0.00768975  0.75236946
   0.47446748  0.98091788  0.50395387
   0.72732940  0.97478809  0.77403243
   0.00972947  0.76713222  0.24642024
   0.74052717  0.50609761  0.24824369
   0.01933719  0.00462241  0.50112743
   0.49578412  0.51808441  0.49690145
   0.74078065  0.51397776  0.75790766
   0.75079530  0.74030723  0.50059930
HECN                                    
           1
     8.682074    0.002344   -0.008164
     0.008021    8.722212    0.005249
     0.023016   -0.009960    8.702096
   V    Ta   Hf   N    C    Cr   W 
   7   6   7  13  19   6   6
Direct configuration=     5
   0.00065276  0.98583223  0.99789120
   0.24927535  0.98791317  0.24958091
   0.25853358  0.51160723  0.24577362
   0.50056787  0.48905854  0.99690502
   0.49480838  0.24040641  0.75690725
  -0.00104922  0.49889508  0.50585427
   0.49964592  0.76240402  0.74679630
   0.00551600  0.24208412  0.25468858
   0.74451216  0.75114378  0.00404055
   0.00727077  0.24943627  0.74529282
   0.74787579  0.25286800  0.51235947
   0.00117565  0.75244868  0.75275194
   0.25535726  0.49895147  0.75378346
   0.25025338  0.24307054  0.00003632
   0.49683364  0.24892113  0.24754678
   0.73852231  0.99355130  0.25949108
   0.75384140  0.24913202  0.99112812
   0.26234658  0.75713279  0.00116075
   0.25843770  0.24944642  0.49840778
   0.25065435  0.74971178  0.49859246
   0.24958425  0.25070025  0.24894373
   0.25744693  0.00069691  0.99641980
   0.00175643  0.24614814  0.00250922
   0.75162079  0.24705917  0.25345813
   0.75012240  0.99615236  0.00111827
   0.49320133  0.99823803  0.24930464
   0.99485836  0.48701810  0.24683453
   0.50610299  0.75714268  0.00213037
   0.98735364  0.00284171  0.74808013
   0.74843254  0.24614527  0.74873300
   0.74186111  0.00192862  0.51239746
   0.50567760  0.23693133  0.50399365
   0.50672181  0.00020931  0.74219108
   0.00538747  0.00088961  0.24397043
   0.50297697  0.25047706  0.99086458
   0.25496667  0.74808596  0.24920797
   0.24802906  0.50002772  0.00482131
   0.00046827  0.74741341  0.00491060
   0.74855164  0.74639159  0.25108974
   0.75299270  0.50225901  0.00294670
   0.49031797  0.50890825  0.24446763
   0.25770824  0.24621775  0.74948161
   0.25887983  0.99836004  0.50296947
   0.99935946  0.25413290  0.50004129
   0.25220307  0.75557589  0.75088899
   0.24882228  0.49972303  0.49223795
   0.99712619  0.74919426  0.50087560
   0.99594151  0.50109198  0.74882714
   0.73990035  0.76030621  0.75042077
   0.75503287  0.49660064  0.50280319
   0.50225760  0.76257454  0.49966176
   0.50068246  0.49928248  0.75241158
   0.51518871  0.01827218  0.96872910
   0.00324265  0.51819619  0.97888515
   0.50133690  0.73384350  0.25558143
   0.23691161  0.00838082  0.75159935
   0.47503434  0.98116479  0.50281959
   0.72996264  0.97499128  0.77245880
   0.00869434  0.76787201  0.24822300
   0.74068072  0.50665066  0.25068051
   0.01940783  0.00378900  0.50095959
   0.49621731  0.51911699  0.49749469
   0.74055403  0.51521242  0.75509591
   0.75139288  0.73977076  0.49947201
HECN                                    
           1
     8.690827   -0.003749   -0.010020
     0.001904    8.741146    0.007611
     0.021185   -0.007640    8.702712
   V    Ta   Hf   N    C    Cr   W 
   7   6   7  13  19   6   6
Direct configuration=     6
   0.00376120  0.98401342  0.99745742
   0.24771246  0.98563148  0.25092162
   0.26319786  0.51499675  0.24428721
   0.49949436  0.48602364  0.99654903
   0.49063438  0.23924355  0.75830346
   0.00193057  0.49695962  0.51030043
   0.50069976  0.76380109  0.74400750
   0.00515356  0.24363800  0.25436709
   0.74282808  0.75078206  0.00283803
   0.00992694  0.24752968  0.74577222
   0.74847934  0.25230769  0.51243524
   0.00054647  0.75371932  0.75333956
   0.25447420  0.49946467  0.75443859
   0.24888774  0.24286982 -0.00060936
   0.49670507  0.24916004  0.24652250
   0.73875989  0.99398306  0.25783666
   0.75405319  0.24807928  0.99186785
   0.26430456  0.75738563  0.00078038
   0.25683007  0.24988621  0.49979870
   0.24944601  0.74960954  0.49930784
   0.24924067  0.25068082  0.24920058
   0.25658765  0.00066704  0.99762397
   0.00146745  0.24550773  0.00248855
   0.75088681  0.24709336  0.25311154
   0.75006230  0.99691571 -0.00092162
   0.49173130  0.99760739  0.25012693
   0.99467364  0.49077674  0.24822786
   0.50670031  0.75650683  0.00028032
   0.98771865  0.00292770  0.75031793
   0.74787703  0.24736014  0.74840257
   0.74553857  0.00156903  0.51124783
   0.50625397  0.24066065  0.50416967
   0.50780974  0.00064759  0.74396871
   0.00503307 -0.00054019  0.24367508
   0.50204110  0.25068772  0.99070289
   0.25705325  0.74814362  0.24912113
   0.24781462  0.50081638  0.00615315
   0.00138361  0.74767014  0.00436503
   0.74767731  0.74528903  0.25233911
   0.75298970  0.50232717  0.00328564
   0.49145633  0.50818584  0.24310661
   0.25853635  0.24547633  0.75017275
   0.25656284  0.99910515  0.50391541
   0.99977680  0.25536183  0.49983792
   0.25417447  0.75695147  0.75118409
   0.24718849  0.49982092  0.49259790
   0.99672254  0.74805862  0.49951538
   0.99701640  0.50132920  0.74928883
   0.74100142  0.75720849  0.74932832
   0.75452907  0.49830246  0.50227510
   0.50359904  0.76065045  0.49820715
   0.50151031  0.49873306  0.75247189
   0.51484668  0.01953258  0.96590524
   0.00456295  0.52169924  0.97619305
   0.49963361  0.73115112  0.25697963
   0.23512670  0.00592244  0.75212782
   0.47579048  0.98249659  0.50567464
   0.72546560  0.97688401  0.77440135
   0.00733880  0.76696421  0.24781159
   0.73629647  0.50772468  0.24784537
   0.01987896  0.00425798  0.49858258
   0.49899569  0.51836588  0.49618078
   0.74062599  0.51600130  0.75762429
   0.75099789  0.73741674  0.50036365
HECN                                    
           1
     8.695802   -0.007212   -0.011075
    -0.001574    8.751909    0.008954
     0.020145   -0.006321    8.703062
   V    Ta   Hf   N    C    Cr   W 
   7   6   7  13  19   6   6
Direct configuration=     7
   0.00552564  0.98298306  0.99721150
   0.24682418  0.98433643  0.25168386
   0.26584778  0.51692143  0.24344236
   0.49888349  0.48430181  0.99634701
   0.48826375  0.23858209  0.75909676
   0.00362248  0.49586229  0.51282833
   0.50129844  0.76459438  0.74242223
   0.00494832  0.24451930  0.25418406
   0.74187143  0.75057640  0.00215435
   0.01143462  0.24644920  0.74604533
   0.74882187  0.25199010  0.51247846
   0.00018976  0.75443971  0.75367330
   0.25397301  0.49975531  0.75481078
   0.24811206  0.24275553 -0.00097651
   0.49663203  0.24929566  0.24594023
   0.73889478  0.99422830  0.25689623
   0.75417314  0.24748212  0.99228850
   0.26541651  0.75752988  0.00056437
   0.25591748  0.25013482  0.50058906
   0.24875987  0.74955095  0.49971434
   0.24904558  0.25066962  0.24934653
   0.25609981  0.00064958  0.99830833
   0.00130309  0.24514436  0.00247687
   0.75046997  0.24711252  0.25291444
   0.75002823  0.99734898 -0.00208125
   0.49089634  0.99724898  0.25059425
   0.99457042  0.49290843  0.24901925
   0.50703904  0.75614668 -0.00077110
   0.98792624  0.00297629  0.75158996
   0.74756201  0.24804908  0.74821450
   0.74762665  0.00136670  0.51059487
   0.50658279  0.24277620  0.50426923
   0.50842795  0.00089635  0.74497919
   0.00483120 -0.00135129  0.24350737
   0.50150971  0.25080686  0.99061084
   0.25823820  0.74817717  0.24907200
   0.24769332  0.50126344  0.00691004
   0.00190346  0.74781620  0.00405500
   0.74718050  0.74466310  0.25304933
   0.75298806  0.50236578  0.00347828
   0.49210233  0.50777673  0.24233323
   0.25900641  0.24505601  0.75056582
   0.25524749  0.99952674  0.50445270
   0.00001427  0.25605911  0.49972218
   0.25529458  0.75773246  0.75135185
   0.24626078  0.49987574  0.49280229
   0.99649269  0.74741451  0.49874234
   0.99762696  0.50146411  0.74955136
   0.74162532  0.75545200  0.74870796
   0.75424360  0.49926764  0.50197461
   0.50435987  0.75955982  0.49738079
   0.50198022  0.49842174  0.75250635
   0.51465262  0.02024780  0.96429989
   0.00531380  0.52368718  0.97466245
   0.49866543  0.72962307  0.25777459
   0.23411217  0.00452721  0.75242836
   0.47622075  0.98325188  0.50729737
   0.72291281  0.97795552  0.77550469
   0.00656860  0.76644881  0.24757771
   0.73380684  0.50833258  0.24623314
   0.02014640  0.00452454  0.49723145
   0.50057302  0.51794113  0.49543439
   0.74066747  0.51644841  0.75906134
   0.75077276  0.73608120  0.50087078
HECN                                    
           1
     8.719506   -0.006919   -0.008362
    -0.001263    8.772879    0.007970
     0.022951   -0.007342    8.731604
   V    Ta   Hf   N    C    Cr   W 
   7   6   7  13  19   6   6
Direct configuration=     8
   0.00898109  0.98190654  0.99766327
   0.24608972  0.98309948  0.25300073
   0.26912340  0.51760295  0.24341588
   0.49848785  0.48226252  0.99511760
   0.48520911  0.23916909  0.75805167
   0.00487806  0.49515549  0.51737536
   0.50348192  0.76461586  0.73878573
   0.00408937  0.24621196  0.25450762
   0.74167603  0.75068896  0.00176800
   0.01151302  0.24486702  0.74624209
   0.74975040  0.25359528  0.51244071
  -0.00035941  0.75568461  0.75175337
   0.25479617  0.50170711  0.75428814
   0.24669270  0.24308011  0.00090466
   0.49579748  0.24799043  0.24708762
   0.73883038  0.99248784  0.25675598
   0.75482149  0.24798697  0.99206692
   0.26616446  0.75759542  0.00026452
   0.25636504  0.25084118  0.49968352
   0.24948613  0.74963467  0.49997405
   0.24835565  0.25083945  0.24964729
   0.25519765  0.00034085  0.99968467
   0.00073869  0.24455558  0.00210806
   0.74991351  0.24707808  0.25266575
   0.74965699  0.99715237 -0.00186950
   0.49139885  0.99721396  0.25196729
   0.99360739  0.49489769  0.24985672
   0.50768114  0.75590966 -0.00220966
   0.98922807  0.00272904  0.75217588
   0.74816901  0.24823327  0.74803663
   0.75076245  0.00248113  0.50871954
   0.50671472  0.24595861  0.50414372
   0.50742229  0.00131625  0.74362838
   0.00314045  0.00037523  0.24439146
   0.50078647  0.24970927  0.99150256
   0.25927217  0.74893658  0.24958775
   0.24696766  0.50195118  0.00679630
   0.00242455  0.74796961  0.00323627
   0.74654248  0.74440781  0.25268736
   0.75391597  0.50224406  0.00357992
   0.49353431  0.50520627  0.24166866
   0.25846033  0.24488625  0.75091973
   0.25526599  0.99936915  0.50522312
  -0.00011295  0.25480656  0.50011094
   0.25573893  0.75840450  0.75091563
   0.24669494  0.50053207  0.49359552
   0.99555049  0.74807093  0.49805435
   0.99775726  0.50108015  0.75012595
   0.74314722  0.75678817  0.74821317
   0.75438239  0.49794748  0.50129640
   0.50400365  0.75972244  0.49547950
   0.50255165  0.49795914  0.75126215
   0.51378367  0.02188603  0.96567312
   0.00602331  0.52618796  0.97362843
   0.49782154  0.73003256  0.26079666
   0.23215967  0.00195295  0.75257960
   0.47547809  0.98434415  0.51035359
   0.72231734  0.97713006  0.77440708
   0.00567264  0.76390030  0.24895650
   0.73118595  0.50851383  0.24524594
   0.01759574  0.00491921  0.49463425
   0.50109568  0.51561085  0.49526701
   0.74070004  0.51544156  0.75857478
   0.75142193  0.73482403  0.50153422
HECN                                    
           1
     8.730152   -0.006787   -0.007144
    -0.001124    8.782298    0.007528
     0.024211   -0.007801    8.744423
   V    Ta   Hf   N    C    Cr   W 
   7   6   7  13  19   6   6
Direct configuration=     9
   0.01052880  0.98142416  0.99786497
   0.24576058  0.98254532  0.25359030
   0.27059061  0.51790826  0.24340359
   0.49831084  0.48134872  0.99456718
   0.48384102  0.23943210  0.75758427
   0.00543983  0.49483901  0.51941073
   0.50446045  0.76462526  0.73715747
   0.00370456  0.24697042  0.25465268
   0.74158856  0.75073938  0.00159507
   0.01154813  0.24415810  0.74633008
   0.75016628  0.25431449  0.51242377
  -0.00060515  0.75624232  0.75089401
   0.25516492  0.50258160  0.75405415
   0.24605666  0.24322566  0.00174703
   0.49542352  0.24740567  0.24760133
   0.73880158  0.99170798  0.25669312
   0.75511193  0.24821316  0.99196766
   0.26649952  0.75762475  0.00013018
   0.25656563  0.25115763  0.49927811
   0.24981140  0.74967218  0.50009021
   0.24804657  0.25091556  0.24978203
   0.25479336  0.00020260  0.00030093
   0.00048595  0.24429176  0.00194300
   0.74966429  0.24706264  0.25255450
   0.74949068  0.99706428 -0.00177467
   0.49162375  0.99719833  0.25258189
   0.99317587  0.49578907  0.25023187
   0.50796895  0.75580338 -0.00285377
   0.98981110  0.00261826  0.75243798
   0.74844092  0.24831578  0.74795693
   0.75216729  0.00298032  0.50787963
   0.50677379  0.24738455  0.50408768
   0.50697202  0.00150434  0.74302382
   0.00238297  0.00114890  0.24478756
   0.50046241  0.24921754  0.99190181
   0.25973523  0.74927686  0.24981853
   0.24664262  0.50225933  0.00674552
   0.00265806  0.74803830  0.00286969
   0.74625675  0.74429341  0.25252540
   0.75433159  0.50218951  0.00362528
   0.49417587  0.50405447  0.24137081
   0.25821569  0.24481021  0.75107824
   0.25527417  0.99929858  0.50556801
  -0.00016997  0.25424536  0.50028493
   0.25593801  0.75870559  0.75072031
   0.24688928  0.50082619  0.49395060
   0.99512854  0.74836503  0.49774652
   0.99781555  0.50090814  0.75038315
   0.74382896  0.75738682  0.74799152
   0.75444468  0.49735592  0.50099270
   0.50384435  0.75979522  0.49462840
   0.50280779  0.49775180  0.75070505
   0.51339422  0.02262015  0.96628809
   0.00634123  0.52730842  0.97316556
   0.49744312  0.73021621  0.26214970
   0.23128513  0.00079954  0.75264745
   0.47514500  0.98483372  0.51172194
   0.72205078  0.97676015  0.77391574
   0.00527117  0.76275848  0.24957374
   0.73001213  0.50859503  0.24480438
   0.01645360  0.00509595  0.49347193
   0.50132985  0.51456670  0.49519189
   0.74071472  0.51499039  0.75835691
   0.75171264  0.73426075  0.50183106
HECN                                    
           1
     8.708111   -0.004730   -0.004941
     0.000921    8.746102    0.006602
     0.026330   -0.008661    8.716708
   V    Ta   Hf   N    C    Cr   W 
   7   6   7  13  19   6   6
Direct configuration=    10
   0.01312935  0.98047339  0.99924328
   0.24448128  0.98196005  0.25494526
   0.27296252  0.51765993  0.24386532
   0.49828038  0.47931276  0.99316218
   0.48174480  0.24039370  0.75680546
   0.00553709  0.49456515  0.52282332
   0.50661212  0.76424928  0.73359516
   0.00261992  0.24934836  0.25525982
   0.74140296  0.75077792  0.00102723
   0.01163187  0.24295080  0.74639427
   0.75080833  0.25599131  0.51255224
  -0.00070623  0.75696552  0.74909536
   0.25586778  0.50440915  0.75382923
   0.24511964  0.24381226  0.00287677
   0.49513100  0.24504681  0.24866082
   0.73857276  0.99053077  0.25697602
   0.75518184  0.24837685  0.99140552
   0.26735306  0.75753624  0.00006532
   0.25617314  0.25146568  0.49875730
   0.24992062  0.74997002  0.49983286
   0.24738423  0.25127956  0.25019147
   0.25401618  0.00018704  0.00161369
   0.00006045  0.24361680  0.00170474
   0.74913614  0.24692764  0.25244543
   0.74873379  0.99671118 -0.00181515
   0.49230305  0.99729221  0.25376059
   0.99219359  0.49684959  0.25058321
   0.50857241  0.75580574 -0.00409248
   0.99096782  0.00230992  0.75241331
   0.74923450  0.24834717  0.74774324
   0.75489101  0.00418627  0.50620670
   0.50682407  0.24969963  0.50423884
   0.50647953  0.00188498  0.74236636
   0.00136097  0.00184964  0.24502847
   0.49998696  0.24831944  0.99229747
   0.26021733  0.74982722  0.25009961
   0.24610108  0.50260936  0.00641840
   0.00301429  0.74852564  0.00202141
   0.74557576  0.74364314  0.25171917
   0.75525866  0.50238058  0.00332036
   0.49446880  0.50281329  0.24092710
   0.25701768  0.24476327  0.75138775
   0.25516778  0.99943279  0.50602147
  -0.00002034  0.25316109  0.50079214
   0.25602304  0.75889572  0.75021035
   0.24777444  0.50128510  0.49442849
   0.99508492  0.74902125  0.49766569
   0.99806228  0.50069722  0.75129979
   0.74481830  0.75873162  0.74741088
   0.75532441  0.49654535  0.50016706
   0.50400097  0.76096565  0.49323573
   0.50320244  0.49750869  0.74963409
   0.51262122  0.02366212  0.96724952
   0.00656502  0.52892504  0.97229778
   0.49720815  0.73021533  0.26580038
   0.22994836 -0.00145491  0.75251183
   0.47370413  0.98541974  0.51463346
   0.72202642  0.97629096  0.77331564
   0.00519471  0.76138371  0.25092333
   0.72944086  0.50881480  0.24445392
   0.01505990  0.00521222  0.49150802
   0.50085189  0.51287491  0.49528765
   0.74077908  0.51429088  0.75731560
   0.75153991  0.73249522  0.50208488
HECN                                    
           1
     8.707727   -0.004694   -0.004903
     0.000957    8.745472    0.006586
     0.026367   -0.008676    8.716226
   V    Ta   Hf   N    C    Cr   W 
   7   6   7  13  19   6   6
Direct configuration=    11
   0.01317469  0.98045677  0.99926732
   0.24445897  0.98194984  0.25496890
   0.27300387  0.51765559  0.24387336
   0.49827986  0.47927720  0.99313766
   0.48170825  0.24041050  0.75679188
   0.00553877  0.49456037  0.52288286
   0.50664965  0.76424270  0.73353300
   0.00260100  0.24938990  0.25527042
   0.74139972  0.75077859  0.00101732
   0.01163334  0.24292971  0.74639539
   0.75081952  0.25602059  0.51255448
  -0.00070799  0.75697815  0.74906397
   0.25588002  0.50444106  0.75382531
   0.24510330  0.24382251  0.00289649
   0.49512590  0.24500562  0.24867930
   0.73856877  0.99051021  0.25698096
   0.75518306  0.24837970  0.99139571
   0.26736795  0.75753469  0.00006419
   0.25616629  0.25147107  0.49874822
   0.24992252  0.74997522  0.49982837
   0.24737267  0.25128592  0.25019862
   0.25400262  0.00018678  0.00163660
   0.00005303  0.24360502  0.00170058
   0.74912693  0.24692528  0.25244353
   0.74872059  0.99670502 -0.00181585
   0.49231488  0.99729385  0.25378116
   0.99217646  0.49686812  0.25058934
   0.50858294  0.75580578 -0.00411410
   0.99098799  0.00230453  0.75241287
   0.74924833  0.24834771  0.74773951
   0.75493850  0.00420732  0.50617750
   0.50682493  0.24974006  0.50424148
   0.50647094  0.00189162  0.74235490
   0.00134315  0.00186188  0.24503267
   0.49997867  0.24830375  0.99230438
   0.26022574  0.74983683  0.25010451
   0.24609164  0.50261547  0.00641269
   0.00302051  0.74853415  0.00200661
   0.74556389  0.74363179  0.25170511
   0.75527483  0.50238392  0.00331504
   0.49447391  0.50279161  0.24091935
   0.25699679  0.24476245  0.75139315
   0.25516592  0.99943513  0.50602938
  -0.00001773  0.25314216  0.50080099
   0.25602452  0.75889904  0.75020145
   0.24778987  0.50129311  0.49443682
   0.99508415  0.74903271  0.49766428
   0.99806658  0.50069353  0.75131578
   0.74483554  0.75875510  0.74740075
   0.75533976  0.49653119  0.50015265
   0.50400370  0.76098609  0.49321144
   0.50320932  0.49750444  0.74961540
   0.51260773  0.02368032  0.96726630
   0.00656892  0.52895328  0.97228264
   0.49720404  0.73021532  0.26586408
   0.22992506 -0.00149428  0.75250947
   0.47367899  0.98542999  0.51468427
   0.72202600  0.97628276  0.77330517
   0.00519337  0.76135971  0.25094688
   0.72943090  0.50881864  0.24444780
   0.01503561  0.00521425  0.49147376
   0.50084356  0.51284536  0.49528932
   0.74078021  0.51427866  0.75729743
   0.75153691  0.73246439  0.50208931
HECN                                    
           1
     8.717484   -0.004471   -0.004773
     0.001183    8.746160    0.007023
     0.026527   -0.008242    8.717916
   V    Ta   Hf   N    C    Cr   W 
   7   6   7  13  19   6   6
Direct configuration=    12
   0.01377248  0.98022284  0.00099627
   0.24306750  0.98244688  0.25563214
   0.27324286  0.51676658  0.24445171