  64  64   0   0
  0.1129557E+02  0.8932500E-09  0.9055600E-09  0.8937200E-09  0.5000000E-15
  1.000000000000000E-004
  CAR 
 HECN                                    
     13.02408682    -38.12038663  301      8.12226337      1.00000000
    -38.120  0.0000E+00  0.0000E+00
    -37.950  0.0000E+00  0.0000E+00
    -37.779  0.0000E+00  0.0000E+00
    -37.609  0.0000E+00  0.0000E+00
    -37.438  0.0000E+00  0.0000E+00
    -37.268  0.0000E+00  0.0000E+00
    -37.097  0.0000E+00  0.0000E+00
    -36.927  0.0000E+00  0.0000E+00
    -36.757  0.0000E+00  0.0000E+00
    -36.586  0.0000E+00  0.0000E+00
    -36.416  0.0000E+00  0.0000E+00
    -36.245  0.1210E-10  0.2062E-11
    -36.075  0.4668E-05  0.7958E-06
    -35.904  0.7324E-02  0.1249E-02
    -35.734  0.1004E+00  0.1837E-01
    -35.563  0.4824E+00  0.1006E+00
    -35.393  0.1146E+01  0.2959E+00
    -35.222  0.3674E+00  0.3586E+00
    -35.052  0.8498E-02  0.3600E+00
    -34.881  0.2494E-05  0.3600E+00
    -34.711  0.3696E-11  0.3600E+00
    -34.540  0.0000E+00  0.3600E+00
    -34.370  0.0000E+00  0.3600E+00
    -34.199  0.0000E+00  0.3600E+00
    -34.029  0.0000E+00  0.3600E+00
    -33.858  0.0000E+00  0.3600E+00
    -33.688  0.0000E+00  0.3600E+00
    -33.517  0.0000E+00  0.3600E+00
    -33.347  0.0000E+00  0.3600E+00
    -33.176  0.0000E+00  0.3600E+00
    -33.006  0.0000E+00  0.3600E+00
    -32.835  0.0000E+00  0.3600E+00
    -32.665  0.0000E+00  0.3600E+00
    -32.494  0.0000E+00  0.3600E+00
    -32.324  0.0000E+00  0.3600E+00
    -32.154  0.0000E+00  0.3600E+00
    -31.983  0.0000E+00  0.3600E+00
    -31.813  0.0000E+00  0.3600E+00
    -31.642  0.0000E+00  0.3600E+00
    -31.472  0.1577E-12  0.3600E+00
    -31.301  0.3234E-06  0.3600E+00
    -31.131  0.2824E-02  0.3605E+00
    -30.960  0.1946E+00  0.3937E+00
    -30.790  0.7377E+00  0.5194E+00
    -30.619  0.8846E+00  0.6702E+00
    -30.449  0.2869E+00  0.7191E+00
    -30.278  0.5076E-02  0.7200E+00
    -30.108  0.1039E-05  0.7200E+00
    -29.937  0.1063E-11  0.7200E+00
    -29.767  0.0000E+00  0.7200E+00
    -29.596  0.0000E+00  0.7200E+00
    -29.426  0.0000E+00  0.7200E+00
    -29.255  0.0000E+00  0.7200E+00
    -29.085  0.0000E+00  0.7200E+00
    -28.914  0.0000E+00  0.7200E+00
    -28.744  0.2605E-16  0.7200E+00
    -28.573  0.6116E-09  0.7200E+00
    -28.403  0.5792E-04  0.7200E+00
    -28.232  0.3066E-01  0.7252E+00
    -28.062  0.3333E+00  0.7821E+00
    -27.891  0.7771E+00  0.9145E+00
    -27.721  0.7647E+00  0.1045E+01
    -27.551  0.2008E+00  0.1079E+01
    -27.380  0.5002E-02  0.1080E+01
    -27.210  0.1551E-05  0.1080E+01
    -27.039  0.2139E-11  0.1080E+01
    -26.869  0.0000E+00  0.1080E+01
    -26.698  0.0000E+00  0.1080E+01
    -26.528  0.2610E-15  0.1080E+01
    -26.357  0.3311E-08  0.1080E+01
    -26.187  0.1536E-03  0.1080E+01
    -26.016  0.4398E-01  0.1088E+01
    -25.846  0.4326E+00  0.1161E+01
    -25.675  0.6793E+00  0.1277E+01
    -25.505  0.6356E+00  0.1385E+01
    -25.334  0.5115E+00  0.1473E+01
    -25.164  0.1587E+00  0.1500E+01
    -24.993  0.1914E-02  0.1500E+01
    -24.823  0.1523E-06  0.1500E+01
    -24.652  0.4771E-13  0.1500E+01
    -24.482  0.0000E+00  0.1500E+01
    -24.311  0.0000E+00  0.1500E+01
    -24.141  0.0000E+00  0.1500E+01
    -23.970  0.0000E+00  0.1500E+01
    -23.800  0.0000E+00  0.1500E+01
    -23.629  0.0000E+00  0.1500E+01
    -23.459  0.0000E+00  0.1500E+01
    -23.288  0.4811E-10  0.1500E+01
    -23.118  0.1180E-04  0.1500E+01
    -22.948  0.1412E-01  0.1502E+01
    -22.777  0.2123E+00  0.1539E+01
    -22.607  0.1282E+00  0.1560E+01
    -22.436  0.3202E+00  0.1615E+01
    -22.266  0.6858E+00  0.1732E+01
    -22.095  0.6037E+00  0.1835E+01
    -21.925  0.3836E+00  0.1900E+01
    -21.754  0.1091E+00  0.1919E+01
    -21.584  0.6446E-02  0.1920E+01
    -21.413  0.3541E-05  0.1920E+01
    -21.243  0.7902E-11  0.1920E+01
    -21.072  0.0000E+00  0.1920E+01
    -20.902  0.0000E+00  0.1920E+01
    -20.731  0.0000E+00  0.1920E+01
    -20.561  0.0000E+00  0.1920E+01
    -20.390  0.0000E+00  0.1920E+01
    -20.220  0.0000E+00  0.1920E+01
    -20.049  0.0000E+00  0.1920E+01
    -19.879  0.0000E+00  0.1920E+01
    -19.708  0.0000E+00  0.1920E+01
    -19.538  0.0000E+00  0.1920E+01
    -19.367  0.0000E+00  0.1920E+01
    -19.197  0.0000E+00  0.1920E+01
    -19.026  0.0000E+00  0.1920E+01
    -18.856  0.0000E+00  0.1920E+01
    -18.685  0.0000E+00  0.1920E+01
    -18.515  0.0000E+00  0.1920E+01
    -18.345  0.0000E+00  0.1920E+01
    -18.174  0.0000E+00  0.1920E+01
    -18.004  0.0000E+00  0.1920E+01
    -17.833  0.0000E+00  0.1920E+01
    -17.663  0.0000E+00  0.1920E+01
    -17.492  0.0000E+00  0.1920E+01
    -17.322  0.0000E+00  0.1920E+01
    -17.151  0.0000E+00  0.1920E+01
    -16.981  0.0000E+00  0.1920E+01
    -16.810  0.0000E+00  0.1920E+01
    -16.640  0.0000E+00  0.1920E+01
    -16.469  0.0000E+00  0.1920E+01
    -16.299  0.0000E+00  0.1920E+01
    -16.128  0.0000E+00  0.1920E+01
    -15.958  0.0000E+00  0.1920E+01
    -15.787  0.0000E+00  0.1920E+01
    -15.617  0.0000E+00  0.1920E+01
    -15.446  0.0000E+00  0.1920E+01
    -15.276  0.0000E+00  0.1920E+01
    -15.105  0.0000E+00  0.1920E+01
    -14.935  0.0000E+00  0.1920E+01
    -14.764  0.0000E+00  0.1920E+01
    -14.594  0.0000E+00  0.1920E+01
    -14.423  0.0000E+00  0.1920E+01
    -14.253  0.0000E+00  0.1920E+01
    -14.082  0.0000E+00  0.1920E+01
    -13.912  0.0000E+00  0.1920E+01
    -13.742  0.0000E+00  0.1920E+01
    -13.571  0.0000E+00  0.1920E+01
    -13.401  0.0000E+00  0.1920E+01
    -13.230  0.0000E+00  0.1920E+01
    -13.060  0.0000E+00  0.1920E+01
    -12.889  0.0000E+00  0.1920E+01
    -12.719  0.0000E+00  0.1920E+01
    -12.548  0.0000E+00  0.1920E+01
    -12.378  0.0000E+00  0.1920E+01
    -12.207  0.0000E+00  0.1920E+01
    -12.037  0.0000E+00  0.1920E+01
    -11.866  0.0000E+00  0.1920E+01
    -11.696  0.0000E+00  0.1920E+01
    -11.525  0.0000E+00  0.1920E+01
    -11.355  0.0000E+00  0.1920E+01
    -11.184  0.0000E+00  0.1920E+01
    -11.014  0.0000E+00  0.1920E+01
    -10.843  0.0000E+00  0.1920E+01
    -10.673  0.0000E+00  0.1920E+01
    -10.502  0.0000E+00  0.1920E+01
    -10.332  0.0000E+00  0.1920E+01
    -10.161  0.0000E+00  0.1920E+01
     -9.991  0.0000E+00  0.1920E+01
     -9.820  0.0000E+00  0.1920E+01
     -9.650  0.0000E+00  0.1920E+01
     -9.479  0.0000E+00  0.1920E+01
     -9.309  0.0000E+00  0.1920E+01
     -9.139  0.0000E+00  0.1920E+01
     -8.968  0.0000E+00  0.1920E+01
     -8.798  0.0000E+00  0.1920E+01
     -8.627  0.3520E-14  0.1920E+01
     -8.457  0.7855E-08  0.1920E+01
     -8.286  0.8161E-04  0.1920E+01
     -8.116  0.9941E-02  0.1922E+01
     -7.945  0.6799E-01  0.1933E+01
     -7.775  0.4072E-01  0.1940E+01
     -7.604  0.5573E-01  0.1950E+01
     -7.434  0.1392E+00  0.1973E+01
     -7.263  0.1464E+00  0.1998E+01
     -7.093  0.4838E-01  0.2007E+01
     -6.922  0.1367E+00  0.2030E+01
     -6.752  0.1535E+00  0.2056E+01
     -6.581  0.2009E+00  0.2090E+01
     -6.411  0.2818E+00  0.2138E+01
     -6.240  0.1899E+00  0.2171E+01
     -6.070  0.5324E-01  0.2180E+01
     -5.899  0.5526E-03  0.2180E+01
     -5.729  0.3311E-07  0.2180E+01
     -5.558  0.7456E-14  0.2180E+01
     -5.388  0.0000E+00  0.2180E+01
     -5.217  0.0000E+00  0.2180E+01
     -5.047  0.2289E-12  0.2180E+01
     -4.876  0.1543E-06  0.2180E+01
     -4.706  0.4718E-03  0.2180E+01
     -4.536  0.2001E-01  0.2183E+01
     -4.365  0.6714E-01  0.2195E+01
     -4.195  0.3422E-01  0.2201E+01
     -4.024  0.7273E-01  0.2213E+01
     -3.854  0.9419E-01  0.2229E+01
     -3.683  0.1212E+00  0.2250E+01
     -3.513  0.1641E+00  0.2278E+01
     -3.342  0.2232E+00  0.2316E+01
     -3.172  0.2346E+00  0.2356E+01
     -3.001  0.2249E+00  0.2394E+01
     -2.831  0.1934E+00  0.2427E+01
     -2.660  0.1988E+00  0.2461E+01
     -2.490  0.1845E+00  0.2493E+01
     -2.319  0.1777E+00  0.2523E+01
     -2.149  0.1296E+00  0.2545E+01
     -1.978  0.7480E-01  0.2558E+01
     -1.808  0.1323E-01  0.2560E+01
     -1.637  0.2829E-03  0.2560E+01
     -1.467  0.1186E-06  0.2560E+01
     -1.296  0.2423E-12  0.2560E+01
     -1.126  0.0000E+00  0.2560E+01
     -0.955  0.0000E+00  0.2560E+01
     -0.785  0.0000E+00  0.2560E+01
     -0.614  0.0000E+00  0.2560E+01
     -0.444  0.0000E+00  0.2560E+01
     -0.273  0.0000E+00  0.2560E+01
     -0.103  0.1592E-13  0.2560E+01
      0.067  0.2258E-07  0.2560E+01
      0.238  0.1410E-03  0.2560E+01
      0.408  0.6659E-02  0.2561E+01
      0.579  0.1085E-01  0.2563E+01
      0.749  0.5368E-01  0.2572E+01
      0.920  0.1202E+00  0.2593E+01
      1.090  0.7575E-01  0.2606E+01
      1.261  0.1741E+00  0.2635E+01
      1.431  0.1844E+00  0.2667E+01
      1.602  0.2398E+00  0.2708E+01
      1.772  0.2872E+00  0.2757E+01
      1.943  0.2954E+00  0.2807E+01
      2.113  0.2970E+00  0.2858E+01
      2.284  0.3016E+00  0.2909E+01
      2.454  0.3552E+00  0.2969E+01
      2.625  0.3374E+00  0.3027E+01
      2.795  0.3550E+00  0.3088E+01
      2.966  0.3859E+00  0.3153E+01
      3.136  0.4400E+00  0.3228E+01
      3.307  0.5660E+00  0.3325E+01
      3.477  0.6265E+00  0.3432E+01
      3.648  0.6558E+00  0.3543E+01
      3.818  0.6514E+00  0.3655E+01
      3.989  0.6240E+00  0.3761E+01
      4.159  0.5817E+00  0.3860E+01
      4.330  0.5428E+00  0.3953E+01
      4.500  0.4899E+00  0.4036E+01
      4.670  0.4313E+00  0.4110E+01
      4.841  0.4046E+00  0.4179E+01
      5.011  0.3471E+00  0.4238E+01
      5.182  0.2905E+00  0.4287E+01
      5.352  0.2763E+00  0.4334E+01
      5.523  0.2604E+00  0.4379E+01
      5.693  0.2117E+00  0.4415E+01
      5.864  0.1486E+00  0.4440E+01
      6.034  0.1503E+00  0.4466E+01
      6.205  0.8716E-01  0.4481E+01
      6.375  0.1113E+00  0.4500E+01
      6.546  0.1489E+00  0.4525E+01
      6.716  0.1897E+00  0.4557E+01
      6.887  0.1606E+00  0.4585E+01
      7.057  0.2484E+00  0.4627E+01
      7.228  0.2480E+00  0.4669E+01
      7.398  0.2288E+00  0.4708E+01
      7.569  0.2393E+00  0.4749E+01
      7.739  0.2932E+00  0.4799E+01
      7.910  0.2871E+00  0.4848E+01
      8.080  0.2918E+00  0.4898E+01
      8.251  0.2797E+00  0.4946E+01
      8.421  0.3574E+00  0.5007E+01
      8.592  0.4397E+00  0.5081E+01
      8.762  0.4931E+00  0.5166E+01
      8.933  0.5846E+00  0.5265E+01
      9.103  0.5805E+00  0.5364E+01
      9.273  0.5873E+00  0.5464E+01
      9.444  0.5571E+00  0.5559E+01
      9.614  0.5576E+00  0.5654E+01
      9.785  0.5360E+00  0.5746E+01
      9.955  0.5418E+00  0.5838E+01
     10.126  0.5555E+00  0.5933E+01
     10.296  0.5298E+00  0.6023E+01
     10.467  0.4556E+00  0.6101E+01
     10.637  0.2817E+00  0.6149E+01
     10.808  0.6390E-01  0.6160E+01
     10.978  0.1750E-02  0.6160E+01
     11.149  0.6664E-06  0.6160E+01
     11.319  0.1302E-11  0.6160E+01
     11.490  0.0000E+00  0.6160E+01
     11.660  0.0000E+00  0.6160E+01
     11.831  0.0000E+00  0.6160E+01
     12.001  0.0000E+00  0.6160E+01
     12.172  0.0000E+00  0.6160E+01
     12.342  0.0000E+00  0.6160E+01
     12.513  0.0000E+00  0.6160E+01
     12.683  0.0000E+00  0.6160E+01
     12.854  0.0000E+00  0.6160E+01
     13.024  0.0000E+00  0.6160E+01
