<?xml version="1.0" encoding="ISO-8859-1"?>
<modeling>
 <generator>
  <i name="program" type="string">vasp </i>
  <i name="version" type="string">6.4.3  </i>
  <i name="subversion" type="string">19Mar24 (build Sep 18 2024 11:30:23) complex                          parallel </i>
  <i name="platform" type="string">LinuxIFC </i>
  <i name="date" type="string">2026 07 08 </i>
  <i name="time" type="string">00:30:18 </i>
 </generator>
 <incar>
  <i type="string" name="SYSTEM">HECN</i>
  <i type="int" name="ISTART">     0</i>
  <i type="string" name="PREC">Normal</i>
  <i type="string" name="ALGO">Fast</i>
  <i type="int" name="ICHARG">     2</i>
  <i type="int" name="NELM">    60</i>
  <i type="int" name="IBRION">     2</i>
  <i name="EDIFF">      0.00001000</i>
  <i name="EDIFFG">     -0.01000000</i>
  <i type="int" name="NSW">   100</i>
  <i type="int" name="ISIF">     3</i>
  <i name="ENCUT">    400.00000000</i>
  <i name="POTIM">      0.50000000</i>
  <i type="logical" name="LREAL"> F  </i>
  <i type="int" name="ISMEAR">     0</i>
  <i name="SIGMA">      0.10000000</i>
  <i type="logical" name="LWAVE"> F  </i>
  <i type="logical" name="LCHARG"> F  </i>
 </incar>
 <primitive_cell>
  <structure name="primitive_cell" >
   <crystal>
    <varray name="basis" >
     <v>       8.93249989       0.00000000       0.00000000 </v>
     <v>       0.00575300       9.05559834       0.00000000 </v>
     <v>       0.03210180      -0.01574346       8.93712807 </v>
    </varray>
    <i name="volume">    722.91652451 </i>
    <varray name="rec_basis" >
     <v>       0.11195074      -0.00007112      -0.00040225 </v>
     <v>       0.00000000       0.11042893       0.00019453 </v>
     <v>       0.00000000       0.00000000       0.11189277 </v>
    </varray>
   </crystal>
   <varray name="positions" >
    <v>       0.99688001       0.99204997       0.99924002 </v>
    <v>       0.25398003       0.99714995       0.24912000 </v>
    <v>       0.24803003       0.50165000       0.24955001 </v>
    <v>       0.50501006       0.49745998       0.99834003 </v>
    <v>       0.50479003       0.24631001       0.74710002 </v>
    <v>       0.99427992       0.50449999       0.49779000 </v>
    <v>       0.49950005       0.75481999       0.74817004 </v>
    <v>       0.99437004       0.23617001       0.26379999 </v>
    <v>       0.75718000       0.74102998       0.01100000 </v>
    <v>       0.00201000       0.25541000       0.73894001 </v>
    <v>       0.75307001       0.26163001       0.50533002 </v>
    <v>       0.99514004       0.74492004       0.74511997 </v>
    <v>       0.25679999       0.49462002       0.74545002 </v>
    <v>       0.24788999       0.24839000       0.99657997 </v>
    <v>       0.50833000       0.25676999       0.25376001 </v>
    <v>       0.74879004       0.98787999       0.26967001 </v>
    <v>       0.75719000       0.25603001       0.99591997 </v>
    <v>       0.24762001       0.74973999       0.99974006 </v>
    <v>       0.25272001       0.24823001       0.50015003 </v>
    <v>       0.24457999       0.75048999       0.49983999 </v>
    <v>       0.24982001       0.24942998       0.24825000 </v>
    <v>       0.26146999       0.99984002       0.99295996 </v>
    <v>       0.00281000       0.25024000       0.00130000 </v>
    <v>       0.75313998       0.24617000       0.25492002 </v>
    <v>       0.74767001       0.99748000       0.01202000 </v>
    <v>       0.50714994       0.99977000       0.24673000 </v>
    <v>       0.99051999       0.48088002       0.24100998 </v>
    <v>       0.50519005       0.76130999       0.00855000 </v>
    <v>       0.98896989       0.00202000       0.73708999 </v>
    <v>       0.75744996       0.24437997       0.74896999 </v>
    <v>       0.73632001       0.00417000       0.51063000 </v>
    <v>       0.50563996       0.23264999       0.49544997 </v>
    <v>       0.50008998       0.00061000       0.73471998 </v>
    <v>       0.99720000       0.99771992       0.25899999 </v>
    <v>       0.50427997       0.24673000       0.00262000 </v>
    <v>       0.25133999       0.74958002       0.24910999 </v>
    <v>       0.24328000       0.50072997       0.99510994 </v>
    <v>       0.99837005       0.74313996       0.00460000 </v>
    <v>       0.75633000       0.73891003       0.25767000 </v>
    <v>       0.75839004       0.50315998       0.00288000 </v>
    <v>       0.50700002       0.50333002       0.25878999 </v>
    <v>       0.24900999       0.25315000       0.74854000 </v>
    <v>       0.24446000       0.99823996       0.50287998 </v>
    <v>       0.99804009       0.24229999       0.50128003 </v>
    <v>       0.24177002       0.75340997       0.75018002 </v>
    <v>       0.25841001       0.50062002       0.50129001 </v>
    <v>       0.99000004       0.76215003       0.49746000 </v>
    <v>       0.99203996       0.50055999       0.75138002 </v>
    <v>       0.75036005       0.74888000       0.74756004 </v>
    <v>       0.74036002       0.50197000       0.50067003 </v>
    <v>       0.50575006       0.74958002       0.49720000 </v>
    <v>       0.50501003       0.50217998       0.73912003 </v>
    <v>       0.51588997       0.01358000       0.98075008 </v>
    <v>       0.99841994       0.50976998       0.98613004 </v>
    <v>       0.50379003       0.73926997       0.25905001 </v>
    <v>       0.23780002       0.01082000       0.74607998 </v>
    <v>       0.47957999       0.98308000       0.49717999 </v>
    <v>       0.74279003       0.97869994       0.76450995 </v>
    <v>       0.99864998       0.77573999       0.26102000 </v>
    <v>       0.73551001       0.51468004       0.26666001 </v>
    <v>       0.02362000       0.99783001       0.49557002 </v>
    <v>       0.50539000       0.52833005       0.49917999 </v>
    <v>       0.73876003       0.52828003       0.73814999 </v>
    <v>       0.75400003       0.72937999       0.49116997 </v>
   </varray>
  </structure>
  <varray name="primitive_index" >
   <v type="int" >        1 </v>
   <v type="int" >        2 </v>
   <v type="int" >        3 </v>
   <v type="int" >        4 </v>
   <v type="int" >        5 </v>
   <v type="int" >        6 </v>
   <v type="int" >        7 </v>
   <v type="int" >        8 </v>
   <v type="int" >        9 </v>
   <v type="int" >       10 </v>
   <v type="int" >       11 </v>
   <v type="int" >       12 </v>
   <v type="int" >       13 </v>
   <v type="int" >       14 </v>
   <v type="int" >       15 </v>
   <v type="int" >       16 </v>
   <v type="int" >       17 </v>
   <v type="int" >       18 </v>
   <v type="int" >       19 </v>
   <v type="int" >       20 </v>
   <v type="int" >       21 </v>
   <v type="int" >       22 </v>
   <v type="int" >       23 </v>
   <v type="int" >       24 </v>
   <v type="int" >       25 </v>
   <v type="int" >       26 </v>
   <v type="int" >       27 </v>
   <v type="int" >       28 </v>
   <v type="int" >       29 </v>
   <v type="int" >       30 </v>
   <v type="int" >       31 </v>
   <v type="int" >       32 </v>
   <v type="int" >       33 </v>
   <v type="int" >       34 </v>
   <v type="int" >       35 </v>
   <v type="int" >       36 </v>
   <v type="int" >       37 </v>
   <v type="int" >       38 </v>
   <v type="int" >       39 </v>
   <v type="int" >       40 </v>
   <v type="int" >       41 </v>
   <v type="int" >       42 </v>
   <v type="int" >       43 </v>
   <v type="int" >       44 </v>
   <v type="int" >       45 </v>
   <v type="int" >       46 </v>
   <v type="int" >       47 </v>
   <v type="int" >       48 </v>
   <v type="int" >       49 </v>
   <v type="int" >       50 </v>
   <v type="int" >       51 </v>
   <v type="int" >       52 </v>
   <v type="int" >       53 </v>
   <v type="int" >       54 </v>
   <v type="int" >       55 </v>
   <v type="int" >       56 </v>
   <v type="int" >       57 </v>
   <v type="int" >       58 </v>
   <v type="int" >       59 </v>
   <v type="int" >       60 </v>
   <v type="int" >       61 </v>
   <v type="int" >       62 </v>
   <v type="int" >       63 </v>
   <v type="int" >       64 </v>
  </varray>
 </primitive_cell>
 <kpoints>
  <generation param="Gamma">
   <v type="int" name="divisions">       3        3        3 </v>
   <v name="usershift">      0.00000000       0.00000000       0.00000000 </v>
   <v name="genvec1">      0.33333333      -0.00000000      -0.00000000 </v>
   <v name="genvec2">      0.00000000       0.33333333      -0.00000000 </v>
   <v name="genvec3">      0.00000000       0.00000000       0.33333333 </v>
   <v name="shift">      0.00000000       0.00000000       0.00000000 </v>
  </generation>
  <varray name="kpointlist" >
   <v>       0.00000000       0.00000000       0.00000000 </v>
   <v>       0.33333333      -0.00000000      -0.00000000 </v>
   <v>       0.00000000       0.33333333      -0.00000000 </v>
   <v>       0.33333333       0.33333333      -0.00000000 </v>
   <v>      -0.33333333       0.33333333      -0.00000000 </v>
   <v>       0.00000000       0.00000000       0.33333333 </v>
   <v>       0.33333333      -0.00000000       0.33333333 </v>
   <v>      -0.33333333       0.00000000       0.33333333 </v>
   <v>       0.00000000       0.33333333       0.33333333 </v>
   <v>       0.33333333       0.33333333       0.33333333 </v>
   <v>      -0.33333333       0.33333333       0.33333333 </v>
   <v>       0.00000000      -0.33333333       0.33333333 </v>
   <v>       0.33333333      -0.33333333       0.33333333 </v>
   <v>      -0.33333333      -0.33333333       0.33333333 </v>
  </varray>
  <varray name="weights" >
   <v>       0.03703704 </v>
   <v>       0.07407407 </v>
   <v>       0.07407407 </v>
   <v>       0.07407407 </v>
   <v>       0.07407407 </v>
   <v>       0.07407407 </v>
   <v>       0.07407407 </v>
   <v>       0.07407407 </v>
   <v>       0.07407407 </v>
   <v>       0.07407407 </v>
   <v>       0.07407407 </v>
   <v>       0.07407407 </v>
   <v>       0.07407407 </v>
   <v>       0.07407407 </v>
  </varray>
 </kpoints>
 <parameters>
  <separator name="general" >
   <i type="string" name="SYSTEM">HECN</i>
   <i type="logical" name="LCOMPAT"> F  </i>
  </separator>
  <separator name="electronic" >
   <i type="string" name="PREC">normal</i>
   <i name="ENMAX">    400.00000000</i>
   <i name="ENAUG">    644.87300000</i>
   <i name="EDIFF">      0.00001000</i>
   <i type="int" name="IALGO">    68</i>
   <i type="int" name="IWAVPR">    11</i>
   <i type="int" name="NBANDS">   308</i>
   <i type="int" name="NBANDSLOW">    -1</i>
   <i type="int" name="NBANDSHIGH">    -1</i>
   <i name="NELECT">    491.00000000</i>
   <i type="int" name="TURBO">     0</i>
   <i type="int" name="IRESTART">     0</i>
   <i type="int" name="NREBOOT">     0</i>
   <i type="int" name="NMIN">     0</i>
   <i name="EREF">      0.00000000</i>
   <separator name="electronic smearing" >
    <i type="int" name="ISMEAR">     0</i>
    <i name="SIGMA">      0.10000000</i>
    <i name="KSPACING">      0.50000000</i>
    <i type="logical" name="KGAMMA"> T  </i>
    <i type="logical" name="KBLOWUP"> T  </i>
   </separator>
   <separator name="electronic projectors" >
    <i type="logical" name="LREAL"> F  </i>
    <v name="ROPT">      0.00000000      0.00000000      0.00000000      0.00000000      0.00000000      0.00000000      0.00000000</v>
    <i type="int" name="LMAXPAW">  -100</i>
    <i type="int" name="LMAXMIX">     2</i>
    <i type="logical" name="NLSPLINE"> F  </i>
   </separator>
   <separator name="electronic startup" >
    <i type="int" name="ISTART">     0</i>
    <i type="int" name="ICHARG">     2</i>
    <i type="int" name="INIWAV">     1</i>
   </separator>
   <separator name="electronic spin" >
    <i type="int" name="ISPIN">     1</i>
    <i type="logical" name="LNONCOLLINEAR"> F  </i>
    <v name="MAGMOM">      1.00000000      1.00000000      1.00000000      1.00000000      1.00000000      1.00000000      1.00000000      1.00000000      1.00000000      1.00000000      1.00000000      1.00000000      1.00000000      1.00000000      1.00000000      1.00000000      1.00000000      1.00000000      1.00000000      1.00000000
      1.00000000      1.00000000      1.00000000      1.00000000      1.00000000      1.00000000      1.00000000      1.00000000      1.00000000      1.00000000      1.00000000      1.00000000      1.00000000      1.00000000      1.00000000      1.00000000      1.00000000      1.00000000      1.00000000      1.00000000
      1.00000000      1.00000000      1.00000000      1.00000000      1.00000000      1.00000000      1.00000000      1.00000000      1.00000000      1.00000000      1.00000000      1.00000000      1.00000000      1.00000000      1.00000000      1.00000000      1.00000000      1.00000000      1.00000000      1.00000000
      1.00000000      1.00000000      1.00000000      1.00000000</v>
    <i name="NUPDOWN">     -1.00000000</i>
    <i type="logical" name="LSORBIT"> F  </i>
    <v name="SAXIS">      0.00000000      0.00000000      1.00000000</v>
    <i type="logical" name="LSPIRAL"> F  </i>
    <v name="QSPIRAL">      0.00000000      0.00000000      0.00000000</v>
    <i type="logical" name="LZEROZ"> F  </i>
   </separator>
   <separator name="electronic exchange-correlation" >
    <i type="logical" name="LASPH"> F  </i>
   </separator>
   <separator name="electronic convergence" >
    <i type="int" name="NELM">    60</i>
    <i type="int" name="NELMDL">    -5</i>
    <i type="int" name="NELMIN">     2</i>
    <i name="ENINI">    400.00000000</i>
    <separator name="electronic convergence detail" >
     <i type="logical" name="LDIAG"> T  </i>
     <i type="logical" name="LSUBROT"> F  </i>
     <i name="WEIMIN">      0.00100000</i>
     <i name="EBREAK">      0.00000001</i>
     <i name="DEPER">      0.30000000</i>
     <i type="int" name="NRMM">     4</i>
     <i name="TIME">      0.40000000</i>
    </separator>
   </separator>
   <separator name="electronic mixer" >
    <i name="AMIX">      0.40000000</i>
    <i name="BMIX">      1.00000000</i>
    <i name="AMIN">      0.10000000</i>
    <i name="AMIX_MAG">      1.60000000</i>
    <i name="BMIX_MAG">      1.00000000</i>
    <separator name="electronic mixer details" >
     <i type="int" name="IMIX">     4</i>
     <i type="logical" name="MIXFIRST"> F  </i>
     <i type="int" name="MAXMIX">   -45</i>
     <i name="WC">    100.00000000</i>
     <i type="int" name="INIMIX">     1</i>
     <i type="int" name="MIXPRE">     1</i>
     <i type="int" name="MREMOVE">     5</i>
    </separator>
   </separator>
   <separator name="electronic dipolcorrection" >
    <i type="logical" name="LDIPOL"> F  </i>
    <i type="logical" name="LMONO"> F  </i>
    <i type="int" name="IDIPOL">     0</i>
    <i name="EPSILON">      1.00000000</i>
    <v name="DIPOL">   -100.00000000   -100.00000000   -100.00000000</v>
    <i name="EFIELD">      0.00000000</i>
    <i type="logical" name="LVACPOTAV"> F  </i>
   </separator>
  </separator>
  <separator name="grids" >
   <i type="int" name="NGX">    48</i>
   <i type="int" name="NGY">    48</i>
   <i type="int" name="NGZ">    48</i>
   <i type="int" name="NGXF">    96</i>
   <i type="int" name="NGYF">    96</i>
   <i type="int" name="NGZF">    96</i>
   <i type="logical" name="ADDGRID"> F  </i>
  </separator>
  <separator name="ionic" >
   <i type="int" name="NSW">   100</i>
   <i type="int" name="IBRION">     2</i>
   <i type="int" name="MDALGO">     0</i>
   <i type="int" name="ISIF">     3</i>
   <i name="PSTRESS">      0.00000000</i>
   <i name="EDIFFG">     -0.01000000</i>
   <i type="int" name="NFREE">     1</i>
   <i name="POTIM">      0.50000000</i>
   <i name="SMASS">     -3.00000000</i>
   <i name="SCALEE">      1.00000000</i>
  </separator>
  <separator name="ionic md" >
   <i name="TEBEG">      0.00010000</i>
   <i name="TEEND">      0.00010000</i>
   <i type="int" name="NBLOCK">     1</i>
   <i type="int" name="KBLOCK">   100</i>
   <i type="int" name="NPACO">   256</i>
   <i name="APACO">     10.00000000</i>
  </separator>
  <separator name="symmetry" >
   <i type="int" name="ISYM">     2</i>
   <i name="SYMPREC">      0.00001000</i>
  </separator>
  <separator name="dos" >
   <i type="int" name="LORBIT">     0</i>
   <v name="RWIGS">     -1.00000000     -1.00000000     -1.00000000     -1.00000000     -1.00000000     -1.00000000     -1.00000000</v>
   <i type="int" name="NEDOS">   301</i>
   <i name="EMIN">     10.00000000</i>
   <i name="EMAX">    -10.00000000</i>
   <i name="EFERMI">      0.00000000</i>
  </separator>
  <separator name="writing" >
   <i type="int" name="NWRITE">     2</i>
   <i type="logical" name="LWAVE"> F  </i>
   <i type="logical" name="LDOWNSAMPLE"> F  </i>
   <i type="logical" name="LCHARG"> F  </i>
   <i type="logical" name="LPARD"> F  </i>
   <i type="logical" name="LVTOT"> F  </i>
   <i type="logical" name="LVHAR"> F  </i>
   <i type="logical" name="LELF"> F  </i>
   <i type="logical" name="LOPTICS"> F  </i>
   <v name="STM">      0.00000000      0.00000000      0.00000000      0.00000000      0.00000000      0.00000000      0.00000000</v>
  </separator>
  <separator name="performance" >
   <i type="int" name="NPAR">    28</i>
   <i type="int" name="NSIM">     4</i>
   <i type="int" name="NBLK">    -1</i>
   <i type="logical" name="LPLANE"> T  </i>
   <i type="logical" name="LSCALAPACK"> T  </i>
   <i type="logical" name="LSCAAWARE"> F  </i>
   <i type="logical" name="LSCALU"> F  </i>
   <i type="logical" name="LASYNC"> F  </i>
   <i type="logical" name="LORBITALREAL"> F  </i>
  </separator>
  <separator name="miscellaneous" >
   <i type="int" name="IDIOT">     3</i>
   <i type="int" name="PHON_NSTRUCT">    -1</i>
   <i type="logical" name="LMUSIC"> F  </i>
   <v name="POMASS">    178.49000000     50.94100000     47.88000000     14.00100000     12.01100000     51.99600000     95.94000000</v>
   <v name="DARWINR">      0.00000000      0.00000000      0.00000000      0.00000000      0.00000000      0.00000000      0.00000000</v>
   <v name="DARWINV">      1.00000000      1.00000000      1.00000000      1.00000000      1.00000000      1.00000000      1.00000000</v>
   <i type="logical" name="LCORR"> T  </i>
  </separator>
  <i type="logical" name="GGA_COMPAT"> T  </i>
  <i type="logical" name="LBERRY"> F  </i>
  <i type="int" name="ICORELEVEL">     0</i>
  <i type="logical" name="LDAU"> F  </i>
  <i type="int" name="I_CONSTRAINED_M">     0</i>
  <separator name="electronic exchange-correlation" >
   <i type="string" name="GGA    ">PE</i>
   <i type="string" name="XC_C">1</i>
   <i type="int" name="VOSKOWN">     0</i>
   <i type="logical" name="LHFCALC"> F  </i>
   <i type="string" name="PRECFOCK"></i>
   <i type="logical" name="LSYMGRAD"> F  </i>
   <i type="logical" name="LHFONE"> F  </i>
   <i type="logical" name="LRHFCALC"> F  </i>
   <i type="logical" name="LTHOMAS"> F  </i>
   <i type="logical" name="LMODELHF"> F  </i>
   <i type="logical" name="LFOCKACE"> F  </i>
   <i name="ENCUT4O">     -1.00000000</i>
   <i type="int" name="EXXOEP">     0</i>
   <i type="int" name="FOURORBIT">     0</i>
   <i name="AEXX">      0.00000000</i>
   <i name="HFALPHA">      0.00000000</i>
   <i name="MCALPHA">      0.00000000</i>
   <i name="ALDAX">      1.00000000</i>
   <i name="AGGAX">      1.00000000</i>
   <i name="AMGGAX">      1.00000000</i>
   <i name="ALDAC">      1.00000000</i>
   <i name="AGGAC">      1.00000000</i>
   <i name="AMGGAC">      1.00000000</i>
   <i type="int" name="NKREDX">     1</i>
   <i type="int" name="NKREDY">     1</i>
   <i type="int" name="NKREDZ">     1</i>
   <i type="logical" name="SHIFTRED"> F  </i>
   <i type="logical" name="ODDONLY"> F  </i>
   <i type="logical" name="EVENONLY"> F  </i>
   <i type="int" name="LMAXFOCK">     0</i>
   <i type="int" name="NMAXFOCKAE">     0</i>
   <i type="logical" name="LFOCKAEDFT"> F  </i>
   <i name="HFSCREEN">      0.00000000</i>
   <i name="HFSCREENC">      0.00000000</i>
   <i type="int" name="NBANDSGWLOW">     0</i>
  </separator>
  <separator name="vdW DFT" >
   <i type="logical" name="LUSE_VDW"> F  </i>
   <i type="int" name="IVDW_NL">    -1</i>
   <i type="logical" name="LSPIN_VDW"> F  </i>
   <i name="ZAB_VDW">     -0.84910000</i>
   <i name="GAMMA_VDW">      1.39626340</i>
   <i name="ALPHA_VDW">      0.00000000</i>
   <i name="PARAM1">      0.12340000</i>
   <i name="PARAM2">      1.00000000</i>
   <i name="BPARAM">      6.30000000</i>
   <i name="CPARAM">      0.00930000</i>
  </separator>
  <separator name="model GW" >
   <i type="int" name="MODEL_GW">     0</i>
   <i name="MODEL_EPS0">      6.77734242</i>
   <i name="MODEL_ALPHA">      1.00000000</i>
  </separator>
  <separator name="linear response parameters" >
   <i type="logical" name="LEPSILON"> F  </i>
   <i type="logical" name="LRPA"> F  </i>
   <i type="logical" name="LNABLA"> F  </i>
   <i type="logical" name="LVEL"> F  </i>
   <i name="CSHIFT">      0.10000000</i>
   <i name="OMEGAMAX">     -1.00000000</i>
   <i name="DEG_THRESHOLD">      0.00200000</i>
   <i name="RTIME">     -0.10000000</i>
   <i name="WPLASMAI">      0.00000000</i>
   <v name="DFIELD">      0.00000000      0.00000000      0.00000000</v>
   <v name="WPLASMA">      0.00000000      0.00000000      0.00000000      0.00000000      0.00000000      0.00000000      0.00000000      0.00000000      0.00000000</v>
  </separator>
  <separator name="orbital magnetization" >
   <i type="logical" name="NUCIND"> F  </i>
   <v name="MAGPOS">      0.00000000      0.00000000      0.00000000</v>
   <i type="logical" name="LNICSALL"> T  </i>
   <i type="logical" name="ORBITALMAG"> F  </i>
   <i type="logical" name="LMAGBLOCH"> F  </i>
   <i type="logical" name="LCHIMAG"> F  </i>
   <i type="logical" name="LGAUGE"> T  </i>
   <i type="int" name="MAGATOM">     0</i>
   <v name="MAGDIPOL">      0.00000000      0.00000000      0.00000000</v>
   <v name="AVECCONST">      0.00000000      0.00000000      0.00000000</v>
  </separator>
  <separator name="response functions" >
   <i type="logical" name="LALL_IN_ONE"> F  </i>
   <i type="int" name="IALL_IN_ONE">    -1</i>
   <i type="int" name="NBANDS_WAVE">    -1</i>
   <i type="logical" name="LFINITE_TEMPERATURE"> F  </i>
   <i type="logical" name="LADDER"> F  </i>
   <i type="logical" name="LRPAFORCE"> F  </i>
   <i type="logical" name="LFXC"> F  </i>
   <i type="logical" name="LHARTREE"> T  </i>
   <i type="int" name="IBSE">     0</i>
   <v type="int" name="KPOINT">    -1     0     0     0</v>
   <i type="logical" name="LTCTC"> F  </i>
   <i type="logical" name="LTCTE"> F  </i>
   <i type="logical" name="LTETE"> F  </i>
   <i type="logical" name="LTRIPLET"> F  </i>
   <i type="logical" name="LFXCEPS"> F  </i>
   <i type="logical" name="LFXHEG"> F  </i>
   <i type="int" name="NATURALO">     2</i>
   <i type="logical" name="LHOLEGF"> F  </i>
   <i type="logical" name="L2ORDER"> F  </i>
   <i type="logical" name="LDMP1"> F  </i>
   <i type="logical" name="LMP2LT"> F  </i>
   <i type="logical" name="LSMP2LT"> F  </i>
   <i type="logical" name="LGWLF"> F  </i>
   <i name="ENCUTGW">     -1.60000002</i>
   <i name="ENCUTGWSOFT">     -1.60000002</i>
   <i name="ENCUTLF">     -1.00000000</i>
   <i type="logical" name="ESF_SPLINES"> F  </i>
   <i name="ESF_CONV">      0.01000000</i>
   <i type="int" name="ESF_NINTER">    15</i>
   <i type="int" name="LMAXMP2">    -1</i>
   <i name="SCISSOR">      0.00000000</i>
   <i type="int" name="NOMEGA">     0</i>
   <i type="int" name="NOMEGAR">     0</i>
   <i type="int" name="NBANDSGW">    -1</i>
   <i type="int" name="NBANDSO">    -1</i>
   <i type="int" name="NBANDSV">    -1</i>
   <i type="int" name="NELMGW">     1</i>
   <i type="int" name="NELMHF">     1</i>
   <i type="int" name="DIM">     3</i>
   <i type="int" name="IESPILON">     4</i>
   <i type="int" name="ANTIRES">     0</i>
   <i name="OMEGAMAX">    -30.00000000</i>
   <i name="OMEGAMIN">    -30.00000000</i>
   <i name="OMEGATL">   -200.00000000</i>
   <i type="int" name="OMEGAGRID">     0</i>
   <i name="CSHIFT">     -0.10000000</i>
   <i type="logical" name="LSELFENERGY"> F  </i>
   <i type="logical" name="LSPECTRAL"> F  </i>
   <i type="logical" name="LSPECTRALGW"> F  </i>
   <i type="logical" name="LSINGLES"> F  </i>
   <i type="logical" name="LFERMIGW"> F  </i>
   <i type="logical" name="ODDONLYGW"> F  </i>
   <i type="logical" name="EVENONLYGW"> F  </i>
   <i type="int" name="NKREDLFX">     1</i>
   <i type="int" name="NKREDLFY">     1</i>
   <i type="int" name="NKREDLFZ">     1</i>
   <i type="int" name="MAXMEM">  2800</i>
   <i type="int" name="TELESCOPE">     0</i>
   <i type="int" name="NTAUPAR">    -1</i>
   <i type="int" name="NOMEGAPAR">    -1</i>
   <i name="DAMP_NEWTON">      0.80000001</i>
   <i name="LAMBDA">      1.00000000</i>
  </separator>
  <separator name="External order field" >
   <i name="OFIELD_KAPPA">      0.00000000</i>
   <v name="OFIELD_K">      0.00000000      0.00000000      0.00000000</v>
   <i name="OFIELD_Q6_NEAR">      0.00000000</i>
   <i name="OFIELD_Q6_FAR">      0.00000000</i>
   <i name="OFIELD_A">      0.00000000</i>
  </separator>
  <separator name="optional k-points parameters" >
   <i type="int" name="KPOINTS_OPT_MODE">     1</i>
   <i type="logical" name="LKPOINTS_OPT"> F  </i>
  </separator>
  <separator name="solvation model" >
   <i type="logical" name="LSOL"> F  </i>
  </separator>
 </parameters>
 <atominfo>
  <atoms>      64 </atoms>
  <types>       7 </types>
  <array name="atoms" >
   <dimension dim="1">ion</dimension>
   <field type="string">element</field>
   <field type="int">atomtype</field>
   <set>
    <rc><c>Hf</c><c>   1</c></rc>
    <rc><c>Hf</c><c>   1</c></rc>
    <rc><c>Hf</c><c>   1</c></rc>
    <rc><c>Hf</c><c>   1</c></rc>
    <rc><c>Hf</c><c>   1</c></rc>
    <rc><c>Hf</c><c>   1</c></rc>
    <rc><c>Hf</c><c>   1</c></rc>
    <rc><c>V </c><c>   2</c></rc>
    <rc><c>V </c><c>   2</c></rc>
    <rc><c>V </c><c>   2</c></rc>
    <rc><c>V </c><c>   2</c></rc>
    <rc><c>V </c><c>   2</c></rc>
    <rc><c>V </c><c>   2</c></rc>
    <rc><c>Ti</c><c>   3</c></rc>
    <rc><c>Ti</c><c>   3</c></rc>
    <rc><c>Ti</c><c>   3</c></rc>
    <rc><c>Ti</c><c>   3</c></rc>
    <rc><c>Ti</c><c>   3</c></rc>
    <rc><c>Ti</c><c>   3</c></rc>
    <rc><c>Ti</c><c>   3</c></rc>
    <rc><c>N </c><c>   4</c></rc>
    <rc><c>N </c><c>   4</c></rc>
    <rc><c>N </c><c>   4</c></rc>
    <rc><c>N </c><c>   4</c></rc>
    <rc><c>N </c><c>   4</c></rc>
    <rc><c>N </c><c>   4</c></rc>
    <rc><c>N </c><c>   4</c></rc>
    <rc><c>N </c><c>   4</c></rc>
    <rc><c>N </c><c>   4</c></rc>
    <rc><c>N </c><c>   4</c></rc>
    <rc><c>N </c><c>   4</c></rc>
    <rc><c>N </c><c>   4</c></rc>
    <rc><c>N </c><c>   4</c></rc>
    <rc><c>C </c><c>   5</c></rc>
    <rc><c>C </c><c>   5</c></rc>
    <rc><c>C </c><c>   5</c></rc>
    <rc><c>C </c><c>   5</c></rc>
    <rc><c>C </c><c>   5</c></rc>
    <rc><c>C </c><c>   5</c></rc>
    <rc><c>C </c><c>   5</c></rc>
    <rc><c>C </c><c>   5</c></rc>
    <rc><c>C </c><c>   5</c></rc>
    <rc><c>C </c><c>   5</c></rc>
    <rc><c>C </c><c>   5</c></rc>
    <rc><c>C </c><c>   5</c></rc>
    <rc><c>C </c><c>   5</c></rc>
    <rc><c>C </c><c>   5</c></rc>
    <rc><c>C </c><c>   5</c></rc>
    <rc><c>C </c><c>   5</c></rc>
    <rc><c>C </c><c>   5</c></rc>
    <rc><c>C </c><c>   5</c></rc>
    <rc><c>C </c><c>   5</c></rc>
    <rc><c>Cr</c><c>   6</c></rc>
    <rc><c>Cr</c><c>   6</c></rc>
    <rc><c>Cr</c><c>   6</c></rc>
    <rc><c>Cr</c><c>   6</c></rc>
    <rc><c>Cr</c><c>   6</c></rc>
    <rc><c>Cr</c><c>   6</c></rc>
    <rc><c>Mo</c><c>   7</c></rc>
    <rc><c>Mo</c><c>   7</c></rc>
    <rc><c>Mo</c><c>   7</c></rc>
    <rc><c>Mo</c><c>   7</c></rc>
    <rc><c>Mo</c><c>   7</c></rc>
    <rc><c>Mo</c><c>   7</c></rc>
   </set>
  </array>
  <array name="atomtypes" >
   <dimension dim="1">type</dimension>
   <field type="int">atomspertype</field>
   <field type="string">element</field>
   <field>mass</field>
   <field>valence</field>
   <field type="string">pseudopotential</field>
   <set>
    <rc><c>   7</c><c>Hf</c><c>    178.49000000</c><c>     10.00000000</c><c> PAW_PBE Hf_pv 06Sep2000                </c></rc>
    <rc><c>   6</c><c>V </c><c>     50.94100000</c><c>     11.00000000</c><c> PAW_PBE V_pv 07Sep2000                 </c></rc>
    <rc><c>   7</c><c>Ti</c><c>     47.88000000</c><c>     10.00000000</c><c> PAW_PBE Ti_pv 07Sep2000                </c></rc>
    <rc><c>  13</c><c>N </c><c>     14.00100000</c><c>      5.00000000</c><c> PAW_PBE N 08Apr2002                    </c></rc>
    <rc><c>  19</c><c>C </c><c>     12.01100000</c><c>      4.00000000</c><c> PAW_PBE C 08Apr2002                    </c></rc>
    <rc><c>   6</c><c>Cr</c><c>     51.99600000</c><c>     12.00000000</c><c> PAW_PBE Cr_pv 07Sep2000                </c></rc>
    <rc><c>   6</c><c>Mo</c><c>     95.94000000</c><c>     12.00000000</c><c> PAW_PBE Mo_pv 08Apr2002                </c></rc>
   </set>
  </array>
 </atominfo>
 <structure name="initialpos" >
  <crystal>
   <varray name="basis" >
    <v>       8.93249989       0.00000000       0.00000000 </v>
    <v>       0.00575300       9.05559834       0.00000000 </v>
    <v>       0.03210180      -0.01574346       8.93712807 </v>
   </varray>
   <i name="volume">    722.91652451 </i>
   <varray name="rec_basis" >
    <v>       0.11195074      -0.00007112      -0.00040225 </v>
    <v>       0.00000000       0.11042893       0.00019453 </v>
    <v>       0.00000000       0.00000000       0.11189277 </v>
   </varray>
  </crystal>
  <varray name="positions" >
   <v>       0.99688001       0.99204997       0.99924002 </v>
   <v>       0.25398003       0.99714995       0.24912000 </v>
   <v>       0.24803003       0.50165000       0.24955001 </v>
   <v>       0.50501006       0.49745998       0.99834003 </v>
   <v>       0.50479003       0.24631001       0.74710002 </v>
   <v>       0.99427992       0.50449999       0.49779000 </v>
   <v>       0.49950005       0.75481999       0.74817004 </v>
   <v>       0.99437004       0.23617001       0.26379999 </v>
   <v>       0.75718000       0.74102998       0.01100000 </v>
   <v>       0.00201000       0.25541000       0.73894001 </v>
   <v>       0.75307001       0.26163001       0.50533002 </v>
   <v>       0.99514004       0.74492004       0.74511997 </v>
   <v>       0.25679999       0.49462002       0.74545002 </v>
   <v>       0.24788999       0.24839000       0.99657997 </v>
   <v>       0.50833000       0.25676999       0.25376001 </v>
   <v>       0.74879004       0.98787999       0.26967001 </v>
   <v>       0.75719000       0.25603001       0.99591997 </v>
   <v>       0.24762001       0.74973999       0.99974006 </v>
   <v>       0.25272001       0.24823001       0.50015003 </v>
   <v>       0.24457999       0.75048999       0.49983999 </v>
   <v>       0.24982001       0.24942998       0.24825000 </v>
   <v>       0.26146999       0.99984002       0.99295996 </v>
   <v>       0.00281000       0.25024000       0.00130000 </v>
   <v>       0.75313998       0.24617000       0.25492002 </v>
   <v>       0.74767001       0.99748000       0.01202000 </v>
   <v>       0.50714994       0.99977000       0.24673000 </v>
   <v>       0.99051999       0.48088002       0.24100998 </v>
   <v>       0.50519005       0.76130999       0.00855000 </v>
   <v>       0.98896989       0.00202000       0.73708999 </v>
   <v>       0.75744996       0.24437997       0.74896999 </v>
   <v>       0.73632001       0.00417000       0.51063000 </v>
   <v>       0.50563996       0.23264999       0.49544997 </v>
   <v>       0.50008998       0.00061000       0.73471998 </v>
   <v>       0.99720000       0.99771992       0.25899999 </v>
   <v>       0.50427997       0.24673000       0.00262000 </v>
   <v>       0.25133999       0.74958002       0.24910999 </v>
   <v>       0.24328000       0.50072997       0.99510994 </v>
   <v>       0.99837005       0.74313996       0.00460000 </v>
   <v>       0.75633000       0.73891003       0.25767000 </v>
   <v>       0.75839004       0.50315998       0.00288000 </v>
   <v>       0.50700002       0.50333002       0.25878999 </v>
   <v>       0.24900999       0.25315000       0.74854000 </v>
   <v>       0.24446000       0.99823996       0.50287998 </v>
   <v>       0.99804009       0.24229999       0.50128003 </v>
   <v>       0.24177002       0.75340997       0.75018002 </v>
   <v>       0.25841001       0.50062002       0.50129001 </v>
   <v>       0.99000004       0.76215003       0.49746000 </v>
   <v>       0.99203996       0.50055999       0.75138002 </v>
   <v>       0.75036005       0.74888000       0.74756004 </v>
   <v>       0.74036002       0.50197000       0.50067003 </v>
   <v>       0.50575006       0.74958002       0.49720000 </v>
   <v>       0.50501003       0.50217998       0.73912003 </v>
   <v>       0.51588997       0.01358000       0.98075008 </v>
   <v>       0.99841994       0.50976998       0.98613004 </v>
   <v>       0.50379003       0.73926997       0.25905001 </v>
   <v>       0.23780002       0.01082000       0.74607998 </v>
   <v>       0.47957999       0.98308000       0.49717999 </v>
   <v>       0.74279003       0.97869994       0.76450995 </v>
   <v>       0.99864998       0.77573999       0.26102000 </v>
   <v>       0.73551001       0.51468004       0.26666001 </v>
   <v>       0.02362000       0.99783001       0.49557002 </v>
   <v>       0.50539000       0.52833005       0.49917999 </v>
   <v>       0.73876003       0.52828003       0.73814999 </v>
   <v>       0.75400003       0.72937999       0.49116997 </v>
  </varray>
 </structure>
 <calculation>
  <scstep>
   <time name="dav">   19.73   19.97</time>
   <time name="total">   19.76   20.02</time>
   <energy>
    <i name="alphaZ">   3615.96863149 </i>
    <i name="ewald"> -37925.51269881 </i>
    <i name="hartreedc">  -8460.46499825 </i>
    <i name="XCdc">   1639.90061074 </i>
    <i name="pawpsdc">  29064.33479689 </i>
    <i name="pawaedc"> -29037.60424625 </i>
    <i name="eentropy">     -0.09806264 </i>
    <i name="bandstr">   1992.05274633 </i>
    <i name="atom">  45066.40644132 </i>
    <i name="e_fr_energy">   5954.98322082 </i>
    <i name="e_wo_entrp">   5955.08128345 </i>
    <i name="e_0_energy">   5955.03225213 </i>
   </energy>
  </scstep>
  <scstep>
   <time name="dav">   19.95   20.65</time>
   <time name="total">   19.95   20.65</time>
   <energy>
    <i name="e_fr_energy">    229.78541355 </i>
    <i name="e_wo_entrp">    229.97675327 </i>
    <i name="e_0_energy">    229.88108341 </i>
   </energy>
  </scstep>
  <scstep>
   <time name="dav">   26.64   27.17</time>
   <time name="total">   26.64   27.17</time>
   <energy>
    <i name="e_fr_energy">   -686.01377342 </i>
    <i name="e_wo_entrp">   -685.89748102 </i>
    <i name="e_0_energy">   -685.95562722 </i>
   </energy>
  </scstep>
  <scstep>
   <time name="dav">   29.68   30.33</time>
   <time name="total">   29.68   30.33</time>
   <energy>
    <i name="e_fr_energy">   -785.72647572 </i>
    <i name="e_wo_entrp">   -785.62279211 </i>
    <i name="e_0_energy">   -785.67463391 </i>
   </energy>
  </scstep>
  <scstep>
   <time name="dav">   27.40   28.09</time>
   <time name="total">   27.58   28.27</time>
   <energy>
    <i name="e_fr_energy">   -790.70831233 </i>
    <i name="e_wo_entrp">   -790.60002219 </i>
    <i name="e_0_energy">   -790.65416726 </i>
   </energy>
  </scstep>
  <scstep>
   <time name="diag">    1.37    1.44</time>
   <time name="diis">   16.84   17.23</time>
   <time name="orth">    0.34    0.34</time>
   <time name="total">   18.76   19.22</time>
   <energy>
    <i name="e_fr_energy">   -840.10315958 </i>
    <i name="e_wo_entrp">   -839.94175758 </i>
    <i name="e_0_energy">   -840.02245858 </i>
   </energy>
  </scstep>
  <scstep>
   <time name="diag">    1.35    1.43</time>
   <time name="diis">   17.32   17.72</time>
   <time name="orth">    0.33    0.34</time>
   <time name="total">   19.20   19.69</time>
   <energy>
    <i name="e_fr_energy">   -636.54667420 </i>
    <i name="e_wo_entrp">   -636.35783229 </i>
    <i name="e_0_energy">   -636.45225325 </i>
   </energy>
  </scstep>
  <scstep>
   <time name="diag">    1.34    1.36</time>
   <time name="diis">   18.31   18.70</time>
   <time name="orth">    0.34    0.35</time>
   <time name="total">   20.19   20.62</time>
   <energy>
    <i name="e_fr_energy">   -640.59095351 </i>
    <i name="e_wo_entrp">   -640.45538830 </i>
    <i name="e_0_energy">   -640.52317091 </i>
   </energy>
  </scstep>
  <scstep>
   <time name="diag">    1.33    1.38</time>
   <time name="diis">   17.42   17.87</time>
   <time name="orth">    0.33    0.34</time>
   <time name="total">   19.28   19.79</time>
   <energy>
    <i name="e_fr_energy">   -622.10003314 </i>
    <i name="e_wo_entrp">   -621.92978963 </i>
    <i name="e_0_energy">   -622.01491139 </i>
   </energy>
  </scstep>
  <scstep>
   <time name="diag">    1.32    1.39</time>
   <time name="diis">   18.29   18.66</time>
   <time name="orth">    0.34    0.35</time>
   <time name="total">   20.15   20.60</time>
   <energy>
    <i name="e_fr_energy">   -621.32057999 </i>
    <i name="e_wo_entrp">   -621.15195109 </i>
    <i name="e_0_energy">   -621.23626554 </i>
   </energy>
  </scstep>
  <scstep>
   <time name="diag">    1.35    1.37</time>
   <time name="diis">   17.67   18.02</time>
   <time name="orth">    0.35    0.35</time>
   <time name="total">   19.56   19.95</time>
   <energy>
    <i name="e_fr_energy">   -620.47809063 </i>
    <i name="e_wo_entrp">   -620.29160499 </i>
    <i name="e_0_energy">   -620.38484781 </i>
   </energy>
  </scstep>
  <scstep>
   <time name="diag">    1.36    1.39</time>
   <time name="diis">   17.44   17.75</time>
   <time name="orth">    0.34    0.34</time>
   <time name="total">   19.34   19.68</time>
   <energy>
    <i name="e_fr_energy">   -619.50530274 </i>
    <i name="e_wo_entrp">   -619.30564910 </i>
    <i name="e_0_energy">   -619.40547592 </i>
   </energy>
  </scstep>
  <scstep>
   <time name="diag">    1.36    1.38</time>
   <time name="diis">   17.67   17.99</time>
   <time name="orth">    0.39    0.39</time>
   <time name="total">   19.62   19.96</time>
   <energy>
    <i name="e_fr_energy">   -619.02332559 </i>
    <i name="e_wo_entrp">   -618.82059371 </i>
    <i name="e_0_energy">   -618.92195965 </i>
   </energy>
  </scstep>
  <scstep>
   <time name="diag">    1.32    1.34</time>
   <time name="diis">   18.75   19.05</time>
   <time name="orth">    0.34    0.34</time>
   <time name="total">   20.61   20.95</time>
   <energy>
    <i name="e_fr_energy">   -619.47388103 </i>
    <i name="e_wo_entrp">   -619.26131372 </i>
    <i name="e_0_energy">   -619.36759738 </i>
   </energy>
  </scstep>
  <scstep>
   <time name="diag">    1.34    1.36</time>
   <time name="diis">   18.52   18.84</time>
   <time name="orth">    0.35    0.36</time>
   <time name="total">   20.42   20.77</time>
   <energy>
    <i name="e_fr_energy">   -619.08978659 </i>
    <i name="e_wo_entrp">   -618.89141718 </i>
    <i name="e_0_energy">   -618.99060189 </i>
   </energy>
  </scstep>
  <scstep>
   <time name="diag">    1.36    1.38</time>
   <time name="diis">   17.11   17.40</time>
   <time name="orth">    0.35    0.36</time>
   <time name="total">   19.01   19.34</time>
   <energy>
    <i name="e_fr_energy">   -618.75411151 </i>
    <i name="e_wo_entrp">   -618.53618516 </i>
    <i name="e_0_energy">   -618.64514833 </i>
   </energy>
  </scstep>
  <scstep>
   <time name="diag">    1.38    1.41</time>
   <time name="diis">   16.84   17.11</time>
   <time name="orth">    0.33    0.34</time>
   <time name="total">   18.76   19.05</time>
   <energy>
    <i name="e_fr_energy">   -618.60856996 </i>
    <i name="e_wo_entrp">   -618.39379763 </i>
    <i name="e_0_energy">   -618.50118379 </i>
   </energy>
  </scstep>
  <scstep>
   <time name="diag">    1.43    1.47</time>
   <time name="diis">   17.63   17.91</time>
   <time name="orth">    0.34    0.34</time>
   <time name="total">   19.60   19.93</time>
   <energy>
    <i name="e_fr_energy">   -618.55151206 </i>
    <i name="e_wo_entrp">   -618.33376607 </i>
    <i name="e_0_energy">   -618.44263906 </i>
   </energy>
  </scstep>
  <scstep>
   <time name="diag">    1.40    1.43</time>
   <time name="diis">   17.73   18.07</time>
   <time name="orth">    0.35    0.36</time>
   <time name="total">   19.67   20.05</time>
   <energy>
    <i name="e_fr_energy">   -618.52700216 </i>
    <i name="e_wo_entrp">   -618.30904602 </i>
    <i name="e_0_energy">   -618.41802409 </i>
   </energy>
  </scstep>
  <scstep>
   <time name="diag">    1.34    1.36</time>
   <time name="diis">   18.70   19.06</time>
   <time name="orth">    0.34    0.34</time>
   <time name="total">   20.60   20.99</time>
   <energy>
    <i name="e_fr_energy">   -618.51290970 </i>
    <i name="e_wo_entrp">   -618.29368531 </i>
    <i name="e_0_energy">   -618.40329750 </i>
   </energy>
  </scstep>
  <scstep>
   <time name="diag">    1.41    1.43</time>
   <time name="diis">   17.25   17.53</time>
   <time name="orth">    0.34    0.34</time>
   <time name="total">   19.20   19.52</time>
   <energy>
    <i name="e_fr_energy">   -618.51545579 </i>
    <i name="e_wo_entrp">   -618.29529189 </i>
    <i name="e_0_energy">   -618.40537384 </i>
   </energy>
  </scstep>
  <scstep>
   <time name="diag">    1.39    1.40</time>
   <time name="diis">   18.07   18.43</time>
   <time name="orth">    0.35    0.35</time>
   <time name="total">   20.00   20.38</time>
   <energy>
    <i name="e_fr_energy">   -618.50872887 </i>
    <i name="e_wo_entrp">   -618.29292531 </i>
    <i name="e_0_energy">   -618.40082709 </i>
   </energy>
  </scstep>
  <scstep>
   <time name="diag">    1.35    1.37</time>
   <time name="diis">   17.97   18.23</time>
   <time name="orth">    0.33    0.34</time>
   <time name="total">   19.87   20.16</time>
   <energy>
    <i name="e_fr_energy">   -618.50839886 </i>
    <i name="e_wo_entrp">   -618.29157457 </i>
    <i name="e_0_energy">   -618.39998672 </i>
   </energy>
  </scstep>
  <scstep>
   <time name="diag">    1.35    1.37</time>
   <time name="diis">   17.16   17.43</time>
   <time name="orth">    0.34    0.36</time>
   <time name="total">   19.04   19.35</time>
   <energy>
    <i name="e_fr_energy">   -618.50691629 </i>
    <i name="e_wo_entrp">   -618.28983609 </i>
    <i name="e_0_energy">   -618.39837619 </i>
   </energy>
  </scstep>
  <scstep>
   <time name="diag">    1.37    1.42</time>
   <time name="diis">   18.66   19.10</time>
   <time name="orth">    0.34    0.35</time>
   <time name="total">   20.59   21.09</time>
   <energy>
    <i name="e_fr_energy">   -618.50573097 </i>
    <i name="e_wo_entrp">   -618.28829250 </i>
    <i name="e_0_energy">   -618.39701174 </i>
   </energy>
  </scstep>
  <scstep>
   <time name="diag">    1.34    1.36</time>
   <time name="diis">   18.13   18.41</time>
   <time name="orth">    0.37    0.37</time>
   <time name="total">   20.03   20.33</time>
   <energy>
    <i name="e_fr_energy">   -618.50646128 </i>
    <i name="e_wo_entrp">   -618.28905690 </i>
    <i name="e_0_energy">   -618.39775909 </i>
   </energy>
  </scstep>
  <scstep>
   <time name="diag">    1.34    1.36</time>
   <time name="diis">   15.95   16.19</time>
   <time name="orth">    0.36    0.36</time>
   <time name="total">   17.84   18.10</time>
   <energy>
    <i name="e_fr_energy">   -618.50682234 </i>
    <i name="e_wo_entrp">   -618.28927044 </i>
    <i name="e_0_energy">   -618.39804639 </i>
   </energy>
  </scstep>
  <scstep>
   <time name="diag">    1.46    1.48</time>
   <time name="diis">   13.10   13.31</time>
   <time name="orth">    0.34    0.34</time>
   <time name="total">   15.09   15.33</time>
   <energy>
    <i name="e_fr_energy">   -618.50699437 </i>
    <i name="e_wo_entrp">   -618.28930084 </i>
    <i name="e_0_energy">   -618.39814761 </i>
   </energy>
  </scstep>
  <scstep>
   <time name="diag">    1.45    1.47</time>
   <time name="diis">   14.38   14.58</time>
   <time name="orth">    0.41    0.41</time>
   <time name="total">   16.43   16.66</time>
   <energy>
    <i name="e_fr_energy">   -618.50711879 </i>
    <i name="e_wo_entrp">   -618.28946752 </i>
    <i name="e_0_energy">   -618.39829316 </i>
   </energy>
  </scstep>
  <scstep>
   <time name="diag">    1.34    1.36</time>
   <time name="diis">   12.62   12.81</time>
   <time name="orth">    0.35    0.35</time>
   <time name="total">   14.50   14.72</time>
   <energy>
    <i name="e_fr_energy">   -618.50722667 </i>
    <i name="e_wo_entrp">   -618.28957391 </i>
    <i name="e_0_energy">   -618.39840029 </i>
   </energy>
  </scstep>
  <scstep>
   <time name="diag">    1.36    1.37</time>
   <time name="diis">   10.20   10.35</time>
   <time name="orth">    0.34    0.35</time>
   <time name="total">   12.10   12.27</time>
   <energy>
    <i name="e_fr_energy">   -618.50729593 </i>
    <i name="e_wo_entrp">   -618.28956845 </i>
    <i name="e_0_energy">   -618.39843219 </i>
   </energy>
  </scstep>
  <scstep>
   <time name="diag">    1.34    1.35</time>
   <time name="diis">    9.37    9.54</time>
   <time name="orth">    0.34    0.34</time>
   <time name="total">   11.25   11.44</time>
   <energy>
    <i name="e_fr_energy">   -618.50733761 </i>
    <i name="e_wo_entrp">   -618.28960169 </i>
    <i name="e_0_energy">   -618.39846965 </i>
   </energy>
  </scstep>
  <scstep>
   <time name="diag">    1.41    1.44</time>
   <time name="diis">    9.00    9.13</time>
   <time name="orth">    0.34    0.34</time>
   <time name="total">   10.97   11.14</time>
   <energy>
    <i name="e_fr_energy">   -618.50737165 </i>
    <i name="e_wo_entrp">   -618.28963443 </i>
    <i name="e_0_energy">   -618.39850304 </i>
   </energy>
  </scstep>
  <scstep>
   <time name="diag">    1.44    1.47</time>
   <time name="diis">    8.80    8.95</time>
   <time name="orth">    0.42    0.42</time>
   <time name="total">   10.87   11.05</time>
   <energy>
    <i name="e_fr_energy">   -618.50739279 </i>
    <i name="e_wo_entrp">   -618.28965345 </i>
    <i name="e_0_energy">   -618.39852312 </i>
   </energy>
  </scstep>
  <scstep>
   <time name="diag">    1.32    1.33</time>
   <time name="diis">    8.69    8.84</time>
   <time name="orth">    0.34    0.34</time>
   <time name="total">   10.54   10.72</time>
   <energy>
    <i name="e_fr_energy">   -618.50740895 </i>
    <i name="e_wo_entrp">   -618.28965847 </i>
    <i name="e_0_energy">   -618.39853371 </i>
   </energy>
  </scstep>
  <scstep>
   <time name="diag">    1.32    1.34</time>
   <time name="diis">    8.61    8.74</time>
   <time name="orth">    0.34    0.34</time>
   <time name="total">   10.46   10.62</time>
   <energy>
    <i name="e_fr_energy">   -618.50741879 </i>
    <i name="e_wo_entrp">   -618.28966345 </i>
    <i name="e_0_energy">   -618.39854112 </i>
   </energy>
  </scstep>
  <scstep>
   <time name="diag">    1.32    1.33</time>
   <time name="diis">    8.44    8.57</time>
   <time name="orth">    0.35    0.35</time>
   <time name="total">   10.13   10.28</time>
   <energy>
    <i name="alphaZ">   3615.96863149 </i>
    <i name="ewald"> -37925.51269881 </i>
    <i name="hartreedc">  -7764.77715434 </i>
    <i name="XCdc">   1621.01102775 </i>
    <i name="pawpsdc">  30099.94851675 </i>
    <i name="pawaedc"> -30164.87444761 </i>
    <i name="eentropy">     -0.21775777 </i>
    <i name="bandstr">  -5166.45998554 </i>
    <i name="atom">  45066.40644132 </i>
    <i name="e_fr_energy">   -618.50742676 </i>
    <i name="e_wo_entrp">   -618.28966898 </i>
    <i name="e_0_energy">   -618.39854787 </i>
   </energy>
  </scstep>
  <structure>
   <crystal>
    <varray name="basis" >
     <v>       8.93249989       0.00000000       0.00000000 </v>
     <v>       0.00575300       9.05559834       0.00000000 </v>
     <v>       0.03210180      -0.01574346       8.93712807 </v>
    </varray>
    <i name="volume">    722.91652451 </i>
    <varray name="rec_basis" >
     <v>       0.11195074      -0.00007112      -0.00040225 </v>
     <v>       0.00000000       0.11042893       0.00019453 </v>
     <v>       0.00000000       0.00000000       0.11189277 </v>
    </varray>
   </crystal>
   <varray name="positions" >
    <v>       0.99688001       0.99204997       0.99924002 </v>
    <v>       0.25398003       0.99714995       0.24912000 </v>
    <v>       0.24803003       0.50165000       0.24955001 </v>
    <v>       0.50501006       0.49745998       0.99834003 </v>
    <v>       0.50479003       0.24631001       0.74710002 </v>
    <v>       0.99427992       0.50449999       0.49779000 </v>
    <v>       0.49950005       0.75481999       0.74817004 </v>
    <v>       0.99437004       0.23617001       0.26379999 </v>
    <v>       0.75718000       0.74102998       0.01100000 </v>
    <v>       0.00201000       0.25541000       0.73894001 </v>
    <v>       0.75307001       0.26163001       0.50533002 </v>
    <v>       0.99514004       0.74492004       0.74511997 </v>
    <v>       0.25679999       0.49462002       0.74545002 </v>
    <v>       0.24788999       0.24839000       0.99657997 </v>
    <v>       0.50833000       0.25676999       0.25376001 </v>
    <v>       0.74879004       0.98787999       0.26967001 </v>
    <v>       0.75719000       0.25603001       0.99591997 </v>
    <v>       0.24762001       0.74973999       0.99974006 </v>
    <v>       0.25272001       0.24823001       0.50015003 </v>
    <v>       0.24457999       0.75048999       0.49983999 </v>
    <v>       0.24982001       0.24942998       0.24825000 </v>
    <v>       0.26146999       0.99984002       0.99295996 </v>
    <v>       0.00281000       0.25024000       0.00130000 </v>
    <v>       0.75313998       0.24617000       0.25492002 </v>
    <v>       0.74767001       0.99748000       0.01202000 </v>
    <v>       0.50714994       0.99977000       0.24673000 </v>
    <v>       0.99051999       0.48088002       0.24100998 </v>
    <v>       0.50519005       0.76130999       0.00855000 </v>
    <v>       0.98896989       0.00202000       0.73708999 </v>
    <v>       0.75744996       0.24437997       0.74896999 </v>
    <v>       0.73632001       0.00417000       0.51063000 </v>
    <v>       0.50563996       0.23264999       0.49544997 </v>
    <v>       0.50008998       0.00061000       0.73471998 </v>
    <v>       0.99720000       0.99771992       0.25899999 </v>
    <v>       0.50427997       0.24673000       0.00262000 </v>
    <v>       0.25133999       0.74958002       0.24910999 </v>
    <v>       0.24328000       0.50072997       0.99510994 </v>
    <v>       0.99837005       0.74313996       0.00460000 </v>
    <v>       0.75633000       0.73891003       0.25767000 </v>
    <v>       0.75839004       0.50315998       0.00288000 </v>
    <v>       0.50700002       0.50333002       0.25878999 </v>
    <v>       0.24900999       0.25315000       0.74854000 </v>
    <v>       0.24446000       0.99823996       0.50287998 </v>
    <v>       0.99804009       0.24229999       0.50128003 </v>
    <v>       0.24177002       0.75340997       0.75018002 </v>
    <v>       0.25841001       0.50062002       0.50129001 </v>
    <v>       0.99000004       0.76215003       0.49746000 </v>
    <v>       0.99203996       0.50055999       0.75138002 </v>
    <v>       0.75036005       0.74888000       0.74756004 </v>
    <v>       0.74036002       0.50197000       0.50067003 </v>
    <v>       0.50575006       0.74958002       0.49720000 </v>
    <v>       0.50501003       0.50217998       0.73912003 </v>
    <v>       0.51588997       0.01358000       0.98075008 </v>
    <v>       0.99841994       0.50976998       0.98613004 </v>
    <v>       0.50379003       0.73926997       0.25905001 </v>
    <v>       0.23780002       0.01082000       0.74607998 </v>
    <v>       0.47957999       0.98308000       0.49717999 </v>
    <v>       0.74279003       0.97869994       0.76450995 </v>
    <v>       0.99864998       0.77573999       0.26102000 </v>
    <v>       0.73551001       0.51468004       0.26666001 </v>
    <v>       0.02362000       0.99783001       0.49557002 </v>
    <v>       0.50539000       0.52833005       0.49917999 </v>
    <v>       0.73876003       0.52828003       0.73814999 </v>
    <v>       0.75400003       0.72937999       0.49116997 </v>
   </varray>
  </structure>
  <varray name="forces" >
   <v>      -0.57903909       0.87543791      -1.20007068 </v>
   <v>       1.74641310       0.65953772      -0.78270849 </v>
   <v>      -0.42845704      -0.61934467      -0.51842354 </v>
   <v>      -0.48720638       0.46732061       0.27236152 </v>
   <v>       0.34118204      -1.20890390      -0.70320566 </v>
   <v>       0.70026295      -1.00074200       0.30201411 </v>
   <v>      -0.94449112       1.72885217       1.08086924 </v>
   <v>      -0.71025894      -0.90009063       0.58302723 </v>
   <v>       0.48176645      -0.26642961       0.23915473 </v>
   <v>       0.33561011       0.13425867      -0.49894621 </v>
   <v>       0.26654376      -0.41331606      -0.25259734 </v>
   <v>       0.44890287      -0.35718964       0.41267999 </v>
   <v>      -0.36796346      -0.31747710       0.36753727 </v>
   <v>      -0.33632102       0.23816978      -0.49914201 </v>
   <v>       0.70473495      -0.84805631       0.15369502 </v>
   <v>      -1.21841562       0.79615507       0.29974026 </v>
   <v>       0.19901885       0.01092544      -0.10169098 </v>
   <v>      -0.30841431      -0.34283077      -0.35993979 </v>
   <v>       0.02173028       0.00518752       0.46692056 </v>
   <v>       0.10582506       0.08459358       0.46199791 </v>
   <v>       0.24420368      -0.05656518       0.15221999 </v>
   <v>      -0.68070293       0.10837952       0.20066026 </v>
   <v>      -0.10925898      -0.35663733      -0.23128464 </v>
   <v>      -0.08296326      -0.20918614       0.06980086 </v>
   <v>      -0.23296994      -0.01576806      -0.85491182 </v>
   <v>       0.10811490      -0.05481511       0.49327687 </v>
   <v>       0.58365182      -0.02048279       0.62997476 </v>
   <v>      -0.01004957      -0.41457063      -0.56145535 </v>
   <v>       0.19431250       0.00546644       1.01876089 </v>
   <v>      -0.04192147      -0.04020635       0.09254423 </v>
   <v>       0.12364769      -0.05227624      -0.92102612 </v>
   <v>      -0.25866102       0.19277337      -0.09122219 </v>
   <v>       0.44509056      -0.05879026       0.73334626 </v>
   <v>      -0.37927043       1.37534353      -0.87711723 </v>
   <v>       0.17504470      -0.31016224       0.02127527 </v>
   <v>       0.21705217      -0.06947182       0.01774363 </v>
   <v>       0.00478375       0.09317955      -0.38546562 </v>
   <v>      -0.14011456      -0.46127617      -0.59803542 </v>
   <v>      -0.76017324       1.10185418      -1.49567423 </v>
   <v>       0.37291346       0.15226157      -0.15466258 </v>
   <v>      -1.11508706      -0.18732685      -0.91672056 </v>
   <v>      -0.58763084      -0.07112001      -0.10387202 </v>
   <v>       1.73892685      -0.11988002       0.53919382 </v>
   <v>      -0.06257792       0.67084396       0.12938521 </v>
   <v>      -0.36511218      -0.12261226      -0.04552264 </v>
   <v>      -0.73556464       0.07758656       0.43821894 </v>
   <v>       1.12203733      -0.80731366       1.19595765 </v>
   <v>       0.54402462       0.03357113       0.72541133 </v>
   <v>       0.45447001       1.46829178       0.73710026 </v>
   <v>       1.01968606      -1.59606872       0.34255607 </v>
   <v>      -1.03387273       1.45885362      -0.62544530 </v>
   <v>      -1.27561951      -0.17045628       1.06434652 </v>
   <v>       0.80792127       0.24289254       0.10966930 </v>
   <v>      -0.14668395       0.51008121      -0.87888556 </v>
   <v>       0.17072893      -0.17950266      -0.15103445 </v>
   <v>      -0.35406209       0.36655232      -0.03417073 </v>
   <v>      -0.46836786       0.17749326       0.07481264 </v>
   <v>      -0.21166132      -0.82602814       0.25956588 </v>
   <v>       0.35658479      -0.54623083      -0.58965100 </v>
   <v>       0.40088982      -0.79992938      -1.03826647 </v>
   <v>      -0.82180139       0.72072800       1.06860724 </v>
   <v>      -0.48982423      -0.83958173      -0.35206272 </v>
   <v>       1.18776804      -1.02263612       0.78532889 </v>
   <v>       0.12067473       1.92668467       0.28345675 </v>
  </varray>
  <varray name="stress" >
   <v>    -238.75187637       2.07549203      -4.62922380 </v>
   <v>       2.07549169    -228.95900575      -2.63275748 </v>
   <v>      -4.62922310      -2.63275714    -234.96338160 </v>
  </varray>
  <energy>
   <i name="e_fr_energy">   -618.50742676 </i>
   <i name="e_wo_entrp">   -618.28966898 </i>
   <i name="e_0_energy">   -618.39854787 </i>
  </energy>
  <time name="totalsc">  712.97  726.55</time>
 </calculation>
 <calculation>
  <scstep>
   <time name="dav">   25.70   26.17</time>
   <time name="total">   25.89   26.36</time>
   <energy>
    <i name="alphaZ">   4638.61865863 </i>
    <i name="ewald"> -41256.55014151 </i>
    <i name="hartreedc">  -8390.32939106 </i>
    <i name="XCdc">   1785.45799211 </i>
    <i name="pawpsdc">  30099.96075620 </i>
    <i name="pawaedc"> -30164.88687163 </i>
    <i name="eentropy">     -0.06482701 </i>
    <i name="bandstr">  -2598.33816962 </i>
    <i name="atom">  45066.40644132 </i>
    <i name="e_fr_energy">   -819.72555257 </i>
    <i name="e_wo_entrp">   -819.66072556 </i>
    <i name="e_0_energy">   -819.69313907 </i>
   </energy>
  </scstep>
  <scstep>
   <time name="diag">    1.34    1.36</time>
   <time name="diis">   14.61   14.91</time>
   <time name="orth">    0.34    0.34</time>
   <time name="total">   16.48   16.81</time>
   <energy>
    <i name="e_fr_energy">   -754.31873753 </i>
    <i name="e_wo_entrp">   -754.23360989 </i>
    <i name="e_0_energy">   -754.27617371 </i>
   </energy>
  </scstep>
  <scstep>
   <time name="diag">    1.42    1.44</time>
   <time name="diis">   17.49   17.82</time>
   <time name="orth">    0.34    0.34</time>
   <time name="total">   19.43   19.79</time>
   <energy>
    <i name="e_fr_energy">   -668.23175682 </i>
    <i name="e_wo_entrp">   -668.11584509 </i>
    <i name="e_0_energy">   -668.17380095 </i>
   </energy>
  </scstep>
  <scstep>
   <time name="diag">    1.38    1.40</time>
   <time name="diis">   17.07   17.39</time>
   <time name="orth">    0.37    0.37</time>
   <time name="total">   19.00   19.36</time>
   <energy>
    <i name="e_fr_energy">   -633.54367159 </i>
    <i name="e_wo_entrp">   -633.41883336 </i>
    <i name="e_0_energy">   -633.48125247 </i>
   </energy>
  </scstep>
  <scstep>
   <time name="diag">    1.31    1.33</time>
   <time name="diis">   17.63   17.93</time>
   <time name="orth">    0.34    0.34</time>
   <time name="total">   19.47   19.82</time>
   <energy>
    <i name="e_fr_energy">   -620.04594855 </i>
    <i name="e_wo_entrp">   -619.92395790 </i>
    <i name="e_0_energy">   -619.98495323 </i>
   </energy>
  </scstep>
  <scstep>
   <time name="diag">    1.32    1.33</time>
   <time name="diis">   16.54   16.70</time>
   <time name="orth">    0.34    0.34</time>
   <time name="total">   18.41   18.58</time>
   <energy>
    <i name="e_fr_energy">   -616.68623930 </i>
    <i name="e_wo_entrp">   -616.57934438 </i>
    <i name="e_0_energy">   -616.63279184 </i>
   </energy>
  </scstep>
  <scstep>
   <time name="diag">    1.38    1.45</time>
   <time name="diis">   17.08   17.33</time>
   <time name="orth">    0.34    0.34</time>
   <time name="total">   18.98   19.35</time>
   <energy>
    <i name="e_fr_energy">   -615.76508611 </i>
    <i name="e_wo_entrp">   -615.62793372 </i>
    <i name="e_0_energy">   -615.69650991 </i>
   </energy>
  </scstep>
  <scstep>
   <time name="diag">    1.44    1.45</time>
   <time name="diis">   16.41   16.61</time>
   <time name="orth">    0.34    0.34</time>
   <time name="total">   18.39   18.60</time>
   <energy>
    <i name="e_fr_energy">   -613.72927169 </i>
    <i name="e_wo_entrp">   -613.58051358 </i>
    <i name="e_0_energy">   -613.65489264 </i>
   </energy>
  </scstep>
  <scstep>
   <time name="diag">    1.34    1.35</time>
   <time name="diis">   16.72   16.89</time>
   <time name="orth">    0.34    0.34</time>
   <time name="total">   18.60   18.78</time>
   <energy>
    <i name="e_fr_energy">   -613.38160353 </i>
    <i name="e_wo_entrp">   -613.23402205 </i>
    <i name="e_0_energy">   -613.30781279 </i>
   </energy>
  </scstep>
  <scstep>
   <time name="diag">    1.35    1.36</time>
   <time name="diis">   17.40   17.56</time>
   <time name="orth">    0.34    0.34</time>
   <time name="total">   19.29   19.46</time>
   <energy>
    <i name="e_fr_energy">   -613.17753486 </i>
    <i name="e_wo_entrp">   -613.03540091 </i>
    <i name="e_0_energy">   -613.10646789 </i>
   </energy>
  </scstep>
  <scstep>
   <time name="diag">    1.39    1.41</time>
   <time name="diis">   17.25   17.49</time>
   <time name="orth">    0.33    0.34</time>
   <time name="total">   19.18   19.43</time>
   <energy>
    <i name="e_fr_energy">   -613.12625123 </i>
    <i name="e_wo_entrp">   -612.98516508 </i>
    <i name="e_0_energy">   -613.05570815 </i>
   </energy>
  </scstep>
  <scstep>
   <time name="diag">    1.38    1.39</time>
   <time name="diis">   17.47   17.65</time>
   <time name="orth">    0.34    0.34</time>
   <time name="total">   19.38   19.58</time>
   <energy>
    <i name="e_fr_energy">   -613.08397597 </i>
    <i name="e_wo_entrp">   -612.93971427 </i>
    <i name="e_0_energy">   -613.01184512 </i>
   </energy>
  </scstep>
  <scstep>
   <time name="diag">    1.31    1.32</time>
   <time name="diis">   17.15   17.35</time>
   <time name="orth">    0.34    0.34</time>
   <time name="total">   19.00   19.21</time>
   <energy>
    <i name="e_fr_energy">   -613.08076953 </i>
    <i name="e_wo_entrp">   -612.93655469 </i>
    <i name="e_0_energy">   -613.00866211 </i>
   </energy>
  </scstep>
  <scstep>
   <time name="diag">    1.31    1.32</time>
   <time name="diis">   17.26   17.54</time>
   <time name="orth">    0.33    0.34</time>
   <time name="total">   19.10   19.39</time>
   <energy>
    <i name="e_fr_energy">   -613.07294481 </i>
    <i name="e_wo_entrp">   -612.92645273 </i>
    <i name="e_0_energy">   -612.99969877 </i>
   </energy>
  </scstep>
  <scstep>
   <time name="diag">    1.41    1.42</time>
   <time name="diis">   16.72   17.48</time>
   <time name="orth">    0.33    0.33</time>
   <time name="total">   18.66   19.43</time>
   <energy>
    <i name="e_fr_energy">   -613.04661720 </i>
    <i name="e_wo_entrp">   -612.90126988 </i>
    <i name="e_0_energy">   -612.97394354 </i>
   </energy>
  </scstep>
  <scstep>
   <time name="diag">    1.39    1.41</time>
   <time name="diis">   17.29   17.50</time>
   <time name="orth">    0.35    0.35</time>
   <time name="total">   19.22   19.45</time>
   <energy>
    <i name="e_fr_energy">   -613.04598974 </i>
    <i name="e_wo_entrp">   -612.90113544 </i>
    <i name="e_0_energy">   -612.97356259 </i>
   </energy>
  </scstep>
  <scstep>
   <time name="diag">    1.31    1.32</time>
   <time name="diis">   17.13   17.32</time>
   <time name="orth">    0.34    0.34</time>
   <time name="total">   18.98   19.19</time>
   <energy>
    <i name="e_fr_energy">   -613.04657393 </i>
    <i name="e_wo_entrp">   -612.90216204 </i>
    <i name="e_0_energy">   -612.97436798 </i>
   </energy>
  </scstep>
  <scstep>
   <time name="diag">    1.31    1.32</time>
   <time name="diis">   16.57   16.72</time>
   <time name="orth">    0.37    0.38</time>
   <time name="total">   18.48   18.64</time>
   <energy>
    <i name="e_fr_energy">   -613.04618268 </i>
    <i name="e_wo_entrp">   -612.90146095 </i>
    <i name="e_0_energy">   -612.97382181 </i>
   </energy>
  </scstep>
  <scstep>
   <time name="diag">    1.34    1.35</time>
   <time name="diis">   16.03   16.19</time>
   <time name="orth">    0.33    0.34</time>
   <time name="total">   17.90   18.08</time>
   <energy>
    <i name="e_fr_energy">   -613.04595871 </i>
    <i name="e_wo_entrp">   -612.90112277 </i>
    <i name="e_0_energy">   -612.97354074 </i>
   </energy>
  </scstep>
  <scstep>
   <time name="diag">    1.32    1.33</time>
   <time name="diis">   15.34   15.48</time>
   <time name="orth">    0.39    0.40</time>
   <time name="total">   17.24   17.39</time>
   <energy>
    <i name="e_fr_energy">   -613.04589905 </i>
    <i name="e_wo_entrp">   -612.90101301 </i>
    <i name="e_0_energy">   -612.97345603 </i>
   </energy>
  </scstep>
  <scstep>
   <time name="diag">    1.62    1.64</time>
   <time name="diis">   14.21   14.31</time>
   <time name="orth">    0.34    0.34</time>
   <time name="total">   16.36   16.48</time>
   <energy>
    <i name="e_fr_energy">   -613.04591514 </i>
    <i name="e_wo_entrp">   -612.90102086 </i>
    <i name="e_0_energy">   -612.97346800 </i>
   </energy>
  </scstep>
  <scstep>
   <time name="diag">    1.32    1.33</time>
   <time name="diis">   12.57   12.70</time>
   <time name="orth">    0.38    0.38</time>
   <time name="total">   14.47   14.61</time>
   <energy>
    <i name="e_fr_energy">   -613.04591584 </i>
    <i name="e_wo_entrp">   -612.90106885 </i>
    <i name="e_0_energy">   -612.97349235 </i>
   </energy>
  </scstep>
  <scstep>
   <time name="diag">    1.32    1.33</time>
   <time name="diis">    9.71    9.82</time>
   <time name="orth">    0.34    0.34</time>
   <time name="total">   11.57   11.69</time>
   <energy>
    <i name="e_fr_energy">   -613.04592336 </i>
    <i name="e_wo_entrp">   -612.90107377 </i>
    <i name="e_0_energy">   -612.97349856 </i>
   </energy>
  </scstep>
  <scstep>
   <time name="diag">    1.35    1.36</time>
   <time name="diis">    8.88    8.96</time>
   <time name="orth">    0.36    0.36</time>
   <time name="total">   10.61   10.70</time>
   <energy>
    <i name="alphaZ">   4638.61865863 </i>
    <i name="ewald"> -41256.55014151 </i>
    <i name="hartreedc">  -6627.62165162 </i>
    <i name="XCdc">   1683.07072336 </i>
    <i name="pawpsdc">  33300.64233748 </i>
    <i name="pawaedc"> -33387.79998616 </i>
    <i name="eentropy">     -0.14485593 </i>
    <i name="bandstr">  -4029.66745078 </i>
    <i name="atom">  45066.40644132 </i>
    <i name="e_fr_energy">   -613.04592520 </i>
    <i name="e_wo_entrp">   -612.90106928 </i>
    <i name="e_0_energy">   -612.97349724 </i>
   </energy>
  </scstep>
  <structure>
   <crystal>
    <varray name="basis" >
     <v>       8.20714824       0.00630555      -0.01406404 </v>
     <v>       0.01167828       8.35041642      -0.00811786 </v>
     <v>       0.01541258      -0.02249753       8.22287994 </v>
    </varray>
    <i name="volume">    563.53920600 </i>
    <varray name="rec_basis" >
     <v>       0.12184474      -0.00017063      -0.00022885 </v>
     <v>      -0.00009145       0.11975495       0.00032782 </v>
     <v>       0.00020831       0.00011793       0.12161183 </v>
    </varray>
   </crystal>
   <varray name="positions" >
    <v>       0.99377302       0.99670250       0.99276203 </v>
    <v>       0.26342498       0.00065622       0.24489493 </v>
    <v>       0.24572820       0.49834565       0.24675155 </v>
    <v>       0.50237187       0.49995213       0.99981024 </v>
    <v>       0.50665048       0.23986312       0.74330411 </v>
    <v>       0.99805948       0.49917149       0.49942027 </v>
    <v>       0.49437214       0.76404039       0.75400458 </v>
    <v>       0.99052585       0.23138036       0.26694717 </v>
    <v>       0.75977819       0.73961285       0.01229096 </v>
    <v>       0.00383179       0.25612057       0.73624670 </v>
    <v>       0.75451588       0.25942575       0.50396650 </v>
    <v>       0.99755770       0.74302102       0.74734762 </v>
    <v>       0.25480665       0.49293215       0.74743399 </v>
    <v>       0.24608246       0.24965413       0.99388560 </v>
    <v>       0.51213606       0.25225351       0.25458965 </v>
    <v>       0.74220107       0.99212423       0.27128801 </v>
    <v>       0.75826679       0.25608726       0.99537104 </v>
    <v>       0.24596249       0.74791022       0.99779710 </v>
    <v>       0.25282829       0.24826202       0.50267047 </v>
    <v>       0.24514228       0.75094498       0.50233386 </v>
    <v>       0.25113615       0.24913007       0.24907168 </v>
    <v>       0.25778938       0.00041928       0.99404313 </v>
    <v>       0.00222563       0.24833789       0.00005152 </v>
    <v>       0.75269128       0.24505624       0.25529680 </v>
    <v>       0.74642843       0.99738797       0.00740518 </v>
    <v>       0.50772446       0.99948260       0.24939271 </v>
    <v>       0.99366003       0.48077682       0.24441059 </v>
    <v>       0.50514809       0.75909614       0.00551926 </v>
    <v>       0.98999954       0.00205868       0.74258927 </v>
    <v>       0.75722189       0.24416665       0.74946954 </v>
    <v>       0.73700586       0.00388286       0.50565830 </v>
    <v>       0.50424409       0.23367611       0.49495755 </v>
    <v>       0.50247980       0.00030368       0.73867859 </v>
    <v>       0.99516394       0.00503867       0.25426531 </v>
    <v>       0.50522600       0.24507784       0.00273484 </v>
    <v>       0.25251214       0.74921008       0.24920577 </v>
    <v>       0.24331300       0.50122276       0.99302920 </v>
    <v>       0.99762650       0.74067695       0.00137180 </v>
    <v>       0.75224970       0.74476599       0.24959634 </v>
    <v>       0.76040655       0.50396968       0.00204513 </v>
    <v>       0.50099609       0.50232345       0.25384153 </v>
    <v>       0.24583857       0.25277014       0.74797930 </v>
    <v>       0.25384155       0.99760637       0.50579055 </v>
    <v>       0.99769730       0.24587505       0.50197845 </v>
    <v>       0.23979942       0.75275634       0.74993429 </v>
    <v>       0.25442860       0.50103746       0.50365552 </v>
    <v>       0.99603950       0.75786038       0.50391578 </v>
    <v>       0.99496394       0.50074565       0.75529579 </v>
    <v>       0.75279521       0.75670907       0.75153891 </v>
    <v>       0.74586597       0.49347035       0.50251915 </v>
    <v>       0.50017345       0.75734602       0.49382385 </v>
    <v>       0.49810059       0.50128189       0.74486538 </v>
    <v>       0.52025043       0.01487501       0.98134207 </v>
    <v>       0.99764304       0.51247913       0.98138581 </v>
    <v>       0.50471565       0.73831227       0.25823473 </v>
    <v>       0.23588721       0.01277244       0.74589553 </v>
    <v>       0.47704837       0.98402628       0.49758383 </v>
    <v>       0.74164468       0.97430180       0.76591109 </v>
    <v>       0.00058914       0.77282448       0.25783706 </v>
    <v>       0.73769803       0.51040876       0.26105544 </v>
    <v>       0.01915840       0.00167963       0.50133836 </v>
    <v>       0.50275427       0.52385397       0.49727956 </v>
    <v>       0.74516320       0.52283942       0.74238920 </v>
    <v>       0.75463966       0.73964684       0.49270007 </v>
   </varray>
  </structure>
  <varray name="forces" >
   <v>       0.57505987       0.35884470      -0.40476165 </v>
   <v>      -0.50372321       0.36724693      -0.41204176 </v>
   <v>      -0.78053531      -0.59723408      -0.06582340 </v>
   <v>      -0.35561973       0.14710817      -0.10886572 </v>
   <v>      -0.19649735       0.72469337       0.33616364 </v>
   <v>       0.92319096      -0.00277754       0.18282237 </v>
   <v>      -0.41823880      -1.20974366       0.36283063 </v>
   <v>      -0.03598372       0.46454788      -0.89157175 </v>
   <v>      -0.28192913       0.68599390      -0.64005055 </v>
   <v>      -0.15068804      -0.41814366       1.12340340 </v>
   <v>      -0.13967416      -1.16194396      -0.35412780 </v>
   <v>       0.55774522       0.17446872       1.07055211 </v>
   <v>      -0.95124266       0.14795156       0.49554757 </v>
   <v>       0.10096063      -0.13216988       0.04063611 </v>
   <v>      -0.35474778      -0.21806252      -0.46058537 </v>
   <v>       0.01612671       1.03277877      -1.12301621 </v>
   <v>      -0.21923660      -0.28952052       0.31788088 </v>
   <v>      -0.14691913       0.24420330      -0.14382272 </v>
   <v>       0.11711549       0.01593123      -0.38352061 </v>
   <v>       0.27077029       0.04145026       0.15221778 </v>
   <v>      -0.06732026      -0.09891130      -0.00414376 </v>
   <v>       0.48434142       0.03444307      -1.02873103 </v>
   <v>       0.01256021       1.14780047      -0.01421095 </v>
   <v>       0.20521034      -0.34345255      -0.29658584 </v>
   <v>      -0.80950129       0.06548767      -0.24824070 </v>
   <v>       0.95251650      -0.28373126      -0.40796341 </v>
   <v>      -0.23227331       0.35958835      -0.96234159 </v>
   <v>      -0.13860664       0.69761256       0.85137017 </v>
   <v>      -0.18255551       0.13837489       0.35890359 </v>
   <v>       1.06427877      -0.11182756      -0.09995584 </v>
   <v>       0.56543881       0.08096721       0.79413320 </v>
   <v>      -0.02222396       0.58928410      -0.72603127 </v>
   <v>      -0.06369957       0.42822293       0.55983110 </v>
   <v>      -0.20223616       0.52477317      -0.48981735 </v>
   <v>      -0.15577251      -0.40155461       0.49066595 </v>
   <v>       0.86695417      -0.06100251      -0.08355381 </v>
   <v>      -0.71339892      -0.09644010      -0.94635147 </v>
   <v>       0.28251251      -0.15172890      -0.70270061 </v>
   <v>      -1.26131775       1.49330853      -1.24545601 </v>
   <v>       0.61524563      -0.38281837       0.04834668 </v>
   <v>      -1.02763150      -0.60370632      -0.44236086 </v>
   <v>      -0.35040244      -0.07730201       0.03146830 </v>
   <v>       0.83325424       0.21737264       0.69695025 </v>
   <v>       0.33150803       0.26812295       0.14463787 </v>
   <v>      -0.78787212       0.05750042       0.14337534 </v>
   <v>      -0.07171444      -0.17422011       0.52048376 </v>
   <v>       1.44070964      -0.62791208       1.21260031 </v>
   <v>       1.58292634      -0.39397940       0.26828229 </v>
   <v>       0.41699845       0.52773456       0.90823642 </v>
   <v>       0.18819903      -0.93574838      -0.02269936 </v>
   <v>      -1.01115025       1.25379143      -0.11578767 </v>
   <v>      -1.06806932       0.00004483       0.18782069 </v>
   <v>      -0.37717905      -0.72636522       0.56149289 </v>
   <v>       0.37905469      -0.85295074       0.72053620 </v>
   <v>      -0.63216280       0.52222720      -1.19580722 </v>
   <v>      -0.25150342      -0.09712800       0.52897761 </v>
   <v>       1.34914100       1.00276627      -0.23736741 </v>
   <v>       0.10355455       1.53949205       0.06021067 </v>
   <v>       0.70684473      -1.44115585      -1.35948620 </v>
   <v>       1.59188489      -1.83931355      -1.91552592 </v>
   <v>      -1.57624211       0.63794544       0.77971472 </v>
   <v>      -0.75415904      -2.04659017       0.23240072 </v>
   <v>       0.56644036      -1.85517871       2.28429094 </v>
   <v>      -0.80851549       1.64053397       1.06652160 </v>
  </varray>
  <varray name="stress" >
   <v>     601.08251830       4.06423245       4.09575512 </v>
   <v>       4.06423000     526.81827315      -2.84458946 </v>
   <v>       4.09575545      -2.84458979     592.22337634 </v>
  </varray>
  <energy>
   <i name="e_fr_energy">   -613.04592520 </i>
   <i name="e_wo_entrp">   -612.90106928 </i>
   <i name="e_0_energy">   -612.97349724 </i>
  </energy>
  <time name="totalsc">  469.77  476.24</time>
 </calculation>
 <calculation>
  <scstep>
   <time name="dav">   25.56   25.76</time>
   <time name="total">   25.75   25.95</time>
   <energy>
    <i name="alphaZ">   4033.05954834 </i>
    <i name="ewald"> -39363.83604053 </i>
    <i name="hartreedc">  -6336.02989705 </i>
    <i name="XCdc">   1594.99803480 </i>
    <i name="pawpsdc">  33300.44102298 </i>
    <i name="pawaedc"> -33387.59133552 </i>
    <i name="eentropy">     -0.21515706 </i>
    <i name="bandstr">  -5627.55743165 </i>
    <i name="atom">  45066.40644132 </i>
    <i name="e_fr_energy">   -720.32481438 </i>
    <i name="e_wo_entrp">   -720.10965732 </i>
    <i name="e_0_energy">   -720.21723585 </i>
   </energy>
  </scstep>
  <scstep>
   <time name="diag">    1.34    1.34</time>
   <time name="diis">   17.38   17.59</time>
   <time name="orth">    0.36    0.36</time>
   <time name="total">   19.27   19.49</time>
   <energy>
    <i name="e_fr_energy">   -999.75176736 </i>
    <i name="e_wo_entrp">   -999.60447247 </i>
    <i name="e_0_energy">   -999.67811991 </i>
   </energy>
  </scstep>
  <scstep>
   <time name="diag">    1.36    1.37</time>
   <time name="diis">   16.48   16.61</time>
   <time name="orth">    0.35    0.35</time>
   <time name="total">   18.41   18.55</time>
   <energy>
    <i name="e_fr_energy">   -689.85670306 </i>
    <i name="e_wo_entrp">   -689.72023301 </i>
    <i name="e_0_energy">   -689.78846803 </i>
   </energy>
  </scstep>
  <scstep>
   <time name="diag">    1.41    1.43</time>
   <time name="diis">   16.74   16.90</time>
   <time name="orth">    0.34    0.34</time>
   <time name="total">   18.68   18.86</time>
   <energy>
    <i name="e_fr_energy">   -652.91891706 </i>
    <i name="e_wo_entrp">   -652.74748770 </i>
    <i name="e_0_energy">   -652.83320238 </i>
   </energy>
  </scstep>
  <scstep>
   <time name="diag">    1.44    1.45</time>
   <time name="diis">   16.94   17.19</time>
   <time name="orth">    0.34    0.34</time>
   <time name="total">   18.91   19.18</time>
   <energy>
    <i name="e_fr_energy">   -635.52375883 </i>
    <i name="e_wo_entrp">   -635.35720790 </i>
    <i name="e_0_energy">   -635.44048337 </i>
   </energy>
  </scstep>
  <scstep>
   <time name="diag">    1.34    1.35</time>
   <time name="diis">   16.86   16.99</time>
   <time name="orth">    0.34    0.34</time>
   <time name="total">   18.73   18.88</time>
   <energy>
    <i name="e_fr_energy">   -629.99223580 </i>
    <i name="e_wo_entrp">   -629.80802275 </i>
    <i name="e_0_energy">   -629.90012928 </i>
   </energy>
  </scstep>
  <scstep>
   <time name="diag">    1.34    1.35</time>
   <time name="diis">   17.72   17.89</time>
   <time name="orth">    0.38    0.38</time>
   <time name="total">   19.64   19.82</time>
   <energy>
    <i name="e_fr_energy">   -629.31361325 </i>
    <i name="e_wo_entrp">   -629.14371167 </i>
    <i name="e_0_energy">   -629.22866246 </i>
   </energy>
  </scstep>
  <scstep>
   <time name="diag">    1.33    1.33</time>
   <time name="diis">   17.67   17.91</time>
   <time name="orth">    0.34    0.34</time>
   <time name="total">   19.56   19.82</time>
   <energy>
    <i name="e_fr_energy">   -629.24947237 </i>
    <i name="e_wo_entrp">   -629.08665635 </i>
    <i name="e_0_energy">   -629.16806436 </i>
   </energy>
  </scstep>
  <scstep>
   <time name="diag">    1.37    1.37</time>
   <time name="diis">   16.94   17.16</time>
   <time name="orth">    0.34    0.34</time>
   <time name="total">   18.85   19.07</time>
   <energy>
    <i name="e_fr_energy">   -627.17159778 </i>
    <i name="e_wo_entrp">   -626.98973870 </i>
    <i name="e_0_energy">   -627.08066824 </i>
   </energy>
  </scstep>
  <scstep>
   <time name="diag">    1.37    1.38</time>
   <time name="diis">   16.93   17.06</time>
   <time name="orth">    0.34    0.34</time>
   <time name="total">   18.83   18.98</time>
   <energy>
    <i name="e_fr_energy">   -626.19297335 </i>
    <i name="e_wo_entrp">   -626.00411370 </i>
    <i name="e_0_energy">   -626.09854352 </i>
   </energy>
  </scstep>
  <scstep>
   <time name="diag">    1.33    1.33</time>
   <time name="diis">   17.40   17.62</time>
   <time name="orth">    0.34    0.34</time>
   <time name="total">   19.27   19.49</time>
   <energy>
[...]
      </set>
     </set>
    </set>
   </array>
  </eigenvalues>
  <separator name="orbital magnetization" >
   <v name="MAGDIPOLOUT">      0.00000000      0.00000000      0.00000000</v>
  </separator>
  <dos>
   <i name="efermi">      8.12226337 </i>
   <total>
    <array>
     <dimension dim="1">gridpoints</dimension>
     <dimension dim="2">spin</dimension>
     <field>energy</field>
     <field>total</field>
     <field>integrated</field>
     <set>
      <set comment="spin 1">
       <r>   -38.1204     0.0000     0.0000 </r>
       <r>   -37.9499     0.0000     0.0000 </r>
       <r>   -37.7794     0.0000     0.0000 </r>
       <r>   -37.6089     0.0000     0.0000 </r>
       <r>   -37.4385     0.0000     0.0000 </r>
       <r>   -37.2680     0.0000     0.0000 </r>
       <r>   -37.0975     0.0000     0.0000 </r>
       <r>   -36.9270     0.0000     0.0000 </r>
       <r>   -36.7565     0.0000     0.0000 </r>
       <r>   -36.5861     0.0000     0.0000 </r>
       <r>   -36.4156     0.0000     0.0000 </r>
       <r>   -36.2451     0.0000     0.0000 </r>
       <r>   -36.0746     0.0005     0.0001 </r>
       <r>   -35.9041     0.7324     0.1249 </r>
       <r>   -35.7336    10.0437     1.8372 </r>
       <r>   -35.5632    48.2393    10.0611 </r>
       <r>   -35.3927   114.5644    29.5922 </r>
       <r>   -35.2222    36.7362    35.8551 </r>
       <r>   -35.0517     0.8498    36.0000 </r>
       <r>   -34.8812     0.0002    36.0000 </r>
       <r>   -34.7108     0.0000    36.0000 </r>
       <r>   -34.5403     0.0000    36.0000 </r>
       <r>   -34.3698     0.0000    36.0000 </r>
       <r>   -34.1993     0.0000    36.0000 </r>
       <r>   -34.0288     0.0000    36.0000 </r>
       <r>   -33.8583     0.0000    36.0000 </r>
       <r>   -33.6879     0.0000    36.0000 </r>
       <r>   -33.5174     0.0000    36.0000 </r>
       <r>   -33.3469     0.0000    36.0000 </r>
       <r>   -33.1764     0.0000    36.0000 </r>
       <r>   -33.0059     0.0000    36.0000 </r>
       <r>   -32.8355     0.0000    36.0000 </r>
       <r>   -32.6650     0.0000    36.0000 </r>
       <r>   -32.4945     0.0000    36.0000 </r>
       <r>   -32.3240     0.0000    36.0000 </r>
       <r>   -32.1535     0.0000    36.0000 </r>
       <r>   -31.9830     0.0000    36.0000 </r>
       <r>   -31.8126     0.0000    36.0000 </r>
       <r>   -31.6421     0.0000    36.0000 </r>
       <r>   -31.4716     0.0000    36.0000 </r>
       <r>   -31.3011     0.0000    36.0000 </r>
       <r>   -31.1306     0.2824    36.0482 </r>
       <r>   -30.9602    19.4558    39.3650 </r>
       <r>   -30.7897    73.7717    51.9417 </r>
       <r>   -30.6192    88.4608    67.0227 </r>
       <r>   -30.4487    28.6881    71.9135 </r>
       <r>   -30.2782     0.5076    72.0000 </r>
       <r>   -30.1078     0.0001    72.0000 </r>
       <r>   -29.9373     0.0000    72.0000 </r>
       <r>   -29.7668     0.0000    72.0000 </r>
       <r>   -29.5963     0.0000    72.0000 </r>
       <r>   -29.4258     0.0000    72.0000 </r>
       <r>   -29.2553     0.0000    72.0000 </r>
       <r>   -29.0849     0.0000    72.0000 </r>
       <r>   -28.9144     0.0000    72.0000 </r>
       <r>   -28.7439     0.0000    72.0000 </r>
       <r>   -28.5734     0.0000    72.0000 </r>
       <r>   -28.4029     0.0058    72.0010 </r>
       <r>   -28.2325     3.0660    72.5237 </r>
       <r>   -28.0620    33.3285    78.2056 </r>
       <r>   -27.8915    77.7144    91.4545 </r>
       <r>   -27.7210    76.4708   104.4913 </r>
       <r>   -27.5505    20.0806   107.9147 </r>
       <r>   -27.3800     0.5002   108.0000 </r>
       <r>   -27.2096     0.0002   108.0000 </r>
       <r>   -27.0391     0.0000   108.0000 </r>
       <r>   -26.8686     0.0000   108.0000 </r>
       <r>   -26.6981     0.0000   108.0000 </r>
       <r>   -26.5276     0.0000   108.0000 </r>
       <r>   -26.3572     0.0000   108.0000 </r>
       <r>   -26.1867     0.0154   108.0026 </r>
       <r>   -26.0162     4.3979   108.7524 </r>
       <r>   -25.8457    43.2558   116.1267 </r>
       <r>   -25.6752    67.9316   127.7078 </r>
       <r>   -25.5047    63.5563   138.5429 </r>
       <r>   -25.3343    51.1466   147.2625 </r>
       <r>   -25.1638    15.8661   149.9674 </r>
       <r>   -24.9933     0.1914   150.0000 </r>
       <r>   -24.8228     0.0000   150.0000 </r>
       <r>   -24.6523     0.0000   150.0000 </r>
       <r>   -24.4819     0.0000   150.0000 </r>
       <r>   -24.3114     0.0000   150.0000 </r>
       <r>   -24.1409     0.0000   150.0000 </r>
       <r>   -23.9704     0.0000   150.0000 </r>
       <r>   -23.7999     0.0000   150.0000 </r>
       <r>   -23.6295     0.0000   150.0000 </r>
       <r>   -23.4590     0.0000   150.0000 </r>
       <r>   -23.2885     0.0000   150.0000 </r>
       <r>   -23.1180     0.0012   150.0002 </r>
       <r>   -22.9475     1.4125   150.2410 </r>
       <r>   -22.7770    21.2347   153.8611 </r>
       <r>   -22.6066    12.8190   156.0465 </r>
       <r>   -22.4361    32.0220   161.5057 </r>
       <r>   -22.2656    68.5822   173.1977 </r>
       <r>   -22.0951    60.3706   183.4898 </r>
       <r>   -21.9246    38.3650   190.0303 </r>
       <r>   -21.7542    10.9088   191.8900 </r>
       <r>   -21.5837     0.6446   191.9999 </r>
       <r>   -21.4132     0.0004   192.0000 </r>
       <r>   -21.2427     0.0000   192.0000 </r>
       <r>   -21.0722     0.0000   192.0000 </r>
       <r>   -20.9017     0.0000   192.0000 </r>
       <r>   -20.7313     0.0000   192.0000 </r>
       <r>   -20.5608     0.0000   192.0000 </r>
       <r>   -20.3903     0.0000   192.0000 </r>
       <r>   -20.2198     0.0000   192.0000 </r>
       <r>   -20.0493     0.0000   192.0000 </r>
       <r>   -19.8789     0.0000   192.0000 </r>
       <r>   -19.7084     0.0000   192.0000 </r>
       <r>   -19.5379     0.0000   192.0000 </r>
       <r>   -19.3674     0.0000   192.0000 </r>
       <r>   -19.1969     0.0000   192.0000 </r>
       <r>   -19.0264     0.0000   192.0000 </r>
       <r>   -18.8560     0.0000   192.0000 </r>
       <r>   -18.6855     0.0000   192.0000 </r>
       <r>   -18.5150     0.0000   192.0000 </r>
       <r>   -18.3445     0.0000   192.0000 </r>
       <r>   -18.1740     0.0000   192.0000 </r>
       <r>   -18.0036     0.0000   192.0000 </r>
       <r>   -17.8331     0.0000   192.0000 </r>
       <r>   -17.6626     0.0000   192.0000 </r>
       <r>   -17.4921     0.0000   192.0000 </r>
       <r>   -17.3216     0.0000   192.0000 </r>
       <r>   -17.1512     0.0000   192.0000 </r>
       <r>   -16.9807     0.0000   192.0000 </r>
       <r>   -16.8102     0.0000   192.0000 </r>
       <r>   -16.6397     0.0000   192.0000 </r>
       <r>   -16.4692     0.0000   192.0000 </r>
       <r>   -16.2987     0.0000   192.0000 </r>
       <r>   -16.1283     0.0000   192.0000 </r>
       <r>   -15.9578     0.0000   192.0000 </r>
       <r>   -15.7873     0.0000   192.0000 </r>
       <r>   -15.6168     0.0000   192.0000 </r>
       <r>   -15.4463     0.0000   192.0000 </r>
       <r>   -15.2759     0.0000   192.0000 </r>
       <r>   -15.1054     0.0000   192.0000 </r>
       <r>   -14.9349     0.0000   192.0000 </r>
       <r>   -14.7644     0.0000   192.0000 </r>
       <r>   -14.5939     0.0000   192.0000 </r>
       <r>   -14.4234     0.0000   192.0000 </r>
       <r>   -14.2530     0.0000   192.0000 </r>
       <r>   -14.0825     0.0000   192.0000 </r>
       <r>   -13.9120     0.0000   192.0000 </r>
       <r>   -13.7415     0.0000   192.0000 </r>
       <r>   -13.5710     0.0000   192.0000 </r>
       <r>   -13.4006     0.0000   192.0000 </r>
       <r>   -13.2301     0.0000   192.0000 </r>
       <r>   -13.0596     0.0000   192.0000 </r>
       <r>   -12.8891     0.0000   192.0000 </r>
       <r>   -12.7186     0.0000   192.0000 </r>
       <r>   -12.5481     0.0000   192.0000 </r>
       <r>   -12.3777     0.0000   192.0000 </r>
       <r>   -12.2072     0.0000   192.0000 </r>
       <r>   -12.0367     0.0000   192.0000 </r>
       <r>   -11.8662     0.0000   192.0000 </r>
       <r>   -11.6957     0.0000   192.0000 </r>
       <r>   -11.5253     0.0000   192.0000 </r>
       <r>   -11.3548     0.0000   192.0000 </r>
       <r>   -11.1843     0.0000   192.0000 </r>
       <r>   -11.0138     0.0000   192.0000 </r>
       <r>   -10.8433     0.0000   192.0000 </r>
       <r>   -10.6729     0.0000   192.0000 </r>
       <r>   -10.5024     0.0000   192.0000 </r>
       <r>   -10.3319     0.0000   192.0000 </r>
       <r>   -10.1614     0.0000   192.0000 </r>
       <r>    -9.9909     0.0000   192.0000 </r>
       <r>    -9.8204     0.0000   192.0000 </r>
       <r>    -9.6500     0.0000   192.0000 </r>
       <r>    -9.4795     0.0000   192.0000 </r>
       <r>    -9.3090     0.0000   192.0000 </r>
       <r>    -9.1385     0.0000   192.0000 </r>
       <r>    -8.9680     0.0000   192.0000 </r>
       <r>    -8.7976     0.0000   192.0000 </r>
       <r>    -8.6271     0.0000   192.0000 </r>
       <r>    -8.4566     0.0000   192.0000 </r>
       <r>    -8.2861     0.0082   192.0014 </r>
       <r>    -8.1156     0.9941   192.1709 </r>
       <r>    -7.9451     6.7989   193.3300 </r>
       <r>    -7.7747     4.0725   194.0242 </r>
       <r>    -7.6042     5.5732   194.9744 </r>
       <r>    -7.4337    13.9233   197.3480 </r>
       <r>    -7.2632    14.6407   199.8440 </r>
       <r>    -7.0927     4.8379   200.6688 </r>
       <r>    -6.9223    13.6719   202.9996 </r>
       <r>    -6.7518    15.3544   205.6172 </r>
       <r>    -6.5813    20.0853   209.0414 </r>
       <r>    -6.4108    28.1769   213.8451 </r>
       <r>    -6.2403    18.9924   217.0829 </r>
       <r>    -6.0698     5.3241   217.9906 </r>
       <r>    -5.8994     0.0553   218.0000 </r>
       <r>    -5.7289     0.0000   218.0000 </r>
       <r>    -5.5584     0.0000   218.0000 </r>
       <r>    -5.3879     0.0000   218.0000 </r>
       <r>    -5.2174     0.0000   218.0000 </r>
       <r>    -5.0470     0.0000   218.0000 </r>
       <r>    -4.8765     0.0000   218.0000 </r>
       <r>    -4.7060     0.0472   218.0080 </r>
       <r>    -4.5355     2.0007   218.3491 </r>
       <r>    -4.3650     6.7138   219.4937 </r>
       <r>    -4.1946     3.4221   220.0771 </r>
       <r>    -4.0241     7.2732   221.3171 </r>
       <r>    -3.8536     9.4193   222.9229 </r>
       <r>    -3.6831    12.1208   224.9893 </r>
       <r>    -3.5126    16.4067   227.7863 </r>
       <r>    -3.3421    22.3174   231.5910 </r>
       <r>    -3.1717    23.4595   235.5904 </r>
       <r>    -3.0012    22.4921   239.4249 </r>
       <r>    -2.8307    19.3386   242.7218 </r>
       <r>    -2.6602    19.8781   246.1106 </r>
       <r>    -2.4897    18.4502   249.2560 </r>
       <r>    -2.3193    17.7696   252.2854 </r>
       <r>    -2.1488    12.9577   254.4945 </r>
       <r>    -1.9783     7.4798   255.7696 </r>
       <r>    -1.8078     1.3230   255.9952 </r>
       <r>    -1.6373     0.0283   256.0000 </r>
       <r>    -1.4668     0.0000   256.0000 </r>
       <r>    -1.2964     0.0000   256.0000 </r>
       <r>    -1.1259     0.0000   256.0000 </r>
       <r>    -0.9554     0.0000   256.0000 </r>
       <r>    -0.7849     0.0000   256.0000 </r>
       <r>    -0.6144     0.0000   256.0000 </r>
       <r>    -0.4440     0.0000   256.0000 </r>
       <r>    -0.2735     0.0000   256.0000 </r>
       <r>    -0.1030     0.0000   256.0000 </r>
       <r>     0.0675     0.0000   256.0000 </r>
       <r>     0.2380     0.0141   256.0024 </r>
       <r>     0.4085     0.6659   256.1159 </r>
       <r>     0.5789     1.0852   256.3009 </r>
       <r>     0.7494     5.3684   257.2162 </r>
       <r>     0.9199    12.0218   259.2657 </r>
       <r>     1.0904     7.5755   260.5571 </r>
       <r>     1.2609    17.4097   263.5252 </r>
       <r>     1.4313    18.4371   266.6684 </r>
       <r>     1.6018    23.9835   270.7571 </r>
       <r>     1.7723    28.7248   275.6542 </r>
       <r>     1.9428    29.5391   280.6900 </r>
       <r>     2.1133    29.6953   285.7525 </r>
       <r>     2.2837    30.1644   290.8950 </r>
       <r>     2.4542    35.5155   296.9497 </r>
       <r>     2.6247    33.7376   302.7014 </r>
       <r>     2.7952    35.5011   308.7536 </r>
       <r>     2.9657    38.5910   315.3327 </r>
       <r>     3.1362    44.0038   322.8345 </r>
       <r>     3.3066    56.6019   332.4841 </r>
       <r>     3.4771    62.6507   343.1649 </r>
       <r>     3.6476    65.5841   354.3458 </r>
       <r>     3.8181    65.1398   365.4509 </r>
       <r>     3.9886    62.4010   376.0892 </r>
       <r>     4.1590    58.1741   386.0068 </r>
       <r>     4.3295    54.2833   395.2611 </r>
       <r>     4.5000    48.9910   403.6131 </r>
       <r>     4.6705    43.1270   410.9655 </r>
       <r>     4.8410    40.4592   417.8631 </r>
       <r>     5.0115    34.7056   423.7797 </r>
       <r>     5.1819    29.0481   428.7319 </r>
       <r>     5.3524    27.6271   433.4418 </r>
       <r>     5.5229    26.0398   437.8811 </r>
       <r>     5.6934    21.1665   441.4896 </r>
       <r>     5.8639    14.8646   444.0237 </r>
       <r>     6.0343    15.0266   446.5855 </r>
       <r>     6.2048     8.7164   448.0715 </r>
       <r>     6.3753    11.1311   449.9691 </r>
       <r>     6.5458    14.8897   452.5075 </r>
       <r>     6.7163    18.9740   455.7423 </r>
       <r>     6.8868    16.0625   458.4806 </r>
       <r>     7.0572    24.8437   462.7160 </r>
       <r>     7.2277    24.8038   466.9446 </r>
       <r>     7.3982    22.8791   470.8451 </r>
       <r>     7.5687    23.9310   474.9248 </r>
       <r>     7.7392    29.3205   479.9235 </r>
       <r>     7.9096    28.7088   484.8178 </r>
       <r>     8.0801    29.1757   489.7917 </r>
       <r>     8.2506    27.9660   494.5594 </r>
       <r>     8.4211    35.7446   500.6532 </r>
       <r>     8.5916    43.9740   508.1499 </r>
       <r>     8.7620    49.3057   516.5556 </r>
       <r>     8.9325    58.4577   526.5216 </r>
       <r>     9.1030    58.0509   536.4182 </r>
       <r>     9.2735    58.7292   546.4305 </r>
       <r>     9.4440    55.7137   555.9286 </r>
       <r>     9.6145    55.7584   565.4344 </r>
       <r>     9.7849    53.6045   574.5730 </r>
       <r>     9.9554    54.1826   583.8101 </r>
       <r>    10.1259    55.5502   593.2804 </r>
       <r>    10.2964    52.9782   602.3122 </r>
       <r>    10.4669    45.5593   610.0792 </r>
       <r>    10.6373    28.1651   614.8808 </r>
       <r>    10.8078     6.3896   615.9702 </r>
       <r>    10.9783     0.1750   616.0000 </r>
       <r>    11.1488     0.0001   616.0000 </r>
       <r>    11.3193     0.0000   616.0000 </r>
       <r>    11.4898     0.0000   616.0000 </r>
       <r>    11.6602     0.0000   616.0000 </r>
       <r>    11.8307     0.0000   616.0000 </r>
       <r>    12.0012     0.0000   616.0000 </r>
       <r>    12.1717     0.0000   616.0000 </r>
       <r>    12.3422     0.0000   616.0000 </r>
       <r>    12.5126     0.0000   616.0000 </r>
       <r>    12.6831     0.0000   616.0000 </r>
       <r>    12.8536     0.0000   616.0000 </r>
       <r>    13.0241     0.0000   616.0000 </r>
      </set>
     </set>
    </array>
   </total>
  </dos>
 </calculation>
 <structure name="finalpos" >
  <crystal>
   <varray name="basis" >
    <v>       8.64819000       0.00686512      -0.00662221 </v>
    <v>       0.01263039       8.69559197      -0.02018424 </v>
    <v>       0.02445684      -0.03501477       8.66052747 </v>
   </varray>
   <i name="volume">    651.27600952 </i>
   <varray name="rec_basis" >
    <v>       0.11563102      -0.00016871      -0.00032722 </v>
    <v>      -0.00009093       0.11500201       0.00046521 </v>
    <v>       0.00008820       0.00026789       0.11546724 </v>
   </varray>
  </crystal>
  <varray name="positions" >
   <v>       0.99900166       0.00241790       0.99317257 </v>
   <v>       0.26701794       0.00194868       0.24776457 </v>
   <v>       0.23885022       0.49350085       0.24638563 </v>
   <v>       0.49945238       0.50050818       0.99926661 </v>
   <v>       0.51631069       0.24566864       0.73905977 </v>
   <v>       0.99616106       0.50031855       0.50129104 </v>
   <v>       0.49205450       0.75810885       0.75592068 </v>
   <v>       0.98829499       0.22740390       0.26294607 </v>
   <v>       0.76973299       0.73741281       0.00723381 </v>
   <v>       0.00092021       0.25500439       0.74234194 </v>
   <v>       0.76425403       0.23040500       0.48237707 </v>
   <v>       0.00164899       0.73688256       0.75899776 </v>
   <v>       0.24483823       0.48401100       0.75057835 </v>
   <v>       0.24935981       0.24591318       0.98984223 </v>
   <v>       0.51180000       0.25585081       0.25417125 </v>
   <v>       0.73771839       0.99463112       0.25073174 </v>
   <v>       0.75740807       0.25755806       0.00377166 </v>
   <v>       0.24241920       0.74722309       0.99696291 </v>
   <v>       0.25015994       0.24906837       0.50358041 </v>
   <v>       0.24551556       0.75174232       0.50674815 </v>
   <v>       0.25022077       0.24730525       0.24952642 </v>
   <v>       0.25458862       0.00216777       0.99309243 </v>
   <v>       0.00236857       0.25461593       0.00016217 </v>
   <v>       0.75315468       0.24668795       0.24942591 </v>
   <v>       0.74721118       0.99846583       0.00376434 </v>
   <v>       0.50926091       0.00519235       0.24563453 </v>
   <v>       0.99140846       0.49096439       0.24582314 </v>
   <v>       0.49833175       0.75946318       0.00585104 </v>
   <v>       0.98420419       0.00955336       0.74500617 </v>
   <v>       0.76284217       0.25121654       0.75007689 </v>
   <v>       0.74294465       0.01131878       0.49763478 </v>
   <v>       0.50513884       0.24752855       0.49094475 </v>
   <v>       0.52615401       0.00049756       0.74846570 </v>
   <v>       0.99704097       0.00380586       0.25183155 </v>
   <v>       0.50554405       0.24083370       0.00037553 </v>
   <v>       0.25368063       0.74880853       0.25071503 </v>
   <v>       0.24096845       0.49803210       0.99032089 </v>
   <v>       0.99982466       0.74051551       0.00047733 </v>
   <v>       0.73995192       0.75120526       0.24320778 </v>
   <v>       0.76252507       0.50279107       0.00469031 </v>
   <v>       0.49479934       0.49905374       0.25133891 </v>
   <v>       0.24669074       0.24845017       0.74679217 </v>
   <v>       0.25731081       0.00201449       0.51281779 </v>
   <v>       0.99956550       0.24820162       0.50144015 </v>
   <v>       0.23581495       0.75521339       0.75266888 </v>
   <v>       0.25174215       0.49949618       0.50608787 </v>
   <v>       0.99746869       0.75613875       0.50906248 </v>
   <v>       0.00511689       0.50008849       0.75488892 </v>
   <v>       0.75534457       0.75510831       0.75714010 </v>
   <v>       0.74464917       0.49465895       0.50509477 </v>
   <v>       0.49421118       0.76259352       0.49090673 </v>
   <v>       0.49674665       0.50204979       0.74490354 </v>
   <v>       0.52311650       0.01062253       0.97824946 </v>
   <v>       0.99864006       0.50366073       0.97913898 </v>
   <v>       0.49173715       0.72934597       0.25844984 </v>
   <v>       0.21551892       0.01914349       0.73673255 </v>
   <v>       0.48723609       0.98499017       0.52043745 </v>
   <v>       0.74669530       0.96741625       0.78338953 </v>
   <v>       0.00356782       0.76917626       0.25278784 </v>
   <v>       0.73760925       0.51115131       0.25816260 </v>
   <v>       0.00976698       0.00351481       0.50193382 </v>
   <v>       0.50325384       0.51907298       0.49402598 </v>
   <v>       0.75429735       0.51777522       0.75291409 </v>
   <v>       0.74881703       0.75451490       0.49046475 </v>
  </varray>
 </structure>
</modeling>
