HECN                                    
           1
     8.932500    0.000000    0.000000
     0.005753    9.055598    0.000000
     0.032102   -0.015743    8.937128
   Hf   V    Ti   N    C    Cr   Mo
     7     6     7    13    19     6     6
Direct configuration=     1
   0.99688001  0.99204997  0.99924002
   0.25398003  0.99714995  0.24912000
   0.24803003  0.50165000  0.24955001
   0.50501006  0.49745998  0.99834003
   0.50479003  0.24631001  0.74710002
   0.99427992  0.50449999  0.49779000
   0.49950005  0.75481999  0.74817004
   0.99437004  0.23617001  0.26379999
   0.75718000  0.74102998  0.01100000
   0.00201000  0.25541000  0.73894001
   0.75307001  0.26163001  0.50533002
   0.99514004  0.74492004  0.74511997
   0.25679999  0.49462002  0.74545002
   0.24788999  0.24839000  0.99657997
   0.50833000  0.25676999  0.25376001
   0.74879004  0.98787999  0.26967001
   0.75719000  0.25603001  0.99591997
   0.24762001  0.74973999  0.99974006
   0.25272001  0.24823001  0.50015003
   0.24457999  0.75048999  0.49983999
   0.24982001  0.24942998  0.24825000
   0.26146999  0.99984002  0.99295996
   0.00281000  0.25024000  0.00130000
   0.75313998  0.24617000  0.25492002
   0.74767001  0.99748000  0.01202000
   0.50714994  0.99977000  0.24673000
   0.99051999  0.48088002  0.24100998
   0.50519005  0.76130999  0.00855000
   0.98896989  0.00202000  0.73708999
   0.75744996  0.24437997  0.74896999
   0.73632001  0.00417000  0.51063000
   0.50563996  0.23264999  0.49544997
   0.50008998  0.00061000  0.73471998
   0.99720000  0.99771992  0.25899999
   0.50427997  0.24673000  0.00262000
   0.25133999  0.74958002  0.24910999
   0.24328000  0.50072997  0.99510994
   0.99837005  0.74313996  0.00460000
   0.75633000  0.73891003  0.25767000
   0.75839004  0.50315998  0.00288000
   0.50700002  0.50333002  0.25878999
   0.24900999  0.25315000  0.74854000
   0.24446000  0.99823996  0.50287998
   0.99804009  0.24229999  0.50128003
   0.24177002  0.75340997  0.75018002
   0.25841001  0.50062002  0.50129001
   0.99000004  0.76215003  0.49746000
   0.99203996  0.50055999  0.75138002
   0.75036005  0.74888000  0.74756004
   0.74036002  0.50197000  0.50067003
   0.50575006  0.74958002  0.49720000
   0.50501003  0.50217998  0.73912003
   0.51588997  0.01358000  0.98075008
   0.99841994  0.50976998  0.98613004
   0.50379003  0.73926997  0.25905001
   0.23780002  0.01082000  0.74607998
   0.47957999  0.98308000  0.49717999
   0.74279003  0.97869994  0.76450995
   0.99864998  0.77573999  0.26102000
   0.73551001  0.51468004  0.26666001
   0.02362000  0.99783001  0.49557002
   0.50539000  0.52833005  0.49917999
   0.73876003  0.52828003  0.73814999
   0.75400003  0.72937999  0.49116997
HECN                                    
           1
     8.207148    0.006306   -0.014064
     0.011678    8.350416   -0.008118
     0.015413   -0.022498    8.222880
   Hf   V    Ti   N    C    Cr   Mo
     7     6     7    13    19     6     6
Direct configuration=     2
   0.99377302  0.99670250  0.99276203
   0.26342498  0.00065622  0.24489493
   0.24572820  0.49834565  0.24675155
   0.50237187  0.49995213  0.99981024
   0.50665048  0.23986312  0.74330411
   0.99805948  0.49917149  0.49942027
   0.49437214  0.76404039  0.75400458
   0.99052585  0.23138036  0.26694717
   0.75977819  0.73961285  0.01229096
   0.00383179  0.25612057  0.73624670
   0.75451588  0.25942575  0.50396650
   0.99755770  0.74302102  0.74734762
   0.25480665  0.49293215  0.74743399
   0.24608246  0.24965413  0.99388560
   0.51213606  0.25225351  0.25458965
   0.74220107  0.99212423  0.27128801
   0.75826679  0.25608726  0.99537104
   0.24596249  0.74791022  0.99779710
   0.25282829  0.24826202  0.50267047
   0.24514228  0.75094498  0.50233386
   0.25113615  0.24913007  0.24907168
   0.25778938  0.00041928  0.99404313
   0.00222563  0.24833789  0.00005152
   0.75269128  0.24505624  0.25529680
   0.74642843  0.99738797  0.00740518
   0.50772446  0.99948260  0.24939271
   0.99366003  0.48077682  0.24441059
   0.50514809  0.75909614  0.00551926
   0.98999954  0.00205868  0.74258927
   0.75722189  0.24416665  0.74946954
   0.73700586  0.00388286  0.50565830
   0.50424409  0.23367611  0.49495755
   0.50247980  0.00030368  0.73867859
   0.99516394  0.00503867  0.25426531
   0.50522600  0.24507784  0.00273484
   0.25251214  0.74921008  0.24920577
   0.24331300  0.50122276  0.99302920
   0.99762650  0.74067695  0.00137180
   0.75224970  0.74476599  0.24959634
   0.76040655  0.50396968  0.00204513
   0.50099609  0.50232345  0.25384153
   0.24583857  0.25277014  0.74797930
   0.25384155  0.99760637  0.50579055
   0.99769730  0.24587505  0.50197845
   0.23979942  0.75275634  0.74993429
   0.25442860  0.50103746  0.50365552
   0.99603950  0.75786038  0.50391578
   0.99496394  0.50074565  0.75529579
   0.75279521  0.75670907  0.75153891
   0.74586597  0.49347035  0.50251915
   0.50017345  0.75734602  0.49382385
   0.49810059  0.50128189  0.74486538
   0.52025043  0.01487501  0.98134207
   0.99764304  0.51247913  0.98138581
   0.50471565  0.73831227  0.25823473
   0.23588721  0.01277244  0.74589553
   0.47704837  0.98402628  0.49758383
   0.74164468  0.97430180  0.76591109
   0.00058914  0.77282448  0.25783706
   0.73769803  0.51040876  0.26105544
   0.01915840  0.00167963  0.50133836
   0.50275427  0.52385397  0.49727956
   0.74516320  0.52283942  0.74238920
   0.75463966  0.73964684  0.49270007
HECN                                    
           1
     8.607137    0.002828   -0.006309
     0.008411    8.739283   -0.003641
     0.024616   -0.018773    8.616746
   Hf   V    Ti   N    C    Cr   Mo
     7     6     7    13    19     6     6
Direct configuration=     3
   0.99564660  0.99392255  0.99664501
   0.25776233  0.99856611  0.24741543
   0.24711105  0.50032226  0.24843310
   0.50395490  0.49845976  0.99893032
   0.50553479  0.24372145  0.74558105
   0.99578692  0.50235876  0.49844244
   0.49744807  0.75852083  0.75050752
   0.99282757  0.23424109  0.26506770
   0.75821683  0.74046073  0.01151540
   0.00274150  0.25569801  0.73785863
   0.75364848  0.26074536  0.50478353
   0.99610350  0.74415646  0.74601114
   0.25600018  0.49393948  0.74624796
   0.24717066  0.24889890  0.99550156
   0.50984880  0.25495566  0.25409117
   0.74615592  0.98958223  0.27032253
   0.75762112  0.25605382  0.99569890
   0.24695844  0.74900482  0.99896438
   0.25276072  0.24824148  0.50115974
   0.24480245  0.75067171  0.50083833
   0.25034525  0.24930954  0.24857804
   0.25999755  0.00007060  0.99339738
   0.00257675  0.24947583  0.00080151
   0.75295967  0.24572186  0.25507210
   0.74717831  0.99744509  0.01017237
   0.50737677  0.99965320  0.24779642
   0.99177190  0.48083800  0.24236930
   0.50517537  0.76042177  0.00733706
   0.98937592  0.00203286  0.73929224
   0.75735816  0.24429383  0.74917050
   0.73659922  0.00405774  0.50863752
   0.50508284  0.23306213  0.49525351
   0.50104126  0.00048567  0.73630376
   0.99639422  0.00066378  0.25710078
   0.50465733  0.24606621  0.00266602
   0.25180837  0.74943178  0.24914738
   0.24329557  0.50092928  0.99427595
   0.99807494  0.74215138  0.00330881
   0.75470965  0.74126686  0.25443596
   0.75919753  0.50348686  0.00254296
   0.50460414  0.50292553  0.25681410
   0.24774238  0.25299620  0.74831883
   0.24820767  0.99798782  0.50403687
   0.99790398  0.24373657  0.50155810
   0.24098208  0.75314647  0.75008397
   0.25681590  0.50078467  0.50224161
   0.99240610  0.76042465  0.50004289
   0.99320509  0.50063369  0.75294579
   0.75133323  0.75202601  0.74914709
   0.74255556  0.49855466  0.50141025
   0.50352749  0.75270129  0.49584846
   0.50224114  0.50181255  0.74142957
   0.51763337  0.01410220  0.98098203
   0.99811547  0.51086140  0.98422843
   0.50416051  0.73888587  0.25872298
   0.23703633  0.01160410  0.74600689
   0.47856782  0.98345903  0.49734383
   0.74232860  0.97693062  0.76507510
   0.99942722  0.77457069  0.25974446
   0.73638862  0.51296724  0.26441477
   0.02183200  0.99937219  0.49788346
   0.50433604  0.52653062  0.49842391
   0.74131327  0.52609341  0.73984510
   0.75425897  0.73350655  0.49177631
HECN                                    
           1
     8.594839    0.002935   -0.006547
     0.008511    8.727326   -0.003779
     0.024333   -0.018888    8.604636
   Hf   V    Ti   N    C    Cr   Mo
     7     6     7    13    19     6     6
Direct configuration=     4
   0.99559182  0.99400426  0.99653108
   0.25792845  0.99862763  0.24734128
   0.24707053  0.50026420  0.24838383
   0.50390848  0.49850357  0.99895616
   0.50556752  0.24360815  0.74551427
   0.99585347  0.50226514  0.49847112
   0.49735786  0.75868289  0.75061013
   0.99275999  0.23415698  0.26512296
   0.75826257  0.74043583  0.01153813
   0.00277352  0.25571046  0.73781129
   0.75367392  0.26070661  0.50475956
   0.99614608  0.74412310  0.74605033
   0.25596514  0.49390985  0.74628281
   0.24713881  0.24892110  0.99545416
   0.50991581  0.25487629  0.25410577
   0.74603998  0.98965685  0.27035093
   0.75764006  0.25605482  0.99568926
   0.24692926  0.74897267  0.99893017
   0.25276265  0.24824206  0.50120406
   0.24481237  0.75067972  0.50088220
   0.25036842  0.24930427  0.24859250
   0.25993280  0.00008080  0.99341638
   0.00256647  0.24944241  0.00077953
   0.75295179  0.24570230  0.25507871
   0.74715641  0.99744345  0.01009120
   0.50738691  0.99964816  0.24784325
   0.99182720  0.48083619  0.24242914
   0.50517460  0.76038286  0.00728375
   0.98939411  0.00203357  0.73938896
   0.75735415  0.24429009  0.74917928
   0.73661123  0.00405265  0.50855009
   0.50505827  0.23308016  0.49524484
   0.50108337  0.00048030  0.73637340
   0.99635829  0.00079234  0.25701755
   0.50467399  0.24603718  0.00266804
   0.25182900  0.74942527  0.24914908
   0.24329612  0.50093792  0.99423936
   0.99806183  0.74210809  0.00325202
   0.75463771  0.74136970  0.25429397
   0.75923299  0.50350106  0.00252831
   0.50449843  0.50290784  0.25672700
   0.24768657  0.25298954  0.74830893
   0.24837279  0.99797666  0.50408817
   0.99789794  0.24379939  0.50157041
   0.24094740  0.75313500  0.75007962
   0.25674587  0.50079205  0.50228316
   0.99251248  0.76034930  0.50015647
   0.99325659  0.50063697  0.75301469
   0.75137609  0.75216357  0.74921715
   0.74265252  0.49840531  0.50144278
   0.50342928  0.75283774  0.49578908
   0.50211964  0.50179685  0.74153051
   0.51771010  0.01412493  0.98099250
   0.99810172  0.51090897  0.98414501
   0.50417679  0.73886903  0.25870864
   0.23700266  0.01163842  0.74600364
   0.47852327  0.98347567  0.49735091
   0.74230849  0.97685336  0.76509969
   0.99946132  0.77451943  0.25968849
   0.73642707  0.51289214  0.26431621
   0.02175354  0.99943989  0.49798487
   0.50428967  0.52645199  0.49839042
   0.74142603  0.52599782  0.73991969
   0.75427019  0.73368694  0.49180330
HECN                                    
           1
     8.596741    0.010766   -0.013106
     0.016472    8.696868   -0.011195
     0.017761   -0.026103    8.609380
   Hf   V    Ti   N    C    Cr   Mo
     7     6     7    13    19     6     6
Direct configuration=     5
   0.99416647  0.99897873  0.98973727
   0.26531668  0.00251250  0.24289066
   0.24373036  0.49627091  0.24584069
   0.50072293  0.50112175  0.00002617
   0.50693594  0.23935136  0.74291880
   0.00091855  0.49754035  0.49991048
   0.49241769  0.76476635  0.75664029
   0.98953216  0.23035471  0.26598171
   0.75991824  0.74058825  0.01167188
   0.00422753  0.25543653  0.73768309
   0.75467104  0.25733755  0.50293279
   0.99916430  0.74292230  0.74984860
   0.25262972  0.49276989  0.74898975
   0.24579795  0.24962180  0.99334394
   0.51236990  0.25070369  0.25400291
   0.74035176  0.99497889  0.27005604
   0.75812629  0.25536972  0.99573043
   0.24542999  0.74787910  0.99700458
   0.25320188  0.24824151  0.50261886
   0.24581916  0.75120962  0.50327900
   0.25136334  0.24890605  0.24921188
   0.25802244  0.00063765  0.99261913
   0.00207010  0.24974961  0.99966629
   0.75289052  0.24414066  0.25494303
   0.74433686  0.99755777  0.00571471
   0.50937389  0.99914668  0.24916365
   0.99402332  0.48168168  0.24333262
   0.50479354  0.75986168  0.00601733
   0.99000932  0.00238274  0.74488047
   0.75899739  0.24401891  0.74940318
   0.73837292  0.00366571  0.50565639
   0.50393300  0.23485571  0.49373060
   0.50292836  0.00072176  0.74066199
   0.99417739  0.00845151  0.25238189
   0.50520528  0.24370024  0.00386071
   0.25430377  0.74895220  0.24898198
   0.24207606  0.50115268  0.99073637
   0.99790839  0.73933955  0.99934977
   0.74890755  0.74893597  0.24503007
   0.76226460  0.50353067  0.00194865
   0.49746114  0.50108122  0.25175231
   0.24417377  0.25251479  0.74788215
   0.25863742  0.99781169  0.50791004
   0.99808291  0.24729306  0.50253909
   0.23792200  0.75278300  0.75019501
   0.25321784  0.50072790  0.50527855
   0.00005160  0.75593833  0.50783994
   0.99823606  0.50017054  0.75715291
   0.75432376  0.76056889  0.75404088
   0.74751193  0.48962917  0.50301985
   0.49691298  0.76201864  0.49267764
   0.49432281  0.50095872  0.74657818
   0.52091818  0.01386376  0.98217794
   0.99805906  0.51175338  0.98111742
   0.50384821  0.73922907  0.25595477
   0.23477531  0.01319469  0.74677666
   0.47800578  0.98566921  0.49693229
   0.74136742  0.97538104  0.76684602
   0.00263772  0.76894656  0.25403441
   0.74160049  0.50558710  0.25569894
   0.01471464  0.00418621  0.50453065
   0.50032797  0.51850270  0.49718126
   0.74826644  0.51755528  0.74805744
   0.75321840  0.74528990  0.49542713
HECN                                    
           1
     8.596554    0.009997   -0.012462
     0.015691    8.699858   -0.010467
     0.018406   -0.025395    8.608914
   Hf   V    Ti   N    C    Cr   Mo
     7     6     7    13    19     6     6
Direct configuration=     6
   0.99430732  0.99848914  0.99040349
   0.26459228  0.00213082  0.24332642
   0.24405799  0.49666419  0.24609078
   0.50103572  0.50086347  0.99992121
   0.50680144  0.23977101  0.74317369
   0.00042091  0.49800610  0.49976929
   0.49290263  0.76416617  0.75604853
   0.98984853  0.23072891  0.26589803
   0.75975575  0.74057337  0.01165862
   0.00408482  0.25546366  0.73769558
   0.75457301  0.25766966  0.50311222
   0.99886770  0.74304054  0.74947584
   0.25295675  0.49288167  0.74872452
   0.24592976  0.24955283  0.99355101
   0.51212867  0.25111494  0.25401317
   0.74091052  0.99445416  0.27008495
   0.75807850  0.25543725  0.99572641
   0.24557717  0.74798685  0.99719370
   0.25315866  0.24824149  0.50248002
   0.24572022  0.75115732  0.50304373
   0.25126561  0.24894531  0.24915108
   0.25821003  0.00058269  0.99269745
   0.00211892  0.24971940  0.99977552
   0.75289640  0.24429450  0.25495648
   0.74461391  0.99754662  0.00614428
   0.50917874  0.99919614  0.24903400
   0.99380780  0.48159851  0.24324374
   0.50483098  0.75991309  0.00614165
   0.98994857  0.00234795  0.74434163
   0.75883608  0.24404575  0.74938112
   0.73820021  0.00370422  0.50594019
   0.50404371  0.23468083  0.49387909
   0.50274699  0.00069779  0.74024109
   0.99439248  0.00769721  0.25283620
   0.50515284  0.24393039  0.00374385
   0.25406086  0.74899903  0.24899823
   0.24219608  0.50113170  0.99108012
   0.99792349  0.73961258  0.99973286
   0.74947130  0.74819089  0.24593873
   0.76196713  0.50352806  0.00200529
   0.49815199  0.50126094  0.25224105
   0.24451850  0.25256128  0.74792432
   0.25762974  0.99782854  0.50753433
   0.99806500  0.24694885  0.50244375
   0.23821888  0.75281740  0.75018395
   0.25356386  0.50073367  0.50498494
   0.99931072  0.75637288  0.50708594
   0.99774702  0.50021659  0.75674659
   0.75403489  0.75974078  0.75356670
   0.74703410  0.49049397  0.50286551
   0.49755357  0.76111394  0.49298260
   0.49508755  0.50104018  0.74608361
   0.52060322  0.01388968  0.98206143
   0.99806355  0.51167044  0.98141438
   0.50388070  0.73919380  0.25622494
   0.23499399  0.01304112  0.74670086
   0.47805680  0.98545312  0.49697321
   0.74145951  0.97552585  0.76667488
   0.00232589  0.76949626  0.25458936
   0.74109274  0.50630785  0.25654460
   0.01540539  0.00371751  0.50388857
   0.50071613  0.51928551  0.49730086
   0.74759373  0.51838687  0.74725926
   0.75332241  0.74414655  0.49507069
HECN                                    
           1
     8.662889    0.010745   -0.009904
     0.016532    8.722623   -0.014818
     0.021200   -0.029697    8.669220
   Hf   V    Ti   N    C    Cr   Mo
     7     6     7    13    19     6     6
Direct configuration=     7
   0.99420336  0.99903478  0.99000594
   0.26339425  0.00182789  0.24291944
   0.24199519  0.49552305  0.24570832
   0.50109873  0.50037473  0.99989364
   0.50706204  0.24081248  0.74354593
   0.00034058  0.49885565  0.50141433
   0.49305215  0.76135981  0.75571085
   0.98719590  0.23061696  0.26647313
   0.76157113  0.73996980  0.01076734
   0.00399288  0.25462873  0.73840578
   0.75607545  0.25526611  0.50166330
   0.00035774  0.74121137  0.75243243
   0.25085875  0.49185566  0.75017372
   0.24534782  0.24927061  0.99194534
   0.51333192  0.25169887  0.25311072
   0.74105590  0.99655115  0.26869625
   0.75738725  0.25526168  0.99590152
   0.24322690  0.74810183  0.99687995
   0.25258127  0.24749032  0.50300557
   0.24595848  0.75195917  0.50342164
   0.25149222  0.24800798  0.24923335
   0.25703513  0.00115397  0.99173299
   0.00189289  0.25096752  0.99935710
   0.75308515  0.24331031  0.25439015
   0.74402782  0.99831861  0.00314210
   0.51015438  0.99945470  0.24879105
   0.99446060  0.48322525  0.24372402
   0.50392147  0.76017484  0.00631839
   0.99059944  0.00319098  0.74496599
   0.75980001  0.24468444  0.74938443
   0.74126303  0.00329437  0.50529155
   0.50364242  0.23774843  0.49323324
   0.50419686  0.00152356  0.74360929
   0.99513776  0.00482289  0.25280204
   0.50509134  0.24279692  0.00357273
   0.25504230  0.74944233  0.24860355
   0.24116217  0.50085313  0.98983919
   0.99809813  0.74038172  0.99836474
   0.74674210  0.74957396  0.24587083
   0.76233205  0.50311770  0.00207783
   0.49892630  0.50062689  0.25266291
   0.24414426  0.25185943  0.74770734
   0.25633700  0.99925819  0.50938015
   0.99919299  0.24706549  0.50274253
   0.23708105  0.75315997  0.75083366
   0.25397195  0.50031289  0.50523067
   0.00102470  0.75501763  0.50811567
   0.00161947  0.49953518  0.75706914
   0.75401205  0.75854067  0.75510308
   0.74674151  0.49065350  0.50247028
   0.49624781  0.76056210  0.49261752
   0.49387878  0.50179094  0.74570649
   0.52264849  0.01306674  0.98190592
   0.99776872  0.51126659  0.98051380
   0.50218704  0.73681659  0.25544086
   0.23178927  0.01385106  0.74638310
   0.48042959  0.98669977  0.49665501
   0.73960128  0.97711362  0.76826690
   0.00272762  0.77236303  0.25294774
   0.74039646  0.50641278  0.25427210
   0.01647085  0.00418737  0.50516191
   0.50196207  0.51955644  0.49588027
   0.74922264  0.51868543  0.75164613
   0.75235352  0.74388318  0.49490726
HECN                                    
           1
     8.660326    0.010716   -0.010003
     0.016500    8.721743   -0.014650
     0.021092   -0.029531    8.666890
   Hf   V    Ti   N    C    Cr   Mo
     7     6     7    13    19     6     6
Direct configuration=     8
   0.99420735  0.99901375  0.99002118
   0.26344019  0.00183958  0.24293505
   0.24207429  0.49556704  0.24572300
   0.50109631  0.50039357  0.99989471
   0.50705206  0.24077233  0.74353163
   0.00034368  0.49882287  0.50135118
   0.49304641  0.76146799  0.75572386
   0.98729764  0.23062125  0.26645103
   0.76150149  0.73999309  0.01080158
   0.00399641  0.25466090  0.73837854
   0.75601781  0.25535879  0.50171897
   0.00030062  0.74128183  0.75231901
   0.25093923  0.49189517  0.75011810
   0.24537012  0.24928152  0.99200696
   0.51328576  0.25167638  0.25314536
   0.74105032  0.99647034  0.26874950
   0.75741376  0.25526844  0.99589479
   0.24331704  0.74809740  0.99689196
   0.25260341  0.24751926  0.50298541
   0.24594935  0.75192826  0.50340713
   0.25148352  0.24804411  0.24923021
   0.25708018  0.00113196  0.99176998
   0.00190156  0.25091942  0.99937313
   0.75307790  0.24334826  0.25441191
   0.74405026  0.99828891  0.00325729
   0.51011696  0.99944475  0.24880038
   0.99443557  0.48316254  0.24370556
   0.50395635  0.76016474  0.00631159
   0.99057449  0.00315847  0.74494202
   0.75976304  0.24465982  0.74938430
   0.74114555  0.00331019  0.50531649
   0.50365781  0.23763020  0.49325796
   0.50414130  0.00149167  0.74348002
   0.99510917  0.00493369  0.25280342
   0.50509369  0.24284061  0.00357932
   0.25500466  0.74942526  0.24861870
   0.24120180  0.50086389  0.98988681
   0.99809142  0.74035210  0.99841724
   0.74684677  0.74952064  0.24587337
   0.76231805  0.50313352  0.00207506
   0.49889661  0.50065133  0.25264675
   0.24415861  0.25188649  0.74771568
   0.25638661  0.99920305  0.50930927
   0.99914973  0.24706099  0.50273108
   0.23712470  0.75314675  0.75080870
   0.25395630  0.50032910  0.50522126
   0.00095898  0.75506986  0.50807620
   0.00147096  0.49956145  0.75705682
   0.75401294  0.75858690  0.75504414
   0.74675273  0.49064735  0.50248544
   0.49629788  0.76058337  0.49263152
   0.49392514  0.50176201  0.74572093
   0.52257004  0.01309847  0.98191193
   0.99778001  0.51128217  0.98054837
   0.50225198  0.73690823  0.25547098
   0.23191217  0.01381984  0.74639524
   0.48033859  0.98665173  0.49666723
   0.73967257  0.97705239  0.76820575
   0.00271220  0.77225256  0.25301069
   0.74042314  0.50640877  0.25435931
   0.01643001  0.00416924  0.50511304
   0.50191427  0.51954602  0.49593479
   0.74916022  0.51867385  0.75147779
   0.75239068  0.74389333  0.49491352
HECN                                    
           1
     8.637825    0.010336   -0.007298
     0.016123    8.677883   -0.015777
     0.023710   -0.030561    8.634978
   Hf   V    Ti   N    C    Cr   Mo
     7     6     7    13    19     6     6
Direct configuration=     9
   0.99391734  0.00005444  0.98981872
   0.26332257  0.00198945  0.24313132
   0.24054224  0.49433011  0.24550070
   0.50078205  0.49986218  0.00006737
   0.50768923  0.24262232  0.74326425
   0.99950708  0.49982758  0.50280150
   0.49334772  0.75951703  0.75513737
   0.98435170  0.22967755  0.26743482
   0.76423468  0.73939792  0.00986113
   0.00381987  0.25340098  0.73891480
   0.75812084  0.25296640  0.49977389
   0.00174208  0.73884345  0.75561576
   0.24872968  0.49029287  0.75123310
   0.24447352  0.24851660  0.99025396
   0.51450737  0.25269432  0.25247360
   0.74148871  0.99807443  0.26763460
   0.75669923  0.25492021  0.99589670
   0.24074075  0.74831044  0.99652009
   0.25216995  0.24696258  0.50347983
   0.24622939  0.75283284  0.50357358
   0.25162813  0.24718431  0.24926688
   0.25504821  0.00179859  0.99116640
   0.00152844  0.25232906  0.99893803
   0.75320573  0.24258292  0.25359109
   0.74438052  0.99922201  0.00003121
   0.51015115  0.00011045  0.24850314
   0.99479545  0.48500772  0.24500422
   0.50272663  0.76007215  0.00613367
   0.99148684  0.00430373  0.74512403
   0.76030247  0.24539984  0.74942292
   0.74476719  0.00319266  0.50422187
   0.50338711  0.24140796  0.49296716
   0.50626645  0.00135428  0.74747898
   0.99592974  0.00309312  0.25327490
   0.50499803  0.24163278  0.00292074
   0.25524031  0.74947239  0.24819364
   0.24053394  0.50038854  0.98940723
   0.99806978  0.74162005  0.99780473
   0.74452878  0.75037416  0.24643606
   0.76229667  0.50267453  0.00246460
   0.49915554  0.49980373  0.25266575
   0.24435430  0.25099001  0.74749703
   0.25605742  0.00066549  0.51095509
   0.00031883  0.24715919  0.50297898
   0.23655628  0.75364766  0.75156702
   0.25457498  0.49993787  0.50499432
   0.00146590  0.75474816  0.50812269
   0.00491304  0.49887301  0.75695660
   0.75375843  0.75748184  0.75641970
   0.74642835  0.49130614  0.50250692
   0.49568749  0.75968123  0.49229323
   0.49384821  0.50249301  0.74491290
   0.52527750  0.01223827  0.98102380
   0.99720898  0.51072077  0.97924758
   0.50015314  0.73391530  0.25517115
   0.22702628  0.01524461  0.74567147
   0.48228641  0.98777869  0.49655221
   0.73689072  0.97767792  0.77033065
   0.00254244  0.77405260  0.25197929
   0.73954855  0.50763900  0.25294940
   0.01734546  0.00368691  0.50645587
   0.50372301  0.51989953  0.49429495
   0.75146570  0.51927141  0.75579534
   0.75172587  0.74277248  0.49391961
HECN                                    
           1
     8.640686    0.010384   -0.007642
     0.016171    8.683461   -0.015633
     0.023377   -0.030430    8.639037
   Hf   V    Ti   N    C    Cr   Mo
     7     6     7    13    19     6     6
Direct configuration=    10
   0.99395431  0.99992141  0.98984453
   0.26333757  0.00197029  0.24310626
   0.24073760  0.49448824  0.24552904
   0.50082213  0.49993011  0.00004532
   0.50760796  0.24238583  0.74329838
   0.99961381  0.49969913  0.50261630
   0.49330928  0.75976643  0.75521228
   0.98472741  0.22979819  0.26730913
   0.76388610  0.73947401  0.00998131
   0.00384241  0.25356203  0.73884635
   0.75785259  0.25327225  0.50002233
   0.00155841  0.73915509  0.75519500
   0.24901150  0.49049769  0.75109070
   0.24458779  0.24861441  0.99047773
   0.51435156  0.25256420  0.25255939
   0.74143275  0.99786939  0.26777692
   0.75679035  0.25496473  0.99589644
   0.24106926  0.74828322  0.99656745
   0.25222525  0.24703374  0.50341670
   0.24619368  0.75271720  0.50355233
   0.25160970  0.24729422  0.24926222
   0.25530730  0.00171339  0.99124336
   0.00157600  0.25214887  0.99899354
   0.75318940  0.24268077  0.25369589
   0.74433827  0.99910278  0.00044305
   0.51014677  0.00002535  0.24854107
   0.99474960  0.48477182  0.24483842
   0.50288344  0.76008399  0.00615633
   0.99137050  0.00415732  0.74510081
   0.76023368  0.24530524  0.74941800
   0.74430531  0.00320768  0.50436176
   0.50342161  0.24092504  0.49300420
   0.50599561  0.00137177  0.74696855
   0.99582513  0.00332840  0.25321478
   0.50501021  0.24178720  0.00300484
   0.25521024  0.74946637  0.24824791
   0.24061909  0.50044931  0.98946844
   0.99807251  0.74145798  0.99788290
   0.74482439  0.75026505  0.24636412
   0.76229941  0.50273320  0.00241488
   0.49912252  0.49991208  0.25266335
   0.24432934  0.25110461  0.74752497
   0.25609946  0.00047851  0.51074494
   0.00016975  0.24714662  0.50294738
   0.23662880  0.75358361  0.75147018
   0.25449607  0.49998788  0.50502332
   0.00140126  0.75478928  0.50811678
   0.00447410  0.49896100  0.75696954
   0.75379094  0.75762309  0.75624410
   0.74646971  0.49122192  0.50250415
   0.49576532  0.75979656  0.49233641
   0.49385798  0.50239958  0.74501604
   0.52493221  0.01234824  0.98113730
   0.99728175  0.51079256  0.97941363
   0.50042079  0.73429792  0.25520939
   0.22764930  0.01506251  0.74576365
   0.48203801  0.98763462  0.49656695
   0.73724555  0.97759793  0.77005926
   0.00256404  0.77382251  0.25211092
   0.73966002  0.50748176  0.25312933
   0.01722878  0.00374854  0.50628449
   0.50349228  0.51985436  0.49450435
   0.75117187  0.51919494  0.75524424
   0.75181061  0.74291578  0.49404648
HECN                                    
           1
     8.642616    0.010192   -0.006270
     0.015969    8.693370   -0.012648
     0.024747   -0.027507    8.634064
   Hf   V    Ti   N    C    Cr   Mo
     7     6     7    13    19     6     6
Direct configuration=    11
   0.99398377  0.00118070  0.99006239
   0.26477363  0.00268155  0.24364242
   0.24058877  0.49377376  0.24570794
   0.49996473  0.50011184  0.00003841
   0.50840013  0.24350253  0.74220848
   0.99918358  0.49990932  0.50246196
   0.49302983  0.76003515  0.75517083
   0.98406097  0.22894723  0.26771288
   0.76544023  0.73981649  0.00936486
   0.00365321  0.25250490  0.73907307
   0.75892590  0.25212572  0.49863371
   0.00185594  0.73805494  0.75655782
   0.24804964  0.48936915  0.75093988
   0.24409010  0.24776105  0.99017611
   0.51443568  0.25300974  0.25273893
   0.74164249  0.99769210  0.26745786
   0.75651942  0.25450708  0.99582672
   0.24055462  0.74852034  0.99645410
   0.25248275  0.24746169  0.50323087
   0.24646616  0.75286299  0.50341060
   0.25144012  0.24725391  0.24923858
   0.25378355  0.00199899  0.99113099
   0.00120327  0.25325047  0.99887160
   0.75309546  0.24292676  0.25300017
   0.74559719  0.99941927  0.99980247
   0.50956377  0.00062540  0.24832136
   0.99408471  0.48570977  0.24578951
   0.50206275  0.75983393  0.00611072
   0.99139002  0.00479802  0.74503023
   0.76029147  0.24553002  0.74934453
   0.74610570  0.00394609  0.50382446
   0.50362155  0.24293751  0.49293003
   0.50745851  0.00094734  0.74865514
   0.99578995  0.00497169  0.25349413
   0.50487743  0.24120090  0.00244577
   0.25461744  0.74892691  0.24817903
   0.24055978  0.50000893  0.98981289
   0.99795979  0.74215960  0.99855236
   0.74411862  0.75070080  0.24621081
   0.76211225  0.50245485  0.00324591
   0.49778114  0.49907280  0.25163725
   0.24491316  0.25063802  0.74739207
   0.25808378  0.00067059  0.51134712
   0.00048715  0.24737007  0.50294419
   0.23682153  0.75390698  0.75166219
   0.25455344  0.49997332  0.50488988
   0.00073075  0.75567652  0.50770721
   0.00511072  0.49857644  0.75657849
   0.75398786  0.75812490  0.75681663
   0.74679154  0.49123371  0.50334911
   0.49602684  0.76027359  0.49192777
   0.49487987  0.50237966  0.74466478
   0.52587603  0.01180941  0.98025497
   0.99716331  0.51003362  0.97934855
   0.49903809  0.73319251  0.25528921
   0.22441361  0.01629570  0.74525336
   0.48279495  0.98829067  0.49705045
   0.73563905  0.97686169  0.77106098
   0.00209684  0.77142513  0.25223089
   0.74010124  0.50821423  0.25330499
   0.01612507  0.00286136  0.50666282
   0.50413347  0.51854750  0.49385758
   0.75309045  0.51843075  0.75665844
   0.75152559  0.74271114  0.49325068
HECN                                    
           1
     8.643276    0.010126   -0.005800
     0.015900    8.696760   -0.011627
     0.025215   -0.026507    8.632362
   Hf   V    Ti   N    C    Cr   Mo