 running   28 mpi-ranks, on    1 nodes
 distrk:  each k-point on   28 cores,    1 groups
 distr:  one band on    1 cores,   28 groups
 vasp.6.4.3 19Mar24 (build Sep 18 2024 11:30:23) complex                        
  
 POSCAR found type information on POSCAR HfV ZrN C CrTa
 POSCAR found :  7 types and      64 ions
 Reading from existing POTCAR
 scaLAPACK will be used
 -----------------------------------------------------------------------------
|                                                                             |
|           W    W    AA    RRRRR   N    N  II  N    N   GGGG   !!!           |
|           W    W   A  A   R    R  NN   N  II  NN   N  G    G  !!!           |
|           W    W  A    A  R    R  N N  N  II  N N  N  G       !!!           |
|           W WW W  AAAAAA  RRRRR   N  N N  II  N  N N  G  GGG   !            |
|           WW  WW  A    A  R   R   N   NN  II  N   NN  G    G                |
|           W    W  A    A  R    R  N    N  II  N    N   GGGG   !!!           |
|                                                                             |
|     For optimal performance we recommend to set                             |
|       NCORE = 2 up to number-of-cores-per-socket                            |
|     NCORE specifies how many cores store one orbital (NPAR=cpu/NCORE).      |
|     This setting can greatly improve the performance of VASP for DFT.       |
|     The default, NCORE=1 might be grossly inefficient on modern             |
|     multi-core architectures or massively parallel machines. Do your        |
|     own testing! More info at https://www.vasp.at/wiki/index.php/NCORE      |
|     Unfortunately you need to use the default for GW and RPA                |
|     calculations (for HF NCORE is supported but not extensively tested      |
|     yet).                                                                   |
|                                                                             |
 -----------------------------------------------------------------------------

 Reading from existing POTCAR
 -----------------------------------------------------------------------------
|                                                                             |
|               ----> ADVICE to this user running VASP <----                  |
|                                                                             |
|     You have a (more or less) 'large supercell' and for larger cells it     |
|     might be more efficient to use real-space projection operators.         |
|     Therefore, try LREAL= Auto in the INCAR file.                           |
|     Mind: If you want to do very accurate calculations, keep the            |
|     reciprocal projection scheme (i.e. LREAL=.FALSE.).                      |
|                                                                             |
 -----------------------------------------------------------------------------

 LDA part: xc-table for (Slater+PW92), standard interpolation
 POSCAR, INCAR and KPOINTS ok, starting setup
 FFT: planning ... GRIDC
 FFT: planning ... GRID_SOFT
 FFT: planning ... GRID
 WAVECAR not read
 entering main loop
       N       E                     dE             d eps       ncg     rms          rms(c)
DAV:   1     0.523454296722E+04    0.52345E+04   -0.17822E+05  7868   0.140E+03
DAV:   2     0.159996427118E+03   -0.50745E+04   -0.49043E+04  7840   0.515E+02
DAV:   3    -0.707610212562E+03   -0.86761E+03   -0.81086E+03 11760   0.178E+02
DAV:   4    -0.794281575884E+03   -0.86671E+02   -0.83964E+02 12572   0.705E+01
DAV:   5    -0.799618824340E+03   -0.53372E+01   -0.52624E+01 11620   0.137E+01    0.800E+01
RMM:   6    -0.847382652468E+03   -0.47764E+02   -0.18889E+03 10502   0.151E+02    0.109E+02
RMM:   7    -0.648061691249E+03    0.19932E+03   -0.29045E+02 10352   0.579E+01    0.557E+01
RMM:   8    -0.654943050656E+03   -0.68814E+01   -0.12260E+02 10752   0.211E+01    0.355E+01
RMM:   9    -0.648836206308E+03    0.61068E+01   -0.47502E+01 11020   0.139E+01    0.280E+01
RMM:  10    -0.644740433584E+03    0.40958E+01   -0.15670E+01 10856   0.883E+00    0.139E+01
RMM:  11    -0.643723179410E+03    0.10173E+01   -0.74179E+00 10621   0.542E+00    0.133E+01
RMM:  12    -0.642941938682E+03    0.78124E+00   -0.40390E+00 10983   0.429E+00    0.102E+01
RMM:  13    -0.642777394644E+03    0.16454E+00   -0.30025E+00 10897   0.338E+00    0.825E+00
RMM:  14    -0.643037685092E+03   -0.26029E+00   -0.28450E+00 11436   0.367E+00    0.951E+00
RMM:  15    -0.642792341942E+03    0.24534E+00   -0.75284E-01 10408   0.240E+00    0.682E+00
RMM:  16    -0.642389033882E+03    0.40331E+00   -0.58651E-01 10648   0.179E+00    0.433E+00
RMM:  17    -0.642238083425E+03    0.15095E+00   -0.42061E-01 11051   0.126E+00    0.183E+00
RMM:  18    -0.642237647481E+03    0.43594E-03   -0.21027E-01 10849   0.772E-01    0.150E+00
RMM:  19    -0.642233383881E+03    0.42636E-02   -0.10596E-01 10965   0.591E-01    0.101E+00
RMM:  20    -0.642230626344E+03    0.27575E-02   -0.42171E-02 10920   0.400E-01    0.615E-01
RMM:  21    -0.642232613411E+03   -0.19871E-02   -0.15493E-02 10519   0.292E-01    0.102E+00
RMM:  22    -0.642226582231E+03    0.60312E-02   -0.10372E-02 10572   0.239E-01    0.391E-01
RMM:  23    -0.642226610907E+03   -0.28675E-04   -0.72322E-03 10929   0.157E-01    0.329E-01
RMM:  24    -0.642226130379E+03    0.48053E-03   -0.25861E-03 10124   0.115E-01    0.888E-02
RMM:  25    -0.642226069974E+03    0.60405E-04   -0.74651E-04  9201   0.550E-02    0.679E-02
RMM:  26    -0.642226057391E+03    0.12582E-04   -0.32913E-04  7983   0.345E-02    0.385E-02
RMM:  27    -0.642226059213E+03   -0.18215E-05   -0.20811E-04  8214   0.283E-02    0.198E-02
RMM:  28    -0.642226054005E+03    0.52075E-05   -0.57274E-05  5872   0.213E-02
   1 F= -.64222605E+03 E0= -.64214837E+03  d E =-.642226E+03
 curvature:   0.00 expect dE= 0.000E+00 dE for cont linesearch  0.000E+00
 trial: gam= 0.00000 g(F)=  0.167E+01 g(S)=  0.181E+01 ort = 0.000E+00 (trialstep = 0.100E+01)
 search vector abs. value=  0.347E+01
 bond charge predicted
       N       E                     dE             d eps       ncg     rms          rms(c)
DAV:   1    -0.657953548565E+03   -0.15727E+02   -0.66756E+02 11368   0.129E+02    0.456E+01
RMM:   2    -0.778213705958E+03   -0.12026E+03   -0.18399E+02 10881   0.407E+01    0.738E+01
RMM:   3    -0.647648769965E+03    0.13056E+03   -0.61240E+01  9484   0.322E+01    0.284E+01
RMM:   4    -0.645456505731E+03    0.21923E+01   -0.16696E+01 11040   0.103E+01    0.188E+01
RMM:   5    -0.643569841038E+03    0.18867E+01   -0.70005E+00 10411   0.724E+00    0.180E+01
RMM:   6    -0.642781448128E+03    0.78839E+00   -0.24336E+00 10605   0.457E+00    0.127E+01
RMM:   7    -0.642904417738E+03   -0.12297E+00   -0.16456E+00 10372   0.320E+00    0.128E+01
RMM:   8    -0.641993413013E+03    0.91100E+00   -0.76182E-01 10608   0.234E+00    0.359E+00
RMM:   9    -0.642062621998E+03   -0.69209E-01   -0.32666E-01 10857   0.132E+00    0.469E+00
RMM:  10    -0.641970046119E+03    0.92576E-01   -0.18435E-01 10578   0.118E+00    0.249E+00
RMM:  11    -0.641958261553E+03    0.11785E-01   -0.91932E-02 10566   0.723E-01    0.202E+00
RMM:  12    -0.641981207246E+03   -0.22946E-01   -0.64758E-02 10825   0.587E-01    0.298E+00
RMM:  13    -0.641948730289E+03    0.32477E-01   -0.31431E-02 10421   0.519E-01    0.129E+00
RMM:  14    -0.641943184277E+03    0.55460E-02   -0.13136E-02 10646   0.250E-01    0.599E-01
RMM:  15    -0.641946579153E+03   -0.33949E-02   -0.79624E-03 10588   0.196E-01    0.104E+00
RMM:  16    -0.641942054467E+03    0.45247E-02   -0.39112E-03  9883   0.168E-01    0.264E-01
RMM:  17    -0.641942460718E+03   -0.40625E-03   -0.22785E-03 10226   0.102E-01    0.347E-01
RMM:  18    -0.641941986606E+03    0.47411E-03   -0.11708E-03  9950   0.862E-02    0.158E-01
RMM:  19    -0.641941901489E+03    0.85117E-04   -0.46703E-04  9273   0.469E-02    0.719E-02
RMM:  20    -0.641941877822E+03    0.23667E-04   -0.19153E-04  8001   0.292E-02    0.400E-02
RMM:  21    -0.641941883057E+03   -0.52352E-05   -0.97577E-05  6894   0.225E-02
   2 F= -.64194188E+03 E0= -.64185815E+03  d E =0.284171E+00
 trial-energy change:    0.284171  1 .order    0.142219   -3.472525    3.756964
 step:   0.4512(harm=  0.4803)  dis= 0.03717  next Energy=  -642.996345 (dE=-0.770E+00)
 bond charge predicted
       N       E                     dE             d eps       ncg     rms          rms(c)
DAV:   1    -0.647135888190E+03   -0.51940E+01   -0.19168E+02 11396   0.749E+01    0.216E+01
RMM:   2    -0.682707763258E+03   -0.35572E+02   -0.95858E+01  9115   0.460E+01    0.602E+01
RMM:   3    -0.648847022540E+03    0.33861E+02   -0.21804E+01  9488   0.209E+01    0.350E+01
RMM:   4    -0.643771058839E+03    0.50760E+01   -0.50043E+00 10612   0.641E+00    0.876E+00
RMM:   5    -0.643775795261E+03   -0.47364E-02   -0.17009E+00 10778   0.378E+00    0.103E+01
RMM:   6    -0.643489308182E+03    0.28649E+00   -0.90503E-01 10301   0.300E+00    0.887E+00
RMM:   7    -0.643133001102E+03    0.35631E+00   -0.51958E-01 10616   0.210E+00    0.442E+00
RMM:   8    -0.643342801732E+03   -0.20980E+00   -0.49270E-01 10691   0.211E+00    0.817E+00
RMM:   9    -0.643047338448E+03    0.29546E+00   -0.24178E-01 10295   0.164E+00    0.320E+00
RMM:  10    -0.643006111139E+03    0.41227E-01   -0.98578E-02 10632   0.814E-01    0.168E+00
RMM:  11    -0.643012921662E+03   -0.68105E-02   -0.49332E-02 10462   0.538E-01    0.190E+00
RMM:  12    -0.642995062682E+03    0.17859E-01   -0.19186E-02 10391   0.384E-01    0.685E-01
RMM:  13    -0.642996389008E+03   -0.13263E-02   -0.10100E-02 10696   0.236E-01    0.810E-01
RMM:  14    -0.642995614517E+03    0.77449E-03   -0.72448E-03 10783   0.197E-01    0.624E-01
RMM:  15    -0.642993813169E+03    0.18013E-02   -0.30279E-03 10069   0.135E-01    0.261E-01
RMM:  16    -0.642994109670E+03   -0.29650E-03   -0.15513E-03  9620   0.947E-02    0.314E-01
RMM:  17    -0.642993683587E+03    0.42608E-03   -0.60202E-04  9542   0.669E-02    0.139E-01
RMM:  18    -0.642993605387E+03    0.78200E-04   -0.27374E-04  8342   0.368E-02    0.772E-02
RMM:  19    -0.642993617982E+03   -0.12595E-04   -0.32836E-04  9312   0.363E-02    0.607E-02
RMM:  20    -0.642993603444E+03    0.14538E-04   -0.10532E-04  7528   0.271E-02    0.225E-02
RMM:  21    -0.642993594897E+03    0.85472E-05   -0.22707E-05  5192   0.189E-02
   3 F= -.64299359E+03 E0= -.64291375E+03  d E =-.767541E+00
 curvature:  -0.24 expect dE=-0.157E+00 dE for cont linesearch -0.268E-03
 trial: gam= 0.20651 g(F)=  0.367E+00 g(S)=  0.287E+00 ort =-0.624E-01 (trialstep = 0.890E+00)
 search vector abs. value=  0.777E+00
 bond charge predicted
       N       E                     dE             d eps       ncg     rms          rms(c)
DAV:   1    -0.642275410660E+03    0.71819E+00   -0.12423E+02 11536   0.596E+01    0.617E+00
RMM:   2    -0.646405932614E+03   -0.41305E+01   -0.16922E+01 10314   0.147E+01    0.207E+01
RMM:   3    -0.643844052641E+03    0.25619E+01   -0.39440E+00  9949   0.786E+00    0.106E+01
RMM:   4    -0.643445678605E+03    0.39837E+00   -0.15014E+00 10978   0.349E+00    0.553E+00
RMM:   5    -0.643353639081E+03    0.92040E-01   -0.42177E-01 10797   0.188E+00    0.322E+00
RMM:   6    -0.643344686603E+03    0.89525E-02   -0.20017E-01 10632   0.120E+00    0.328E+00
RMM:   7    -0.643299895939E+03    0.44791E-01   -0.87489E-02 10718   0.815E-01    0.165E+00
RMM:   8    -0.643321451711E+03   -0.21556E-01   -0.68767E-02 10654   0.625E-01    0.248E+00
RMM:   9    -0.643302179510E+03    0.19272E-01   -0.40022E-02 10357   0.615E-01    0.180E+00
RMM:  10    -0.643288256582E+03    0.13923E-01   -0.16006E-02 10470   0.357E-01    0.574E-01
RMM:  11    -0.643289629927E+03   -0.13733E-02   -0.77258E-03 10457   0.201E-01    0.680E-01
RMM:  12    -0.643288303134E+03    0.13268E-02   -0.37687E-03 10215   0.173E-01    0.404E-01
RMM:  13    -0.643287434500E+03    0.86863E-03   -0.15819E-03  9732   0.939E-02    0.131E-01
RMM:  14    -0.643287834105E+03   -0.39961E-03   -0.95336E-04  9203   0.721E-02    0.289E-01
RMM:  15    -0.643287500138E+03    0.33397E-03   -0.44576E-04  8911   0.582E-02    0.965E-02
RMM:  16    -0.643287464896E+03    0.35242E-04   -0.19645E-04  7819   0.310E-02    0.416E-02
RMM:  17    -0.643287467594E+03   -0.26978E-05   -0.73348E-05  6224   0.204E-02
   4 F= -.64328747E+03 E0= -.64321010E+03  d E =-.293873E+00
 trial-energy change:   -0.293873  1 .order   -0.293133   -0.571423   -0.014842
 step:   0.9140(harm=  0.9140)  dis= 0.05142  next Energy=  -643.286926 (dE=-0.293E+00)
 bond charge predicted
       N       E                     dE             d eps       ncg     rms          rms(c)
DAV:   1    -0.643286913618E+03    0.55128E-03   -0.88542E-02 11844   0.159E+00    0.170E-01
RMM:   2    -0.643290116409E+03   -0.32028E-02   -0.12462E-02 10633   0.388E-01    0.586E-01
RMM:   3    -0.643288111587E+03    0.20048E-02   -0.26702E-03  9364   0.213E-01    0.278E-01
RMM:   4    -0.643287809878E+03    0.30171E-03   -0.10688E-03 10071   0.101E-01    0.161E-01
RMM:   5    -0.643287726854E+03    0.83024E-04   -0.30028E-04  8855   0.564E-02    0.841E-02
RMM:   6    -0.643287735646E+03   -0.87915E-05   -0.15025E-04  7596   0.386E-02    0.987E-02
RMM:   7    -0.643287692903E+03    0.42743E-04   -0.62801E-05  5885   0.286E-02    0.429E-02
RMM:   8    -0.643287703809E+03   -0.10906E-04   -0.46499E-05  5753   0.240E-02    0.577E-02
RMM:   9    -0.643287697764E+03    0.60448E-05   -0.27140E-05  5183   0.220E-02
   5 F= -.64328770E+03 E0= -.64321038E+03  d E =-.294103E+00
 curvature:  -0.55 expect dE=-0.101E+00 dE for cont linesearch -0.791E-06
 trial: gam= 0.30660 g(F)=  0.157E+00 g(S)=  0.249E-01 ort = 0.105E-02 (trialstep = 0.895E+00)
 search vector abs. value=  0.256E+00
 bond charge predicted
       N       E                     dE             d eps       ncg     rms          rms(c)
DAV:   1    -0.642688483653E+03    0.59922E+00   -0.38579E+01  8344   0.393E+01    0.196E+00
RMM:   2    -0.643440786642E+03   -0.75230E+00   -0.67480E+00 11775   0.771E+00    0.436E+00
RMM:   3    -0.643436705010E+03    0.40816E-02   -0.94730E-01 10752   0.317E+00    0.358E+00
RMM:   4    -0.643412633829E+03    0.24071E-01   -0.24352E-01 10825   0.149E+00    0.218E+00
RMM:   5    -0.643401531834E+03    0.11102E-01   -0.89722E-02 10945   0.801E-01    0.134E+00
RMM:   6    -0.643395153662E+03    0.63782E-02   -0.32210E-02 10849   0.463E-01    0.102E+00
RMM:   7    -0.643393449169E+03    0.17045E-02   -0.16735E-02 10545   0.293E-01    0.750E-01
RMM:   8    -0.643398000440E+03   -0.45513E-02   -0.13030E-02 10843   0.311E-01    0.118E+00
RMM:   9    -0.643390656495E+03    0.73439E-02   -0.79322E-03 10815   0.245E-01    0.365E-01
RMM:  10    -0.643390742265E+03   -0.85769E-04   -0.27493E-03 10279   0.130E-01    0.378E-01
RMM:  11    -0.643390862792E+03   -0.12053E-03   -0.16052E-03  9692   0.106E-01    0.354E-01
RMM:  12    -0.643390235464E+03    0.62733E-03   -0.70746E-04  9801   0.761E-02    0.118E-01
RMM:  13    -0.643390222778E+03    0.12686E-04   -0.30113E-04  8645   0.481E-02    0.933E-02
RMM:  14    -0.643390206114E+03    0.16664E-04   -0.13968E-04  7730   0.288E-02    0.702E-02
RMM:  15    -0.643390184016E+03    0.22098E-04   -0.57973E-05  5848   0.243E-02    0.377E-02
RMM:  16    -0.643390185948E+03   -0.19324E-05   -0.25347E-05  5280   0.179E-02
   6 F= -.64339019E+03 E0= -.64331342E+03  d E =-.102488E+00
 trial-energy change:   -0.102488  1 .order   -0.102006   -0.163176   -0.040837
 step:   1.1847(harm=  1.1937)  dis= 0.03053  next Energy=  -643.396811 (dE=-0.109E+00)
 bond charge predicted
       N       E                     dE             d eps       ncg     rms          rms(c)
DAV:   1    -0.643325109604E+03    0.65074E-01   -0.40484E+00  9156   0.127E+01    0.633E-01
RMM:   2    -0.643404996901E+03   -0.79887E-01   -0.70335E-01 11751   0.244E+00    0.151E+00
RMM:   3    -0.643402821564E+03    0.21753E-02   -0.96474E-02 10727   0.102E+00    0.120E+00
RMM:   4    -0.643399830707E+03    0.29909E-02   -0.25696E-02 10745   0.483E-01    0.711E-01
RMM:   5    -0.643398707381E+03    0.11233E-02   -0.95449E-03 10543   0.264E-01    0.443E-01
RMM:   6    -0.643398199644E+03    0.50774E-03   -0.34562E-03 10255   0.165E-01    0.390E-01
RMM:   7    -0.643397788683E+03    0.41096E-03   -0.18731E-03 10233   0.104E-01    0.224E-01
RMM:   8    -0.643398281107E+03   -0.49242E-03   -0.13271E-03 10211   0.105E-01    0.373E-01
RMM:   9    -0.643397546100E+03    0.73501E-03   -0.91034E-04 10201   0.862E-02    0.129E-01
RMM:  10    -0.643397528537E+03    0.17563E-04   -0.30234E-04  9136   0.520E-02    0.109E-01
RMM:  11    -0.643397557961E+03   -0.29425E-04   -0.16775E-04  7849   0.368E-02    0.120E-01
RMM:  12    -0.643397495970E+03    0.61992E-04   -0.70675E-05  6110   0.291E-02    0.545E-02
RMM:  13    -0.643397483059E+03    0.12911E-04   -0.28281E-05  5335   0.220E-02    0.214E-02
RMM:  14    -0.643397487263E+03   -0.42042E-05   -0.17805E-05  5067   0.139E-02
   7 F= -.64339749E+03 E0= -.64332089E+03  d E =-.109789E+00
 curvature:  -0.84 expect dE=-0.535E-01 dE for cont linesearch -0.209E-04
 trial: gam= 0.35177 g(F)=  0.531E-01 g(S)=  0.108E-01 ort = 0.253E-02 (trialstep = 0.953E+00)
 search vector abs. value=  0.974E-01
 bond charge predicted
       N       E                     dE             d eps       ncg     rms          rms(c)
DAV:   1    -0.643146453523E+03    0.25103E+00   -0.16673E+01  8820   0.262E+01    0.200E+00
RMM:   2    -0.643801337758E+03   -0.65488E+00   -0.33218E+00 10823   0.586E+00    0.739E+00
RMM:   3    -0.643478634130E+03    0.32270E+00   -0.61363E-01  9936   0.295E+00    0.305E+00
RMM:   4    -0.643457976151E+03    0.20658E-01   -0.20270E-01 10926   0.125E+00    0.219E+00
RMM:   5    -0.643442325294E+03    0.15651E-01   -0.50116E-02 10638   0.663E-01    0.101E+00
RMM:   6    -0.643441009935E+03    0.13154E-02   -0.21931E-02 10630   0.371E-01    0.956E-01
RMM:   7    -0.643436941565E+03    0.40684E-02   -0.85544E-03 10352   0.251E-01    0.482E-01
RMM:   8    -0.643440530326E+03   -0.35888E-02   -0.74344E-03 10619   0.230E-01    0.982E-01
RMM:   9    -0.643437308284E+03    0.32220E-02   -0.53240E-03 10611   0.211E-01    0.606E-01
RMM:  10    -0.643435655125E+03    0.16532E-02   -0.17375E-03  9855   0.130E-01    0.203E-01
RMM:  11    -0.643435799004E+03   -0.14388E-03   -0.95036E-04  9464   0.770E-02    0.242E-01
RMM:  12    -0.643435731951E+03    0.67053E-04   -0.50584E-04  8979   0.642E-02    0.189E-01
RMM:  13    -0.643435541759E+03    0.19019E-03   -0.19591E-04  8116   0.412E-02    0.460E-02
RMM:  14    -0.643435580804E+03   -0.39045E-04   -0.98176E-05  6367   0.270E-02    0.924E-02
RMM:  15    -0.643435549770E+03    0.31034E-04   -0.44014E-05  5597   0.232E-02    0.344E-02
RMM:  16    -0.643435544783E+03    0.49868E-05   -0.19080E-05  5192   0.151E-02
   8 F= -.64343554E+03 E0= -.64335957E+03  d E =-.380575E-01
 trial-energy change:   -0.038058  1 .order   -0.037686   -0.061775   -0.013598
 step:   1.2070(harm=  1.2219)  dis= 0.01462  next Energy=  -643.437365 (dE=-0.399E-01)
 bond charge predicted
       N       E                     dE             d eps       ncg     rms          rms(c)
DAV:   1    -0.643418386889E+03    0.17163E-01   -0.12017E+00  9716   0.699E+00    0.534E-01
RMM:   2    -0.643464596496E+03   -0.46210E-01   -0.22602E-01 10845   0.150E+00    0.203E+00
RMM:   3    -0.643440990349E+03    0.23606E-01   -0.39035E-02  9898   0.774E-01    0.840E-01
RMM:   4    -0.643439422852E+03    0.15675E-02   -0.14127E-02 10783   0.341E-01    0.630E-01
RMM:   5    -0.643438022208E+03    0.14006E-02   -0.35118E-03  9986   0.182E-01    0.262E-01
RMM:   6    -0.643438004011E+03    0.18196E-04   -0.16291E-03 10037   0.112E-01    0.277E-01
RMM:   7    -0.643437670919E+03    0.33309E-03   -0.65591E-04  9629   0.741E-02    0.140E-01
RMM:   8    -0.643437865618E+03   -0.19470E-03   -0.49027E-04  9181   0.627E-02    0.244E-01
RMM:   9    -0.643437739666E+03    0.12595E-03   -0.39908E-04  9660   0.612E-02    0.186E-01
RMM:  10    -0.643437575342E+03    0.16432E-03   -0.13808E-04  7477   0.446E-02    0.552E-02
RMM:  11    -0.643437583456E+03   -0.81134E-05   -0.72370E-05  6440   0.256E-02
   9 F= -.64343758E+03 E0= -.64336176E+03  d E =-.400962E-01
 curvature:  -0.91 expect dE=-0.379E-01 dE for cont linesearch -0.167E-04
 trial: gam= 0.64221 g(F)=  0.213E-01 g(S)=  0.202E-01 ort = 0.133E-02 (trialstep = 0.100E+01)
 search vector abs. value=  0.833E-01
 bond charge predicted
       N       E                     dE             d eps       ncg     rms          rms(c)
DAV:   1    -0.643327811646E+03    0.10976E+00   -0.16817E+01 11788   0.249E+01    0.279E+00
RMM:   2    -0.644129039509E+03   -0.80123E+00   -0.26667E+00 10414   0.549E+00    0.981E+00
RMM:   3    -0.643606425484E+03    0.52261E+00   -0.66551E-01  9589   0.340E+00    0.493E+00
RMM:   4    -0.643498419673E+03    0.10801E+00   -0.23552E-01 10793   0.147E+00    0.287E+00
RMM:   5    -0.643467788420E+03    0.30631E-01   -0.61920E-02 10612   0.776E-01    0.129E+00
RMM:   6    -0.643474342733E+03   -0.65543E-02   -0.35186E-02 10499   0.485E-01    0.180E+00
RMM:   7    -0.643460262389E+03    0.14080E-01   -0.13581E-02 10254   0.367E-01    0.800E-01
RMM:   8    -0.643459625877E+03    0.63651E-03   -0.84811E-03 10355   0.230E-01    0.681E-01
RMM:   9    -0.643462730801E+03   -0.31049E-02   -0.68157E-03 10752   0.227E-01    0.112E+00
RMM:  10    -0.643457387014E+03    0.53438E-02   -0.29618E-03  9851   0.173E-01    0.213E-01
RMM:  11    -0.643457278451E+03    0.10856E-03   -0.11361E-03  9519   0.736E-02    0.154E-01
RMM:  12    -0.643457387170E+03   -0.10872E-03   -0.51550E-04  9148   0.619E-02    0.212E-01
RMM:  13    -0.643457180150E+03    0.20702E-03   -0.25104E-04  8022   0.443E-02    0.606E-02
RMM:  14    -0.643457212964E+03   -0.32814E-04   -0.12954E-04  7201   0.303E-02    0.931E-02
RMM:  15    -0.643457187478E+03    0.25487E-04   -0.70057E-05  6285   0.273E-02    0.580E-02
RMM:  16    -0.643457167225E+03    0.20253E-04   -0.30420E-05  5424   0.198E-02    0.128E-02
RMM:  17    -0.643457171180E+03   -0.39548E-05   -0.15813E-05  5069   0.130E-02
  10 F= -.64345717E+03 E0= -.64338163E+03  d E =-.195877E-01
 trial-energy change:   -0.019588  1 .order   -0.019052   -0.042497    0.004392
 step:   0.9152(harm=  0.9097)  dis= 0.01422  next Energy=  -643.457364 (dE=-0.198E-01)
 bond charge predicted
       N       E                     dE             d eps       ncg     rms          rms(c)
DAV:   1    -0.643456047102E+03    0.11201E-02   -0.12731E-01 11984   0.220E+00    0.245E-01
RMM:   2    -0.643462284576E+03   -0.62375E-02   -0.22952E-02 10379   0.530E-01    0.830E-01
RMM:   3    -0.643458477349E+03    0.38072E-02   -0.58209E-03  9203   0.306E-01    0.454E-01
RMM:   4    -0.643457638414E+03    0.83894E-03   -0.18857E-03 10008   0.140E-01    0.240E-01
RMM:   5    -0.643457422120E+03    0.21629E-03   -0.51459E-04  9272   0.755E-02    0.112E-01
RMM:   6    -0.643457465585E+03   -0.43465E-04   -0.25980E-04  8630   0.481E-02    0.154E-01
RMM:   7    -0.643457362052E+03    0.10353E-03   -0.90181E-05  6723   0.371E-02    0.691E-02
RMM:   8    -0.643457360028E+03    0.20243E-05   -0.64189E-05  6185   0.269E-02
  11 F= -.64345736E+03 E0= -.64338180E+03  d E =-.197766E-01
 curvature:  -0.89 expect dE=-0.321E-01 dE for cont linesearch -0.226E-05
 trial: gam= 0.91967 g(F)=  0.190E-01 g(S)=  0.170E-01 ort =-0.459E-03 (trialstep = 0.778E+00)
 search vector abs. value=  0.106E+00
 bond charge predicted
       N       E                     dE             d eps       ncg     rms          rms(c)
DAV:   1    -0.643211766376E+03    0.24560E+00   -0.13273E+01  8316   0.228E+01    0.115E+00
RMM:   2    -0.643542916050E+03   -0.33115E+00   -0.25518E+00 11601   0.453E+00    0.395E+00
RMM:   3    -0.643495107050E+03    0.47809E-01   -0.37939E-01 10633   0.192E+00    0.218E+00
RMM:   4    -0.643489337660E+03    0.57694E-02   -0.82476E-02 10858   0.841E-01    0.162E+00
RMM:   5    -0.643481028245E+03    0.83094E-02   -0.27482E-02 10659   0.452E-01    0.784E-01
RMM:   6    -0.643479314879E+03    0.17134E-02   -0.10342E-02 10338   0.288E-01    0.686E-01
RMM:   7    -0.643477426946E+03    0.18879E-02   -0.44054E-03 10228   0.180E-01    0.351E-01
RMM:   8    -0.643478299491E+03   -0.87255E-03   -0.37398E-03 10608   0.150E-01    0.537E-01
RMM:   9    -0.643477460902E+03    0.83859E-03   -0.33991E-03 10907   0.169E-01    0.443E-01
RMM:  10    -0.643476507391E+03    0.95351E-03   -0.10770E-03  9872   0.946E-02    0.137E-01
RMM:  11    -0.643476624487E+03   -0.11710E-03   -0.53641E-04  9216   0.621E-02    0.188E-01
RMM:  12    -0.643476537929E+03    0.86558E-04   -0.23958E-04  8191   0.487E-02    0.124E-01
RMM:  13    -0.643476462684E+03    0.75245E-04   -0.10282E-04  7138   0.297E-02    0.407E-02
RMM:  14    -0.643476491834E+03   -0.29150E-04   -0.53783E-05  5783   0.229E-02    0.838E-02
RMM:  15    -0.643476462722E+03    0.29112E-04   -0.22834E-05  5172   0.206E-02    0.197E-02
RMM:  16    -0.643476463244E+03   -0.52246E-06   -0.14693E-05  5007   0.114E-02
  12 F= -.64347646E+03 E0= -.64340231E+03  d E =-.191032E-01
 trial-energy change:   -0.019103  1 .order   -0.019070   -0.027648   -0.010492
 step:   1.2543(harm=  1.2543)  dis= 0.02669  next Energy=  -643.479639 (dE=-0.223E-01)
 bond charge predicted
       N       E                     dE             d eps       ncg     rms          rms(c)
DAV:   1    -0.643380604966E+03    0.95858E-01   -0.49615E+00  8316   0.139E+01    0.688E-01
RMM:   2    -0.643497273738E+03   -0.11667E+00   -0.94920E-01 11615   0.277E+00    0.207E+00
RMM:   3    -0.643485689538E+03    0.11584E-01   -0.14030E-01 10691   0.115E+00    0.119E+00
RMM:   4    -0.643484751689E+03    0.93785E-03   -0.28871E-02 10874   0.487E-01    0.985E-01
RMM:   5    -0.643481754767E+03    0.29969E-02   -0.91828E-03 10320   0.274E-01    0.486E-01
RMM:   6    -0.643480890603E+03    0.86416E-03   -0.35747E-03 10181   0.174E-01    0.369E-01
RMM:   7    -0.643480429669E+03    0.46093E-03   -0.16335E-03 10055   0.109E-01    0.230E-01
RMM:   8    -0.643480812422E+03   -0.38275E-03   -0.14191E-03 10239   0.944E-02    0.357E-01
RMM:   9    -0.643480445925E+03    0.36650E-03   -0.11973E-03 10407   0.105E-01    0.286E-01
RMM:  10    -0.643480076888E+03    0.36904E-03   -0.41776E-04  9236   0.633E-02    0.947E-02
RMM:  11    -0.643480113324E+03   -0.36436E-04   -0.19950E-04  8073   0.410E-02    0.113E-01
RMM:  12    -0.643480077016E+03    0.36308E-04   -0.82479E-05  6412   0.290E-02    0.673E-02
RMM:  13    -0.643480052880E+03    0.24136E-04   -0.35629E-05  5554   0.223E-02    0.183E-02
RMM:  14    -0.643480061800E+03   -0.89206E-05   -0.16253E-05  4966   0.149E-02
  13 F= -.64348006E+03 E0= -.64340680E+03  d E =-.227018E-01
 curvature:  -1.86 expect dE=-0.331E-01 dE for cont linesearch -0.431E-05
 trial: gam= 0.41636 g(F)=  0.157E-01 g(S)=  0.206E-02 ort = 0.494E-03 (trialstep = 0.873E+00)
 search vector abs. value=  0.365E-01
 bond charge predicted
       N       E                     dE             d eps       ncg     rms          rms(c)
DAV:   1    -0.643351367963E+03    0.12868E+00   -0.64876E+00  8232   0.157E+01    0.621E-01
RMM:   2    -0.643487505619E+03   -0.13614E+00   -0.12683E+00 11318   0.314E+00    0.170E+00
RMM:   3    -0.643494923494E+03   -0.74179E-02   -0.19680E-01 10912   0.114E+00    0.101E+00
RMM:   4    -0.643495556349E+03   -0.63286E-03   -0.28314E-02 10805   0.475E-01    0.820E-01
RMM:   5    -0.643493114398E+03    0.24420E-02   -0.88428E-03 10381   0.271E-01    0.501E-01
RMM:   6    -0.643492449791E+03    0.66461E-03   -0.34714E-03 10215   0.159E-01    0.321E-01
RMM:   7    -0.643492199142E+03    0.25065E-03   -0.15353E-03  9913   0.964E-02    0.246E-01
RMM:   8    -0.643492424826E+03   -0.22568E-03   -0.15220E-03 10153   0.109E-01    0.334E-01
RMM:   9    -0.643491986671E+03    0.43816E-03   -0.10768E-03 10068   0.956E-02    0.228E-01
RMM:  10    -0.643491779045E+03    0.20763E-03   -0.42375E-04  9082   0.604E-02    0.110E-01
RMM:  11    -0.643491827806E+03   -0.48761E-04   -0.20739E-04  8417   0.435E-02    0.139E-01
RMM:  12    -0.643491747590E+03    0.80215E-04   -0.10197E-04  6907   0.347E-02    0.766E-02
RMM:  13    -0.643491729229E+03    0.18361E-04   -0.47824E-05  5845   0.254E-02    0.419E-02
RMM:  14    -0.643491737920E+03   -0.86911E-05   -0.22933E-05  5139   0.197E-02
  14 F= -.64349174E+03 E0= -.64341928E+03  d E =-.116761E-01
 trial-energy change:   -0.011676  1 .order   -0.011450   -0.015678   -0.007222
 step:   1.4615(harm=  1.6194)  dis= 0.02074  next Energy=  -643.494238 (dE=-0.142E-01)
 bond charge predicted
       N       E                     dE             d eps       ncg     rms          rms(c)
DAV:   1    -0.643432660325E+03    0.59069E-01   -0.29541E+00  8372   0.106E+01    0.410E-01
RMM:   2    -0.643492102461E+03   -0.59442E-01   -0.56284E-01 11318   0.208E+00    0.104E+00
RMM:   3    -0.643496427190E+03   -0.43247E-02   -0.85650E-02 10944   0.756E-01    0.698E-01
RMM:   4    -0.643496550135E+03   -0.12294E-03   -0.12318E-02 10676   0.318E-01    0.552E-01
RMM:   5    -0.643495437775E+03    0.11124E-02   -0.38259E-03 10168   0.183E-01    0.330E-01
RMM:   6    -0.643495150751E+03    0.28702E-03   -0.15257E-03  9939   0.110E-01    0.217E-01
RMM:   7    -0.643495029191E+03    0.12156E-03   -0.69735E-04  9450   0.662E-02    0.160E-01
RMM:   8    -0.643495147380E+03   -0.11819E-03   -0.68386E-04  9755   0.740E-02    0.226E-01
RMM:   9    -0.643494938416E+03    0.20896E-03   -0.48009E-04  9456   0.657E-02    0.145E-01
RMM:  10    -0.643494855855E+03    0.82561E-04   -0.18456E-04  8192   0.422E-02    0.744E-02
RMM:  11    -0.643494880095E+03   -0.24239E-04   -0.89788E-05  6894   0.314E-02    0.961E-02
RMM:  12    -0.643494840511E+03    0.39584E-04   -0.43693E-05  5550   0.266E-02    0.485E-02
RMM:  13    -0.643494833125E+03    0.73863E-05   -0.18161E-05  4998   0.189E-02
  15 F= -.64349483E+03 E0= -.64342294E+03  d E =-.147713E-01
 curvature:  -1.57 expect dE=-0.162E-01 dE for cont linesearch -0.165E-03
 trial: gam= 0.49666 g(F)=  0.950E-02 g(S)=  0.792E-03 ort = 0.196E-02 (trialstep = 0.991E+00)
 search vector abs. value=  0.212E-01
 bond charge predicted
       N       E                     dE             d eps       ncg     rms          rms(c)
DAV:   1    -0.643380565201E+03    0.11428E+00   -0.56443E+00  8316   0.142E+01    0.575E-01
RMM:   2    -0.643498650937E+03   -0.11809E+00   -0.11004E+00 11167   0.275E+00    0.150E+00
RMM:   3    -0.643507236372E+03   -0.85854E-02   -0.17955E-01 10838   0.103E+00    0.107E+00
RMM:   4    -0.643506888801E+03    0.34757E-03   -0.27207E-02 10795   0.443E-01    0.792E-01
RMM:   5    -0.643505173369E+03    0.17154E-02   -0.63348E-03 10125   0.249E-01    0.529E-01
RMM:   6    -0.643504090591E+03    0.10828E-02   -0.29402E-03 10046   0.147E-01    0.270E-01
RMM:   7    -0.643503926839E+03    0.16375E-03   -0.13141E-03  9650   0.886E-02    0.213E-01
RMM:   8    -0.643504038405E+03   -0.11157E-03   -0.11657E-03  9987   0.910E-02    0.253E-01
RMM:   9    -0.643503631796E+03    0.40661E-03   -0.79168E-04  9911   0.716E-02    0.126E-01
RMM:  10    -0.643503616921E+03    0.14875E-04   -0.27751E-04  8771   0.486E-02    0.100E-01
RMM:  11    -0.643503637742E+03   -0.20821E-04   -0.14004E-04  7702   0.346E-02    0.104E-01
RMM:  12    -0.643503577644E+03    0.60098E-04   -0.64408E-05  6176   0.281E-02    0.316E-02
RMM:  13    -0.643503586129E+03   -0.84850E-05   -0.27231E-05  5266   0.221E-02
  16 F= -.64350359E+03 E0= -.64343231E+03  d E =-.875300E-02
 trial-energy change:   -0.008753  1 .order   -0.008624   -0.011166   -0.006082
 step:   1.9083(harm=  2.1768)  dis= 0.02402  next Energy=  -643.506503 (dE=-0.117E-01)
 bond charge predicted
       N       E                     dE             d eps       ncg     rms          rms(c)
DAV:   1    -0.643402844363E+03    0.10073E+00   -0.48444E+00  8400   0.132E+01    0.526E-01
RMM:   2    -0.643501708431E+03   -0.98864E-01   -0.92426E-01 11169   0.258E+00    0.135E+00
RMM:   3    -0.643510121900E+03   -0.84135E-02   -0.15850E-01 10834   0.956E-01    0.982E-01
RMM:   4    -0.643509990847E+03    0.13105E-03   -0.23037E-02 10758   0.413E-01    0.748E-01
RMM:   5    -0.643508293916E+03    0.16969E-02   -0.57481E-03 10071   0.234E-01    0.452E-01
RMM:   6    -0.643507517228E+03    0.77669E-03   -0.24922E-03 10032   0.136E-01    0.256E-01
RMM:   7    -0.643507383667E+03    0.13356E-03   -0.11316E-03  9524   0.824E-02    0.202E-01
RMM:   8    -0.643507494583E+03   -0.11092E-03   -0.96943E-04  9872   0.814E-02    0.251E-01
RMM:   9    -0.643507383070E+03    0.11151E-03   -0.79279E-04  9853   0.785E-02    0.259E-01
RMM:  10    -0.643507095326E+03    0.28774E-03   -0.30362E-04  8907   0.535E-02    0.634E-02
RMM:  11    -0.643507136960E+03   -0.41634E-04   -0.12259E-04  7592   0.304E-02    0.998E-02
RMM:  12    -0.643507085506E+03    0.51454E-04   -0.60600E-05  6211   0.286E-02    0.383E-02
RMM:  13    -0.643507089816E+03   -0.43101E-05   -0.23919E-05  5159   0.199E-02
  17 F= -.64350709E+03 E0= -.64343643E+03  d E =-.122567E-01
 curvature:  -1.95 expect dE=-0.240E-01 dE for cont linesearch -0.137E-03
 trial: gam= 1.21529 g(F)=  0.101E-01 g(S)=  0.224E-02 ort = 0.122E-02 (trialstep = 0.535E+00)
 search vector abs. value=  0.467E-01
 bond charge predicted
       N       E                     dE             d eps       ncg     rms          rms(c)
DAV:   1    -0.643425281128E+03    0.81804E-01   -0.39020E+00  8288   0.116E+01    0.557E-01
RMM:   2    -0.643516137755E+03   -0.90857E-01   -0.80015E-01 11216   0.231E+00    0.157E+00
RMM:   3    -0.643517259462E+03   -0.11217E-02   -0.13850E-01 10665   0.926E-01    0.968E-01
RMM:   4    -0.643515934957E+03    0.13245E-02   -0.21397E-02 10567   0.397E-01    0.656E-01
RMM:   5    -0.643514649621E+03    0.12853E-02   -0.59090E-03 10034   0.225E-01    0.387E-01
RMM:   6    -0.643514105811E+03    0.54381E-03   -0.22462E-03  9927   0.128E-01    0.274E-01
RMM:   7    -0.643513929699E+03    0.17611E-03   -0.96413E-04  9280   0.777E-02    0.200E-01
RMM:   8    -0.643514114991E+03   -0.18529E-03   -0.76011E-04  9510   0.744E-02    0.273E-01
RMM:   9    -0.643513830868E+03    0.28412E-03   -0.67376E-04  9993   0.761E-02    0.192E-01
RMM:  10    -0.643513685357E+03    0.14551E-03   -0.24019E-04  8621   0.465E-02    0.793E-02
RMM:  11    -0.643513713444E+03   -0.28086E-04   -0.11355E-04  7442   0.307E-02    0.990E-02
RMM:  12    -0.643513683591E+03    0.29853E-04   -0.60305E-05  6023   0.279E-02    0.721E-02
RMM:  13    -0.643513659838E+03    0.23753E-04   -0.25529E-05  5230   0.229E-02    0.200E-02
RMM:  14    -0.643513662989E+03   -0.31509E-05   -0.14969E-05  5064   0.128E-02
  18 F= -.64351366E+03 E0= -.64344353E+03  d E =-.657317E-02
 trial-energy change:   -0.006573  1 .order   -0.006514   -0.007381   -0.005647
 step:   1.6103(harm=  2.2749)  dis= 0.03338  next Energy=  -643.519829 (dE=-0.127E-01)
 bond charge predicted
       N       E                     dE             d eps       ncg     rms          rms(c)
DAV:   1    -0.643151978421E+03    0.36168E+00   -0.15701E+01  8148   0.236E+01    0.114E+00
RMM:   2    -0.643537327196E+03   -0.38535E+00   -0.33353E+00 11263   0.484E+00    0.345E+00
RMM:   3    -0.643534234602E+03    0.30926E-02   -0.59925E-01 10711   0.194E+00    0.185E+00
RMM:   4    -0.643530292686E+03    0.39419E-02   -0.90166E-02 10756   0.806E-01    0.128E+00
RMM:   5    -0.643525526253E+03    0.47664E-02   -0.25016E-02 10266   0.452E-01    0.781E-01
RMM:   6    -0.643523090736E+03    0.24355E-02   -0.91346E-03 10238   0.255E-01    0.487E-01
RMM:   7    -0.643522625077E+03    0.46566E-03   -0.39063E-03 10321   0.148E-01    0.395E-01
RMM:   8    -0.643523422478E+03   -0.79740E-03   -0.32178E-03 10325   0.145E-01    0.558E-01
RMM:   9    -0.643522322494E+03    0.11000E-02   -0.25538E-03 10589   0.143E-01    0.400E-01
RMM:  10    -0.643521682029E+03    0.64046E-03   -0.99214E-04  9599   0.891E-02    0.172E-01
RMM:  11    -0.643521772616E+03   -0.90586E-04   -0.47861E-04  9211   0.587E-02    0.205E-01
RMM:  12    -0.643521690370E+03    0.82246E-04   -0.28713E-04  8626   0.555E-02    0.169E-01
RMM:  13    -0.643521561516E+03    0.12885E-03   -0.13205E-04  7637   0.371E-02    0.409E-02
RMM:  14    -0.643521582335E+03   -0.20818E-04   -0.58158E-05  6075   0.218E-02    0.673E-02
RMM:  15    -0.643521557000E+03    0.25334E-04   -0.20040E-05  5142   0.199E-02    0.216E-02
RMM:  16    -0.643521556324E+03    0.67618E-06   -0.88685E-06  4814   0.112E-02
  19 F= -.64352156E+03 E0= -.64345262E+03  d E =-.144665E-01
 curvature:  -3.28 expect dE=-0.611E-01 dE for cont linesearch -0.859E-03
 ZBRENT: extrapolating
 opt :   2.1418  next Energy=  -643.522485 (dE=-0.154E-01)
 bond charge predicted
       N       E                     dE             d eps       ncg     rms          rms(c)
DAV:   1    -0.643428718585E+03    0.92838E-01   -0.37956E+00  8288   0.117E+01    0.559E-01
RMM:   2    -0.643521243342E+03   -0.92525E-01   -0.83445E-01 11286   0.242E+00    0.145E+00
RMM:   3    -0.643526284590E+03   -0.50412E-02   -0.15235E-01 10695   0.944E-01    0.989E-01
RMM:   4    -0.643524518427E+03    0.17662E-02   -0.22181E-02 10596   0.398E-01    0.602E-01
RMM:   5    -0.643523576268E+03    0.94216E-03   -0.58216E-03  9999   0.222E-01    0.392E-01
RMM:   6    -0.643522931452E+03    0.64482E-03   -0.21869E-03  9867   0.125E-01    0.242E-01
RMM:   7    -0.643522877961E+03    0.53491E-04   -0.96933E-04  9291   0.771E-02    0.216E-01
RMM:   8    -0.643523099758E+03   -0.22180E-03   -0.82349E-04  9778   0.775E-02    0.299E-01
RMM:   9    -0.643522698396E+03    0.40136E-03   -0.63290E-04  9738   0.748E-02    0.159E-01
RMM:  10    -0.643522606716E+03    0.91680E-04   -0.21815E-04  8525   0.434E-02    0.807E-02
RMM:  11    -0.643522636104E+03   -0.29388E-04   -0.11150E-04  7393   0.317E-02    0.103E-01
RMM:  12    -0.643522597669E+03    0.38435E-04   -0.57428E-05  5943   0.282E-02    0.647E-02
RMM:  13    -0.643522580268E+03    0.17401E-04   -0.24996E-05  5222   0.223E-02    0.239E-02
RMM:  14    -0.643522583839E+03   -0.35711E-05   -0.13398E-05  4950   0.140E-02
  20 F= -.64352258E+03 E0= -.64345427E+03  d E =-.154940E-01
 curvature:  -3.55 expect dE=-0.113E+00 dE for cont linesearch -0.315E-05
 trial: gam= 2.64767 g(F)=  0.137E-01 g(S)=  0.183E-01 ort =-0.203E-03 (trialstep = 0.112E+00)
 search vector abs. value=  0.358E+00
 bond charge predicted
       N       E                     dE             d eps       ncg     rms          rms(c)
DAV:   1    -0.643497526983E+03    0.25053E-01   -0.13581E+00  9128   0.676E+00    0.287E-01
RMM:   2    -0.643525148673E+03   -0.27622E-01   -0.25640E-01 11061   0.127E+00    0.670E-01
RMM:   3    -0.643526431110E+03   -0.12824E-02   -0.40065E-02 10631   0.493E-01    0.443E-01
RMM:   4    -0.643526423962E+03    0.71479E-05   -0.63060E-03 10277   0.206E-01    0.351E-01
RMM:   5    -0.643526153724E+03    0.27024E-03   -0.14248E-03  9265   0.122E-01    0.257E-01
RMM:   6    -0.643525919091E+03    0.23463E-03   -0.60472E-04  9133   0.709E-02    0.143E-01
RMM:   7    -0.643525865358E+03    0.53732E-04   -0.27819E-04  7999   0.453E-02    0.989E-02
RMM:   8    -0.643525912976E+03   -0.47618E-04   -0.25440E-04  8604   0.434E-02    0.133E-01
RMM:   9    -0.643525820687E+03    0.92289E-04   -0.16681E-04  8370   0.360E-02    0.729E-02
RMM:  10    -0.643525803680E+03    0.17007E-04   -0.53531E-05  5839   0.259E-02    0.438E-02
RMM:  11    -0.643525810782E+03   -0.71019E-05   -0.33515E-05  5518   0.215E-02
  21 F= -.64352581E+03 E0= -.64345806E+03  d E =-.322694E-02
 ZBRENT: can't locate minimum, use default step
 trial-energy change:   -0.003227  1 .order   -0.003271   -0.003507   -0.003035
 step:   0.4463(harm=  0.8295)  dis= 0.02723  next Energy=  -643.535620 (dE=-0.130E-01)
 bond charge predicted
       N       E                     dE             d eps       ncg     rms          rms(c)
DAV:   1    -0.643272622970E+03    0.25318E+00   -0.12174E+01  8624   0.202E+01    0.878E-01
RMM:   2    -0.643525742296E+03   -0.25312E+00   -0.23109E+00 11018   0.386E+00    0.221E+00
RMM:   3    -0.643536907234E+03   -0.11165E-01   -0.42052E-01 10821   0.156E+00    0.131E+00
RMM:   4    -0.643536344565E+03    0.56267E-03   -0.58676E-02 10861   0.608E-01    0.946E-01
RMM:   5    -0.643534967605E+03    0.13770E-02   -0.14176E-02  9956   0.361E-01    0.785E-01
RMM:   6    -0.643532821921E+03    0.21457E-02   -0.55796E-03 10021   0.211E-01    0.454E-01
RMM:   7    -0.643532235307E+03    0.58661E-03   -0.25709E-03  9954   0.127E-01    0.285E-01
RMM:   8    -0.643532643510E+03   -0.40820E-03   -0.20943E-03 10115   0.111E-01    0.385E-01
RMM:   9    -0.643531961850E+03    0.68166E-03   -0.14004E-03 10334   0.102E-01    0.251E-01
RMM:  10    -0.643531743922E+03    0.21793E-03   -0.52936E-04  9111   0.647E-02    0.129E-01
RMM:  11    -0.643531810050E+03   -0.66128E-04   -0.29271E-04  8885   0.452E-02    0.144E-01
RMM:  12    -0.643531702745E+03    0.10730E-03   -0.13458E-04  7538   0.370E-02    0.648E-02
RMM:  13    -0.643531695149E+03    0.75963E-05   -0.53046E-05  5722   0.233E-02
  22 F= -.64353170E+03 E0= -.64346552E+03  d E =-.911131E-02
 curvature:  -3.38 expect dE=-0.622E-01 dE for cont linesearch -0.574E-03
 ZBRENT: extrapolating
 opt :   0.5809  next Energy=  -643.532220 (dE=-0.964E-02)
 bond charge predicted
       N       E                     dE             d eps       ncg     rms          rms(c)
DAV:   1    -0.643489627204E+03    0.42076E-01   -0.19660E+00  8764   0.815E+00    0.353E-01
RMM:   2    -0.643531293864E+03   -0.41667E-01   -0.38148E-01 11045   0.154E+00    0.870E-01
RMM:   3    -0.643533086425E+03   -0.17926E-02   -0.64576E-02 10681   0.603E-01    0.536E-01
RMM:   4    -0.643533244165E+03   -0.15774E-03   -0.84269E-03 10426   0.242E-01    0.480E-01
RMM:   5    -0.643532577530E+03    0.66663E-03   -0.19874E-03  9587   0.143E-01    0.288E-01
RMM:   6    -0.643532265604E+03    0.31193E-03   -0.89549E-04  9314   0.829E-02    0.165E-01
RMM:   7    -0.643532202393E+03    0.63211E-04   -0.39939E-04  8515   0.527E-02    0.124E-01
RMM:   8    -0.643532281678E+03   -0.79285E-04   -0.35926E-04  8981   0.507E-02    0.173E-01
RMM:   9    -0.643532202021E+03    0.79657E-04   -0.28349E-04  9079   0.482E-02    0.144E-01
RMM:  10    -0.643532107553E+03    0.94468E-04   -0.10341E-04  7211   0.340E-02    0.478E-02
RMM:  11    -0.643532114587E+03   -0.70341E-05   -0.50284E-05  6100   0.213E-02
  23 F= -.64353211E+03 E0= -.64346662E+03  d E =-.953075E-02
 curvature:  -3.09 expect dE=-0.594E-01 dE for cont linesearch -0.166E-04
 trial: gam= 0.11368 g(F)=  0.184E-01 g(S)=  0.899E-03 ort =-0.139E-02 (trialstep = 0.205E+00)
 search vector abs. value=  0.236E-01
 bond charge predicted
       N       E                     dE             d eps       ncg     rms          rms(c)
DAV:   1    -0.643532056105E+03    0.51448E-04   -0.19663E-01  9240   0.253E+00    0.146E-01
RMM:   2    -0.643536309274E+03   -0.42532E-02   -0.35142E-02 11333   0.522E-01    0.391E-01
RMM:   3    -0.643535915858E+03    0.39342E-03   -0.54834E-03 10134   0.230E-01    0.249E-01
RMM:   4    -0.643535798933E+03    0.11693E-03   -0.12115E-03  9785   0.108E-01    0.168E-01
RMM:   5    -0.643535740953E+03    0.57980E-04   -0.38789E-04  8662   0.610E-02    0.112E-01
RMM:   6    -0.643535700752E+03    0.40201E-04   -0.14830E-04  7245   0.380E-02    0.857E-02
RMM:   7    -0.643535673488E+03    0.27264E-04   -0.64200E-05  5833   0.288E-02    0.486E-02
RMM:   8    -0.643535699090E+03   -0.25602E-04   -0.62770E-05  6271   0.261E-02    0.833E-02
RMM:   9    -0.643535669877E+03    0.29212E-04   -0.48399E-05  6072   0.242E-02    0.447E-02
RMM:  10    -0.643535661006E+03    0.88708E-05   -0.16986E-05  4861   0.174E-02
  24 F= -.64353566E+03 E0= -.64347037E+03  d E =-.354642E-02
 ZBRENT: can't locate minimum, use default step
 trial-energy change:   -0.003546  1 .order   -0.003588   -0.003923   -0.003253
 step:   0.8217(harm=  1.2039)  dis= 0.00804  next Energy=  -643.543609 (dE=-0.115E-01)
 bond charge predicted
       N       E                     dE             d eps       ncg     rms          rms(c)
DAV:   1    -0.643510302394E+03    0.25367E-01   -0.17721E+00  8372   0.760E+00    0.434E-01
RMM:   2    -0.643548255317E+03   -0.37953E-01   -0.31471E-01 11351   0.157E+00    0.115E+00
RMM:   3    -0.643544652374E+03    0.36029E-02   -0.49391E-02 10622   0.671E-01    0.707E-01
RMM:   4    -0.643543737392E+03    0.91498E-03   -0.10180E-02 10637   0.283E-01    0.498E-01
RMM:   5    -0.643543206648E+03    0.53074E-03   -0.33020E-03 10031   0.168E-01    0.339E-01
RMM:   6    -0.643542773791E+03    0.43286E-03   -0.12883E-03  9882   0.104E-01    0.243E-01
RMM:   7    -0.643542581131E+03    0.19266E-03   -0.64483E-04  9318   0.729E-02    0.154E-01
RMM:   8    -0.643542847114E+03   -0.26598E-03   -0.61481E-04  9749   0.707E-02    0.277E-01
RMM:   9    -0.643542536027E+03    0.31109E-03   -0.42628E-04  9705   0.634E-02    0.141E-01
RMM:  10    -0.643542444056E+03    0.91971E-04   -0.13223E-04  7711   0.385E-02    0.504E-02
RMM:  11    -0.643542459891E+03   -0.15835E-04   -0.69661E-05  6400   0.245E-02    0.653E-02
RMM:  12    -0.643542449852E+03    0.10039E-04   -0.29354E-05  5328   0.222E-02    0.504E-02
RMM:  13    -0.643542437822E+03    0.12030E-04   -0.12850E-05  4893   0.163E-02    0.127E-02
RMM:  14    -0.643542440552E+03   -0.27298E-05   -0.91974E-06  4858   0.105E-02
  25 F= -.64354244E+03 E0= -.64347783E+03  d E =-.103260E-01
 curvature:  -0.63 expect dE=-0.595E-02 dE for cont linesearch -0.989E-03
 ZBRENT: increasing intervall
 opt :   2.0542  next Energy=  -643.537868 (dE=-0.575E-02)
 bond charge predicted
       N       E                     dE             d eps       ncg     rms          rms(c)
DAV:   1    -0.643407235584E+03    0.13520E+00   -0.70649E+00  8232   0.152E+01    0.868E-01
RMM:   2    -0.643561745910E+03   -0.15451E+00   -0.12841E+00 11329   0.322E+00    0.230E+00
RMM:   3    -0.643546731047E+03    0.15015E-01   -0.19918E-01 10656   0.136E+00    0.140E+00
RMM:   4    -0.643543377990E+03    0.33531E-02   -0.41293E-02 10887   0.565E-01    0.991E-01
RMM:   5    -0.643541340466E+03    0.20375E-02   -0.13397E-02 10481   0.327E-01    0.681E-01
RMM:   6    -0.643539515146E+03    0.18253E-02   -0.51469E-03 10330   0.192E-01    0.467E-01
RMM:   7    -0.643538815329E+03    0.69982E-03   -0.25171E-03 10164   0.137E-01    0.310E-01
RMM:   8    -0.643539725074E+03   -0.90974E-03   -0.23973E-03 10531   0.134E-01    0.526E-01
RMM:   9    -0.643538684031E+03    0.10410E-02   -0.17154E-03 10449   0.118E-01    0.309E-01
RMM:  10    -0.643538229698E+03    0.45433E-03   -0.59687E-04  9359   0.756E-02    0.108E-01
RMM:  11    -0.643538264404E+03   -0.34706E-04   -0.27479E-04  8468   0.408E-02    0.119E-01
RMM:  12    -0.643538247471E+03    0.16933E-04   -0.12988E-04  7129   0.355E-02    0.109E-01
RMM:  13    -0.643538189462E+03    0.58009E-04   -0.56082E-05  5922   0.256E-02    0.244E-02
RMM:  14    -0.643538199672E+03   -0.10210E-04   -0.33268E-05  5657   0.170E-02    0.401E-02
RMM:  15    -0.643538190747E+03    0.89248E-05   -0.12645E-05  4911   0.146E-02
  26 F= -.64353819E+03 E0= -.64347487E+03  d E =-.607616E-02
 curvature:   2.93 expect dE= 0.149E+00 dE for cont linesearch  0.222E-01
 ZBRENT: bracketing found
 ZBRENT: interpolating
 opt :   1.2062  next Energy=  -643.543606 (dE=-0.115E-01)
 bond charge predicted
       N       E                     dE             d eps       ncg     rms          rms(c)
DAV:   1    -0.643481400016E+03    0.56800E-01   -0.33434E+00  8232   0.105E+01    0.598E-01
RMM:   2    -0.643552600326E+03   -0.71200E-01   -0.60340E-01 11364   0.221E+00    0.154E+00
RMM:   3    -0.643548064640E+03    0.45357E-02   -0.96526E-02 10651   0.925E-01    0.974E-01
RMM:   4    -0.643546219085E+03    0.18456E-02   -0.19203E-02 10787   0.390E-01    0.686E-01
RMM:   5    -0.643545169193E+03    0.10499E-02   -0.63755E-03 10244   0.234E-01    0.459E-01
RMM:   6    -0.643544251298E+03    0.91790E-03   -0.23102E-03 10103   0.135E-01    0.306E-01
RMM:   7    -0.643544038314E+03    0.21298E-03   -0.11919E-03  9805   0.956E-02    0.242E-01
RMM:   8    -0.643544323404E+03   -0.28509E-03   -0.10755E-03  9970   0.910E-02    0.330E-01
RMM:   9    -0.643543880032E+03    0.44337E-03   -0.74339E-04 10016   0.807E-02    0.198E-01
RMM:  10    -0.643543705154E+03    0.17488E-03   -0.26269E-04  8994   0.522E-02    0.835E-02
RMM:  11    -0.643543714739E+03   -0.95849E-05   -0.12743E-04  7321   0.316E-02    0.836E-02
RMM:  12    -0.643543706604E+03    0.81350E-05   -0.60559E-05  5939   0.283E-02
  27 F= -.64354371E+03 E0= -.64347947E+03  d E =-.115920E-01
 curvature:  -0.15 expect dE=-0.232E-02 dE for cont linesearch -0.763E-06
 trial: gam= 0.74188 g(F)=  0.931E-02 g(S)=  0.582E-02 ort = 0.342E-03 (trialstep = 0.334E+00)
 search vector abs. value=  0.286E-01
 bond charge predicted
       N       E                     dE             d eps       ncg     rms          rms(c)
DAV:   1    -0.643537533199E+03    0.61815E-02   -0.63172E-01 10248   0.509E+00    0.597E-01
RMM:   2    -0.643577327183E+03   -0.39794E-01   -0.15573E-01 10611   0.136E+00    0.206E+00
RMM:   3    -0.643553660257E+03    0.23667E-01   -0.38948E-02  9471   0.755E-01    0.103E+00
RMM:   4    -0.643549556790E+03    0.41035E-02   -0.12345E-02 10361   0.328E-01    0.598E-01
RMM:   5    -0.643548203751E+03    0.13530E-02   -0.28648E-03  9901   0.175E-01    0.274E-01
RMM:   6    -0.643548456025E+03   -0.25227E-03   -0.14798E-03  9895   0.103E-01    0.362E-01
RMM:   7    -0.643547884749E+03    0.57128E-03   -0.60271E-04  9031   0.864E-02    0.168E-01
RMM:   8    -0.643547823637E+03    0.61112E-04   -0.35041E-04  9121   0.529E-02    0.123E-01
RMM:   9    -0.643547843332E+03   -0.19695E-04   -0.27330E-04  9272   0.479E-02    0.144E-01
RMM:  10    -0.643547731565E+03    0.11177E-03   -0.94592E-05  6994   0.381E-02    0.433E-02
RMM:  11    -0.643547729523E+03    0.20414E-05   -0.42043E-05  5785   0.205E-02
  28 F= -.64354773E+03 E0= -.64348374E+03  d E =-.402292E-02
 trial-energy change:   -0.004023  1 .order   -0.004095   -0.005138   -0.003052
 step:   0.8230(harm=  0.8230)  dis= 0.01044  next Energy=  -643.550034 (dE=-0.633E-02)
 bond charge predicted
       N       E                     dE             d eps       ncg     rms          rms(c)
DAV:   1    -0.643528336552E+03    0.19395E-01   -0.13546E+00 10052   0.742E+00    0.874E-01
RMM:   2    -0.643614415243E+03   -0.86079E-01   -0.32974E-01 10585   0.200E+00    0.305E+00
RMM:   3    -0.643562530163E+03    0.51885E-01   -0.83710E-02  9552   0.111E+00    0.150E+00
RMM:   4    -0.643553897381E+03    0.86328E-02   -0.26124E-02 10503   0.475E-01    0.883E-01
RMM:   5    -0.643550936274E+03    0.29611E-02   -0.62168E-03 10039   0.252E-01    0.401E-01
RMM:   6    -0.643551476397E+03   -0.54012E-03   -0.31997E-03 10328   0.148E-01    0.523E-01
RMM:   7    -0.643550273534E+03    0.12029E-02   -0.13548E-03  9724   0.121E-01    0.246E-01
RMM:   8    -0.643550168729E+03    0.10480E-03   -0.79153E-04  9370   0.755E-02    0.192E-01
RMM:   9    -0.643550318913E+03   -0.15018E-03   -0.65526E-04  9982   0.726E-02    0.261E-01
RMM:  10    -0.643549966306E+03    0.35261E-03   -0.25616E-04  8389   0.588E-02    0.689E-02
RMM:  11    -0.643549960591E+03    0.57148E-05   -0.10202E-04  6854   0.277E-02    0.539E-02
RMM:  12    -0.643549974173E+03   -0.13582E-04   -0.51547E-05  5737   0.255E-02    0.734E-02
RMM:  13    -0.643549947365E+03    0.26808E-04   -0.22357E-05  5116   0.203E-02    0.182E-02
RMM:  14    -0.643549948846E+03   -0.14808E-05   -0.12225E-05  4880   0.130E-02
  29 F= -.64354995E+03 E0= -.64348623E+03  d E =-.624224E-02
 curvature:  -0.77 expect dE=-0.705E-02 dE for cont linesearch -0.165E-06
 trial: gam= 0.61653 g(F)=  0.467E-02 g(S)=  0.454E-02 ort =-0.786E-04 (trialstep = 0.432E+00)
 search vector abs. value=  0.200E-01
 bond charge predicted
       N       E                     dE             d eps       ncg     rms          rms(c)
DAV:   1    -0.643541681715E+03    0.82656E-02   -0.70636E-01  8316   0.513E+00    0.383E-01
RMM:   2    -0.643563969053E+03   -0.22287E-01   -0.13049E-01 11042   0.109E+00    0.127E+00
RMM:   3    -0.643555215944E+03    0.87531E-02   -0.19785E-02  9781   0.549E-01    0.694E-01
RMM:   4    -0.643553798705E+03    0.14172E-02   -0.74462E-03 10294   0.256E-01    0.417E-01
RMM:   5    -0.643553236876E+03    0.56183E-03   -0.22495E-03  9839   0.134E-01    0.198E-01
RMM:   6    -0.643553221774E+03    0.15102E-04   -0.77447E-04  9779   0.795E-02    0.223E-01
RMM:   7    -0.643553011865E+03    0.20991E-03   -0.31080E-04  8524   0.594E-02    0.101E-01
RMM:   8    -0.643553062238E+03   -0.50373E-04   -0.24170E-04  8510   0.436E-02    0.137E-01
RMM:   9    -0.643553011810E+03    0.50428E-04   -0.22247E-04  9049   0.441E-02    0.110E-01
RMM:  10    -0.643552953580E+03    0.58230E-04   -0.62373E-05  6090   0.302E-02    0.366E-02
RMM:  11    -0.643552956464E+03   -0.28838E-05   -0.32505E-05  5459   0.211E-02
  30 F= -.64355296E+03 E0= -.64348956E+03  d E =-.300762E-02
 trial-energy change:   -0.003008  1 .order   -0.003000   -0.003957   -0.002044
 step:   0.8931(harm=  0.8931)  dis= 0.01006  next Energy=  -643.554040 (dE=-0.409E-02)
 bond charge predicted
       N       E                     dE             d eps       ncg     rms          rms(c)
DAV:   1    -0.643541107947E+03    0.11846E-01   -0.80452E-01  8232   0.548E+00    0.410E-01
RMM:   2    -0.643566937366E+03   -0.25829E-01   -0.14913E-01 11028   0.117E+00    0.138E+00
RMM:   3    -0.643556586054E+03    0.10351E-01   -0.22821E-02  9776   0.590E-01    0.752E-01
RMM:   4    -0.643554979510E+03    0.16065E-02   -0.86740E-03 10364   0.276E-01    0.454E-01
RMM:   5    -0.643554291069E+03    0.68844E-03   -0.26132E-03  9976   0.141E-01    0.205E-01
RMM:   6    -0.643554287806E+03    0.32633E-05   -0.87917E-04  9777   0.833E-02    0.237E-01
RMM:   7    -0.643554052882E+03    0.23492E-03   -0.36345E-04  8767   0.626E-02    0.109E-01
RMM:   8    -0.643554124594E+03   -0.71713E-04   -0.27672E-04  8763   0.463E-02    0.158E-01
RMM:   9    -0.643554077758E+03    0.46836E-04   -0.26403E-04  9286   0.483E-02    0.136E-01
RMM:  10    -0.643553986777E+03    0.90981E-04   -0.77061E-05  6562   0.332E-02    0.338E-02
RMM:  11    -0.643553994731E+03   -0.79543E-05   -0.40218E-05  5708   0.216E-02
  31 F= -.64355399E+03 E0= -.64349092E+03  d E =-.404588E-02
 curvature:  -0.97 expect dE=-0.403E-02 dE for cont linesearch -0.956E-06
 trial: gam= 0.44660 g(F)=  0.385E-02 g(S)=  0.292E-03 ort =-0.140E-03 (trialstep = 0.524E+00)
 search vector abs. value=  0.800E-02
 bond charge predicted
       N       E                     dE             d eps       ncg     rms          rms(c)
DAV:   1    -0.643550968960E+03    0.30178E-02   -0.38689E-01  8848   0.332E+00    0.124E-01
RMM:   2    -0.643555869399E+03   -0.49004E-02   -0.44001E-02 11188   0.660E-01    0.382E-01
RMM:   3    -0.643555767189E+03    0.10221E-03   -0.61358E-03 10849   0.238E-01    0.171E-01
RMM:   4    -0.643555947980E+03   -0.18079E-03   -0.14564E-03  9948   0.112E-01    0.204E-01
RMM:   5    -0.643555774391E+03    0.17359E-03   -0.42506E-04  8909   0.722E-02    0.950E-02
RMM:   6    -0.643555750308E+03    0.24083E-04   -0.18954E-04  7677   0.382E-02    0.606E-02
RMM:   7    -0.643555788550E+03   -0.38243E-04   -0.12946E-04  7345   0.360E-02    0.107E-01
RMM:   8    -0.643555745026E+03    0.43524E-04   -0.10516E-04  7477   0.308E-02    0.609E-02
RMM:   9    -0.643555728663E+03    0.16363E-04   -0.34779E-05  5445   0.224E-02    0.278E-02
RMM:  10    -0.643555730466E+03   -0.18031E-05   -0.15681E-05  4932   0.174E-02
  32 F= -.64355573E+03 E0= -.64349267E+03  d E =-.173573E-02
 trial-energy change:   -0.001736  1 .order   -0.001748   -0.002136   -0.001361
 step:   1.4442(harm=  1.4442)  dis= 0.01085  next Energy=  -643.556937 (dE=-0.294E-02)
 bond charge predicted
       N       E                     dE             d eps       ncg     rms          rms(c)
DAV:   1    -0.643542185864E+03    0.13543E-01   -0.11928E+00  8232   0.583E+00    0.213E-01
RMM:   2    -0.643556297722E+03   -0.14112E-01   -0.13453E-01 11036   0.117E+00    0.548E-01
RMM:   3    -0.643557008214E+03   -0.71049E-03   -0.19830E-02 11475   0.416E-01    0.322E-01
RMM:   4    -0.643557448279E+03   -0.44006E-03   -0.42822E-03 10589   0.183E-01    0.342E-01
RMM:   5    -0.643556928725E+03    0.51955E-03   -0.12396E-03  9722   0.114E-01    0.148E-01
RMM:   6    -0.643556882749E+03    0.45976E-04   -0.59638E-04  9202   0.664E-02    0.109E-01
RMM:   7    -0.643556953844E+03   -0.71095E-04   -0.37994E-04  9051   0.536E-02    0.161E-01
RMM:   8    -0.643556859321E+03    0.94523E-04   -0.28362E-04  9159   0.474E-02    0.106E-01
RMM:   9    -0.643556811140E+03    0.48181E-04   -0.11811E-04  7460   0.373E-02    0.562E-02
RMM:  10    -0.643556805856E+03    0.52837E-05   -0.50230E-05  6014   0.220E-02
  33 F= -.64355681E+03 E0= -.64349377E+03  d E =-.281113E-02
 curvature:  -1.42 expect dE=-0.344E-02 dE for cont linesearch -0.569E-05
 trial: gam= 0.59702 g(F)=  0.217E-02 g(S)=  0.258E-03 ort =-0.179E-03 (trialstep = 0.708E+00)
 search vector abs. value=  0.507E-02
 bond charge predicted
       N       E                     dE             d eps       ncg     rms          rms(c)
DAV:   1    -0.643552725041E+03    0.40861E-02   -0.46334E-01  8820   0.364E+00    0.333E-01
RMM:   2    -0.643566673947E+03   -0.13949E-01   -0.69885E-02 10869   0.852E-01    0.113E+00
RMM:   3    -0.643560200833E+03    0.64731E-02   -0.12489E-02  9860   0.434E-01    0.653E-01
RMM:   4    -0.643558420829E+03    0.17800E-02   -0.44306E-03 10313   0.208E-01    0.307E-01
RMM:   5    -0.643558115951E+03    0.30488E-03   -0.14398E-03  9758   0.107E-01    0.161E-01
RMM:   6    -0.643558124876E+03   -0.89247E-05   -0.52349E-04  9446   0.645E-02    0.193E-01
RMM:   7    -0.643557971499E+03    0.15338E-03   -0.22176E-04  8038   0.476E-02    0.889E-02
RMM:   8    -0.643558002158E+03   -0.30659E-04   -0.17310E-04  7895   0.347E-02    0.113E-01
RMM:   9    -0.643557963253E+03    0.38905E-04   -0.13862E-04  8068   0.378E-02    0.938E-02
RMM:  10    -0.643557922357E+03    0.40897E-04   -0.41454E-05  5480   0.256E-02    0.299E-02
RMM:  11    -0.643557925481E+03   -0.31249E-05   -0.20125E-05  5026   0.197E-02
  34 F= -.64355793E+03 E0= -.64349490E+03  d E =-.111963E-02
 trial-energy change:   -0.001120  1 .order   -0.001159   -0.001645   -0.000673
 step:   1.1987(harm=  1.1987)  dis= 0.00884  next Energy=  -643.558198 (dE=-0.139E-02)
 bond charge predicted
       N       E                     dE             d eps       ncg     rms          rms(c)
DAV:   1    -0.643555576913E+03    0.23454E-02   -0.22164E-01  9100   0.252E+00    0.226E-01
RMM:   2    -0.643561971952E+03   -0.63950E-02   -0.33377E-02 10845   0.587E-01    0.741E-01
RMM:   3    -0.643558943012E+03    0.30289E-02   -0.58588E-03  9542   0.302E-01    0.400E-01
RMM:   4    -0.643558309542E+03    0.63347E-03   -0.21044E-03 10069   0.141E-01    0.199E-01
RMM:   5    -0.643558197541E+03    0.11200E-03   -0.62095E-04  9405   0.749E-02    0.118E-01
RMM:   6    -0.643558184481E+03    0.13061E-04   -0.24546E-04  8445   0.450E-02    0.121E-01
RMM:   7    -0.643558119558E+03    0.64923E-04   -0.10039E-04  6655   0.343E-02    0.600E-02
RMM:   8    -0.643558145953E+03   -0.26396E-04   -0.82652E-05  6537   0.283E-02    0.933E-02
RMM:   9    -0.643558126678E+03    0.19276E-04   -0.77114E-05  6952   0.285E-02    0.751E-02
RMM:  10    -0.643558097859E+03    0.28819E-04   -0.25774E-05  5060   0.200E-02    0.187E-02
RMM:  11    -0.643558100380E+03   -0.25213E-05   -0.12564E-05  4809   0.169E-02
  35 F= -.64355810E+03 E0= -.64349506E+03  d E =-.129452E-02
 curvature:  -1.31 expect dE=-0.315E-02 dE for cont linesearch -0.215E-05
 trial: gam= 0.97155 g(F)=  0.846E-03 g(S)=  0.157E-02 ort =-0.914E-04 (trialstep = 0.582E+00)
 search vector abs. value=  0.702E-02
 bond charge predicted
       N       E                     dE             d eps       ncg     rms          rms(c)
DAV:   1    -0.643554097281E+03    0.40006E-02   -0.44098E-01  8932   0.379E+00    0.405E-01
RMM:   2    -0.643570952523E+03   -0.16855E-01   -0.76016E-02 10707   0.929E-01    0.125E+00
RMM:   3    -0.643561574148E+03    0.93784E-02   -0.16021E-02  9507   0.508E-01    0.711E-01
RMM:   4    -0.643559505147E+03    0.20690E-02   -0.58141E-03 10312   0.222E-01    0.345E-01
RMM:   5    -0.643559134932E+03    0.37021E-03   -0.15427E-03  9838   0.114E-01    0.199E-01
RMM:   6    -0.643559129834E+03    0.50980E-05   -0.65311E-04  9726   0.708E-02    0.227E-01
RMM:   7    -0.643558913705E+03    0.21613E-03   -0.28650E-04  8704   0.586E-02    0.116E-01
RMM:   8    -0.643558920535E+03   -0.68297E-05   -0.20107E-04  8241   0.418E-02    0.115E-01
RMM:   9    -0.643558913454E+03    0.70811E-05   -0.17493E-04  8642   0.397E-02    0.112E-01
RMM:  10    -0.643558847003E+03    0.66451E-04   -0.55517E-05  5870   0.303E-02    0.314E-02
RMM:  11    -0.643558847271E+03   -0.26815E-06   -0.21738E-05  5095   0.197E-02
  36 F= -.64355885E+03 E0= -.64349595E+03  d E =-.746891E-03
 trial-energy change:   -0.000747  1 .order   -0.000790   -0.001352   -0.000227
 step:   0.7492(harm=  0.7000)  dis= 0.00700  next Energy=  -643.558879 (dE=-0.778E-03)
 bond charge predicted
       N       E                     dE             d eps       ncg     rms          rms(c)
DAV:   1    -0.643558454519E+03    0.39248E-03   -0.36092E-02  9884   0.109E+00    0.122E-01
RMM:   2    -0.643560257573E+03   -0.18031E-02   -0.64261E-03 10625   0.270E-01    0.466E-01
RMM:   3    -0.643559155629E+03    0.11019E-02   -0.14096E-03  8685   0.154E-01    0.246E-01
RMM:   4    -0.643558925359E+03    0.23027E-03   -0.55710E-04  9127   0.803E-02    0.122E-01
RMM:   5    -0.643558866521E+03    0.58838E-04   -0.16990E-04  7747   0.395E-02    0.484E-02
RMM:   6    -0.643558874020E+03   -0.74988E-05   -0.59613E-05  5912   0.265E-02
  37 F= -.64355887E+03 E0= -.64349600E+03  d E =-.773640E-03
 curvature:  -0.87 expect dE=-0.724E-03 dE for cont linesearch -0.939E-06
 trial: gam= 0.17483 g(F)=  0.821E-03 g(S)=  0.808E-05 ort =-0.868E-04 (trialstep = 0.616E+00)
 search vector abs. value=  0.101E-02
 bond charge predicted
       N       E                     dE             d eps       ncg     rms          rms(c)
DAV:   1    -0.643558405199E+03    0.46132E-03   -0.62842E-02  9016   0.134E+00    0.906E-02
RMM:   2    -0.643559707998E+03   -0.13028E-02   -0.83836E-03 11329   0.277E-01    0.314E-01
RMM:   3    -0.643559335832E+03    0.37217E-03   -0.12681E-03  9614   0.131E-01    0.190E-01
RMM:   4    -0.643559231789E+03    0.10404E-03   -0.41212E-04  9112   0.711E-02    0.106E-01
RMM:   5    -0.643559193658E+03    0.38130E-04   -0.16154E-04  7410   0.366E-02    0.493E-02
RMM:   6    -0.643559187538E+03    0.61200E-05   -0.54416E-05  5808   0.278E-02
  38 F= -.64355919E+03 E0= -.64349635E+03  d E =-.313519E-03
 trial-energy change:   -0.000314  1 .order   -0.000341   -0.000501   -0.000180
 step:   0.9612(harm=  0.9612)  dis= 0.00294  next Energy=  -643.559265 (dE=-0.391E-03)
 bond charge predicted
       N       E                     dE             d eps       ncg     rms          rms(c)
DAV:   1    -0.643558985556E+03    0.20810E-03   -0.19783E-02  9324   0.751E-01    0.587E-02
RMM:   2    -0.643559602051E+03   -0.61649E-03   -0.27549E-03 10969   0.160E-01    0.267E-01
RMM:   3    -0.643559263945E+03    0.33811E-03   -0.45811E-04  8822   0.834E-02    0.934E-02
RMM:   4    -0.643559248247E+03    0.15697E-04   -0.18762E-04  7552   0.466E-02    0.711E-02
RMM:   5    -0.643559230656E+03    0.17591E-04   -0.65650E-05  6121   0.251E-02    0.325E-02
RMM:   6    -0.643559235140E+03   -0.44837E-05   -0.30342E-05  5328   0.213E-02
  39 F= -.64355924E+03 E0= -.64349639E+03  d E =-.361120E-03
 curvature:  -0.60 expect dE=-0.436E-03 dE for cont linesearch -0.204E-06
 trial: gam= 0.85339 g(F)=  0.245E-03 g(S)=  0.483E-03 ort =-0.186E-04 (trialstep = 0.484E+00)
 search vector abs. value=  0.143E-02
 bond charge predicted
       N       E                     dE             d eps       ncg     rms          rms(c)
DAV:   1    -0.643559683080E+03   -0.45242E-03   -0.59444E-02 10780   0.131E+00    0.265E-01
RMM:   2    -0.643566037102E+03   -0.63540E-02   -0.12996E-02  9830   0.444E-01    0.935E-01
RMM:   3    -0.643560786614E+03    0.52505E-02   -0.45253E-03  8870   0.294E-01    0.464E-01
RMM:   4    -0.643559791693E+03    0.99492E-03   -0.13402E-03  9617   0.133E-01    0.251E-01
RMM:   5    -0.643559531330E+03    0.26036E-03   -0.45809E-04  9018   0.712E-02    0.996E-02
RMM:   6    -0.643559600765E+03   -0.69435E-04   -0.24440E-04  8667   0.456E-02    0.156E-01
RMM:   7    -0.643559492836E+03    0.10793E-03   -0.10730E-04  6956   0.368E-02    0.760E-02
RMM:   8    -0.643559472897E+03    0.19939E-04   -0.53987E-05  5861   0.243E-02    0.400E-02
RMM:   9    -0.643559487964E+03   -0.15068E-04   -0.38454E-05  5512   0.216E-02    0.689E-02
RMM:  10    -0.643559465431E+03    0.22533E-04   -0.18179E-05  4953   0.215E-02    0.246E-02
RMM:  11    -0.643559463308E+03    0.21235E-05   -0.85470E-06  4704   0.122E-02
  40 F= -.64355946E+03 E0= -.64349659E+03  d E =-.228168E-03
 trial-energy change:   -0.000228  1 .order   -0.000210   -0.000345   -0.000076
 step:   0.6200(harm=  0.6200)  dis= 0.00234  next Energy=  -643.559456 (dE=-0.221E-03)
 bond charge predicted
       N       E                     dE             d eps       ncg     rms          rms(c)
DAV:   1    -0.643559493051E+03   -0.27620E-04   -0.46702E-03 11144   0.368E-01    0.781E-02
RMM:   2    -0.643560118078E+03   -0.62503E-03   -0.10866E-03  9087   0.130E-01    0.304E-01
RMM:   3    -0.643559577556E+03    0.54052E-03   -0.39391E-04  7766   0.946E-02    0.133E-01
RMM:   4    -0.643559502116E+03    0.75439E-04   -0.11524E-04  7593   0.422E-02    0.793E-02
RMM:   5    -0.643559474882E+03    0.27235E-04   -0.35685E-05  5363   0.251E-02    0.281E-02
RMM:   6    -0.643559481635E+03   -0.67537E-05   -0.20952E-05  5210   0.197E-02
  41 F= -.64355948E+03 E0= -.64349659E+03  d E =-.246496E-03
 curvature:  -0.62 expect dE=-0.217E-03 dE for cont linesearch -0.775E-07
 trial: gam= 0.21835 g(F)=  0.335E-03 g(S)=  0.128E-04 ort = 0.133E-04 (trialstep = 0.511E+00)
 search vector abs. value=  0.422E-03
 bond charge predicted
       N       E                     dE             d eps       ncg     rms          rms(c)
DAV:   1    -0.643559370905E+03    0.10398E-03   -0.19006E-02  9296   0.735E-01    0.612E-02
RMM:   2    -0.643559929779E+03   -0.55887E-03   -0.27649E-03 10780   0.160E-01    0.237E-01
RMM:   3    -0.643559642540E+03    0.28724E-03   -0.43415E-04  8689   0.884E-02    0.109E-01
RMM:   4    -0.643559615777E+03    0.26763E-04   -0.15621E-04  7563   0.476E-02    0.764E-02
RMM:   5    -0.643559594879E+03    0.20898E-04   -0.57551E-05  5919   0.262E-02    0.274E-02
RMM:   6    -0.643559595426E+03   -0.54685E-06   -0.20762E-05  5059   0.201E-02
  42 F= -.64355960E+03 E0= -.64349670E+03  d E =-.113790E-03
 trial-energy change:   -0.000114  1 .order   -0.000122   -0.000179   -0.000064
 step:   0.7975(harm=  0.7975)  dis= 0.00119  next Energy=  -643.559622 (dE=-0.140E-03)
 bond charge predicted
       N       E                     dE             d eps       ncg     rms          rms(c)
DAV:   1    -0.643559542752E+03    0.52127E-04   -0.60213E-03  9408   0.412E-01    0.382E-02
RMM:   2    -0.643559771980E+03   -0.22923E-03   -0.89537E-04 10119   0.925E-02    0.173E-01
RMM:   3    -0.643559628339E+03    0.14364E-03   -0.15434E-04  7089   0.559E-02    0.633E-02
RMM:   4    -0.643559617587E+03    0.10752E-04   -0.57321E-05  6017   0.303E-02    0.443E-02
RMM:   5    -0.643559610518E+03    0.70689E-05   -0.23664E-05  5139   0.204E-02
  43 F= -.64355961E+03 E0= -.64349671E+03  d E =-.128883E-03
 curvature:  -0.48 expect dE=-0.838E-04 dE for cont linesearch -0.140E-05
 ZBRENT: interpolating
 opt :   0.7351  next Energy=  -643.559612 (dE=-0.130E-03)
 bond charge predicted
       N       E                     dE             d eps       ncg     rms          rms(c)
DAV:   1    -0.643559610649E+03    0.69383E-05   -0.31697E-04 11060   0.977E-02    0.367E-02
RMM:   2    -0.643560110091E+03   -0.49944E-03   -0.21476E-04  7304   0.577E-02    0.332E-01
RMM:   3    -0.643559616028E+03    0.49406E-03   -0.11188E-04  6543   0.507E-02    0.338E-02
RMM:   4    -0.643559608057E+03    0.79714E-05   -0.10507E-05  4356   0.127E-02
  44 F= -.64355961E+03 E0= -.64349672E+03  d E =-.126421E-03
 curvature:  -0.38 expect dE=-0.145E-03 dE for cont linesearch -0.469E-05
 trial: gam= 0.83831 g(F)=  0.163E-03 g(S)=  0.224E-03 ort = 0.726E-04 (trialstep = 0.292E+00)
 search vector abs. value=  0.805E-03
 bond charge predicted
       N       E                     dE             d eps       ncg     rms          rms(c)
DAV:   1    -0.643559564353E+03    0.51675E-04   -0.14876E-02 11592   0.796E-01    0.113E-01
RMM:   2    -0.643561250022E+03   -0.16857E-02   -0.34125E-03  9794   0.213E-01    0.485E-01
RMM:   3    -0.643559893280E+03    0.13567E-02   -0.10142E-03  8304   0.140E-01    0.188E-01
RMM:   4    -0.643559742626E+03    0.15065E-03   -0.33071E-04  8833   0.675E-02    0.111E-01
RMM:   5    -0.643559686512E+03    0.56114E-04   -0.11115E-04  6816   0.358E-02    0.399E-02
RMM:   6    -0.643559699150E+03   -0.12637E-04   -0.41942E-05  5390   0.242E-02    0.668E-02
RMM:   7    -0.643559684021E+03    0.15129E-04   -0.21781E-05  5044   0.226E-02    0.395E-02
RMM:   8    -0.643559677920E+03    0.61005E-05   -0.11797E-05  4856   0.152E-02
  45 F= -.64355968E+03 E0= -.64349681E+03  d E =-.698640E-04
 trial-energy change:   -0.000070  1 .order   -0.000090   -0.000130   -0.000049
 step:   0.4659(harm=  0.4659)  dis= 0.00092  next Energy=  -643.559712 (dE=-0.104E-03)
 bond charge predicted
       N       E                     dE             d eps       ncg     rms          rms(c)
DAV:   1    -0.643559645305E+03    0.38716E-04   -0.52879E-03 11816   0.475E-01    0.723E-02
RMM:   2    -0.643560422743E+03   -0.77744E-03   -0.13079E-03  9348   0.132E-01    0.347E-01
RMM:   3    -0.643559783150E+03    0.63959E-03   -0.41496E-04  7834   0.921E-02    0.129E-01
RMM:   4    -0.643559711572E+03    0.71579E-04   -0.12541E-04  7492   0.437E-02    0.702E-02
RMM:   5    -0.643559691234E+03    0.20338E-04   -0.43946E-05  5512   0.251E-02    0.323E-02
RMM:   6    -0.643559691444E+03   -0.20956E-06   -0.16375E-05  4949   0.196E-02
  46 F= -.64355969E+03 E0= -.64349684E+03  d E =-.833872E-04
 curvature:  -0.42 expect dE=-0.690E-04 dE for cont linesearch -0.288E-07
 trial: gam= 0.16082 g(F)=  0.153E-03 g(S)=  0.120E-04 ort = 0.744E-05 (trialstep = 0.327E+00)
 search vector abs. value=  0.188E-03
 bond charge predicted
       N       E                     dE             d eps       ncg     rms          rms(c)
DAV:   1    -0.643559719726E+03   -0.28492E-04   -0.30015E-03 10556   0.268E-01    0.608E-02
RMM:   2    -0.643560225525E+03   -0.50580E-03   -0.65424E-04  8962   0.104E-01    0.285E-01
RMM:   3    -0.643559779112E+03    0.44641E-03   -0.24254E-04  7463   0.731E-02    0.107E-01
RMM:   4    -0.643559740147E+03    0.38966E-04   -0.73554E-05  6606   0.360E-02    0.712E-02
RMM:   5    -0.643559716071E+03    0.24075E-04   -0.25675E-05  5222   0.206E-02    0.175E-02
RMM:   6    -0.643559723098E+03   -0.70267E-05   -0.12908E-05  4866   0.161E-02
  47 F= -.64355972E+03 E0= -.64349688E+03  d E =-.316544E-04
 trial-energy change:   -0.000032  1 .order   -0.000038   -0.000054   -0.000022
 step:   0.5478(harm=  0.5478)  dis= 0.00052  next Energy=  -643.559737 (dE=-0.454E-04)
 bond charge predicted
       N       E                     dE             d eps       ncg     rms          rms(c)
DAV:   1    -0.643559721741E+03   -0.56693E-05   -0.13979E-03 10780   0.183E-01    0.394E-02
RMM:   2    -0.643559908484E+03   -0.18674E-03   -0.27794E-04  8350   0.642E-02    0.169E-01
RMM:   3    -0.643559750214E+03    0.15827E-03   -0.96021E-05  6312   0.466E-02    0.701E-02
RMM:   4    -0.643559728991E+03    0.21223E-04   -0.28526E-05  5261   0.250E-02    0.405E-02
RMM:   5    -0.643559722155E+03    0.68362E-05   -0.13716E-05  4927   0.174E-02
  48 F= -.64355972E+03 E0= -.64349688E+03  d E =-.307113E-04
 curvature:  -0.31 expect dE=-0.427E-04 dE for cont linesearch -0.241E-06
 trial: gam= 0.85862 g(F)=  0.306E-04 g(S)=  0.107E-03 ort =-0.121E-04 (trialstep = 0.273E+00)
 search vector abs. value=  0.255E-03
 bond charge predicted
       N       E                     dE             d eps       ncg     rms          rms(c)
DAV:   1    -0.643559757049E+03   -0.28057E-04   -0.30488E-03 10276   0.274E-01    0.498E-02
RMM:   2    -0.643560100825E+03   -0.34378E-03   -0.57661E-04  9078   0.920E-02    0.239E-01
RMM:   3    -0.643559817639E+03    0.28319E-03   -0.17899E-04  7232   0.656E-02    0.106E-01
RMM:   4    -0.643559772828E+03    0.44810E-04   -0.58340E-05  6179   0.323E-02    0.507E-02
RMM:   5    -0.643559761404E+03    0.11424E-04   -0.23243E-05  5206   0.200E-02    0.200E-02
RMM:   6    -0.643559762782E+03   -0.13780E-05   -0.10854E-05  4797   0.152E-02
  49 F= -.64355976E+03 E0= -.64349689E+03  d E =-.406272E-04
 trial-energy change:   -0.000041  1 .order   -0.000030   -0.000035   -0.000025
 step:   0.9848(harm=  0.9848)  dis= 0.00132  next Energy=  -643.559785 (dE=-0.627E-04)
 bond charge predicted
       N       E                     dE             d eps       ncg     rms          rms(c)
DAV:   1    -0.643559789791E+03   -0.28387E-04   -0.20474E-02 10164   0.719E-01    0.138E-01
RMM:   2    -0.643561657050E+03   -0.18673E-02   -0.37864E-03  9876   0.240E-01    0.511E-01
RMM:   3    -0.643560084423E+03    0.15726E-02   -0.12667E-03  8586   0.160E-01    0.226E-01
RMM:   4    -0.643559851360E+03    0.23306E-03   -0.38562E-04  9119   0.716E-02    0.128E-01
RMM:   5    -0.643559782834E+03    0.68526E-04   -0.13398E-04  7498   0.390E-02    0.522E-02
RMM:   6    -0.643559806968E+03   -0.24134E-04   -0.67748E-05  6357   0.278E-02    0.922E-02
RMM:   7    -0.643559768848E+03    0.38120E-04   -0.31060E-05  5218   0.237E-02    0.408E-02
RMM:   8    -0.643559763814E+03    0.50332E-05   -0.14886E-05  4919   0.177E-02
  50 F= -.64355976E+03 E0= -.64349685E+03  d E =-.416594E-04
 curvature:  -0.99 expect dE=-0.220E-03 dE for cont linesearch -0.138E-04
 ZBRENT: interpolating
 opt :   0.7044  next Energy=  -643.559772 (dE=-0.500E-04)
 bond charge predicted
       N       E                     dE             d eps       ncg     rms          rms(c)
DAV:   1    -0.643559779842E+03   -0.10994E-04   -0.32998E-03 10024   0.288E-01    0.633E-02
RMM:   2    -0.643560504410E+03   -0.72457E-03   -0.79205E-04  9126   0.111E-01    0.356E-01
RMM:   3    -0.643559834919E+03    0.66949E-03   -0.29446E-04  7488   0.792E-02    0.944E-02
RMM:   4    -0.643559795526E+03    0.39393E-04   -0.71145E-05  6639   0.372E-02    0.656E-02
RMM:   5    -0.643559777236E+03    0.18290E-04   -0.23811E-05  5172   0.223E-02    0.252E-02
RMM:   6    -0.643559780335E+03   -0.30990E-05   -0.13775E-05  4919   0.172E-02
  51 F= -.64355978E+03 E0= -.64349690E+03  d E =-.581802E-04
 curvature:  -0.60 expect dE=-0.102E-03 dE for cont linesearch -0.199E-06
 trial: gam= 1.13549 g(F)=  0.156E-03 g(S)=  0.153E-04 ort =-0.921E-05 (trialstep = 0.191E+00)
 search vector abs. value=  0.479E-03
 bond charge predicted
       N       E                     dE             d eps       ncg     rms          rms(c)
DAV:   1    -0.643559739419E+03    0.37817E-04   -0.37447E-03  9688   0.401E-01    0.349E-02
RMM:   2    -0.643559974761E+03   -0.23534E-03   -0.78079E-04  9564   0.833E-02    0.180E-01
RMM:   3    -0.643559816408E+03    0.15835E-03   -0.13410E-04  6864   0.536E-02    0.620E-02
RMM:   4    -0.643559802233E+03    0.14175E-04   -0.44240E-05  5635   0.276E-02    0.376E-02
RMM:   5    -0.643559797578E+03    0.46549E-05   -0.16637E-05  4974   0.190E-02
  52 F= -.64355980E+03 E0= -.64349686E+03  d E =-.172428E-04
 trial-energy change:   -0.000017  1 .order   -0.000016   -0.000031   -0.000001
 step:   0.1973(harm=  0.1973)  dis= 0.00041  next Energy=  -643.559796 (dE=-0.158E-04)
 bond charge predicted
       N       E                     dE             d eps       ncg     rms          rms(c)
DAV:   1    -0.643559798970E+03    0.32626E-05   -0.24024E-05  7336   0.303E-02    0.214E-02
RMM:   2    -0.643559931914E+03   -0.13294E-03   -0.56219E-05  6284   0.327E-02    0.169E-01
RMM:   3    -0.643559801168E+03    0.13075E-03   -0.29989E-05  5135   0.286E-02    0.284E-02
RMM:   4    -0.643559797333E+03    0.38351E-05   -0.45539E-06  3973   0.862E-03
  53 F= -.64355980E+03 E0= -.64349688E+03  d E =-.169980E-04
 curvature:  -0.29 expect dE=-0.400E-04 dE for cont linesearch -0.141E-05
 ZBRENT: increasing intervall
 opt :   0.2093  next Energy=  -643.559798 (dE=-0.181E-04)
 bond charge predicted
       N       E                     dE             d eps       ncg     rms          rms(c)
DAV:   1    -0.643559797889E+03    0.32797E-05   -0.20867E-05  5936   0.323E-02    0.105E-02
RMM:   2    -0.643559834148E+03   -0.36259E-04   -0.19106E-05  5072   0.196E-02    0.868E-02
RMM:   3    -0.643559798727E+03    0.35421E-04   -0.10311E-05  4653   0.170E-02    0.118E-02
RMM:   4    -0.643559797896E+03    0.83144E-06   -0.18475E-06  3772   0.530E-03
  54 F= -.64355980E+03 E0= -.64349688E+03  d E =-.175605E-04
 curvature:  -0.23 expect dE=-0.298E-04 dE for cont linesearch -0.112E-05
 ZBRENT: increasing intervall
 opt :   0.2335  next Energy=  -643.559799 (dE=-0.187E-04)
 bond charge predicted
       N       E                     dE             d eps       ncg     rms          rms(c)
DAV:   1    -0.643559799541E+03   -0.81410E-06   -0.68935E-05  9464   0.524E-02    0.719E-03
RMM:   2    -0.643559810535E+03   -0.10993E-04   -0.13203E-05  4834   0.140E-02    0.475E-02
RMM:   3    -0.643559800443E+03    0.10092E-04   -0.63066E-06  4010   0.147E-02    0.103E-02
RMM:   4    -0.643559800179E+03    0.26394E-06   -0.15006E-06  3831   0.512E-03
  55 F= -.64355980E+03 E0= -.64349688E+03  d E =-.198438E-04
 curvature:  -0.24 expect dE=-0.298E-04 dE for cont linesearch -0.239E-05
 ZBRENT: increasing intervall
 opt :   0.2817  next Energy=  -643.559804 (dE=-0.242E-04)
 bond charge predicted
       N       E                     dE             d eps       ncg     rms          rms(c)
DAV:   1    -0.643559801154E+03   -0.71142E-06   -0.24841E-04 10444   0.100E-01    0.948E-03
RMM:   2    -0.643559810637E+03   -0.94831E-05   -0.42703E-05  5602   0.216E-02
  56 F= -.64355981E+03 E0= -.64349686E+03  d E =-.303022E-04
 curvature:  -0.44 expect dE=-0.232E-03 dE for cont linesearch -0.105E-04
 ZBRENT: bracketing found
 ZBRENT: interpolating
 opt :   0.2523  next Energy=  -643.559801 (dE=-0.205E-04)
 bond charge predicted
       N       E                     dE             d eps       ncg     rms          rms(c)
DAV:   1    -0.643559803570E+03   -0.24161E-05   -0.11932E-04 11032   0.774E-02    0.229E-02
RMM:   2    -0.643559982428E+03   -0.17886E-03   -0.75603E-05  6352   0.335E-02    0.198E-01
RMM:   3    -0.643559808967E+03    0.17346E-03   -0.41815E-05  5312   0.309E-02    0.271E-02
RMM:   4    -0.643559802313E+03    0.66537E-05   -0.46263E-06  3913   0.101E-02
  57 F= -.64355980E+03 E0= -.64349688E+03  d E =-.219779E-04
 curvature:  -0.03 expect dE=-0.444E-05 dE for cont linesearch -0.926E-06
 ZBRENT: interpolating
 opt :   0.2683  next Energy=  -643.559811 (dE=-0.310E-04)
 bond charge predicted
       N       E                     dE             d eps       ncg     rms          rms(c)
DAV:   1    -0.643559802557E+03    0.64099E-05   -0.22492E-05  6328   0.366E-02    0.596E-03
RMM:   2    -0.643559813604E+03   -0.11047E-04   -0.93001E-06  4346   0.141E-02    0.475E-02
RMM:   3    -0.643559802957E+03    0.10647E-04   -0.45077E-06  3842   0.114E-02    0.453E-03
RMM:   4    -0.643559802927E+03    0.29286E-07   -0.12430E-06  3484   0.414E-03
  58 F= -.64355980E+03 E0= -.64349688E+03  d E =-.225920E-04
 curvature:  -0.02 expect dE=-0.256E-05 dE for cont linesearch -0.107E-06
 ZBRENT: interpolating
 opt :   0.2725  next Energy=  -643.559803 (dE=-0.227E-04)
 bond charge predicted
       N       E                     dE             d eps       ncg     rms          rms(c)
DAV:   1    -0.643559803172E+03   -0.21522E-06   -0.27318E-06  5096   0.113E-02    0.197E-03
RMM:   2    -0.643559803971E+03   -0.79948E-06   -0.15165E-06  3899   0.584E-03
  59 F= -.64355980E+03 E0= -.64349689E+03  d E =-.236360E-04
 curvature:  -0.02 expect dE=-0.264E-05 dE for cont linesearch -0.172E-07
 trial: gam= 0.08214 g(F)=  0.103E-03 g(S)=  0.257E-04 ort = 0.201E-04 (trialstep = 0.208E+00)
 search vector abs. value=  0.135E-03
 bond charge predicted
       N       E                     dE             d eps       ncg     rms          rms(c)
DAV:   1    -0.643559824626E+03   -0.21455E-04   -0.82378E-04 10360   0.147E-01    0.271E-02
RMM:   2    -0.643559893422E+03   -0.68796E-04   -0.14599E-04  7657   0.472E-02    0.936E-02
RMM:   3    -0.643559839402E+03    0.54021E-04   -0.45945E-05  5574   0.339E-02    0.479E-02
RMM:   4    -0.643559828330E+03    0.11072E-04   -0.13764E-05  4843   0.185E-02    0.243E-02
RMM:   5    -0.643559826133E+03    0.21973E-05   -0.61234E-06  3950   0.129E-02
  60 F= -.64355983E+03 E0= -.64349691E+03  d E =-.221616E-04
 trial-energy change:   -0.000022  1 .order   -0.000022   -0.000027   -0.000018
 step:   0.6048(harm=  0.6048)  dis= 0.00063  next Energy=  -643.559843 (dE=-0.395E-04)
 bond charge predicted
       N       E                     dE             d eps       ncg     rms          rms(c)
DAV:   1    -0.643559847604E+03   -0.19274E-04   -0.30102E-03 10500   0.280E-01    0.557E-02
RMM:   2    -0.643560193167E+03   -0.34556E-03   -0.57748E-04  9082   0.959E-02    0.228E-01
RMM:   3    -0.643559906942E+03    0.28623E-03   -0.20778E-04  7321   0.688E-02    0.103E-01
RMM:   4    -0.643559866196E+03    0.40745E-04   -0.64874E-05  6401   0.334E-02    0.654E-02
RMM:   5    -0.643559847130E+03    0.19066E-04   -0.25873E-05  5274   0.213E-02    0.190E-02
RMM:   6    -0.643559854577E+03   -0.74467E-05   -0.13556E-05  4911   0.159E-02
  61 F= -.64355985E+03 E0= -.64349694E+03  d E =-.506057E-04
 curvature:  -0.31 expect dE=-0.912E-05 dE for cont linesearch -0.439E-06
 trial: gam= 0.16407 g(F)=  0.246E-04 g(S)=  0.451E-05 ort = 0.138E-04 (trialstep = 0.287E+00)
 search vector abs. value=  0.372E-04
 reached required accuracy - stopping structural energy minimisation
