HECN                                    
           1
     8.790716    0.005822   -0.022903
     0.011399    8.842269   -0.028229
     0.008688   -0.043388    8.825438
   Hf   V    Zr   N    C    Cr   Ta
     7     6     7    13    19     6     6
Direct configuration=     1
   0.99971709  0.98745105  0.98902046
   0.25095803  0.99460267  0.26509566
   0.25603271  0.50792973  0.24460716
   0.50037253  0.48970067  0.99501160
   0.48721724  0.24496171  0.74863585
   0.00029303  0.49699860  0.50876444
   0.50689653  0.75825912  0.75149370
   0.99427537  0.23463151  0.27231459
   0.76078841  0.74518255  0.99514565
   0.01166633  0.25081409  0.73142333
   0.75950599  0.26789168  0.50920899
   0.00076709  0.74552507  0.75933699
   0.24214253  0.50905209  0.75911085
   0.23871525  0.24656878  0.99911347
   0.50293498  0.24511185  0.24953346
   0.74275002  0.99618398  0.25194457
   0.75808016  0.24902553  0.98468083
   0.26422378  0.75890858  0.00145386
   0.25060987  0.25022598  0.50141698
   0.24723318  0.75024416  0.50645689
   0.24223502  0.24966488  0.25111914
   0.24798892  0.00183577  0.99788128
   0.99802763  0.23643513  0.00211417
   0.75961341  0.25255797  0.25488195
   0.74533276  0.98843702  0.99150224
   0.49288778  0.98845712  0.25184529
   0.99842626  0.49646467  0.25300172
   0.51556784  0.75906802  0.99893633
   0.98314097  0.00543281  0.74865047
   0.75637211  0.25554935  0.73657367
   0.74518628  0.99827468  0.50999091
   0.51095907  0.25537409  0.50166075
   0.51726436  0.00667160  0.73788008
   0.99927298  0.00082094  0.24968549
   0.50028602  0.24438680  0.99407212
   0.25186661  0.74914459  0.25297797
   0.24144352  0.50361100  0.99585999
   0.99980028  0.74713901  0.99664125
   0.74444543  0.74490841  0.24651082
   0.76117709  0.50769648  0.99908115
   0.50215184  0.50735512  0.24921356
   0.24528256  0.24710057  0.75018122
   0.25806685  0.99824112  0.51712144
   0.99325206  0.24836710  0.50242835
   0.24654698  0.75705780  0.75397747
   0.25110521  0.50025185  0.50508314
   0.99316630  0.75075627  0.50482916
   0.00525560  0.50019956  0.75756712
   0.75877107  0.75308372  0.75520770
   0.75031757  0.49854057  0.49999431
   0.50185976  0.75533890  0.50059387
   0.49817248  0.50301977  0.74845262
   0.52335048  0.01976007  0.96308204
   0.00195423  0.53103609  0.97583244
   0.50330337  0.75049170  0.27088912
   0.21629656  0.99110714  0.74033294
   0.48652527  0.97612254  0.48434769
   0.73141073  0.96893754  0.76906549
   0.99617235  0.75593530  0.24755613
   0.74834540  0.50213931  0.24629699
   0.99783843  0.00228784  0.50940014
   0.49947524  0.50660820  0.50085644
   0.75526585  0.50783103  0.75166263
   0.74963973  0.74723090  0.50139202
HECN                                    
           1
     8.960549    0.014685   -0.022517
     0.020393    9.041092   -0.031482
     0.009706   -0.046986    9.018895
   Hf   V    Zr   N    C    Cr   Ta
     7     6     7    13    19     6     6
Direct configuration=     2
   0.99772344  0.99468121  0.98915429
   0.25375543  0.99933114  0.25918786
   0.24508453  0.50087125  0.24816209
   0.50095321  0.49902291  0.99580397
   0.49627982  0.24352993  0.74169743
   0.00192217  0.49970918  0.50394222
   0.50260018  0.75932218  0.75432446
   0.99289838  0.23460796  0.27192214
   0.75905267  0.74284814  0.99521395
   0.00879972  0.24925568  0.73126534
   0.75863645  0.26659323  0.50890651
   0.00078355  0.74430736  0.75855528
   0.24283842  0.50907389  0.75856292
   0.23602571  0.24566311  0.99864668
   0.50448839  0.24384032  0.25148055
   0.74119372  0.99643029  0.25314405
   0.75894481  0.24863751  0.98567283
   0.26498335  0.75923858  0.00069181
   0.25032860  0.25064874  0.50211599
   0.24632363  0.74962466  0.50719120
   0.24291290  0.24845898  0.25068833
   0.24952604  0.00205824  0.99839820
   0.99841713  0.23895388  0.00125316
   0.76008266  0.25218289  0.25500306
   0.74425615  0.98964865  0.99210484
   0.49461519  0.98836026  0.25112030
   0.99688006  0.49710444  0.25081029
   0.51575709  0.75964446  0.99968940
   0.98319079  0.00547190  0.74661414
   0.75699959  0.25525622  0.73624785
   0.74502866  0.99830155  0.50986282
   0.51130991  0.25532131  0.50071857
   0.51768106  0.00346615  0.73829085
   0.99724861  0.00110696  0.25196939
   0.50112299  0.24198579  0.99507448
   0.25107624  0.75061181  0.25244232
   0.24055062  0.50481246  0.99264126
   0.99909334  0.74409759  0.99664792
   0.74403729  0.74435405  0.24686425
   0.76264338  0.50828310  0.99877208
   0.50674004  0.50665493  0.25147784
   0.23855100  0.24656613  0.75049374
   0.25705580  0.99862274  0.51804013
   0.99267201  0.24676024  0.50335199
   0.24340778  0.75687815  0.75412808
   0.25423241  0.50002960  0.50489148
   0.99174356  0.75280471  0.50516928
   0.00508150  0.50032134  0.76013364
   0.76030728  0.75351109  0.75541512
   0.74811764  0.49851239  0.49909289
   0.50305061  0.75468382  0.49828851
   0.49933408  0.50259525  0.74528563
   0.52355296  0.01516249  0.96708630
   0.00245448  0.52681157  0.98023730
   0.50464169  0.75285992  0.26796525
   0.21872999  0.99165755  0.73970647
   0.48753646  0.97683429  0.48763273
   0.73435139  0.97230851  0.76906733
   0.99708732  0.75405311  0.24871242
   0.75221384  0.50297794  0.24708765
   0.99782696  0.00194165  0.51072100
   0.49951728  0.50599777  0.50335266
   0.75481162  0.50658779  0.75214377
   0.75093674  0.74814879  0.49966386
HECN                                    
           1
     8.867337    0.009821   -0.022729
     0.015457    8.931969   -0.029697
     0.009147   -0.045011    8.912718
   Hf   V    Zr   N    C    Cr   Ta
     7     6     7    13    19     6     6
Direct configuration=     3
   0.99880070  0.99079918  0.98908119
   0.25225137  0.99679540  0.26236018
   0.25097598  0.50465381  0.24625337
   0.50064546  0.49401914  0.99537700
   0.49139905  0.24430430  0.74542454
   0.00104615  0.49825582  0.50653176
   0.50491422  0.75874887  0.75280376
   0.99363978  0.23461994  0.27213285
   0.75998605  0.74410028  0.99517754
   0.01034240  0.25009073  0.73135029
   0.75910395  0.26728980  0.50906912
   0.00077401  0.74496113  0.75897530
   0.24246371  0.50906264  0.75885723
   0.23747338  0.24614792  0.99889738
   0.50365140  0.24452335  0.25043510
   0.74203188  0.99629708  0.25249973
   0.75847909  0.24884608  0.98514016
   0.26457450  0.75906196  0.00110108
   0.25048030  0.25042155  0.50174049
   0.24681309  0.74995660  0.50679687
   0.24254725  0.24910670  0.25091993
   0.24869853  0.00193955  0.99812062
   0.99820868  0.23760221  0.00171521
   0.75982981  0.25238445  0.25493810
   0.74483651  0.98899762  0.99178096
   0.49368499  0.98841327  0.25150978
   0.99771283  0.49676057  0.25198706
   0.51565553  0.75933502  0.99928487
   0.98316389  0.00545127  0.74770779
   0.75666156  0.25541394  0.73642291
   0.74511354  0.99828707  0.50993160
   0.51112093  0.25534997  0.50122461
   0.51745503  0.00518691  0.73807075
   0.99833888  0.00095202  0.25074263
   0.50067113  0.24327487  0.99453655
   0.25150255  0.74982392  0.25272974
   0.24103186  0.50416758  0.99436971
   0.99947239  0.74572978  0.99664477
   0.74425678  0.74465135  0.24667450
   0.76185416  0.50796903  0.99893806
   0.50426931  0.50703281  0.25026210
   0.24217530  0.24684945  0.75032563
   0.25760043  0.99841723  0.51754662
   0.99298354  0.24762231  0.50285615
   0.24509797  0.75697292  0.75404706
   0.25254846  0.50015056  0.50499461
   0.99251071  0.75170436  0.50498622
   0.00517543  0.50025548  0.75875521
   0.75948035  0.75328246  0.75530373
   0.74930212  0.49852651  0.49957690
   0.50240895  0.75503644  0.49952682
   0.49870824  0.50282423  0.74698666
   0.52344173  0.01762983  0.96493645
   0.00218314  0.52907876  0.97787225
   0.50392218  0.75158987  0.26953528
   0.21741999  0.99136347  0.74004297
   0.48699253  0.97645225  0.48586837
   0.73276978  0.97050059  0.76906597
   0.99659374  0.75506372  0.24809174
   0.75013139  0.50252968  0.24666308
   0.99783302  0.00212726  0.51001166
   0.49949445  0.50632506  0.50201211
   0.75505557  0.50725482  0.75188553
   0.75023877  0.74765703  0.50059193
HECN                                    
           1
     8.829896    0.015515   -0.020529
     0.021147    8.902726   -0.032015
     0.011215   -0.047276    8.882102
   Hf   V    Zr   N    C    Cr   Ta
     7     6     7    13    19     6     6
Direct configuration=     4
   0.99722464  0.99387367  0.98891475
   0.25399968  0.99888434  0.25896725
   0.24472895  0.50079750  0.24754880
   0.50093014  0.49912774  0.99624572
   0.49705304  0.24250284  0.74234964
   0.00119208  0.49946705  0.50485212
   0.50300337  0.75997087  0.75352310
   0.99175899  0.23340254  0.27312209
   0.75934123  0.74203335  0.99509543
   0.00842867  0.24911131  0.72984138
   0.75915918  0.26719056  0.50859555
   0.00068618  0.74338704  0.75917654
   0.24230510  0.50904957  0.75870736
   0.23722402  0.24612498  0.99732030
   0.50539650  0.24437951  0.25129279
   0.74128033  0.99568667  0.25380260
   0.75805770  0.24957585  0.98582403
   0.26345865  0.75939798  0.00132246
   0.24973836  0.25028508  0.50299182
   0.24670453  0.75037972  0.50644704
   0.24345326  0.24815031  0.25065572
   0.24902805  0.00216947  0.99896874
   0.99826384  0.23911902  0.00098461
   0.76005990  0.25208263  0.25483126
   0.74423854  0.99031672  0.99224769
   0.49495240  0.98888336  0.25135120
   0.99663372  0.49754337  0.25066451
   0.51523786  0.75933558  0.99931712
   0.98363189  0.00563774  0.74660171
   0.75670111  0.25558095  0.73673056
   0.74548829  0.99774049  0.50928331
   0.51102712  0.25574000  0.50045732
   0.51848614  0.00278036  0.73919415
   0.99714158  0.00082029  0.25248055
   0.50139947  0.24222876  0.99452396
   0.25046093  0.75019707  0.25229385
   0.24086188  0.50466087  0.99278964
   0.99861902  0.74463821  0.99682625
   0.74447515  0.74434397  0.24722164
   0.76264132  0.50807092  0.99875287
   0.50639843  0.50604625  0.25206601
   0.23873947  0.24632732  0.75026758
   0.25675929  0.99859481  0.51729033
   0.99254859  0.24690273  0.50348308
   0.24259262  0.75689120  0.75416547
   0.25444534  0.49987277  0.50442582
   0.99170751  0.75319400  0.50496642
   0.00475730  0.50042953  0.76019039
   0.75972475  0.75399352  0.75537196
   0.74845062  0.49870631  0.49916141
   0.50317787  0.75463567  0.49798229
   0.50014698  0.50245611  0.74530479
   0.52463310  0.01496839  0.96701734
   0.00268111  0.52695539  0.98001638
   0.50517579  0.75348177  0.26812715
   0.21851146  0.99180043  0.73893252
   0.48720941  0.97559085  0.48826022
   0.73443707  0.97138516  0.76989974
   0.99744327  0.75588336  0.24813037
   0.75211053  0.50335718  0.24712723
   0.99815385  0.00205060  0.51093766
   0.49956003  0.50668425  0.50310953
   0.75553522  0.50713342  0.75195147
   0.75062796  0.74799043  0.49969753
HECN                                    
           1
     8.828898    0.015667   -0.020470
     0.021298    8.901946   -0.032076
     0.011270   -0.047337    8.881286
   Hf   V    Zr   N    C    Cr   Ta
     7     6     7    13    19     6     6
Direct configuration=     5
   0.99718238  0.99395595  0.98891032
   0.25404649  0.99894018  0.25887646
   0.24456171  0.50069444  0.24758347
   0.50093767  0.49926443  0.99626901
   0.49720451  0.24245452  0.74226731
   0.00119597  0.49949944  0.50480718
   0.50295217  0.76000361  0.75354237
   0.99170864  0.23337001  0.27314856
   0.75932400  0.74197806  0.99509322
   0.00837745  0.24908513  0.72980101
   0.75916067  0.26718790  0.50858288
   0.00068385  0.74334493  0.75918191
   0.24230086  0.50904922  0.75870335
   0.23721735  0.24612436  0.99727810
   0.50544323  0.24437564  0.25131572
   0.74126021  0.99567037  0.25383746
   0.75804640  0.24959539  0.98584234
   0.26342876  0.75940699  0.00132840
   0.24971849  0.25028145  0.50302531
   0.24670162  0.75039104  0.50643768
   0.24347754  0.24812471  0.25064864
   0.24903686  0.00217562  0.99899143
   0.99826529  0.23915960  0.00096507
   0.76006606  0.25207455  0.25482840
   0.74422250  0.99035203  0.99226019
   0.49498634  0.98889591  0.25134696
   0.99660482  0.49756432  0.25062913
   0.51522668  0.75933560  0.99931799
   0.98364442  0.00564271  0.74657211
   0.75670216  0.25558542  0.73673879
   0.74549833  0.99772585  0.50926595
   0.51102460  0.25575043  0.50043679
   0.51851379  0.00271597  0.73922419
   0.99710951  0.00081679  0.25252706
   0.50141900  0.24220076  0.99452361
   0.25043303  0.75020707  0.25228220
   0.24085733  0.50467406  0.99274736
   0.99859619  0.74460902  0.99683110
   0.74448100  0.74433575  0.24723628
   0.76266240  0.50807363  0.99874791
   0.50645545  0.50601983  0.25211426
   0.23864747  0.24631341  0.75026604
   0.25673676  0.99859957  0.51728348
   0.99253695  0.24688349  0.50349985
   0.24252553  0.75688906  0.75416866
   0.25449615  0.49986530  0.50441059
   0.99168598  0.75323386  0.50496590
   0.00474609  0.50043421  0.76022880
   0.75973129  0.75401254  0.75537379
   0.74842781  0.49871113  0.49915030
   0.50319848  0.75462492  0.49794096
   0.50018553  0.50244622  0.74525977
   0.52466504  0.01489718  0.96707300
   0.00269447  0.52689858  0.98007374
   0.50520934  0.75353236  0.26808948
   0.21854069  0.99181210  0.73890281
   0.48721522  0.97556782  0.48832422
   0.73448170  0.97140881  0.76992205
   0.99746600  0.75590527  0.24813140
   0.75216351  0.50337929  0.24713964
   0.99816244  0.00204855  0.51096244
   0.49956177  0.50669387  0.50313890
   0.75554807  0.50713017  0.75195323
   0.75063838  0.74799934  0.49967360
HECN                                    
           1
     8.846377    0.015831   -0.017227
     0.021483    8.904634   -0.034374
     0.014567   -0.049637    8.885280
   Hf   V    Zr   N    C    Cr   Ta
     7     6     7    13    19     6     6
Direct configuration=     6
   0.99602964  0.99395300  0.98884811
   0.25448597  0.99921054  0.25773009
   0.24323847  0.49922821  0.24665811
   0.50085293  0.50065821  0.99725112
   0.49982019  0.24095054  0.74255082
   0.00045352  0.49965293  0.50595830
   0.50255000  0.76047850  0.75246309
   0.98987298  0.23196494  0.27424072
   0.75959414  0.74083593  0.99543302
   0.00652497  0.24879661  0.72899439
   0.75932297  0.26730415  0.50692328
   0.00054589  0.74183574  0.75984819
   0.24180670  0.50876175  0.75826400
   0.23932279  0.24705512  0.99565353
   0.50669663  0.24525510  0.25101330
   0.74138753  0.99509354  0.25482077
   0.75684129  0.25127109  0.98696754
   0.26071377  0.75928571  0.00210197
   0.24965826  0.24970634  0.50360066
   0.24700306  0.75072527  0.50509487
   0.24395611  0.24769735  0.25045271
   0.24894692  0.00256215  0.99971004
   0.99814823  0.24056566  0.00065236
   0.76058478  0.25188274  0.25492886
   0.74452875  0.99107765  0.99308851
   0.49544012  0.98931837  0.25097128
   0.99623043  0.49766344  0.24959856
   0.51491883  0.75926191  0.99983849
   0.98366286  0.00598473  0.74690331
   0.75646799  0.25531430  0.73711820
   0.74551614  0.99755291  0.50912676
   0.51107968  0.25572594  0.50010671
   0.51897005  0.00155458  0.73964980
   0.99720466  0.00097631  0.25315194
   0.50174529  0.24214552  0.99395499
   0.24975754  0.74962008  0.25200728
   0.24118432  0.50437754  0.99267277
   0.99759309  0.74525658  0.99703616
   0.74475891  0.74442522  0.24715985
   0.76284113  0.50803551  0.99887506
   0.50610218  0.50538167  0.25289242
   0.23841898  0.24581264  0.74976593
   0.25658034  0.99876208  0.51610330
   0.99211359  0.24732414  0.50340947
   0.24067281  0.75675824  0.75406058
   0.25436658  0.49978735  0.50402650
   0.99203847  0.75367746  0.50505005
   0.00471395  0.50019264  0.76013913
   0.75922764  0.75464828  0.75557746
   0.74914064  0.49883557  0.49918500
   0.50310336  0.75442523  0.49745470
   0.50124379  0.50213512  0.74568755
   0.52530075  0.01352950  0.96842361
   0.00317776  0.52537319  0.98132423
   0.50594938  0.75469287  0.26707170
   0.21894344  0.99278021  0.73851283
   0.48746670  0.97483274  0.49001141
   0.73630566  0.97112988  0.77071730
   0.99810779  0.75829059  0.24749556
   0.75229259  0.50356159  0.24730367
   0.99851751  0.00180643  0.51060650
   0.49947381  0.50734037  0.50239487
   0.75622203  0.50781771  0.75158922
   0.75026306  0.74808251  0.49977764
HECN                                    
           1
     8.852035    0.015883   -0.016177
     0.021543    8.905504   -0.035118
     0.015634   -0.050381    8.886573
   Hf   V    Zr   N    C    Cr   Ta
     7     6     7    13    19     6     6
Direct configuration=     7
   0.99565727  0.99395205  0.98882813
   0.25462808  0.99929792  0.25735918
   0.24281114  0.49875370  0.24635876
   0.50082542  0.50110929  0.99756899
   0.50066513  0.24046389  0.74264211
   0.00021355  0.49970269  0.50633082
   0.50242022  0.76063208  0.75211400
   0.98927988  0.23151039  0.27459416
   0.75968137  0.74046639  0.99554282
   0.00592665  0.24870320  0.72873362
   0.75937559  0.26734163  0.50638635
   0.00050126  0.74134746  0.76006364
   0.24164712  0.50866870  0.75812189
   0.24000311  0.24735615  0.99512776
   0.50710155  0.24553965  0.25091538
   0.74142854  0.99490697  0.25513883
   0.75645186  0.25181341  0.98733186
   0.25983664  0.75924655  0.00235256
   0.24963874  0.24952029  0.50378676
   0.24710059  0.75083330  0.50466042
   0.24411073  0.24755905  0.25038923
   0.24891778  0.00268728  0.99994257
   0.99811044  0.24102061  0.00055132
   0.76075233  0.25182068  0.25496129
   0.74462757  0.99131251  0.99335652
   0.49558675  0.98945503  0.25084972
   0.99610961  0.49769543  0.24926520
   0.51481932  0.75923811  0.00000691
   0.98366877  0.00609543  0.74701050
   0.75639230  0.25522660  0.73724095
   0.74552191  0.99749694  0.50908171
   0.51109751  0.25571799  0.49999991
   0.51911740  0.00117882  0.73978735
   0.99723531  0.00102797  0.25335411
   0.50185077  0.24212760  0.99377098
   0.24953937  0.74943013  0.25191837
   0.24128996  0.50428158  0.99264858
   0.99726903  0.74546614  0.99710267
   0.74484869  0.74445417  0.24713510
   0.76289885  0.50802318  0.99891617
   0.50598798  0.50517524  0.25314416
   0.23834524  0.24565056  0.74960412
   0.25652995  0.99881456  0.51572150
   0.99197684  0.24746672  0.50338032
   0.24007433  0.75671591  0.75402583
   0.25432477  0.49976209  0.50390225
   0.99215232  0.75382100  0.50507727
   0.00470358  0.50011447  0.76011010
   0.75906492  0.75485401  0.75564346
   0.74937090  0.49887584  0.49919615
   0.50307270  0.75436058  0.49729737
   0.50158560  0.50203449  0.74582579
   0.52550596  0.01308707  0.96886038
   0.00333374  0.52487972  0.98172862
   0.50618856  0.75506830  0.26674243
   0.21907358  0.99309344  0.73838670
   0.48754775  0.97459502  0.49055717
   0.73689477  0.97103968  0.77097434
   0.99831518  0.75906237  0.24728997
   0.75233427  0.50362059  0.24735674
   0.99863225  0.00172805  0.51049128
   0.49944548  0.50754951  0.50215421
   0.75643979  0.50804015  0.75147143
   0.75014180  0.74810944  0.49981135
HECN                                    
           1
     8.837414    0.014427   -0.016425
     0.020049    8.903526   -0.033928
     0.015350   -0.049219    8.877799
   Hf   V    Zr   N    C    Cr   Ta
     7     6     7    13    19     6     6
Direct configuration=     8
   0.99539597  0.99524846  0.98877409
   0.25517938  0.99962045  0.25708392
   0.24284067  0.49842650  0.24577928
   0.50051577  0.50149254  0.99749413
   0.50165452  0.23993683  0.74270548
   0.00070396  0.50013868  0.50669082
   0.50177602  0.76012931  0.75226500
   0.98812350  0.23095300  0.27490820
   0.76030632  0.74019336  0.99617310
   0.00477085  0.24859389  0.72901516
   0.75924010  0.26736420  0.50454913
   0.00046064  0.74007277  0.76079759
   0.24110574  0.50825060  0.75765796
   0.24007302  0.24683761  0.99458752
   0.50737530  0.24588255  0.25070345
   0.74139297  0.99506508  0.25566520
   0.75747979  0.25276378  0.98840353
   0.25810734  0.75875515  0.00141120
   0.25035320  0.24963191  0.50331895
   0.24705605  0.75039382  0.50423347
   0.24447139  0.24749165  0.25017304
   0.24833674  0.00286419  0.00025364
   0.99853603  0.24199087  0.00033771
   0.76101204  0.25177068  0.25527230
   0.74508610  0.99160715  0.99410051
   0.49559273  0.98985110  0.25062077
   0.99582332  0.49744634  0.24882272
   0.51410389  0.75925404  0.00030313
   0.98357889  0.00649773  0.74735582
   0.75626418  0.25513779  0.73763985
   0.74556261  0.99742236  0.50934391
   0.51099306  0.25558789  0.50010818
   0.51985646  0.00084774  0.73993876
   0.99776654  0.00145315  0.25322443
   0.50197035  0.24254784  0.99369256
   0.24912972  0.74892812  0.25155265
   0.24201830  0.50400450  0.99288211
   0.99642244  0.74581649  0.99731684
   0.74519566  0.74439378  0.24686616
   0.76248717  0.50839264  0.99910071
   0.50517919  0.50514969  0.25304057
   0.23950724  0.24519305  0.74888855
   0.25655380  0.99869805  0.51466784
   0.99210388  0.24774678  0.50307886
   0.23931815  0.75654352  0.75358084
   0.25349609  0.49970039  0.50376021
   0.99233775  0.75362747  0.50513036
   0.00480791  0.49964834  0.75986937
   0.75841758  0.75486133  0.75592273
   0.74962307  0.49900368  0.49927089
   0.50277643  0.75417073  0.49724902
   0.50223540  0.50192425  0.74634536
   0.52606027  0.01224564  0.96962214
   0.00362384  0.52393931  0.98222518
   0.50643203  0.75544796  0.26609020
   0.21858963  0.99437147  0.73809288
   0.48770882  0.97434786  0.49129437
   0.73799668  0.97042059  0.77160123
   0.99803003  0.75983505  0.24741658
   0.75241957  0.50402526  0.24772608
   0.99880631  0.00158090  0.51047894
   0.49917809  0.50762676  0.50182219
   0.75618467  0.50864899  0.75176601
   0.75049525  0.74818616  0.49993675
HECN                                    
           1
     8.833516    0.014038   -0.016491
     0.019650    8.902999   -0.033611
     0.015274   -0.048909    8.875459
   Hf   V    Zr   N    C    Cr   Ta
     7     6     7    13    19     6     6
Direct configuration=     9
   0.99532624  0.99559420  0.98875962
   0.25532663  0.99970650  0.25701045
   0.24284853  0.49833926  0.24562462
   0.50043308  0.50159473  0.99747413
   0.50191874  0.23979631  0.74272242
   0.00083496  0.50025496  0.50678689
   0.50160395  0.75999520  0.75230532
   0.98781463  0.23080429  0.27499203
   0.76047323  0.74012055  0.99634134
   0.00446215  0.24856468  0.72909029
   0.75920390  0.26737028  0.50405877
   0.00044975  0.73973278  0.76099353
   0.24096113  0.50813909  0.75753415
   0.24009166  0.24669934  0.99444335
   0.50744843  0.24597402  0.25064688
   0.74138348  0.99510723  0.25580568
   0.75775438  0.25301725  0.98868954
   0.25764545  0.75862405  0.00115995
   0.25054402  0.24966172  0.50319410
   0.24704413  0.75027663  0.50411953
   0.24456770  0.24747369  0.25011534
   0.24818156  0.00291133  0.00033665
   0.99864974  0.24224966  0.00028067
   0.76108140  0.25175735  0.25535531
   0.74520858  0.99168572  0.99429907
   0.49559434  0.98995673  0.25055965
   0.99574684  0.49737991  0.24870463
   0.51391282  0.75925825  0.00038219
   0.98355491  0.00660501  0.74744798
   0.75622997  0.25511409  0.73774631
   0.74557347  0.99740247  0.50941390
   0.51096516  0.25555318  0.50013708
   0.52005383  0.00075947  0.73997919
   0.99790844  0.00156657  0.25318981
   0.50200230  0.24265992  0.99367162
   0.24902029  0.74879423  0.25145506
   0.24221281  0.50393063  0.99294445
   0.99619635  0.74590988  0.99737398
   0.74528832  0.74437770  0.24679438
   0.76237723  0.50849115  0.99914995
   0.50496318  0.50514284  0.25301291
   0.23981756  0.24507111  0.74869759
   0.25656015  0.99866701  0.51438663
   0.99213783  0.24782148  0.50299839
   0.23911618  0.75649753  0.75346207
   0.25327477  0.49968391  0.50372229
   0.99238727  0.75357586  0.50514453
   0.00483575  0.49952404  0.75980514
   0.75824469  0.75486325  0.75599726
   0.74969043  0.49903779  0.49929084
   0.50269729  0.75412009  0.49723612
   0.50240894  0.50189486  0.74648404
   0.52620828  0.01202124  0.96982548
   0.00370128  0.52368851  0.98235774
   0.50649706  0.75554924  0.26591611
   0.21846044  0.99471230  0.73801441
   0.48775184  0.97428193  0.49149113
   0.73829095  0.97025550  0.77176857
   0.99795391  0.76004110  0.24745034
   0.75244237  0.50413317  0.24782464
   0.99885279  0.00154166  0.51047566
   0.49910668  0.50764736  0.50173357
   0.75611656  0.50881134  0.75184461
   0.75058966  0.74820663  0.49997021
HECN                                    
           1
     8.850094    0.014317   -0.016750
     0.019950    8.916307   -0.032679
     0.015061   -0.048011    8.886470
   Hf   V    Zr   N    C    Cr   Ta
     7     6     7    13    19     6     6
Direct configuration=    10
   0.99549963  0.99670755  0.98902160
   0.25574669  0.99941153  0.25670371
   0.24286171  0.49851332  0.24531884
   0.50001531  0.50156436  0.99727671
   0.50284924  0.23967411  0.74282950
   0.00117197  0.50031855  0.50645104
   0.50065977  0.75961720  0.75301334
   0.98753277  0.23095882  0.27502125
   0.76104252  0.74025137  0.99714967
   0.00386593  0.24857604  0.72906022
   0.75885684  0.26743227  0.50222936
   0.00031677  0.73846403  0.76161065
   0.24071929  0.50709632  0.75723224
   0.24041682  0.24615358  0.99426926
   0.50737109  0.24603297  0.25031106
   0.74138349  0.99539660  0.25617837
   0.75847669  0.25387680  0.98969212
   0.25611778  0.75837829  0.00027082
   0.25135802  0.24974577  0.50255282
   0.24688526  0.75018388  0.50399895
   0.24483707  0.24754519  0.24968024
   0.24753226  0.00261654  0.00023245
   0.99930948  0.24341267  0.99999329
   0.76102321  0.25190297  0.25578032
   0.74562504  0.99192343  0.99500344
   0.49569736  0.99030532  0.25020906
   0.99548312  0.49693256  0.24841264
   0.51296170  0.75947239  0.00067526
   0.98314703  0.00712947  0.74756157
   0.75655914  0.25533910  0.73829220
   0.74555973  0.99737730  0.51005756
   0.51092051  0.25547959  0.50016950
   0.52114472  0.00039799  0.74010344
   0.99822881  0.00200417  0.25294067
   0.50248255  0.24286176  0.99385045
   0.24890462  0.74878796  0.25077653
   0.24265382  0.50344379  0.99277837
   0.99544404  0.74624165  0.99764142
   0.74536583  0.74462577  0.24657190
   0.76188552  0.50912341  0.99947028
   0.50441132  0.50547512  0.25266510
   0.24106517  0.24450931  0.74815426
   0.25653660  0.99848949  0.51375427
   0.99245078  0.24784933  0.50293250
   0.23868852  0.75626043  0.75273250
   0.25285110  0.49951467  0.50367988
   0.99240537  0.75337007  0.50534823
   0.00482406  0.49890940  0.75981092
   0.75778049  0.75448498  0.75649189
   0.74951751  0.49913850  0.49939529
   0.50271065  0.75396292  0.49726189
   0.50259819  0.50180329  0.74637854
   0.52658315  0.01151468  0.97050175
   0.00401653  0.52291249  0.98263160
   0.50623197  0.75537923  0.26536913
   0.21783997  0.99646213  0.73750039
   0.48803075  0.97403365  0.49196226
   0.73909588  0.96951482  0.77226189
   0.99765678  0.75993993  0.24768258
   0.75241918  0.50459875  0.24837790
   0.99909243  0.00177330  0.51063275
   0.49895781  0.50765973  0.50186494
   0.75562149  0.50894861  0.75219407
   0.75070153  0.74821855  0.50002343
HECN                                    
           1
     8.848632    0.014292   -0.016727
     0.019923    8.915134   -0.032761
     0.015079   -0.048090    8.885499
   Hf   V    Zr   N    C    Cr   Ta
     7     6     7    13    19     6     6
Direct configuration=    11
   0.99548437  0.99660954  0.98899854
   0.25570973  0.99943749  0.25673072
   0.24286055  0.49849799  0.24534576
   0.50005207  0.50156703  0.99729410
   0.50276735  0.23968487  0.74282007
   0.00114231  0.50031295  0.50648061
   0.50074285  0.75965048  0.75295100
   0.98755758  0.23094521  0.27501868
   0.76099242  0.74023986  0.99707849
   0.00391839  0.24857504  0.72906287
   0.75888739  0.26742680  0.50239045
   0.00032847  0.73857572  0.76155630
   0.24074057  0.50718811  0.75725882
   0.24038821  0.24620163  0.99428458
   0.50737790  0.24602778  0.25034063
   0.74138349  0.99537113  0.25614556
   0.75841313  0.25380114  0.98960384
   0.25625221  0.75839991  0.00034911
   0.25128639  0.24973836  0.50260928
   0.24689924  0.75019204  0.50400957
   0.24481337  0.24753889  0.24971856
   0.24758940  0.00264249  0.00024162
   0.99925142  0.24331029  0.00001861
   0.76102833  0.25189015  0.25574290
   0.74558839  0.99190251  0.99494142
   0.49568829  0.99027463  0.25023994
   0.99550632  0.49697194  0.24843835
   0.51304540  0.75945353  0.00064946
   0.98318292  0.00708330  0.74755158
   0.75653017  0.25531930  0.73824413
   0.74556094  0.99737952  0.51000088
   0.51092444  0.25548607  0.50016665
   0.52104872  0.00042982  0.74009250
   0.99820062  0.00196564  0.25296261
   0.50244029  0.24284399  0.99383471
   0.24891480  0.74878850  0.25083628
   0.24261501  0.50348664  0.99279299
   0.99551024  0.74621244  0.99761788
   0.74535901  0.74460393  0.24659150
   0.76192880  0.50906775  0.99944208
   0.50445988  0.50544587  0.25269573
   0.24095538  0.24455877  0.74820209
   0.25653868  0.99850511  0.51380995
   0.99242324  0.24784688  0.50293831
   0.23872616  0.75628130  0.75279674
   0.25288838  0.49952957  0.50368361
   0.99240378  0.75338819  0.50533029
   0.00482509  0.49896351  0.75981041
   0.75782134  0.75451828  0.75644834
   0.74953273  0.49912963  0.49938610
   0.50270947  0.75397676  0.49725962
   0.50258154  0.50181135  0.74638783
   0.52655016  0.01155928  0.97044220
   0.00398879  0.52298081  0.98260748
   0.50625530  0.75539419  0.26541729
   0.21789458  0.99630808  0.73754567
   0.48800620  0.97405551  0.49192077
   0.73902505  0.96958003  0.77221844
   0.99768292  0.75994884  0.24766213
   0.75242122  0.50455777  0.24832918
   0.99907134  0.00175291  0.51061892
   0.49897091  0.50765864  0.50185337
   0.75566505  0.50893653  0.75216330
   0.75069169  0.74821750  0.50001874
HECN                                    
           1
     8.850785    0.015983   -0.016448
     0.021643    8.907148   -0.032913
     0.015342   -0.048220    8.879011
   Hf   V    Zr   N    C    Cr   Ta