  64  64   0   0
  0.1052616E+02  0.8743316E-09  0.8767418E-09  0.8788342E-09  0.5000000E-15
  1.000000000000000E-004
  CAR 
 HECN                                    
     14.53280711    -59.78451987  301      8.58584378      1.00000000
    -59.785  0.0000E+00  0.0000E+00
    -59.537  0.0000E+00  0.0000E+00
    -59.289  0.0000E+00  0.0000E+00
    -59.041  0.0000E+00  0.0000E+00
    -58.794  0.0000E+00  0.0000E+00
    -58.546  0.0000E+00  0.0000E+00
    -58.298  0.0000E+00  0.0000E+00
    -58.050  0.0000E+00  0.0000E+00
    -57.803  0.0000E+00  0.0000E+00
    -57.555  0.0000E+00  0.0000E+00
    -57.307  0.0000E+00  0.0000E+00
    -57.060  0.0000E+00  0.0000E+00
    -56.812  0.3981E-09  0.9861E-10
    -56.564  0.1062E-02  0.2632E-03
    -56.316  0.1582E+00  0.3946E-01
    -56.069  0.3861E+00  0.1351E+00
    -55.821  0.1972E-01  0.1400E+00
    -55.573  0.2298E-06  0.1400E+00
    -55.325  0.0000E+00  0.1400E+00
    -55.078  0.0000E+00  0.1400E+00
    -54.830  0.0000E+00  0.1400E+00
    -54.582  0.0000E+00  0.1400E+00
    -54.335  0.0000E+00  0.1400E+00
    -54.087  0.0000E+00  0.1400E+00
    -53.839  0.0000E+00  0.1400E+00
    -53.591  0.0000E+00  0.1400E+00
    -53.344  0.0000E+00  0.1400E+00
    -53.096  0.0000E+00  0.1400E+00
    -52.848  0.0000E+00  0.1400E+00
    -52.601  0.0000E+00  0.1400E+00
    -52.353  0.0000E+00  0.1400E+00
    -52.105  0.0000E+00  0.1400E+00
    -51.857  0.0000E+00  0.1400E+00
    -51.610  0.0000E+00  0.1400E+00
    -51.362  0.0000E+00  0.1400E+00
    -51.114  0.0000E+00  0.1400E+00
    -50.866  0.0000E+00  0.1400E+00
    -50.619  0.0000E+00  0.1400E+00
    -50.371  0.0000E+00  0.1400E+00
    -50.123  0.0000E+00  0.1400E+00
    -49.876  0.0000E+00  0.1400E+00
    -49.628  0.0000E+00  0.1400E+00
    -49.380  0.0000E+00  0.1400E+00
    -49.132  0.0000E+00  0.1400E+00
    -48.885  0.0000E+00  0.1400E+00
    -48.637  0.0000E+00  0.1400E+00
    -48.389  0.0000E+00  0.1400E+00
    -48.141  0.1793E-16  0.1400E+00
    -47.894  0.1518E-06  0.1400E+00
    -47.646  0.1215E-01  0.1430E+00
    -47.398  0.1431E+00  0.1784E+00
    -47.151  0.1776E+00  0.2224E+00
    -46.903  0.1284E+00  0.2543E+00
    -46.655  0.2319E-01  0.2600E+00
    -46.407  0.1940E-05  0.2600E+00
    -46.160  0.1524E-14  0.2600E+00
    -45.912  0.0000E+00  0.2600E+00
    -45.664  0.0000E+00  0.2600E+00
    -45.417  0.0000E+00  0.2600E+00
    -45.169  0.0000E+00  0.2600E+00
    -44.921  0.0000E+00  0.2600E+00
    -44.673  0.0000E+00  0.2600E+00
    -44.426  0.0000E+00  0.2600E+00
    -44.178  0.0000E+00  0.2600E+00
    -43.930  0.0000E+00  0.2600E+00
    -43.682  0.0000E+00  0.2600E+00
    -43.435  0.0000E+00  0.2600E+00
    -43.187  0.0000E+00  0.2600E+00
    -42.939  0.0000E+00  0.2600E+00
    -42.692  0.0000E+00  0.2600E+00
    -42.444  0.0000E+00  0.2600E+00
    -42.196  0.0000E+00  0.2600E+00
    -41.948  0.0000E+00  0.2600E+00
    -41.701  0.0000E+00  0.2600E+00
    -41.453  0.0000E+00  0.2600E+00
    -41.205  0.0000E+00  0.2600E+00
    -40.957  0.4504E-08  0.2600E+00
    -40.710  0.3001E-02  0.2607E+00
    -40.462  0.1314E+00  0.2933E+00
    -40.214  0.9243E-01  0.3162E+00
    -39.967  0.5985E-01  0.3310E+00
    -39.719  0.1837E+00  0.3765E+00
    -39.471  0.5660E-01  0.3905E+00
    -39.223  0.3815E-01  0.4000E+00
    -38.976  0.1431E-04  0.4000E+00
    -38.728  0.6023E-13  0.4000E+00
    -38.480  0.0000E+00  0.4000E+00
    -38.232  0.0000E+00  0.4000E+00
    -37.985  0.0000E+00  0.4000E+00
    -37.737  0.0000E+00  0.4000E+00
    -37.489  0.0000E+00  0.4000E+00
    -37.242  0.0000E+00  0.4000E+00
    -36.994  0.0000E+00  0.4000E+00
    -36.746  0.0000E+00  0.4000E+00
    -36.498  0.0000E+00  0.4000E+00
    -36.251  0.0000E+00  0.4000E+00
    -36.003  0.0000E+00  0.4000E+00
    -35.755  0.9412E-16  0.4000E+00
    -35.508  0.4237E-06  0.4000E+00
    -35.260  0.2095E-01  0.4052E+00
    -35.012  0.6003E+00  0.5539E+00
    -34.764  0.7987E+00  0.7517E+00
    -34.517  0.3334E-01  0.7600E+00
    -34.269  0.1668E-05  0.7600E+00
    -34.021  0.1121E-14  0.7600E+00
    -33.773  0.0000E+00  0.7600E+00
    -33.526  0.0000E+00  0.7600E+00
    -33.278  0.0000E+00  0.7600E+00
    -33.030  0.0000E+00  0.7600E+00
    -32.783  0.0000E+00  0.7600E+00
    -32.535  0.0000E+00  0.7600E+00
    -32.287  0.0000E+00  0.7600E+00
    -32.039  0.0000E+00  0.7600E+00
    -31.792  0.0000E+00  0.7600E+00
    -31.544  0.0000E+00  0.7600E+00
    -31.296  0.0000E+00  0.7600E+00
    -31.048  0.0000E+00  0.7600E+00
    -30.801  0.3847E-08  0.7600E+00
    -30.553  0.3573E-02  0.7609E+00
    -30.305  0.4016E+00  0.8604E+00
    -30.058  0.1095E+01  0.1132E+01
    -29.810  0.1948E+00  0.1180E+01
    -29.562  0.2211E-03  0.1180E+01
    -29.314  0.7213E-11  0.1180E+01
    -29.067  0.0000E+00  0.1180E+01
    -28.819  0.0000E+00  0.1180E+01
    -28.571  0.0000E+00  0.1180E+01
    -28.324  0.0000E+00  0.1180E+01
    -28.076  0.0000E+00  0.1180E+01
    -27.828  0.0000E+00  0.1180E+01
    -27.580  0.0000E+00  0.1180E+01
    -27.333  0.0000E+00  0.1180E+01
    -27.085  0.0000E+00  0.1180E+01
    -26.837  0.0000E+00  0.1180E+01
    -26.589  0.0000E+00  0.1180E+01
    -26.342  0.0000E+00  0.1180E+01
    -26.094  0.0000E+00  0.1180E+01
    -25.846  0.0000E+00  0.1180E+01
    -25.599  0.0000E+00  0.1180E+01
    -25.351  0.0000E+00  0.1180E+01
    -25.103  0.0000E+00  0.1180E+01
    -24.855  0.0000E+00  0.1180E+01
    -24.608  0.0000E+00  0.1180E+01
    -24.360  0.2529E-14  0.1180E+01
    -24.112  0.3016E-05  0.1180E+01
    -23.864  0.4547E-01  0.1191E+01
    -23.617  0.3368E+00  0.1275E+01
    -23.369  0.4722E+00  0.1392E+01
    -23.121  0.4166E+00  0.1495E+01
    -22.874  0.1813E+00  0.1540E+01
    -22.626  0.9069E-03  0.1540E+01
    -22.378  0.1426E-09  0.1540E+01
    -22.130  0.0000E+00  0.1540E+01
    -21.883  0.0000E+00  0.1540E+01
    -21.635  0.0000E+00  0.1540E+01
    -21.387  0.0000E+00  0.1540E+01
    -21.140  0.0000E+00  0.1540E+01
    -20.892  0.0000E+00  0.1540E+01
    -20.644  0.0000E+00  0.1540E+01
    -20.396  0.0000E+00  0.1540E+01
    -20.149  0.0000E+00  0.1540E+01
    -19.901  0.0000E+00  0.1540E+01
    -19.653  0.3922E-11  0.1540E+01
    -19.405  0.1208E-03  0.1540E+01
    -19.158  0.5756E-01  0.1554E+01
    -18.910  0.1814E+00  0.1599E+01
    -18.662  0.2717E+00  0.1667E+01
    -18.415  0.2683E+00  0.1733E+01
    -18.167  0.5383E+00  0.1866E+01
    -17.919  0.2677E+00  0.1933E+01
    -17.671  0.1103E+00  0.1960E+01
    -17.424  0.4288E-04  0.1960E+01
    -17.176  0.2189E-12  0.1960E+01
    -16.928  0.0000E+00  0.1960E+01
    -16.680  0.0000E+00  0.1960E+01
    -16.433  0.0000E+00  0.1960E+01
    -16.185  0.0000E+00  0.1960E+01
    -15.937  0.0000E+00  0.1960E+01
    -15.690  0.0000E+00  0.1960E+01
    -15.442  0.0000E+00  0.1960E+01
    -15.194  0.0000E+00  0.1960E+01
    -14.946  0.0000E+00  0.1960E+01
    -14.699  0.0000E+00  0.1960E+01
    -14.451  0.0000E+00  0.1960E+01
    -14.203  0.0000E+00  0.1960E+01
    -13.956  0.0000E+00  0.1960E+01
    -13.708  0.0000E+00  0.1960E+01
    -13.460  0.0000E+00  0.1960E+01
    -13.212  0.0000E+00  0.1960E+01
    -12.965  0.0000E+00  0.1960E+01
    -12.717  0.0000E+00  0.1960E+01
    -12.469  0.0000E+00  0.1960E+01
    -12.221  0.0000E+00  0.1960E+01
    -11.974  0.0000E+00  0.1960E+01
    -11.726  0.0000E+00  0.1960E+01
    -11.478  0.0000E+00  0.1960E+01
    -11.231  0.0000E+00  0.1960E+01
    -10.983  0.0000E+00  0.1960E+01
    -10.735  0.0000E+00  0.1960E+01
    -10.487  0.0000E+00  0.1960E+01
    -10.240  0.0000E+00  0.1960E+01
     -9.992  0.0000E+00  0.1960E+01
     -9.744  0.0000E+00  0.1960E+01
     -9.496  0.0000E+00  0.1960E+01
     -9.249  0.0000E+00  0.1960E+01
     -9.001  0.0000E+00  0.1960E+01
     -8.753  0.0000E+00  0.1960E+01
     -8.506  0.0000E+00  0.1960E+01
     -8.258  0.0000E+00  0.1960E+01
     -8.010  0.1468E-11  0.1960E+01
     -7.762  0.2996E-04  0.1960E+01
     -7.515  0.3475E-01  0.1969E+01
     -7.267  0.4609E-01  0.1980E+01
     -7.019  0.5521E-01  0.1994E+01
     -6.771  0.1018E+00  0.2019E+01
     -6.524  0.1193E+00  0.2048E+01
     -6.276  0.1445E+00  0.2084E+01
     -6.028  0.2393E+00  0.2144E+01
     -5.781  0.1776E+00  0.2188E+01
     -5.533  0.1231E+00  0.2218E+01
     -5.285  0.7935E-02  0.2220E+01
     -5.037  0.6872E-07  0.2220E+01
     -4.790  0.0000E+00  0.2220E+01
     -4.542  0.1189E-12  0.2220E+01
     -4.294  0.5909E-05  0.2220E+01
     -4.047  0.9131E-02  0.2222E+01
     -3.799  0.5990E-01  0.2237E+01
     -3.551  0.4172E-01  0.2247E+01
     -3.303  0.1237E+00  0.2278E+01
     -3.056  0.1809E+00  0.2323E+01
     -2.808  0.2592E+00  0.2387E+01
     -2.560  0.2684E+00  0.2454E+01
     -2.312  0.2348E+00  0.2512E+01
     -2.065  0.1622E+00  0.2552E+01
     -1.817  0.1030E+00  0.2577E+01
     -1.569  0.7787E-01  0.2597E+01
     -1.322  0.1305E-01  0.2600E+01
     -1.074  0.5495E-04  0.2600E+01
     -0.826  0.2668E-10  0.2600E+01
     -0.578  0.0000E+00  0.2600E+01
     -0.331  0.0000E+00  0.2600E+01
     -0.083  0.0000E+00  0.2600E+01
      0.165  0.0000E+00  0.2600E+01
      0.413  0.1902E-09  0.2600E+01
      0.660  0.1317E-03  0.2600E+01
      0.908  0.6694E-02  0.2602E+01
      1.156  0.3623E-01  0.2611E+01
      1.403  0.8278E-01  0.2631E+01
      1.651  0.1331E+00  0.2664E+01
      1.899  0.2035E+00  0.2715E+01
      2.147  0.2698E+00  0.2781E+01
      2.394  0.2791E+00  0.2851E+01
      2.642  0.3175E+00  0.2929E+01
      2.890  0.3414E+00  0.3014E+01
      3.137  0.3658E+00  0.3104E+01
      3.385  0.4721E+00  0.3221E+01
      3.633  0.5381E+00  0.3355E+01
      3.881  0.6335E+00  0.3512E+01
      4.128  0.6297E+00  0.3668E+01
      4.376  0.6414E+00  0.3826E+01
      4.624  0.6087E+00  0.3977E+01
      4.872  0.5270E+00  0.4108E+01
      5.119  0.3983E+00  0.4206E+01
      5.367  0.3536E+00  0.4294E+01
      5.615  0.3244E+00  0.4374E+01
      5.862  0.2579E+00  0.4438E+01
      6.110  0.1776E+00  0.4482E+01
      6.358  0.1262E+00  0.4514E+01
      6.606  0.9076E-01  0.4536E+01
      6.853  0.1756E+00  0.4580E+01
      7.101  0.2350E+00  0.4638E+01
      7.349  0.1965E+00  0.4686E+01
      7.597  0.2029E+00  0.4737E+01
      7.844  0.2505E+00  0.4799E+01
      8.092  0.2948E+00  0.4872E+01
      8.340  0.3051E+00  0.4947E+01
      8.587  0.2948E+00  0.5020E+01
      8.835  0.3304E+00  0.5102E+01
      9.083  0.4447E+00  0.5213E+01
      9.331  0.5662E+00  0.5353E+01
      9.578  0.5726E+00  0.5495E+01
      9.826  0.5284E+00  0.5626E+01
     10.074  0.5275E+00  0.5756E+01
     10.321  0.5050E+00  0.5881E+01
     10.569  0.4647E+00  0.5996E+01
     10.817  0.4956E+00  0.6119E+01
     11.065  0.4112E+00  0.6221E+01
     11.312  0.7642E-01  0.6240E+01
     11.560  0.1354E-03  0.6240E+01
     11.808  0.3133E-10  0.6240E+01
     12.056  0.0000E+00  0.6240E+01
     12.303  0.0000E+00  0.6240E+01
     12.551  0.0000E+00  0.6240E+01
     12.799  0.0000E+00  0.6240E+01
     13.046  0.0000E+00  0.6240E+01
     13.294  0.0000E+00  0.6240E+01
     13.542  0.0000E+00  0.6240E+01
     13.790  0.0000E+00  0.6240E+01
     14.037  0.0000E+00  0.6240E+01
     14.285  0.0000E+00  0.6240E+01
     14.533  0.0000E+00  0.6240E+01
