 vasp.5.4.4.18Apr17-6-g9f103f2a35 (build Oct 18 2021 20:38:43) complex          
  
 executed on             LinuxIFC date 2024.06.25  16:37:26
 running on   24 total cores
 distrk:  each k-point on   24 cores,    1 groups
 distr:  one band on NCORES_PER_BAND=   1 cores,   24 groups


--------------------------------------------------------------------------------------------------------


 INCAR:
 POTCAR:   PAW_PBE V_sv 07Sep2000                 
 POTCAR:   PAW_PBE Nb_sv 17Jan2003                
 POTCAR:   PAW_PBE Zr_sv 07Sep2000                
 POTCAR:   PAW_PBE N 08Apr2002                    
 POTCAR:   PAW_PBE C 08Apr2002                    
 POTCAR:   PAW_PBE Cr_pv 07Sep2000                
 POTCAR:   PAW_PBE Mo 08Apr2002                   

 ----------------------------------------------------------------------------- 
|                                                                             |
|           W    W    AA    RRRRR   N    N  II  N    N   GGGG   !!!           |
|           W    W   A  A   R    R  NN   N  II  NN   N  G    G  !!!           |
|           W    W  A    A  R    R  N N  N  II  N N  N  G       !!!           |
|           W WW W  AAAAAA  RRRRR   N  N N  II  N  N N  G  GGG   !            |
|           WW  WW  A    A  R   R   N   NN  II  N   NN  G    G                |
|           W    W  A    A  R    R  N    N  II  N    N   GGGG   !!!           |
|                                                                             |
|      For optimal performance we recommend to set                            |
|        NCORE= 4 - approx SQRT( number of cores)                             |
|      NCORE specifies how many cores store one orbital (NPAR=cpu/NCORE).     |
|      This setting can  greatly improve the performance of VASP for DFT.     |
|      The default,   NCORE=1            might be grossly inefficient         |
|      on modern multi-core architectures or massively parallel machines.     |
|      Do your own testing !!!!                                               |
|      Unfortunately you need to use the default for GW and RPA calculations. |
|      (for HF NCORE is supported but not extensively tested yet)             |
|                                                                             |
 ----------------------------------------------------------------------------- 

 POTCAR:   PAW_PBE V_sv 07Sep2000                 
   VRHFIN =V: p6 d4 s1                                                          
   LEXCH  = PE                                                                  
   EATOM  =  1951.3925 eV,  143.4233 Ry                                         
                                                                                
   TITEL  = PAW_PBE V_sv 07Sep2000                                              
   LULTRA =        F    use ultrasoft PP ?                                      
   IUNSCR =        1    unscreen: 0-lin 1-nonlin 2-no                           
   RPACOR =    2.000    partial core radius                                     
   POMASS =   50.941; ZVAL   =   13.000    mass and valenz                      
   RCORE  =    2.300    outmost cutoff radius                                   
   RWIGS  =    2.300; RWIGS  =    1.217    wigner-seitz radius (au A)           
   ENMAX  =  263.675; ENMIN  =  197.756 eV                                      
   RCLOC  =    1.779    cutoff for local pot                                    
   LCOR   =        T    correct aug charges                                     
   LPAW   =        T    paw PP                                                  
   EAUG   =  526.568                                                            
   DEXC   =     .000                                                            
   RMAX   =    2.839    core radius for proj-oper                               
   RAUG   =    1.300    factor for augmentation sphere                          
   RDEP   =    2.430    radius for radial grids                                 
   QCUT   =   -4.402; QGAM   =    8.804    optimization parameters              
                                                                                
   Description                                                                  
     l     E      TYP  RCUT    TYP  RCUT                                        
     0   .000     23  1.800                                                     
     0   .000     23  2.300                                                     
     0   .000     23  1.800                                                     
     0   .000     23  2.300                                                     
     1   .000     23  2.000                                                     
     1   .400     23  2.000                                                     
     2   .000     23  2.300                                                     
     2   .000     23  2.300                                                     
     3   .000      7   .000                                                     
  local pseudopotential read in
  partial core-charges read in
  atomic valenz-charges read in
  non local Contribution for L=           0  read in
    real space projection operators read in
  non local Contribution for L=           0  read in
    real space projection operators read in
  non local Contribution for L=           1  read in
    real space projection operators read in
  non local Contribution for L=           1  read in
    real space projection operators read in
  non local Contribution for L=           2  read in
    real space projection operators read in
  non local Contribution for L=           2  read in
    real space projection operators read in
    PAW grid and wavefunctions read in
 
   number of l-projection  operators is LMAX  =           6
   number of lm-projection operators is LMMAX =          18
 
 POTCAR:   PAW_PBE Nb_sv 17Jan2003                
   VRHFIN =Nb: 4p5s4d                                                           
   LEXCH  = PE                                                                  
   EATOM  =  1555.1913 eV,  114.3033 Ry                                         
                                                                                
   TITEL  = PAW_PBE Nb_sv 17Jan2003                                             
   LULTRA =        F    use ultrasoft PP ?                                      
   IUNSCR =        1    unscreen: 0-lin 1-nonlin 2-no                           
   RPACOR =    1.800    partial core radius                                     
   POMASS =   92.910; ZVAL   =   13.000    mass and valenz                      
   RCORE  =    2.200    outmost cutoff radius                                   
   RWIGS  =    2.400; RWIGS  =    1.270    wigner-seitz radius (au A)           
   ENMAX  =  293.235; ENMIN  =  219.927 eV                                      
   RCLOC  =    1.411    cutoff for local pot                                    
   LCOR   =        T    correct aug charges                                     
   LPAW   =        T    paw PP                                                  
   EAUG   =  455.659                                                            
   DEXC   =     .000                                                            
   RMAX   =    2.693    core radius for proj-oper                               
   RAUG   =    1.300    factor for augmentation sphere                          
   RDEP   =    2.299    radius for radial grids                                 
   QCUT   =   -4.642; QGAM   =    9.285    optimization parameters              
                                                                                
   Description                                                                  
     l     E      TYP  RCUT    TYP  RCUT                                        
     0   .000     23  2.200                                                     
     0   .000     23  2.200                                                     
     0   .000     23  2.200                                                     
     0   .000     23  2.200                                                     
     1   .000     23  2.200                                                     
     1  1.000     23  2.200                                                     
     2   .000     23  2.200                                                     
     2   .000     23  2.200                                                     
     3   .000      7   .000                                                     
  local pseudopotential read in
  partial core-charges read in
  atomic valenz-charges read in
  non local Contribution for L=           0  read in
    real space projection operators read in
  non local Contribution for L=           0  read in
    real space projection operators read in
  non local Contribution for L=           1  read in
    real space projection operators read in
  non local Contribution for L=           1  read in
    real space projection operators read in
  non local Contribution for L=           2  read in
    real space projection operators read in
  non local Contribution for L=           2  read in
    real space projection operators read in
    PAW grid and wavefunctions read in
 
   number of l-projection  operators is LMAX  =           6
   number of lm-projection operators is LMMAX =          18
 
 POTCAR:   PAW_PBE Zr_sv 07Sep2000                
   VRHFIN =Zr: 4s4p5s4d                                                         
   LEXCH  = PE                                                                  
   EATOM  =  1283.3934 eV,   94.3268 Ry                                         
                                                                                
   TITEL  = PAW_PBE Zr_sv 07Sep2000                                             
   LULTRA =        F    use ultrasoft PP ?                                      
   IUNSCR =        1    unscreen: 0-lin 1-nonlin 2-no                           
   RPACOR =    2.200    partial core radius                                     
   POMASS =   91.224; ZVAL   =   12.000    mass and valenz                      
   RCORE  =    2.500    outmost cutoff radius                                   
   RWIGS  =    3.070; RWIGS  =    1.625    wigner-seitz radius (au A)           
   ENMAX  =  229.839; ENMIN  =  172.379 eV                                      
   RCLOC  =    2.213    cutoff for local pot                                    
   LCOR   =        T    correct aug charges                                     
   LPAW   =        T    paw PP                                                  
   EAUG   =  357.078                                                            
   DEXC   =     .000                                                            
   RMAX   =    3.041    core radius for proj-oper                               
   RAUG   =    1.300    factor for augmentation sphere                          
   RDEP   =    2.597    radius for radial grids                                 
   QCUT   =   -4.110; QGAM   =    8.220    optimization parameters              
                                                                                
   Description                                                                  
     l     E      TYP  RCUT    TYP  RCUT                                        
     0   .000     23  2.500                                                     
     0   .000     23  2.500                                                     
     1   .000     23  2.500                                                     
     1   .000     23  2.500                                                     
     2   .000     23  2.500                                                     
     2   .000     23  2.500                                                     
     3   .000      7   .000                                                     
  local pseudopotential read in
  partial core-charges read in
  atomic valenz-charges read in
  non local Contribution for L=           0  read in
    real space projection operators read in
  non local Contribution for L=           0  read in
    real space projection operators read in
  non local Contribution for L=           1  read in
    real space projection operators read in
  non local Contribution for L=           1  read in
    real space projection operators read in
  non local Contribution for L=           2  read in
    real space projection operators read in
  non local Contribution for L=           2  read in
    real space projection operators read in
    PAW grid and wavefunctions read in
 
   number of l-projection  operators is LMAX  =           6
   number of lm-projection operators is LMMAX =          18
 
 POTCAR:   PAW_PBE N 08Apr2002                    
   VRHFIN =N: s2p3                                                              
   LEXCH  = PE                                                                  
   EATOM  =   264.5486 eV,   19.4438 Ry                                         
                                                                                
   TITEL  = PAW_PBE N 08Apr2002                                                 
   LULTRA =        F    use ultrasoft PP ?                                      
   IUNSCR =        0    unscreen: 0-lin 1-nonlin 2-no                           
   RPACOR =     .000    partial core radius                                     
   POMASS =   14.001; ZVAL   =    5.000    mass and valenz                      
   RCORE  =    1.500    outmost cutoff radius                                   
   RWIGS  =    1.400; RWIGS  =     .741    wigner-seitz radius (au A)           
   ENMAX  =  400.000; ENMIN  =  300.000 eV                                      
   ICORE  =        2    local potential                                         
   LCOR   =        T    correct aug charges                                     
   LPAW   =        T    paw PP                                                  
   EAUG   =  627.112                                                            
   DEXC   =     .000                                                            
   RMAX   =    2.247    core radius for proj-oper                               
   RAUG   =    1.300    factor for augmentation sphere                          
   RDEP   =    1.514    radius for radial grids                                 
   QCUT   =   -5.562; QGAM   =   11.124    optimization parameters              
                                                                                
   Description                                                                  
     l     E      TYP  RCUT    TYP  RCUT                                        
     0   .000     23  1.200                                                     
     0   .000     23  1.200                                                     
     1   .000     23  1.500                                                     
     1   .700     23  1.500                                                     
     2   .000      7  1.500                                                     
  local pseudopotential read in
  atomic valenz-charges read in
  non local Contribution for L=           0  read in
    real space projection operators read in
  non local Contribution for L=           0  read in
    real space projection operators read in
  non local Contribution for L=           1  read in
    real space projection operators read in
  non local Contribution for L=           1  read in
    real space projection operators read in
    PAW grid and wavefunctions read in
 
   number of l-projection  operators is LMAX  =           4
   number of lm-projection operators is LMMAX =           8
 
 POTCAR:   PAW_PBE C 08Apr2002                    
   VRHFIN =C: s2p2                                                              
   LEXCH  = PE                                                                  
   EATOM  =   147.1560 eV,   10.8157 Ry                                         
                                                                                
   TITEL  = PAW_PBE C 08Apr2002                                                 
   LULTRA =        F    use ultrasoft PP ?                                      
   IUNSCR =        0    unscreen: 0-lin 1-nonlin 2-no                           
   RPACOR =     .000    partial core radius                                     
   POMASS =   12.011; ZVAL   =    4.000    mass and valenz                      
   RCORE  =    1.500    outmost cutoff radius                                   
   RWIGS  =    1.630; RWIGS  =     .863    wigner-seitz radius (au A)           
   ENMAX  =  400.000; ENMIN  =  300.000 eV                                      
   ICORE  =        2    local potential                                         
   LCOR   =        T    correct aug charges                                     
   LPAW   =        T    paw PP                                                  
   EAUG   =  644.873                                                            
   DEXC   =     .000                                                            
   RMAX   =    2.266    core radius for proj-oper                               
   RAUG   =    1.300    factor for augmentation sphere                          
   RDEP   =    1.501    radius for radial grids                                 
   RDEPT  =    1.300    core radius for aug-charge                              
   QCUT   =   -5.516; QGAM   =   11.032    optimization parameters              
                                                                                
   Description                                                                  
     l     E      TYP  RCUT    TYP  RCUT                                        
     0   .000     23  1.200                                                     
     0   .000     23  1.200                                                     
     1   .000     23  1.500                                                     
     1  2.500     23  1.500                                                     
     2   .000      7  1.500                                                     
  local pseudopotential read in
  atomic valenz-charges read in
  non local Contribution for L=           0  read in
    real space projection operators read in
  non local Contribution for L=           0  read in
    real space projection operators read in
  non local Contribution for L=           1  read in
    real space projection operators read in
  non local Contribution for L=           1  read in
    real space projection operators read in
    PAW grid and wavefunctions read in
 
   number of l-projection  operators is LMAX  =           4
   number of lm-projection operators is LMMAX =           8
 
 POTCAR:   PAW_PBE Cr_pv 07Sep2000                
   VRHFIN =Cr : p6d5s1                                                          
   LEXCH  = PE                                                                  
   EATOM  =  1647.5667 eV,  121.0927 Ry                                         
                                                                                
   TITEL  = PAW_PBE Cr_pv 07Sep2000                                             
   LULTRA =        F    use ultrasoft PP ?                                      
   IUNSCR =        1    unscreen: 0-lin 1-nonlin 2-no                           
   RPACOR =    2.080    partial core radius                                     
   POMASS =   51.996; ZVAL   =   12.000    mass and valenz                      
   RCORE  =    2.300    outmost cutoff radius                                   
   RWIGS  =    2.500; RWIGS  =    1.323    wigner-seitz radius (au A)           
   ENMAX  =  265.683; ENMIN  =  199.262 eV                                      
   RCLOC  =    1.721    cutoff for local pot                                    
   LCOR   =        T    correct aug charges                                     
   LPAW   =        T    paw PP                                                  
   EAUG   =  519.424                                                            
   DEXC   =    -.003                                                            
   RMAX   =    2.829    core radius for proj-oper                               
   RAUG   =    1.300    factor for augmentation sphere                          
   RDEP   =    2.447    radius for radial grids                                 
   QCUT   =   -4.419; QGAM   =    8.838    optimization parameters              
                                                                                
   Description                                                                  
     l     E      TYP  RCUT    TYP  RCUT                                        
     1   .000     23  2.000                                                     
     1   .100     23  2.000                                                     
     2   .000     23  2.300                                                     
     2   .000     23  2.300                                                     
     0   .000     23  2.300                                                     
     0   .000     23  2.300                                                     
     3   .000      7   .000                                                     
  local pseudopotential read in
  partial core-charges read in
  atomic valenz-charges read in
  non local Contribution for L=           1  read in
    real space projection operators read in
  non local Contribution for L=           1  read in
    real space projection operators read in
  non local Contribution for L=           2  read in
    real space projection operators read in
  non local Contribution for L=           2  read in
    real space projection operators read in
  non local Contribution for L=           0  read in
    real space projection operators read in
  non local Contribution for L=           0  read in
    real space projection operators read in
    PAW grid and wavefunctions read in
 
   number of l-projection  operators is LMAX  =           6
   number of lm-projection operators is LMMAX =          18
 
 POTCAR:   PAW_PBE Mo 08Apr2002                   
   VRHFIN =Mo: 4p5s4d                                                           
   LEXCH  = PE                                                                  
   EATOM  =   217.5180 eV,   15.9871 Ry                                         
                                                                                
   TITEL  = PAW_PBE Mo 08Apr2002                                                
   LULTRA =        F    use ultrasoft PP ?                                      
   IUNSCR =        1    unscreen: 0-lin 1-nonlin 2-no                           
   RPACOR =    2.200    partial core radius                                     
   POMASS =   95.940; ZVAL   =    6.000    mass and valenz                      
   RCORE  =    2.750    outmost cutoff radius                                   
   RWIGS  =    2.750; RWIGS  =    1.455    wigner-seitz radius (au A)           
   ENMAX  =  224.584; ENMIN  =  168.438 eV                                      
   RCLOC  =    2.111    cutoff for local pot                                    
   LCOR   =        T    correct aug charges                                     
   LPAW   =        T    paw PP                                                  
   EAUG   =  345.278                                                            
   DEXC   =    -.088                                                            
   RMAX   =    3.077    core radius for proj-oper                               
   RAUG   =    1.300    factor for augmentation sphere                          
   RDEP   =    2.815    radius for radial grids                                 
   QCUT   =   -4.063; QGAM   =    8.126    optimization parameters              
                                                                                
   Description                                                                  
     l     E      TYP  RCUT    TYP  RCUT                                        
     2   .000     23  2.500                                                     
     2   .000     23  2.500                                                     
     0   .000     23  2.600                                                     
     0  1.000     23  2.600                                                     
     1   .400     23  2.750                                                     
     1  2.000     23  2.750                                                     
     3   .000      7   .000                                                     
  local pseudopotential read in
  partial core-charges read in
  atomic valenz-charges read in
  non local Contribution for L=           2  read in
    real space projection operators read in
  non local Contribution for L=           2  read in
    real space projection operators read in
  non local Contribution for L=           0  read in
    real space projection operators read in
  non local Contribution for L=           0  read in
    real space projection operators read in
  non local Contribution for L=           1  read in
    real space projection operators read in
  non local Contribution for L=           1  read in
    real space projection operators read in
    PAW grid and wavefunctions read in
 
   number of l-projection  operators is LMAX  =           6
   number of lm-projection operators is LMMAX =          18
 

 ----------------------------------------------------------------------------- 
|                                                                             |
|  ADVICE TO THIS USER RUNNING 'VASP/VAMP'   (HEAR YOUR MASTER'S VOICE ...):  |
|                                                                             |
|      You have a (more or less) 'large supercell' and for larger cells       |
|      it might be more efficient to use real space projection operators      |
|      So try LREAL= Auto  in the INCAR   file.                               |
|      Mind: If you want to do a very accurate calculations keep the          |
|      reciprocal projection scheme          (i.e. LREAL=.FALSE.)             |
|                                                                             |
 ----------------------------------------------------------------------------- 

 PAW_PBE V_sv 07Sep2000                 :
 energy of atom  1       EATOM=-1951.3925
 kinetic energy error for atom=    0.0321 (will be added to EATOM!!)
 PAW_PBE Nb_sv 17Jan2003                :
 energy of atom  2       EATOM=-1555.1913
 kinetic energy error for atom=    0.0212 (will be added to EATOM!!)
 PAW_PBE Zr_sv 07Sep2000                :
 energy of atom  3       EATOM=-1283.3934
 kinetic energy error for atom=    0.0044 (will be added to EATOM!!)
 PAW_PBE N 08Apr2002                    :
 energy of atom  4       EATOM= -264.5486
 kinetic energy error for atom=    0.0736 (will be added to EATOM!!)
 PAW_PBE C 08Apr2002                    :
 energy of atom  5       EATOM= -147.1560
 kinetic energy error for atom=    0.0288 (will be added to EATOM!!)
 PAW_PBE Cr_pv 07Sep2000                :
 energy of atom  6       EATOM=-1647.5667
 kinetic energy error for atom=    0.0284 (will be added to EATOM!!)
 PAW_PBE Mo 08Apr2002                   :
 energy of atom  7       EATOM= -217.5180
 kinetic energy error for atom=    0.0025 (will be added to EATOM!!)
 
 
 POSCAR: 83-ZrVNbCrMo                            
  positions in direct lattice
  velocities in cartesian coordinates
 exchange correlation table for  LEXCH =        8
   RHO(1)=    0.500       N(1)  =     2000
   RHO(2)=  100.500       N(2)  =     4000
 


--------------------------------------------------------------------------------------------------------


 ion  position               nearest neighbor table
   1  0.004  0.981  0.026-  34 1.97  38 2.03  22 2.07  25 2.20  23 2.24   2 2.82  59 2.82  18 3.06
                            16 3.09  14 3.12  17 3.22
   2  0.234  0.978  0.249-  36 2.01  34 2.04  43 2.17  22 2.18  26 2.28   1 2.82  59 2.83  61 2.84
                            18 2.95  20 2.97  14 3.19  15 3.24  19 3.25
   3  0.270  0.518  0.244-  41 1.93  36 2.05  37 2.11  46 2.21  21 2.32  55 2.82  18 3.01  20 3.03
                            62 3.05  59 3.12  15 3.13  14 3.21  19 3.22
   4  0.501  0.480  0.988-  35 2.02  52 2.09  37 2.24  41 2.25  40 2.27  60 2.97  63 2.99  17 3.01
                            14 3.06  15 3.09  18 3.17
   5  0.479  0.238  0.754-  42 1.95  35 2.07  33 2.10  32 2.16  52 2.29  57 2.81  53 2.81  56 2.86
                            14 3.01  19 3.02  17 3.19
   6  0.003  0.499  0.529-  48 1.98  44 2.14  46 2.15  50 2.15  47 2.20  13 2.96  63 2.99  64 3.01
                            19 3.08  20 3.10
   7  0.507  0.750  0.733-  51 2.07  49 2.09  28 2.16  45 2.17  33 2.20  52 2.21  58 2.74  57 2.79
                            62 2.93  63 2.94  64 2.98  20 3.05  18 3.11
   8  0.996  0.275  0.258-  27 1.98  44 2.15  21 2.16  24 2.17  23 2.26  34 2.38  19 3.08  14 3.11
                            61 3.12  60 3.16  17 3.17  16 3.35
   9  0.744  0.748  0.000-  28 2.04  40 2.15  25 2.16  39 2.18  38 2.26  49 2.26  58 2.85  63 2.97
                            54 2.97  60 3.02  16 3.12  59 3.16
  10  0.011  0.234  0.744-  29 2.05  42 2.14  44 2.15  23 2.28  30 2.30  48 2.34  56 2.97  19 3.02
                            14 3.04  61 3.05  17 3.11
  11  0.750  0.259  0.515-  30 2.03  50 2.10  32 2.14  44 2.16  31 2.23  24 2.29  63 3.09  62 3.10
                            61 3.22  60 3.23  15 3.25  16 3.25
  12  0.001  0.760  0.748-  29 2.10  47 2.19  38 2.22  49 2.24  45 2.26  48 2.27  54 2.81  56 3.05
                            63 3.07  20 3.09  58 3.11  64 3.14  61 3.14  18 3.23
  13  0.254  0.504  0.754-  52 2.19  37 2.21  48 2.23  45 2.24  46 2.29  42 2.29  54 2.93   6 2.96
                            62 3.09  18 3.10  20 3.12  14 3.15  19 3.15
  14  0.241  0.245  0.003-  23 2.13  22 2.15  21 2.17  42 2.22  35 2.26  37 2.26   5 3.01  10 3.04
                             4 3.06  15 3.09   8 3.11   1 3.12  53 3.13  13 3.15  56 3.16   2 3.19
  15  0.495  0.242  0.248-  26 2.20  21 2.21  24 2.23  35 2.28  32 2.31  41 2.36  53 2.98  60 3.05
                            19 3.05  16 3.09  14 3.09   4 3.09   3 3.13  17 3.21   2 3.24  62 3.24
  16  0.740  0.990  0.261-  39 2.19  26 2.20  31 2.21  24 2.27  34 2.29  25 2.37  55 3.04  53 3.08
                             1 3.09  15 3.09  64 3.09  61 3.10  59 3.10   9 3.12  11 3.25  17 3.29
  17  0.755  0.249  0.990-  23 2.13  30 2.15  25 2.24  40 2.24  35 2.24  24 2.33  53 2.84   4 3.01
                            58 3.08  10 3.11  63 3.13   8 3.17   5 3.19  60 3.19  15 3.21   1 3.22
  18  0.271  0.758  0.998-  28 2.12  22 2.14  45 2.20  36 2.20  37 2.24  38 2.35   2 2.95   3 3.01
                             1 3.06  54 3.09  13 3.10  56 3.11   7 3.11   4 3.17  53 3.19  59 3.23
  19  0.252  0.252  0.497-  21 2.18  46 2.19  43 2.21  32 2.23  44 2.23  42 2.23  57 2.96   5 3.02
                            10 3.02  61 3.02  15 3.05   8 3.08  56 3.08   6 3.08  62 3.14  13 3.15
  20  0.250  0.751  0.499-  46 2.18  43 2.19  45 2.20  36 2.20  47 2.25  51 2.26  55 2.93  57 2.94
                             2 2.97   3 3.03  56 3.04  61 3.04   7 3.05  62 3.05  59 3.08  12 3.09
  21  0.243  0.254  0.249-   8 2.16  14 2.17  19 2.18  15 2.21   3 2.32
  22  0.238  1.000  0.003-   1 2.07  18 2.14  14 2.15   2 2.18  56 2.31
  23  0.998  0.235  0.003-  14 2.13  17 2.13   1 2.24   8 2.26  10 2.28
  24  0.750  0.248  0.254-   8 2.17  15 2.23  16 2.27  60 2.28  11 2.29  17 2.33
  25  0.755  0.994  0.991-  58 1.97  53 2.06   9 2.16   1 2.20  17 2.24  16 2.37
  26  0.492  0.993  0.218-  53 2.05  15 2.20  16 2.20   2 2.28  55 2.34
  27  0.001  0.500  0.246-   8 1.98  59 2.21  54 2.44  60 2.44
  28  0.512  0.751  0.979-   9 2.04  18 2.12   7 2.16  53 2.39
  29  0.007  1.000  0.751-  10 2.05  12 2.10  56 2.18  61 2.34
  30  0.749  0.244  0.745-  11 2.03  17 2.15  10 2.30  58 2.37  63 2.39
  31  0.749  0.004  0.511-  16 2.21  11 2.23  58 2.31  61 2.31  64 2.43  57 2.44
  32  0.506  0.243  0.511-  11 2.14   5 2.16  57 2.16  19 2.23  15 2.31  62 2.34
  33  0.503  1.000  0.757-  58 1.92  57 1.92  53 2.05   5 2.10  56 2.17   7 2.20
  34  0.002  0.004  0.249-   1 1.97   2 2.04  61 2.08  59 2.20  16 2.29   8 2.38
  35  0.499  0.250  0.989-  53 1.99   4 2.02   5 2.07  17 2.24  14 2.26  15 2.28
  36  0.265  0.751  0.249-   2 2.01   3 2.05  55 2.14  20 2.20  18 2.20  59 2.29
  37  0.246  0.503  0.006-   3 2.11  54 2.18  13 2.21   4 2.24  18 2.24  14 2.26
  38  0.002  0.750  0.001-  54 1.94   1 2.03  59 2.20  12 2.22   9 2.26  18 2.35
  39  0.742  0.740  0.248-  60 2.05  55 2.08  64 2.18   9 2.18  16 2.19  59 2.28
  40  0.759  0.504  0.003-   9 2.15  60 2.15  54 2.15  63 2.19  17 2.24   4 2.27
  41  0.490  0.511  0.242-   3 1.93  55 1.99  60 2.02   4 2.25  62 2.29  15 2.36
  42  0.256  0.243  0.751-   5 1.95  56 2.14  10 2.14  14 2.22  19 2.23  13 2.29
  43  0.257  0.001  0.494-  57 1.91  61 2.14  56 2.16   2 2.17  20 2.19  19 2.21
  44  0.997  0.256  0.501-   6 2.14   8 2.15  10 2.15  11 2.16  61 2.23  19 2.23
  45  0.259  0.759  0.749-  56 2.11   7 2.17  20 2.20  18 2.20  13 2.24  12 2.26
  46  0.246  0.502  0.494-   6 2.15  20 2.18  19 2.19   3 2.21  62 2.24  13 2.29
  47  0.994  0.747  0.499-  64 2.14  59 2.18  12 2.19   6 2.20  20 2.25  61 2.25
  48  1.000  0.501  0.754-  54 1.92   6 1.98  63 2.22  13 2.23  12 2.27  10 2.34
  49  0.745  0.760  0.743-  58 1.92   7 2.09  63 2.14  64 2.19  12 2.24   9 2.26
  50  0.759  0.497  0.497-  64 2.02  11 2.10   6 2.15  60 2.25  62 2.25  63 2.27
  51  0.508  0.771  0.498-  55 1.92  57 2.07   7 2.07  64 2.15  20 2.26  62 2.29
  52  0.505  0.498  0.751-   4 2.09  63 2.12  13 2.19  62 2.19   7 2.21   5 2.29
  53  0.521  0.024  0.988-  35 1.99  26 2.05  33 2.05  25 2.06  28 2.39  58 2.62   5 2.81  17 2.84
                            15 2.98  16 3.08  14 3.13  18 3.19
  54  0.002  0.531  0.971-  48 1.92  38 1.94  40 2.15  37 2.18  27 2.44  12 2.81  13 2.93  63 2.94
                             9 2.97  18 3.09  59 3.13  17 3.27  14 3.28
  55  0.506  0.733  0.283-  51 1.92  41 1.99  39 2.08  36 2.14  26 2.34  62 2.75  60 2.76   3 2.82
                            64 2.84  20 2.93  16 3.04  18 3.25
  56  0.255  0.999  0.740-  45 2.11  42 2.14  43 2.16  33 2.17  29 2.18  22 2.31  57 2.57   5 2.86
                            10 2.97  20 3.04  12 3.05  19 3.08  61 3.09  18 3.11  14 3.16
  57  0.471  0.000  0.540-  43 1.91  33 1.92  51 2.07  32 2.16  31 2.44  56 2.57   7 2.79   5 2.81
                            20 2.94  19 2.96  58 2.99  15 3.34  16 3.40
  58  0.721  0.976  0.771-  33 1.92  49 1.92  25 1.97  31 2.31  30 2.37  53 2.62   7 2.74   9 2.85
                            57 2.99  17 3.08  12 3.11  64 3.27
  59  0.002  0.752  0.251-  47 2.18  38 2.20  34 2.20  27 2.21  39 2.28  36 2.29   1 2.82   2 2.83
                            61 3.01  20 3.08  64 3.09  16 3.10   3 3.12  54 3.13   9 3.16  18 3.23
  60  0.721  0.507  0.244-  41 2.02  39 2.05  40 2.15  50 2.25  24 2.28  27 2.44  55 2.76  64 2.95
                            62 2.97   4 2.97   9 3.02  15 3.05   8 3.16  17 3.19  11 3.23  59 3.26
  61  0.013  0.003  0.485-  34 2.08  43 2.14  44 2.23  47 2.25  31 2.31  29 2.34   2 2.84  59 3.01
                            19 3.02  20 3.04  10 3.05  56 3.09  16 3.10   8 3.12  12 3.14  11 3.22
  62  0.502  0.510  0.502-  52 2.19  46 2.24  50 2.25  41 2.29  51 2.29  32 2.34  55 2.75  64 2.88
                             7 2.93  60 2.97   3 3.05  20 3.05  63 3.09  13 3.09  11 3.10  19 3.14
  63  0.747  0.516  0.754-  52 2.12  49 2.14  40 2.19  48 2.22  50 2.27  30 2.39  64 2.93  54 2.94
                             7 2.94   9 2.97   6 2.99   4 2.99  12 3.07  62 3.09  11 3.09  17 3.13
  64  0.749  0.728  0.496-  50 2.02  47 2.14  51 2.15  39 2.18  49 2.19  31 2.43  55 2.84  62 2.88
                            63 2.93  60 2.95   7 2.98   6 3.01  59 3.09  16 3.09  12 3.14  58 3.27
 
  LATTYP: Found a triclinic cell.
 ALAT       =     8.7433155755
 B/A-ratio  =     1.0027567083
 C/A-ratio  =     1.0051497961
 COS(alpha) =     0.0003323911
 COS(beta)  =     0.0027780607
 COS(gamma) =     0.0038602460
  
  Lattice vectors:
  
 A1 = (  -8.7432927135,   0.0196774962,   0.0035460526)
 A2 = (  -0.0141102143,   8.7674048194,   0.0061714677)
 A3 = (  -0.0279585193,   0.0090623456,  -8.7882927229)


Analysis of symmetry for initial positions (statically):
=====================================================================
 Subroutine PRICEL returns:
 Original cell was already a primitive cell.
 

 Routine SETGRP: Setting up the symmetry group for a 
 triclinic supercell.


 Subroutine GETGRP returns: Found  1 space group operations
 (whereof  1 operations were pure point group operations)
 out of a pool of  2 trial point group operations.


The static configuration has the point symmetry C_1 .


Analysis of symmetry for dynamics (positions and initial velocities):
=====================================================================
 Subroutine PRICEL returns:
 Original cell was already a primitive cell.
 

 Routine SETGRP: Setting up the symmetry group for a 
 triclinic supercell.


 Subroutine GETGRP returns: Found  1 space group operations
 (whereof  1 operations were pure point group operations)
 out of a pool of  2 trial point group operations.


The dynamic configuration has the point symmetry C_1 .


 Subroutine INISYM returns: Found  1 space group operations
 (whereof  1 operations are pure point group operations),
 and found     1 'primitive' translations

 
 
 KPOINTS: HECN                                    

Automatic generation of k-mesh.
Space group operators:
 irot       det(A)        alpha          n_x          n_y          n_z        tau_x        tau_y        tau_z
    1     1.000000     0.000000     1.000000     0.000000     0.000000     0.000000     0.000000     0.000000
 
 Subroutine IBZKPT returns following result:
 ===========================================
 
 Found     14 irreducible k-points:
 
 Following reciprocal coordinates:
            Coordinates               Weight
  0.000000  0.000000  0.000000      1.000000
  0.333333  0.000000  0.000000      2.000000
 -0.000000  0.333333 -0.000000      2.000000
  0.333333  0.333333  0.000000      2.000000
 -0.333333  0.333333 -0.000000      2.000000
  0.000000  0.000000  0.333333      2.000000
  0.333333  0.000000  0.333333      2.000000
 -0.333333  0.000000  0.333333      2.000000
 -0.000000  0.333333  0.333333      2.000000
  0.333333  0.333333  0.333333      2.000000
 -0.333333  0.333333  0.333333      2.000000
  0.000000 -0.333333  0.333333      2.000000
  0.333333 -0.333333  0.333333      2.000000
 -0.333333 -0.333333  0.333333      2.000000
 
 Following cartesian coordinates:
            Coordinates               Weight
  0.000000  0.000000  0.000000      1.000000
  0.038125  0.000061 -0.000121      2.000000
  0.000086  0.038020  0.000039      2.000000
  0.038210  0.038081 -0.000082      2.000000
 -0.038039  0.037958  0.000160      2.000000
  0.000015 -0.000027  0.037929      2.000000
  0.038140  0.000035  0.037808      2.000000
 -0.038109 -0.000088  0.038050      2.000000
  0.000101  0.037993  0.037968      2.000000
  0.038225  0.038054  0.037847      2.000000
 -0.038024  0.037932  0.038089      2.000000
 -0.000070 -0.038046  0.037890      2.000000
  0.038054 -0.037985  0.037769      2.000000
 -0.038195 -0.038108  0.038011      2.000000
 


--------------------------------------------------------------------------------------------------------




 Dimension of arrays:
   k-points           NKPTS =     14   k-points in BZ     NKDIM =     14   number of bands    NBANDS=    312
   number of dos      NEDOS =    301   number of ions     NIONS =     64
   non local maximal  LDIM  =      6   non local SUM 2l+1 LMDIM =     18
   total plane-waves  NPLWV = 110592
   max r-space proj   IRMAX =      1   max aug-charges    IRDMAX=  10738
   dimension x,y,z NGX =    48 NGY =   48 NGZ =   48
   dimension x,y,z NGXF=    96 NGYF=   96 NGZF=   96
   support grid    NGXF=    96 NGYF=   96 NGZF=   96
   ions per type =               7   6   7  13  19   6   6
   NGX,Y,Z   is equivalent  to a cutoff of   9.13,  9.10,  9.08 a.u.
   NGXF,Y,Z  is equivalent  to a cutoff of  18.25, 18.20, 18.16 a.u.

 SYSTEM =  HECN                                    
 POSCAR =  83-ZrVNbCrMo                            

 Startparameter for this run:
   NWRITE =      2    write-flag & timer
   PREC   = normal    normal or accurate (medium, high low for compatibility)
   ISTART =      0    job   : 0-new  1-cont  2-samecut
   ICHARG =      2    charge: 1-file 2-atom 10-const
   ISPIN  =      1    spin polarized calculation?
   LNONCOLLINEAR =      F non collinear calculations
   LSORBIT =      F    spin-orbit coupling
   INIWAV =      1    electr: 0-lowe 1-rand  2-diag
   LASPH  =      F    aspherical Exc in radial PAW
   METAGGA=      F    non-selfconsistent MetaGGA calc.

 Electronic Relaxation 1
   ENCUT  =  400.0 eV  29.40 Ry    5.42 a.u.  14.26 14.30 14.33*2*pi/ulx,y,z
   ENINI  =  400.0     initial cutoff
   ENAUG  =  644.9 eV  augmentation charge cutoff
   NELM   =     60;   NELMIN=  2; NELMDL= -5     # of ELM steps 
   EDIFF  = 0.1E-04   stopping-criterion for ELM
   LREAL  =      F    real-space projection
   NLSPLINE    = F    spline interpolate recip. space projectors
   LCOMPAT=      F    compatible to vasp.4.4
   GGA_COMPAT  = T    GGA compatible to vasp.4.4-vasp.4.6
   LMAXPAW     = -100 max onsite density
   LMAXMIX     =    2 max onsite mixed and CHGCAR
   VOSKOWN=      0    Vosko Wilk Nusair interpolation
   ROPT   =    0.00000   0.00000   0.00000   0.00000
   ROPT   =    0.00000   0.00000   0.00000
 Ionic relaxation
   EDIFFG = -.1E-01   stopping-criterion for IOM
   NSW    =    100    number of steps for IOM
   NBLOCK =      1;   KBLOCK =    100    inner block; outer block 
   IBRION =      2    ionic relax: 0-MD 1-quasi-New 2-CG
   NFREE  =      1    steps in history (QN), initial steepest desc. (CG)
   ISIF   =      3    stress and relaxation
   IWAVPR =     11    prediction:  0-non 1-charg 2-wave 3-comb
   ISYM   =      2    0-nonsym 1-usesym 2-fastsym
   LCORR  =      T    Harris-Foulkes like correction to forces

   POTIM  = 0.5000    time-step for ionic-motion
   TEIN   =    0.0    initial temperature
   TEBEG  =    0.0;   TEEND  =   0.0 temperature during run
   SMASS  =  -3.00    Nose mass-parameter (am)
   estimated Nose-frequenzy (Omega)   =  0.10E-29 period in steps =****** mass=  -0.175E-26a.u.
   SCALEE = 1.0000    scale energy and forces
   NPACO  =    256;   APACO  = 16.0  distance and # of slots for P.C.
   PSTRESS=    0.0 pullay stress

  Mass of Ions in am
   POMASS =  50.94 92.91 91.22 14.00 12.01 52.00 95.94
  Ionic Valenz
   ZVAL   =  13.00 13.00 12.00  5.00  4.00 12.00  6.00
  Atomic Wigner-Seitz radii
   RWIGS  =  -1.00 -1.00 -1.00 -1.00 -1.00 -1.00 -1.00
  virtual crystal weights 
   VCA    =   1.00  1.00  1.00  1.00  1.00  1.00  1.00
   NELECT =     502.0000    total number of electrons
   NUPDOWN=      -1.0000    fix difference up-down

 DOS related values:
   EMIN   =  10.00;   EMAX   =-10.00  energy-range for DOS
   EFERMI =   0.00
   ISMEAR =     0;   SIGMA  =   0.10  broadening in eV -4-tet -1-fermi 0-gaus

 Electronic relaxation 2 (details)
   IALGO  =     68    algorithm
   LDIAG  =      T    sub-space diagonalisation (order eigenvalues)
   LSUBROT=      F    optimize rotation matrix (better conditioning)
   TURBO    =      0    0=normal 1=particle mesh
   IRESTART =      0    0=no restart 2=restart with 2 vectors
   NREBOOT  =      0    no. of reboots
   NMIN     =      0    reboot dimension
   EREF     =   0.00    reference energy to select bands
   IMIX   =      4    mixing-type and parameters
     AMIX     =   0.40;   BMIX     =  1.00
     AMIX_MAG =   1.60;   BMIX_MAG =  1.00
     AMIN     =   0.10
     WC   =   100.;   INIMIX=   1;  MIXPRE=   1;  MAXMIX= -45

 Intra band minimization:
   WEIMIN = 0.0010     energy-eigenvalue tresh-hold
   EBREAK =  0.80E-08  absolut break condition
   DEPER  =   0.30     relativ break condition  

   TIME   =   0.40     timestep for ELM

  volume/ion in A,a.u.               =      10.53        71.03
  Fermi-wavevector in a.u.,A,eV,Ry     =   1.484201  2.804734 29.971637  2.202853
  Thomas-Fermi vector in A             =   2.597768
 
 Write flags
   LWAVE        =      F    write WAVECAR
   LDOWNSAMPLE  =      F    k-point downsampling of WAVECAR
   LCHARG       =      F    write CHGCAR
   LVTOT        =      F    write LOCPOT, total local potential
   LVHAR        =      F    write LOCPOT, Hartree potential only
   LELF         =      F    write electronic localiz. function (ELF)
   LORBIT       =      0    0 simple, 1 ext, 2 COOP (PROOUT), +10 PAW based schemes


 Dipole corrections
   LMONO  =      F    monopole corrections only (constant potential shift)
   LDIPOL =      F    correct potential (dipole corrections)
   IDIPOL =      0    1-x, 2-y, 3-z, 4-all directions 
   EPSILON=  1.0000000 bulk dielectric constant

 Exchange correlation treatment:
   GGA     =    --    GGA type
   LEXCH   =     8    internal setting for exchange type
   VOSKOWN=      0    Vosko Wilk Nusair interpolation
   LHFCALC =     F    Hartree Fock is set to
   LHFONE  =     F    Hartree Fock one center treatment
   AEXX    =    0.0000 exact exchange contribution

 Linear response parameters
   LEPSILON=     F    determine dielectric tensor
   LRPA    =     F    only Hartree local field effects (RPA)
   LNABLA  =     F    use nabla operator in PAW spheres
   LVEL    =     F    velocity operator in full k-point grid
   LINTERFAST=   F  fast interpolation
   KINTER  =     0    interpolate to denser k-point grid
   CSHIFT  =0.1000    complex shift for real part using Kramers Kronig
   OMEGAMAX=  -1.0    maximum frequency
   DEG_THRESHOLD= 0.2000000E-02 threshold for treating states as degnerate
   RTIME   =   -0.100 relaxation time in fs
  (WPLASMAI=    0.000 imaginary part of plasma frequency in eV, 0.658/RTIME)
   DFIELD  = 0.0000000 0.0000000 0.0000000 field for delta impulse in time
 
 Orbital magnetization related:
   ORBITALMAG=     F  switch on orbital magnetization
   LCHIMAG   =     F  perturbation theory with respect to B field
   DQ        =  0.001000  dq finite difference perturbation B field
   LLRAUG    =     F  two centre corrections for induced B field



--------------------------------------------------------------------------------------------------------


 conjugate gradient relaxation of ions
 charge density and potential will be updated during run
 non-spin polarized calculation
 RMM-DIIS sequential band-by-band and
  variant of blocked Davidson during initial phase
 perform sub-space diagonalisation
    before iterative eigenvector-optimisation
 modified Broyden-mixing scheme, WC =      100.0
 initial mixing is a Kerker type mixing with AMIX =  0.4000 and BMIX =      1.0000
 Hartree-type preconditioning will be used
 using additional bands           61
 reciprocal scheme for non local part
 use partial core corrections
 calculate Harris-corrections to forces 
   (improved forces if not selfconsistent)
 use gradient corrections 
 use of overlap-Matrix (Vanderbilt PP)
 Gauss-broadening in eV      SIGMA  =   0.10


--------------------------------------------------------------------------------------------------------


  energy-cutoff  :      400.00
  volume of cell :      673.67
      direct lattice vectors                 reciprocal lattice vectors
     8.743292714 -0.019677496 -0.003546053     0.114373654  0.000184328 -0.000363671
    -0.014110214  8.767404819  0.006171468     0.000256747  0.114059168  0.000116799
     0.027958519 -0.009062346  8.788292723     0.000045969 -0.000080022  0.113787515

  length of vectors
     8.743315575  8.767418346  8.788341868     0.114374381  0.114059517  0.113787552


 
 k-points in units of 2pi/SCALE and weight: HECN                                    
   0.00000000  0.00000000  0.00000000       0.037
   0.03812455  0.00006144 -0.00012122       0.074
   0.00008558  0.03801972  0.00003893       0.074
   0.03821013  0.03808117 -0.00008229       0.074
  -0.03803897  0.03795828  0.00016016       0.074
   0.00001532 -0.00002667  0.03792917       0.074
   0.03813987  0.00003477  0.03780795       0.074
  -0.03810923 -0.00008812  0.03805040       0.074
   0.00010091  0.03799305  0.03796810       0.074
   0.03822546  0.03805449  0.03784688       0.074
  -0.03802365  0.03793161  0.03808933       0.074
  -0.00007026 -0.03804640  0.03789024       0.074
   0.03805429 -0.03798495  0.03776901       0.074
  -0.03819481 -0.03810784  0.03801146       0.074
 
 k-points in reciprocal lattice and weights: HECN                                    
   0.00000000  0.00000000  0.00000000       0.037
   0.33333333  0.00000000  0.00000000       0.074
  -0.00000000  0.33333333 -0.00000000       0.074
   0.33333333  0.33333333  0.00000000       0.074
  -0.33333333  0.33333333 -0.00000000       0.074
   0.00000000  0.00000000  0.33333333       0.074
   0.33333333  0.00000000  0.33333333       0.074
  -0.33333333  0.00000000  0.33333333       0.074
  -0.00000000  0.33333333  0.33333333       0.074
   0.33333333  0.33333333  0.33333333       0.074
  -0.33333333  0.33333333  0.33333333       0.074
   0.00000000 -0.33333333  0.33333333       0.074
   0.33333333 -0.33333333  0.33333333       0.074
  -0.33333333 -0.33333333  0.33333333       0.074
 
 position of ions in fractional coordinates (direct lattice) 
   0.00354324  0.98079713  0.02598666
   0.23376323  0.97794622  0.24927301
   0.26959907  0.51807198  0.24421851
   0.50086346  0.48018771  0.98841229
   0.47860951  0.23835042  0.75448582
   0.00263212  0.49856239  0.52905366
   0.50668756  0.74991918  0.73328110
   0.99640319  0.27487885  0.25755217
   0.74434390  0.74809181  0.00029434
   0.01145338  0.23367372  0.74440823
   0.75033689  0.25858394  0.51468074
   0.00051352  0.76001846  0.74816171
   0.25433876  0.50373980  0.75379566
   0.24144012  0.24525084  0.00284083
   0.49482825  0.24169206  0.24778333
   0.74040295  0.98977543  0.26052600
   0.75517409  0.24901626  0.98958541
   0.27071469  0.75784642  0.99844980
   0.25159931  0.25236223  0.49710914
   0.25039148  0.75055702  0.49881550
   0.24268821  0.25422638  0.24935509
   0.23827435  0.99961724  0.00271569
   0.99822451  0.23502632  0.00346491
   0.74968700  0.24820108  0.25409932
   0.75466212  0.99408656  0.99117912
   0.49218378  0.99251712  0.21798851
   0.00085197  0.50017962  0.24644366
   0.51242587  0.75144894  0.97902869
   0.00673008  0.99980308  0.75097958
   0.74899887  0.24394796  0.74542110
   0.74902345  0.00410669  0.51124408
   0.50559740  0.24256363  0.51059766
   0.50254176  0.99979077  0.75692111
   0.00156148  0.00355265  0.24872209
   0.49916415  0.24982826  0.98871414
   0.26464601  0.75130803  0.24911312
   0.24624730  0.50333983  0.00563007
   0.00232015  0.75020019  0.00093854
   0.74158668  0.73991208  0.24809352
   0.75873905  0.50372478  0.00257455
   0.49032330  0.51058829  0.24213003
   0.25620872  0.24266131  0.75061360
   0.25729810  0.00056044  0.49398828
   0.99678308  0.25566859  0.50098612
   0.25922405  0.75886972  0.74851953
   0.24558738  0.50226808  0.49357072
   0.99361224  0.74719923  0.49891173
   0.99967681  0.50061884  0.75413897
   0.74483880  0.76006998  0.74296799
   0.75932914  0.49720256  0.49714356
   0.50800951  0.77071296  0.49816403
   0.50481393  0.49812893  0.75139458
   0.52117727  0.02363119  0.98845244
   0.00165387  0.53060790  0.97089048
   0.50610311  0.73348046  0.28253188
   0.25534152  0.99892178  0.74014764
   0.47115981  0.00027069  0.54030714
   0.72060375  0.97642252  0.77075370
   0.00229226  0.75209895  0.25099911
   0.72147495  0.50655320  0.24426951
   0.01250063  0.00288316  0.48520845
   0.50191488  0.50983766  0.50204348
   0.74683109  0.51646818  0.75435002
   0.74944926  0.72757205  0.49557868
 
 position of ions in cartesian coordinates  (Angst):
   0.01786688  8.59874028  0.23441875
   2.03703062  8.56719155  2.19589058
   2.35670151  4.53462857  2.14850502
   4.40005480  4.19118699  8.68764393
   4.20235421  2.07345933  6.63041603
   0.03077011  4.36625205  4.65254597
   4.44003758  6.55822945  6.44712035
   8.71516694  2.38803342  2.26160699
   6.49746909  6.54417426  0.00456406
   0.11765559  2.04174068  6.54347891
   6.57115613  2.24768107  4.52210015
   0.01468335  6.65659929  6.57975271
   2.23772539  4.40465488  6.62678381
   2.10760053  2.14543667  0.02562347
   4.32994556  2.10702965  2.17732932
   6.46687768  8.66083159  2.29306159
   6.62686179  2.15939850  8.69562514
   2.38415954  6.62997107  8.77838617
   2.21014401  2.20310605  4.36940594
   2.19260164  6.57098968  4.38748074
   2.12527845  2.22187034  2.19211392
   2.06927353  8.75933577  0.02919044
   8.72454965  2.04089694  0.02836135
   6.55833492  2.15902468  2.23197250
   6.61191692  8.69172699  8.71423114
   4.29539689  8.69013891  1.92012679
   0.00728155  4.38302708  2.16890288
   4.49705849  6.56930153  8.60681120
   0.06573192  8.75874031  6.60597477
   6.56611509  2.11729686  6.54982834
   6.56316698  0.01663307  4.49033190
   4.43143896  2.11207740  4.48698577
   4.40092482  8.74882221  6.65643238
   0.02055628  0.02886279  2.18585897
   4.38845616  2.17156310  8.68888100
   2.31024124  6.57955649  2.19297727
   2.14606742  4.40808750  0.05171183
   0.00972653  6.57725463  0.01286977
   6.48040544  6.47026782  2.18225507
   6.62684197  4.40140569  0.02304410
   4.28660519  4.46469161  2.12932192
   2.25766984  2.11566606  6.59720108
   2.26343592 -0.00462606  4.34040463
   8.72556554  2.21739568  4.40085591
   2.27669141  6.64143386  6.58197287
   2.15395475  4.39428213  4.33987284
   8.69084834  6.52692503  4.38567028
   8.75448776  4.36262258  6.62713865
   6.52239121  6.64245161  6.53146966
   6.64592073  4.33972915  4.36941896
   4.44472884  6.74264163  4.38096631
   4.42771511  4.35055510  6.60475963
   4.58410765  0.18797109  8.68510713
   0.03411796  4.64322315  8.53573849
   4.42255721  6.41820088  2.48570485
   2.23912409  8.74621967  6.50989349
   4.13459048 -0.01179449  4.74670821
   6.30822108  8.53952702  6.77707981
   0.01644714  6.59163619  2.21048708
   6.30774855  4.42474648  2.14727978
   0.12282171  0.02063474  4.26412738
   4.39523117  4.45552700  4.41347172
   6.54356582  4.50655363  6.62998789
   6.55624368  6.35968034  4.35712311
 


--------------------------------------------------------------------------------------------------------


 k-point  1 :   0.0000 0.0000 0.0000  plane waves:   12201
 k-point  2 :   0.3333 0.0000 0.0000  plane waves:   12262
 k-point  3 :  -0.0000 0.3333-0.0000  plane waves:   12263
 k-point  4 :   0.3333 0.3333 0.0000  plane waves:   12244
 k-point  5 :  -0.3333 0.3333-0.0000  plane waves:   12240
 k-point  6 :   0.0000 0.0000 0.3333  plane waves:   12255
 k-point  7 :   0.3333 0.0000 0.3333  plane waves:   12236
 k-point  8 :  -0.3333 0.0000 0.3333  plane waves:   12240
 k-point  9 :  -0.0000 0.3333 0.3333  plane waves:   12233
 k-point 10 :   0.3333 0.3333 0.3333  plane waves:   12221
 k-point 11 :  -0.3333 0.3333 0.3333  plane waves:   12217
 k-point 12 :   0.0000-0.3333 0.3333  plane waves:   12236
 k-point 13 :   0.3333-0.3333 0.3333  plane waves:   12218
 k-point 14 :  -0.3333-0.3333 0.3333  plane waves:   12220

 maximum and minimum number of plane-waves per node :     12263    12201

 maximum number of plane-waves:     12263
 maximum index in each direction: 
   IXMAX=   14   IYMAX=   14   IZMAX=   14
   IXMIN=  -14   IYMIN=  -14   IZMIN=  -14


 serial   3D FFT for wavefunctions
 parallel 3D FFT for charge:
    minimum data exchange during FFTs selected (reduces bandwidth)


 total amount of memory used by VASP MPI-rank0   264566. kBytes
=======================================================================

   base      :      30000. kBytes
   nonl-proj :     185627. kBytes
   fftplans  :       1726. kBytes
   grid      :       8060. kBytes
   one-center:        995. kBytes
   wavefun   :      38158. kBytes
 
     INWAV:  cpu time    0.0000: real time    0.0000
 Broyden mixing: mesh for mixing (old mesh)
   NGX = 29   NGY = 29   NGZ = 29
  (NGX  = 96   NGY  = 96   NGZ  = 96)
  gives a total of  24389 points

 initial charge density was supplied:
 charge density of overlapping atoms calculated
 number of electron     502.0000000 magnetization 
 keeping initial charge density in first step


--------------------------------------------------------------------------------------------------------


 Maximum index for augmentation-charges          572 (set IRDMAX)


--------------------------------------------------------------------------------------------------------


 First call to EWALD:  gamma=   0.202
 Maximum number of real-space cells 3x 3x 3
 Maximum number of reciprocal cells 3x 3x 3

    FEWALD:  cpu time    0.0032: real time    0.0071


--------------------------------------- Iteration      1(   1)  ---------------------------------------


    POTLOK:  cpu time    0.0303: real time    0.0382
    SETDIJ:  cpu time    0.0080: real time    0.0091
     EDDAV:  cpu time   19.9500: real time   20.0364
       DOS:  cpu time    0.0014: real time    0.0013
    --------------------------------------------
      LOOP:  cpu time   19.9897: real time   20.0850

 eigenvalue-minimisations  :  9072
 total energy-change (2. order) : 0.6695692E+04  (-0.2092743E+05)
 number of electron     502.0000000 magnetization 
 augmentation part      502.0000000 magnetization 

 Free energy of the ion-electron system (eV)
  ---------------------------------------------------
  alpha Z        PSCENC =      3995.23272440
  Ewald energy   TEWEN  =    -40963.78103624
  -Hartree energ DENC   =    -10263.46318030
  -exchange      EXHF   =         0.00000000
  -V(xc)+E(xc)   XCENC  =      1693.86283340
  PAW double counting   =     31985.40587996   -31753.22171266
  entropy T*S    EENTRO =        -0.08475927
  eigenvalues    EBANDS =      2603.56002422
  atomic energy  EATOM  =     49398.18131157
  Solvation  Ediel_sol  =         0.00000000
  ---------------------------------------------------
  free energy    TOTEN  =      6695.69208510 eV

  energy without entropy =     6695.77684437  energy(sigma->0) =     6695.73446473


--------------------------------------------------------------------------------------------------------




--------------------------------------- Iteration      1(   2)  ---------------------------------------


     EDDAV:  cpu time   20.8217: real time   20.8998
       DOS:  cpu time    0.0012: real time    0.0012
    --------------------------------------------
      LOOP:  cpu time   20.8229: real time   20.9010

 eigenvalue-minimisations  :  8976
 total energy-change (2. order) :-0.6282323E+04  (-0.6052581E+04)
 number of electron     502.0000000 magnetization 
 augmentation part      502.0000000 magnetization 

 Free energy of the ion-electron system (eV)
  ---------------------------------------------------
  alpha Z        PSCENC =      3995.23272440
  Ewald energy   TEWEN  =    -40963.78103624
  -Hartree energ DENC   =    -10263.46318030
  -exchange      EXHF   =         0.00000000
  -V(xc)+E(xc)   XCENC  =      1693.86283340
  PAW double counting   =     31985.40587996   -31753.22171266
  entropy T*S    EENTRO =        -0.13208965
  eigenvalues    EBANDS =     -3678.71550950
  atomic energy  EATOM  =     49398.18131157
  Solvation  Ediel_sol  =         0.00000000
  ---------------------------------------------------
  free energy    TOTEN  =       413.36922099 eV

  energy without entropy =      413.50131064  energy(sigma->0) =      413.43526582


--------------------------------------------------------------------------------------------------------




--------------------------------------- Iteration      1(   3)  ---------------------------------------


     EDDAV:  cpu time   29.2830: real time   29.4059
       DOS:  cpu time    0.0012: real time    0.0012
    --------------------------------------------
      LOOP:  cpu time   29.2842: real time   29.4071

 eigenvalue-minimisations  : 13680
 total energy-change (2. order) :-0.1045394E+04  (-0.9757338E+03)
 number of electron     502.0000000 magnetization 
 augmentation part      502.0000000 magnetization 

 Free energy of the ion-electron system (eV)
  ---------------------------------------------------
  alpha Z        PSCENC =      3995.23272440
  Ewald energy   TEWEN  =    -40963.78103624
  -Hartree energ DENC   =    -10263.46318030
  -exchange      EXHF   =         0.00000000
  -V(xc)+E(xc)   XCENC  =      1693.86283340
  PAW double counting   =     31985.40587996   -31753.22171266
  entropy T*S    EENTRO =        -0.11472078
  eigenvalues    EBANDS =     -4724.12734813
  atomic energy  EATOM  =     49398.18131157
  Solvation  Ediel_sol  =         0.00000000
  ---------------------------------------------------
  free energy    TOTEN  =      -632.02524877 eV

  energy without entropy =     -631.91052799  energy(sigma->0) =     -631.96788838


--------------------------------------------------------------------------------------------------------




--------------------------------------- Iteration      1(   4)  ---------------------------------------


     EDDAV:  cpu time   33.1604: real time   33.2771
       DOS:  cpu time    0.0012: real time    0.0012
    --------------------------------------------
      LOOP:  cpu time   33.1616: real time   33.2783

 eigenvalue-minimisations  : 15648
 total energy-change (2. order) :-0.1271804E+03  (-0.1237688E+03)
 number of electron     502.0000000 magnetization 
 augmentation part      502.0000000 magnetization 

 Free energy of the ion-electron system (eV)
  ---------------------------------------------------
  alpha Z        PSCENC =      3995.23272440
  Ewald energy   TEWEN  =    -40963.78103624
  -Hartree energ DENC   =    -10263.46318030
  -exchange      EXHF   =         0.00000000
  -V(xc)+E(xc)   XCENC  =      1693.86283340
  PAW double counting   =     31985.40587996   -31753.22171266
  entropy T*S    EENTRO =        -0.11258345
  eigenvalues    EBANDS =     -4851.30987179
  atomic energy  EATOM  =     49398.18131157
  Solvation  Ediel_sol  =         0.00000000
  ---------------------------------------------------
  free energy    TOTEN  =      -759.20563510 eV

  energy without entropy =     -759.09305165  energy(sigma->0) =     -759.14934337


--------------------------------------------------------------------------------------------------------




--------------------------------------- Iteration      1(   5)  ---------------------------------------


     EDDAV:  cpu time   36.3715: real time   36.5280
       DOS:  cpu time    0.0012: real time    0.0012
    CHARGE:  cpu time    0.2622: real time    0.2623
    MIXING:  cpu time    0.0013: real time    0.0013
    --------------------------------------------
      LOOP:  cpu time   36.6362: real time   36.7929

 eigenvalue-minimisations  : 17448
 total energy-change (2. order) :-0.1557230E+02  (-0.1528511E+02)
 number of electron     501.9999881 magnetization 
 augmentation part       92.4217323 magnetization 

 Broyden mixing:
  rms(total) = 0.77689E+01    rms(broyden)= 0.77676E+01
  rms(prec ) = 0.12134E+02
  weight for this iteration     100.00

 Free energy of the ion-electron system (eV)
  ---------------------------------------------------
  alpha Z        PSCENC =      3995.23272440
  Ewald energy   TEWEN  =    -40963.78103624
  -Hartree energ DENC   =    -10263.46318030
  -exchange      EXHF   =         0.00000000
  -V(xc)+E(xc)   XCENC  =      1693.86283340
  PAW double counting   =     31985.40587996   -31753.22171266
  entropy T*S    EENTRO =        -0.11315751
  eigenvalues    EBANDS =     -4866.88159577
  atomic energy  EATOM  =     49398.18131157
  Solvation  Ediel_sol  =         0.00000000
  ---------------------------------------------------
  free energy    TOTEN  =      -774.77793314 eV

  energy without entropy =     -774.66477563  energy(sigma->0) =     -774.72135439


--------------------------------------------------------------------------------------------------------




--------------------------------------- Iteration      1(   6)  ---------------------------------------


    POTLOK:  cpu time    0.0240: real time    0.0274
    SETDIJ:  cpu time    0.0076: real time    0.0076
    EDDIAG:  cpu time    1.8611: real time    1.8705
  RMM-DIIS:  cpu time   17.6990: real time   17.7623
    ORTHCH:  cpu time    0.4210: real time    0.4211
       DOS:  cpu time    0.0011: real time    0.0011
    CHARGE:  cpu time    0.2549: real time    0.2549
    MIXING:  cpu time    0.0013: real time    0.0019
    --------------------------------------------
      LOOP:  cpu time   20.2700: real time   20.3467

 eigenvalue-minimisations  : 11412
 total energy-change (2. order) :-0.5484201E+02  (-0.2148414E+03)
 number of electron     501.9999889 magnetization 
 augmentation part      132.7347250 magnetization 

 Broyden mixing:
  rms(total) = 0.10935E+02    rms(broyden)= 0.10934E+02
  rms(prec ) = 0.17970E+02
  weight for this iteration     100.00

 eigenvalues of (default mixing * dielectric matrix)
  average eigenvalue GAMMA=   0.4002
  0.4002

 Free energy of the ion-electron system (eV)
  ---------------------------------------------------
  alpha Z        PSCENC =      3995.23272440
  Ewald energy   TEWEN  =    -40963.78103624
  -Hartree energ DENC   =     -9373.15116395
  -exchange      EXHF   =         0.00000000
  -V(xc)+E(xc)   XCENC  =      1676.05067128
  PAW double counting   =     30673.48023069   -30458.93668499
  entropy T*S    EENTRO =        -0.15023963
  eigenvalues    EBANDS =     -5776.54575932
  atomic energy  EATOM  =     49398.18131157
  Solvation  Ediel_sol  =         0.00000000
  ---------------------------------------------------
  free energy    TOTEN  =      -829.61994620 eV

  energy without entropy =     -829.46970657  energy(sigma->0) =     -829.54482639


--------------------------------------------------------------------------------------------------------




--------------------------------------- Iteration      1(   7)  ---------------------------------------


    POTLOK:  cpu time    0.0237: real time    0.0265
    SETDIJ:  cpu time    0.0076: real time    0.0076
    EDDIAG:  cpu time    1.8128: real time    1.8137
  RMM-DIIS:  cpu time   19.3016: real time   19.3693
    ORTHCH:  cpu time    0.4166: real time    0.4168
       DOS:  cpu time    0.0010: real time    0.0010
    CHARGE:  cpu time    0.2501: real time    0.2501
    MIXING:  cpu time    0.0011: real time    0.0011
    --------------------------------------------
      LOOP:  cpu time   21.8146: real time   21.8861

 eigenvalue-minimisations  : 12556
 total energy-change (2. order) : 0.1760322E+03  (-0.2801334E+02)
 number of electron     501.9999913 magnetization 
 augmentation part      103.5134770 magnetization 

 Broyden mixing:
  rms(total) = 0.56295E+01    rms(broyden)= 0.56277E+01
  rms(prec ) = 0.10161E+02
  weight for this iteration     100.00

 eigenvalues of (default mixing * dielectric matrix)
  average eigenvalue GAMMA=   0.4384
  0.6224  0.2543

 Free energy of the ion-electron system (eV)
  ---------------------------------------------------
  alpha Z        PSCENC =      3995.23272440
  Ewald energy   TEWEN  =    -40963.78103624
  -Hartree energ DENC   =     -9876.51440001
  -exchange      EXHF   =         0.00000000
  -V(xc)+E(xc)   XCENC  =      1693.54541186
  PAW double counting   =     31923.92289794   -31768.04496669
  entropy T*S    EENTRO =        -0.14025877
  eigenvalues    EBANDS =     -5055.98939238
  atomic energy  EATOM  =     49398.18131157
  Solvation  Ediel_sol  =         0.00000000
  ---------------------------------------------------
  free energy    TOTEN  =      -653.58770831 eV

  energy without entropy =     -653.44744954  energy(sigma->0) =     -653.51757893


--------------------------------------------------------------------------------------------------------




--------------------------------------- Iteration      1(   8)  ---------------------------------------


    POTLOK:  cpu time    0.0276: real time    0.0278
    SETDIJ:  cpu time    0.0077: real time    0.0077
    EDDIAG:  cpu time    1.8416: real time    1.8434
  RMM-DIIS:  cpu time   21.8621: real time   21.9297
    ORTHCH:  cpu time    0.4169: real time    0.4169
       DOS:  cpu time    0.0011: real time    0.0011
    CHARGE:  cpu time    0.2505: real time    0.2507
    MIXING:  cpu time    0.0010: real time    0.0010
    --------------------------------------------
      LOOP:  cpu time   24.4084: real time   24.4783

 eigenvalue-minimisations  : 14248
 total energy-change (2. order) : 0.1697546E+02  (-0.8470793E+01)
 number of electron     501.9999903 magnetization 
 augmentation part      105.3576069 magnetization 

 Broyden mixing:
  rms(total) = 0.30850E+01    rms(broyden)= 0.30804E+01
  rms(prec ) = 0.53663E+01
  weight for this iteration     100.00

 eigenvalues of (default mixing * dielectric matrix)
  average eigenvalue GAMMA=   0.4668
  0.7992  0.4002  0.2008

 Free energy of the ion-electron system (eV)
  ---------------------------------------------------
  alpha Z        PSCENC =      3995.23272440
  Ewald energy   TEWEN  =    -40963.78103624
  -Hartree energ DENC   =     -9855.04833455
  -exchange      EXHF   =         0.00000000
  -V(xc)+E(xc)   XCENC  =      1692.17655451
  PAW double counting   =     32246.46603658   -32091.04570131
  entropy T*S    EENTRO =        -0.13599616
  eigenvalues    EBANDS =     -5058.65780222
  atomic energy  EATOM  =     49398.18131157
  Solvation  Ediel_sol  =         0.00000000
  ---------------------------------------------------
  free energy    TOTEN  =      -636.61224341 eV

  energy without entropy =     -636.47624725  energy(sigma->0) =     -636.54424533


--------------------------------------------------------------------------------------------------------




--------------------------------------- Iteration      1(   9)  ---------------------------------------


    POTLOK:  cpu time    0.0243: real time    0.0277
    SETDIJ:  cpu time    0.0077: real time    0.0077
    EDDIAG:  cpu time    1.8625: real time    1.8938
  RMM-DIIS:  cpu time   21.8294: real time   21.8532
    ORTHCH:  cpu time    0.4268: real time    0.4324
       DOS:  cpu time    0.0010: real time    0.0010
    CHARGE:  cpu time    0.2498: real time    0.2498
    MIXING:  cpu time    0.0010: real time    0.0010
    --------------------------------------------
      LOOP:  cpu time   24.4025: real time   24.4668

 eigenvalue-minimisations  : 14352
 total energy-change (2. order) : 0.1148934E+02  (-0.2641140E+01)
 number of electron     501.9999910 magnetization 
 augmentation part      104.5272848 magnetization 

 Broyden mixing:
  rms(total) = 0.15831E+01    rms(broyden)= 0.15820E+01
  rms(prec ) = 0.24939E+01
  weight for this iteration     100.00

 eigenvalues of (default mixing * dielectric matrix)
  average eigenvalue GAMMA=   0.4048
  0.7511  0.3300  0.3300  0.2081

 Free energy of the ion-electron system (eV)
  ---------------------------------------------------
  alpha Z        PSCENC =      3995.23272440
  Ewald energy   TEWEN  =    -40963.78103624
  -Hartree energ DENC   =     -9751.95354471
  -exchange      EXHF   =         0.00000000
  -V(xc)+E(xc)   XCENC  =      1687.50030160
  PAW double counting   =     32390.79065804   -32235.82865074
  entropy T*S    EENTRO =        -0.15441898
  eigenvalues    EBANDS =     -5145.11024867
  atomic energy  EATOM  =     49398.18131157
  Solvation  Ediel_sol  =         0.00000000
  ---------------------------------------------------
  free energy    TOTEN  =      -625.12290372 eV

  energy without entropy =     -624.96848474  energy(sigma->0) =     -625.04569423


--------------------------------------------------------------------------------------------------------




--------------------------------------- Iteration      1(  10)  ---------------------------------------


    POTLOK:  cpu time    0.0237: real time    0.0272
    SETDIJ:  cpu time    0.0076: real time    0.0076
    EDDIAG:  cpu time    1.8100: real time    1.8122
  RMM-DIIS:  cpu time   21.7666: real time   21.7886
    ORTHCH:  cpu time    0.4151: real time    0.4158
       DOS:  cpu time    0.0011: real time    0.0011
    CHARGE:  cpu time    0.2498: real time    0.2502
    MIXING:  cpu time    0.0011: real time    0.0011
    --------------------------------------------
      LOOP:  cpu time   24.2750: real time   24.3038

 eigenvalue-minimisations  : 14219
 total energy-change (2. order) : 0.4915895E+00  (-0.1000293E+01)
 number of electron     501.9999908 magnetization 
 augmentation part      104.8142000 magnetization 

 Broyden mixing:
  rms(total) = 0.14339E+01    rms(broyden)= 0.14333E+01
  rms(prec ) = 0.23143E+01
  weight for this iteration     100.00

 eigenvalues of (default mixing * dielectric matrix)
  average eigenvalue GAMMA=   0.4430
  0.7021  0.7021  0.4549  0.2087  0.1472

 Free energy of the ion-electron system (eV)
  ---------------------------------------------------
  alpha Z        PSCENC =      3995.23272440
  Ewald energy   TEWEN  =    -40963.78103624
  -Hartree energ DENC   =     -9745.81281748
  -exchange      EXHF   =         0.00000000
  -V(xc)+E(xc)   XCENC  =      1686.83715755
  PAW double counting   =     32493.46428758   -32334.83732560
  entropy T*S    EENTRO =        -0.14894750
  eigenvalues    EBANDS =     -5153.76666850
  atomic energy  EATOM  =     49398.18131157
  Solvation  Ediel_sol  =         0.00000000
  ---------------------------------------------------
  free energy    TOTEN  =      -624.63131421 eV

  energy without entropy =     -624.48236671  energy(sigma->0) =     -624.55684046


--------------------------------------------------------------------------------------------------------




--------------------------------------- Iteration      1(  11)  ---------------------------------------


    POTLOK:  cpu time    0.0269: real time    0.0271
    SETDIJ:  cpu time    0.0076: real time    0.0076
    EDDIAG:  cpu time    1.8016: real time    1.8054
  RMM-DIIS:  cpu time   22.0623: real time   22.1591
    ORTHCH:  cpu time    0.4140: real time    0.4148
       DOS:  cpu time    0.0010: real time    0.0010
    CHARGE:  cpu time    0.2494: real time    0.2497
    MIXING:  cpu time    0.0011: real time    0.0011
    --------------------------------------------
      LOOP:  cpu time   24.5639: real time   24.6659

 eigenvalue-minimisations  : 14431
 total energy-change (2. order) : 0.6335233E+00  (-0.5515536E+00)
 number of electron     501.9999909 magnetization 
 augmentation part      104.8341824 magnetization 

 Broyden mixing:
  rms(total) = 0.11021E+01    rms(broyden)= 0.11015E+01
  rms(prec ) = 0.16815E+01
  weight for this iteration     100.00

 eigenvalues of (default mixing * dielectric matrix)
  average eigenvalue GAMMA=   0.4879
  0.9562  0.9562  0.4338  0.2508  0.2045  0.1257

 Free energy of the ion-electron system (eV)
  ---------------------------------------------------
  alpha Z        PSCENC =      3995.23272440
  Ewald energy   TEWEN  =    -40963.78103624
  -Hartree energ DENC   =     -9741.60823557
  -exchange      EXHF   =         0.00000000
  -V(xc)+E(xc)   XCENC  =      1686.17926725
  PAW double counting   =     32621.66625156   -32458.53751085
  entropy T*S    EENTRO =        -0.15312738
  eigenvalues    EBANDS =     -5161.17743565
  atomic energy  EATOM  =     49398.18131157
  Solvation  Ediel_sol  =         0.00000000
  ---------------------------------------------------
  free energy    TOTEN  =      -623.99779089 eV

  energy without entropy =     -623.84466352  energy(sigma->0) =     -623.92122720


--------------------------------------------------------------------------------------------------------




--------------------------------------- Iteration      1(  12)  ---------------------------------------


    POTLOK:  cpu time    0.0236: real time    0.0271
    SETDIJ:  cpu time    0.0076: real time    0.0076
    EDDIAG:  cpu time    1.8097: real time    1.8136
  RMM-DIIS:  cpu time   21.8650: real time   21.9078
    ORTHCH:  cpu time    0.4163: real time    0.4169
       DOS:  cpu time    0.0011: real time    0.0011
    CHARGE:  cpu time    0.2578: real time    0.2581
    MIXING:  cpu time    0.0013: real time    0.0013
    --------------------------------------------
      LOOP:  cpu time   24.3823: real time   24.4335

 eigenvalue-minimisations  : 14151
 total energy-change (2. order) : 0.3851860E+00  (-0.2865200E+00)
 number of electron     501.9999910 magnetization 
 augmentation part      104.7674014 magnetization 

 Broyden mixing:
  rms(total) = 0.97916E+00    rms(broyden)= 0.97844E+00
  rms(prec ) = 0.14926E+01
  weight for this iteration     100.00

 eigenvalues of (default mixing * dielectric matrix)
  average eigenvalue GAMMA=   0.5272
  1.1757  1.1757  0.4076  0.4076  0.2241  0.1805  0.1190

 Free energy of the ion-electron system (eV)
  ---------------------------------------------------
  alpha Z        PSCENC =      3995.23272440
  Ewald energy   TEWEN  =    -40963.78103624
  -Hartree energ DENC   =     -9734.90982440
  -exchange      EXHF   =         0.00000000
  -V(xc)+E(xc)   XCENC  =      1685.39820646
  PAW double counting   =     32768.63292273   -32600.08008831
  entropy T*S    EENTRO =        -0.14441945
  eigenvalues    EBANDS =     -5172.14240165
  atomic energy  EATOM  =     49398.18131157
  Solvation  Ediel_sol  =         0.00000000
  ---------------------------------------------------
  free energy    TOTEN  =      -623.61260487 eV

  energy without entropy =     -623.46818542  energy(sigma->0) =     -623.54039514


--------------------------------------------------------------------------------------------------------




--------------------------------------- Iteration      1(  13)  ---------------------------------------


    POTLOK:  cpu time    0.0241: real time    0.0276
    SETDIJ:  cpu time    0.0077: real time    0.0077
    EDDIAG:  cpu time    1.8260: real time    1.8308
  RMM-DIIS:  cpu time   20.7234: real time   20.7721
    ORTHCH:  cpu time    0.4210: real time    0.4210
       DOS:  cpu time    0.0011: real time    0.0011
    CHARGE:  cpu time    0.2533: real time    0.2535
    MIXING:  cpu time    0.0012: real time    0.0012
    --------------------------------------------
      LOOP:  cpu time   23.2578: real time   23.3148

 eigenvalue-minimisations  : 13462
 total energy-change (2. order) :-0.4261810E+00  (-0.2888185E+00)
 number of electron     501.9999906 magnetization 
 augmentation part      104.8631033 magnetization 

 Broyden mixing:
  rms(total) = 0.13547E+01    rms(broyden)= 0.13536E+01
  rms(prec ) = 0.22605E+01
  weight for this iteration     100.00

 eigenvalues of (default mixing * dielectric matrix)
  average eigenvalue GAMMA=   0.5711
  1.4374  1.4374  0.5569  0.4557  0.2463  0.1981  0.1304  0.1062

 Free energy of the ion-electron system (eV)
  ---------------------------------------------------
  alpha Z        PSCENC =      3995.23272440
  Ewald energy   TEWEN  =    -40963.78103624
  -Hartree energ DENC   =     -9728.56221906
  -exchange      EXHF   =         0.00000000
  -V(xc)+E(xc)   XCENC  =      1684.47110709
  PAW double counting   =     32984.83136581   -32807.59416046
  entropy T*S    EENTRO =        -0.14838178
[...]
 -0.009  -0.036   0.009  -0.006   0.000   0.004   0.001   0.001   0.004  -0.306  -0.022  -0.002   0.017   0.003   0.291   0.030
 -0.009  -0.035  -0.006  -0.017   0.001  -0.041  -0.150   0.019   0.013  -0.023  -0.634  -0.005  -0.022  -0.011   0.030   0.767
  0.002  -0.002   0.000   0.002   0.006   0.000  -0.008   0.002  -0.002  -0.002  -0.006  -0.237   0.007  -0.003   0.001  -0.000
  0.009   0.045  -0.009  -0.001  -0.002  -0.079  -0.002  -0.034  -0.005   0.019  -0.022   0.008  -0.618   0.014  -0.026   0.000


------------------------ aborting loop because EDIFF is reached ----------------------------------------


    CHARGE:  cpu time    0.2439: real time    0.2445
    FORLOC:  cpu time    0.0137: real time    0.0137
    FORNL :  cpu time   13.3772: real time   13.4065
    STRESS:  cpu time   24.7499: real time   24.9172
    FORCOR:  cpu time    0.0292: real time    0.0293
    FORHAR:  cpu time    0.0177: real time    0.0178
    MIXING:  cpu time    0.0009: real time    0.0009
    OFIELD:  cpu time    0.0000: real time    0.0000

  FORCE on cell =-STRESS in cart. coord.  units (eV):
  Direction    XX          YY          ZZ          XY          YZ          ZX
  --------------------------------------------------------------------------------------
  Alpha Z  3997.02979  3997.02979  3997.02979
  Ewald  -13603.33306-13579.13321-13791.62243   106.43439   184.44252   100.50131
  Hartree  3252.85906  3343.31857  3140.35677   146.12470   126.80966    54.68858
  E(xc)   -2346.73609 -2346.33320 -2346.73702    -0.34401     0.22798     0.11344
  Local    1529.02888  1409.00512  1816.72552  -252.76184  -313.87255  -156.67310
  n-local -1583.38532 -1595.40333 -1583.93485    -0.53979    -0.83333    -0.66448
  augment   992.61562   996.25210   995.34020    -0.22474     1.39938     1.22610
  Kinetic  7761.47231  7774.88364  7772.37027     1.26564     1.81764     0.80143
  Fock        0.00000     0.00000     0.00000     0.00000     0.00000     0.00000
  -------------------------------------------------------------------------------------
  Total      -0.44882    -0.38051    -0.47175    -0.04565    -0.00871    -0.00673
  in kB      -1.06789    -0.90536    -1.12245    -0.10863    -0.02073    -0.01601
  external pressure =       -1.03 kB  Pullay stress =        0.00 kB


 VOLUME and BASIS-vectors are now :
 -----------------------------------------------------------------------------
  energy-cutoff  :      400.00
  volume of cell :      673.37
      direct lattice vectors                 reciprocal lattice vectors
     8.743686320 -0.020848889 -0.003363732     0.114368574  0.000199909 -0.000366134
    -0.015294175  8.763380816  0.007401679     0.000272132  0.114111601  0.000100773
     0.028147134 -0.007827881  8.787984547     0.000043547 -0.000096034  0.113791509

  length of vectors
     8.743711823  8.763397288  8.788033109     0.114369335  0.114111970  0.113791558


 FORCES acting on ions
    electron-ion (+dipol)            ewald-force                    non-local-force                 convergence-correction
 -----------------------------------------------------------------------------------------------
   0.107E+03 0.425E+02 -.696E+02   -.106E+03 -.431E+02 0.703E+02   -.110E+01 0.596E+00 -.718E+00   -.208E-01 0.260E-02 -.310E-01
   0.523E+02 0.113E+02 -.158E+03   -.511E+02 -.134E+02 0.159E+03   -.119E+01 0.216E+01 -.393E+00   -.174E-02 -.744E-02 -.672E-02
   0.111E+03 0.152E+01 -.109E+03   -.112E+03 0.301E+00 0.108E+03   0.379E+00 -.182E+01 0.972E+00   0.681E-02 0.122E-03 -.126E-01
   -.167E+03 -.837E+02 -.858E+02   0.166E+03 0.827E+02 0.851E+02   0.976E+00 0.106E+01 0.694E+00   -.246E-02 0.769E-04 0.160E-01
   -.149E+03 -.289E+03 0.119E+03   0.147E+03 0.290E+03 -.118E+03   0.126E+01 -.907E+00 -.976E+00   0.708E-02 -.487E-01 -.145E-01
   0.193E+03 -.148E+03 0.186E+03   -.191E+03 0.148E+03 -.186E+03   -.170E+01 -.235E+00 -.337E+00   0.778E-02 -.639E-02 0.956E-02
   -.106E+03 0.294E+03 0.160E+03   0.104E+03 -.295E+03 -.159E+03   0.134E+01 0.675E+00 -.690E+00   0.188E-01 0.612E-01 0.371E-03
   0.140E+03 -.300E+02 -.628E+02   -.140E+03 0.312E+02 0.628E+02   -.101E+00 -.113E+01 0.272E-01   0.116E-01 0.885E-03 -.944E-02
   -.111E+03 0.217E+03 -.180E+03   0.110E+03 -.217E+03 0.180E+03   0.130E+01 -.415E-01 -.798E-01   0.258E-01 0.228E-01 -.276E-01
   0.136E+03 -.659E+02 0.679E+02   -.136E+03 0.648E+02 -.680E+02   -.204E+00 0.118E+01 0.247E-01   -.821E-02 -.293E-01 0.467E-02
   -.129E+02 -.119E+03 0.132E+03   0.124E+02 0.118E+03 -.131E+03   0.531E+00 0.313E+00 -.124E+01   -.405E-03 -.276E-01 0.288E-01
   0.133E+03 0.363E+02 0.199E+03   -.133E+03 -.353E+02 -.199E+03   -.133E+00 -.976E+00 0.235E-01   -.218E-01 0.262E-01 0.243E-01
   -.213E+02 -.253E+02 0.108E+03   0.215E+02 0.255E+02 -.107E+03   -.185E+00 -.112E+00 -.224E+00   -.186E-01 -.997E-02 0.374E-02
   0.457E+02 -.993E+02 -.695E+02   -.459E+02 0.994E+02 0.692E+02   0.198E+00 -.115E+00 0.228E+00   -.125E-01 -.711E-02 -.137E-01
   -.114E+03 -.123E+03 -.136E+03   0.114E+03 0.122E+03 0.135E+03   0.390E+00 0.839E+00 0.135E+01   -.498E-02 0.870E-02 0.178E-02
   -.117E+03 0.971E+02 -.198E+03   0.117E+03 -.982E+02 0.200E+03   0.721E+00 0.109E+01 -.127E+01   0.379E-02 -.310E-02 -.874E-02
   -.734E+02 -.209E+03 -.100E+03   0.736E+02 0.210E+03 0.989E+02   -.173E+00 -.789E+00 0.131E+01   0.105E-01 -.284E-01 -.301E-01
   0.578E+02 0.901E+02 -.822E+02   -.565E+02 -.904E+02 0.821E+02   -.131E+01 0.279E+00 0.106E+00   -.189E-01 0.319E-02 0.136E-02
   0.347E+02 -.769E+02 0.891E+02   -.354E+02 0.776E+02 -.888E+02   0.687E+00 -.663E+00 -.342E+00   -.143E-02 -.106E-01 0.200E-01
   0.135E+03 0.777E+02 0.848E+02   -.135E+03 -.784E+02 -.849E+02   -.108E+00 0.631E+00 0.898E-01   0.716E-02 0.114E-01 0.963E-02
   -.180E+01 -.968E+01 -.349E+02   0.233E+01 0.927E+01 0.349E+02   -.527E+00 0.396E+00 -.939E-01   -.196E-02 0.854E-02 -.632E-03
   -.284E+02 0.416E+01 -.289E+01   0.302E+02 -.380E+01 0.208E+01   -.178E+01 -.362E+00 0.818E+00   -.658E-02 0.118E-02 -.121E-01
   0.429E+02 -.710E+02 -.214E+02   -.433E+02 0.720E+02 0.214E+02   0.331E+00 -.999E+00 -.168E-01   -.744E-03 -.789E-02 -.699E-02
   0.500E+01 -.778E+02 -.266E+02   -.573E+01 0.769E+02 0.260E+02   0.736E+00 0.982E+00 0.681E+00   -.813E-03 -.442E-02 -.266E-02
   -.736E+02 -.129E+02 -.998E+02   0.764E+02 0.136E+02 0.101E+03   -.275E+01 -.699E+00 -.141E+01   0.113E-01 0.618E-04 -.448E-01
   -.185E+02 0.346E+02 -.953E+02   0.168E+02 -.373E+02 0.962E+02   0.171E+01 0.275E+01 -.924E+00   -.527E-03 -.118E-01 0.904E-02
   0.107E+03 -.135E+03 -.195E+02   -.106E+03 0.136E+03 0.194E+02   -.742E+00 -.128E+01 0.742E-01   0.630E-02 -.154E-02 -.144E-01
   0.109E+01 0.490E+02 -.833E+02   -.305E+01 -.485E+02 0.859E+02   0.197E+01 -.453E+00 -.259E+01   0.248E-02 0.505E-02 0.174E-02
   0.712E+02 0.212E+02 0.980E+02   -.738E+02 -.211E+02 -.958E+02   0.267E+01 -.808E-01 -.222E+01   -.188E-01 0.189E-02 0.206E-02
   -.304E+02 -.955E+02 0.157E+02   0.289E+02 0.941E+02 -.143E+02   0.152E+01 0.144E+01 -.132E+01   -.446E-02 -.386E-01 0.526E-02
   -.946E+02 0.922E+02 0.522E+02   0.928E+02 -.932E+02 -.503E+02   0.186E+01 0.986E+00 -.192E+01   -.478E-02 -.415E-02 0.455E-01
   -.444E+02 -.123E+03 0.918E+02   0.445E+02 0.122E+03 -.924E+02   -.139E+00 0.101E+01 0.492E+00   -.476E-03 -.790E-02 0.116E-01
   0.442E+01 0.261E+02 0.297E+01   -.530E+01 -.265E+02 -.131E+01   0.842E+00 0.403E+00 -.165E+01   0.306E-01 0.135E-02 -.168E-01
   0.771E+02 0.347E+02 -.128E+03   -.776E+02 -.333E+02 0.127E+03   0.410E+00 -.147E+01 0.896E+00   -.192E-02 0.208E-02 -.720E-02
   -.234E+02 -.444E+02 -.661E+02   0.231E+02 0.452E+02 0.663E+02   0.241E+00 -.751E+00 -.188E+00   0.134E-02 0.140E-02 -.584E-02
   0.654E+02 0.216E+02 -.186E+02   -.646E+02 -.211E+02 0.183E+02   -.854E+00 -.443E+00 0.228E+00   0.678E-02 -.380E-02 -.271E-02
   0.311E+02 -.249E+01 -.206E+02   -.313E+02 0.237E+01 0.217E+02   0.151E+00 0.115E+00 -.106E+01   -.127E-01 0.157E-02 0.583E-02
   0.112E+02 0.320E+02 -.849E+02   -.105E+02 -.317E+02 0.849E+02   -.684E+00 -.300E+00 -.590E-01   -.330E-02 -.632E-02 -.757E-02
   -.966E+02 0.618E+02 -.895E+02   0.961E+02 -.607E+02 0.883E+02   0.493E+00 -.107E+01 0.117E+01   -.632E-02 0.281E-02 -.254E-02
   -.170E+02 0.187E+02 -.401E+02   0.176E+02 -.194E+02 0.409E+02   -.627E+00 0.721E+00 -.723E+00   0.139E-01 0.321E-02 -.172E-02
   -.119E+03 0.439E+02 -.667E+02   0.117E+03 -.440E+02 0.654E+02   0.163E+01 0.143E+00 0.135E+01   -.112E-01 0.865E-02 -.267E-03
   0.555E+02 -.468E+02 0.209E+02   -.552E+02 0.468E+02 -.208E+02   -.303E+00 -.501E-01 -.761E-01   0.162E-02 -.153E-01 -.248E-02
   0.111E+03 0.419E+01 0.529E+02   -.110E+03 -.434E+01 -.542E+02   -.923E+00 0.153E+00 0.121E+01   0.149E-02 0.843E-03 0.181E-01
   0.240E+02 0.547E+02 0.295E+02   -.234E+02 -.537E+02 -.295E+02   -.558E+00 -.100E+01 0.658E-02   0.116E-02 -.616E-02 0.614E-02
   0.343E+02 0.372E+02 0.192E+02   -.338E+02 -.372E+02 -.192E+02   -.492E+00 0.168E-01 -.230E-01   -.297E-02 0.152E-01 -.725E-03
   -.476E+02 -.686E+01 0.192E+02   0.461E+02 0.713E+01 -.203E+02   0.146E+01 -.266E+00 0.102E+01   0.972E-03 -.212E-02 -.325E-02
   0.904E+02 -.451E+02 0.908E+02   -.893E+02 0.441E+02 -.905E+02   -.106E+01 0.945E+00 -.223E+00   0.316E-03 0.560E-02 0.824E-02
   0.881E+02 0.118E+02 0.145E+02   -.878E+02 -.123E+02 -.149E+02   -.362E+00 0.493E+00 0.339E+00   0.101E-02 -.139E-03 0.152E-01
   -.637E+02 0.116E+03 0.112E+03   0.635E+02 -.115E+03 -.112E+03   0.228E+00 -.119E+01 0.100E+00   0.386E-02 0.414E-01 0.492E-02
   0.575E+02 -.784E+02 0.389E+02   -.559E+02 0.773E+02 -.395E+02   -.163E+01 0.109E+01 0.646E+00   -.214E-02 -.589E-03 0.135E-02
   -.951E+02 0.760E+02 0.297E+02   0.945E+02 -.741E+02 -.298E+02   0.657E+00 -.193E+01 0.114E+00   0.183E-02 0.424E-02 -.546E-02
   -.896E+02 -.395E+01 0.103E+03   0.893E+02 0.374E+01 -.102E+03   0.323E+00 0.214E+00 -.115E+01   -.116E-02 -.496E-02 -.199E-02
   0.538E+02 0.560E+02 -.203E+03   -.536E+02 -.546E+02 0.205E+03   -.239E+00 -.137E+01 -.219E+01   0.305E-01 -.990E-02 -.488E-01
   0.132E+03 0.749E+02 -.176E+03   -.131E+03 -.726E+02 0.175E+03   -.902E+00 -.229E+01 0.771E+00   -.169E-02 0.128E-01 0.586E-02
   -.187E+03 0.467E+02 -.491E+02   0.186E+03 -.461E+02 0.503E+02   0.140E+01 -.547E+00 -.120E+01   -.637E-02 -.265E-02 -.456E-03
   0.201E+03 0.538E+02 0.402E+02   -.201E+03 -.547E+02 -.409E+02   0.515E+00 0.891E+00 0.758E+00   0.119E-01 0.107E-01 -.125E-01
   -.182E+03 0.335E+02 0.348E+03   0.180E+03 -.352E+02 -.347E+03   0.204E+01 0.166E+01 -.112E+01   0.684E-02 0.343E-02 0.625E-01
   -.300E+03 -.421E+01 0.259E+03   0.299E+03 0.246E+01 -.260E+03   0.837E+00 0.173E+01 0.263E+00   0.175E-01 0.180E-01 -.257E-01
   0.944E+02 0.576E+02 -.957E+02   -.940E+02 -.576E+02 0.957E+02   -.405E+00 0.428E-01 0.647E-02   0.118E-02 -.135E-03 -.101E-01
   -.707E+02 -.148E+02 -.777E+02   0.696E+02 0.160E+02 0.767E+02   0.113E+01 -.119E+01 0.977E+00   -.964E-03 0.323E-02 -.470E-02
   0.945E+02 0.647E+02 0.221E+02   -.938E+02 -.648E+02 -.232E+02   -.722E+00 0.855E-01 0.108E+01   -.355E-02 0.169E-02 0.175E-01
   -.949E+02 0.102E+02 0.208E+02   0.942E+02 -.912E+01 -.203E+02   0.740E+00 -.105E+01 -.526E+00   -.363E-02 0.140E-02 -.457E-02
   0.288E+01 0.867E+01 0.761E+02   -.354E+01 -.768E+01 -.754E+02   0.646E+00 -.989E+00 -.751E+00   0.797E-02 0.940E-03 0.596E-02
   -.616E+02 0.280E+02 0.590E+02   0.617E+02 -.285E+02 -.589E+02   -.396E-01 0.546E+00 -.120E+00   -.332E-02 0.147E-01 0.929E-02
 -----------------------------------------------------------------------------------------------
   -.104E+02 0.914E+00 0.100E+02   -.192E-12 -.433E-12 0.242E-12   0.104E+02 -.921E+00 -.100E+02   0.481E-01 0.216E-02 -.451E-01
 
 
 POSITION                                       TOTAL-FORCE (eV/Angst)
 -----------------------------------------------------------------------------------
      0.01584      8.59399      0.23120         0.001829     -0.002135     -0.000679
      2.03575      8.56723      2.19719        -0.001566      0.000489     -0.001232
      2.35716      4.53287      2.15047         0.002539      0.001892      0.001605
      4.39979      4.19170      8.69136        -0.001161     -0.001693     -0.000287
      4.20406      2.08009      6.63154        -0.001705      0.002851      0.001434
      0.02926      4.36413      4.65184         0.000001     -0.000914     -0.000455
      4.44082      6.55246      6.44849         0.000882     -0.002891     -0.000849
      8.71472      2.38341      2.26217         0.001795      0.001586      0.002351
      6.49745      6.54064      0.00278         0.001709     -0.003568     -0.000958
      0.11595      2.04553      6.54528         0.001493      0.002789     -0.002058
      6.57180      2.24451      4.52079         0.002297      0.001984     -0.001223
      0.01288      6.65375      6.58149        -0.000725     -0.003524      0.002334
      2.23691      4.40300      6.62833        -0.000684      0.000094     -0.003207
      2.10739      2.14552      0.02671        -0.000912      0.001063      0.001259
      4.32938      2.10139      2.17921         0.000900     -0.002106     -0.000918
      6.46901      8.65540      2.29291         0.000972     -0.000893     -0.000503
      6.62481      2.15760      8.69666        -0.001720     -0.000617      0.000498
      2.38253      6.62862      8.77918         0.002477      0.000376      0.000418
      2.20949      2.20261      4.37138        -0.002106      0.002369      0.000032
      2.19215      6.56955      4.38864        -0.001189      0.000556      0.001616
      2.12509      2.21888      2.19350        -0.000200     -0.003137     -0.000005
      2.07072      8.75659      0.02288        -0.003156      0.000586     -0.003653
      8.72371      2.04713      0.02913         0.000414      0.009035     -0.000538
      6.55810      2.15626      2.23303         0.000339     -0.001181     -0.000414
      6.61228      8.68843      8.71512        -0.000320     -0.000024      0.000136
      4.29411      8.67813      1.91932         0.001083      0.002018     -0.000128
      0.00584      4.38282      2.16835         0.001640     -0.001991     -0.000155
      4.49662      6.56744      8.60504         0.000824     -0.001818     -0.001068
      0.05994      8.75655      6.61270         0.001188      0.000114      0.003487
      6.56201      2.11133      6.54963         0.001506      0.000083      0.001173
      6.56379      0.01188      4.49277         0.001940      0.001947     -0.005088
      4.43146      2.10892      4.48782        -0.000532     -0.000662      0.000477
      4.39920      8.74433      6.65797        -0.000110      0.000014     -0.000832
      0.02156      0.03052      2.18502         0.001132     -0.001006     -0.000865
      4.38757      2.17201      8.69082        -0.000230     -0.002034     -0.001863
      2.31136      6.57813      2.19414        -0.001196     -0.002005     -0.001498
      2.14494      4.40642      0.05488         0.004177      0.000641     -0.001645
      0.00887      6.57250      0.01391         0.001630      0.001803      0.000019
      6.48232      6.46573      2.18200        -0.000800     -0.002857     -0.000486
      6.62497      4.39747      0.02184        -0.004109     -0.000200     -0.001701
      4.28728      4.46209      2.12889        -0.001586     -0.001851      0.002066
      2.25764      2.11682      6.59857        -0.001394      0.001724      0.001041
      2.26474     -0.00328      4.33924        -0.002668      0.000556     -0.001009
      8.72575      2.21731      4.40218        -0.000177     -0.000482      0.000156
      2.27626      6.63959      6.58321        -0.001521      0.000445     -0.000738
      2.15351      4.39316      4.33883         0.000807      0.001480      0.000423
      8.69097      6.52292      4.38694        -0.000561      0.001276     -0.001543
      8.75379      4.35966      6.62788        -0.000394      0.003926     -0.002894
      6.52209      6.64059      6.53096         0.000059     -0.004510     -0.000816
      6.64609      4.33654      4.36780         0.000153     -0.002651      0.000240
      4.44434      6.73954      4.38191         0.000961      0.000589      0.002017
      4.42707      4.34686      6.60569        -0.000127     -0.000888      0.001168
      4.58114      0.18623      8.68407        -0.000953     -0.000778      0.000404
      0.03416      4.63755      8.53849         0.000348      0.000113      0.001786
      4.42366      6.41835      2.48509         0.005791     -0.002831      0.002075
      2.23962      8.74400      6.51441        -0.002807      0.002072      0.004904
      4.13625     -0.01043      4.74830        -0.001991      0.002024      0.006127
      6.30948      8.54171      6.77567        -0.005122      0.000202      0.000810
      0.01640      6.58893      2.21130         0.000256      0.003865      0.001595
      6.30924      4.42085      2.14498         0.000565      0.000321     -0.001277
      0.12159      0.02279      4.26645         0.001832      0.000013     -0.001203
      4.39586      4.45297      4.41286        -0.002072      0.000819      0.001270
      6.54294      4.50137      6.62965        -0.001628      0.001045      0.000272
      6.55610      6.35822      4.35876         0.001882     -0.003515     -0.001402
 -----------------------------------------------------------------------------------
    total drift:                                0.011685     -0.004513      0.003821


--------------------------------------------------------------------------------------------------------



  FREE ENERGIE OF THE ION-ELECTRON SYSTEM (eV)
  ---------------------------------------------------
  free  energy   TOTEN  =      -623.24834080 eV

  energy  without entropy=     -623.09479707  energy(sigma->0) =     -623.17156894
 
 d Force = 0.3316702E-04[ 0.107E-04, 0.556E-04]  d Energy = 0.5046492E-04-0.173E-04
 d Force = 0.1602918E+00[ 0.160E+00, 0.161E+00]  d Ewald  = 0.4938676E+00-0.334E+00


--------------------------------------------------------------------------------------------------------


    POTLOK:  cpu time    0.0327: real time    0.0327


--------------------------------------------------------------------------------------------------------


 Conjugate gradient step on ions:
 trial-energy change:   -0.000050  1 .order   -0.000043   -0.000062   -0.000024
  (g-gl).g = 0.192E-03      g.g   = 0.202E-03  gl.gl    = 0.502E-03
 g(Force)  = 0.129E-03   g(Stress)= 0.729E-04 ortho     = 0.100E-04
 gamma     =   0.38292
 trial     =   0.30153
 opt step  =   0.48720  (harmonic =   0.48720) maximal distance =0.00041207
 next E    =  -623.248341   (d E  =  -0.00005)


--------------------------------------------------------------------------------------------------------


  
 reached required accuracy - stopping structural energy minimisation
     LOOP+:  cpu time  108.5362: real time  109.0462
    4ORBIT:  cpu time    0.0000: real time    0.0000

 total amount of memory used by VASP MPI-rank0   264566. kBytes
=======================================================================

   base      :      30000. kBytes
   nonl-proj :     185627. kBytes
   fftplans  :       1726. kBytes
   grid      :       8060. kBytes
   one-center:        995. kBytes
   wavefun   :      38158. kBytes
 
  
  
 General timing and accounting informations for this job:
 ========================================================
  
                  Total CPU time used (sec):     3390.786
                            User time (sec):     3357.994
                          System time (sec):       32.792
                         Elapsed time (sec):     3405.258
  
                   Maximum memory used (kb):      361808.
                   Average memory used (kb):           0.
  
                          Minor page faults:       606156
                          Major page faults:            0
                 Voluntary context switches:         3520
