HECN                                    
           1
     8.743293   -0.019677   -0.003546
    -0.014110    8.767405    0.006171
     0.027959   -0.009062    8.788293
   V    Nb   Zr   N    C    Cr   Mo
   7   6   7  13  19   6   6
Direct configuration=     1
   0.00354324  0.98079713  0.02598666
   0.23376323  0.97794622  0.24927301
   0.26959907  0.51807198  0.24421851
   0.50086346  0.48018771  0.98841229
   0.47860951  0.23835042  0.75448582
   0.00263212  0.49856239  0.52905366
   0.50668756  0.74991918  0.73328110
   0.99640319  0.27487885  0.25755217
   0.74434390  0.74809181  0.00029434
   0.01145338  0.23367372  0.74440823
   0.75033689  0.25858394  0.51468074
   0.00051352  0.76001846  0.74816171
   0.25433876  0.50373980  0.75379566
   0.24144012  0.24525084  0.00284083
   0.49482825  0.24169206  0.24778333
   0.74040295  0.98977543  0.26052600
   0.75517409  0.24901626  0.98958541
   0.27071469  0.75784642  0.99844980
   0.25159931  0.25236223  0.49710914
   0.25039148  0.75055702  0.49881550
   0.24268821  0.25422638  0.24935509
   0.23827435  0.99961724  0.00271569
   0.99822451  0.23502632  0.00346491
   0.74968700  0.24820108  0.25409932
   0.75466212  0.99408656  0.99117912
   0.49218378  0.99251712  0.21798851
   0.00085197  0.50017962  0.24644366
   0.51242587  0.75144894  0.97902869
   0.00673008  0.99980308  0.75097958
   0.74899887  0.24394796  0.74542110
   0.74902345  0.00410669  0.51124408
   0.50559740  0.24256363  0.51059766
   0.50254176  0.99979077  0.75692111
   0.00156148  0.00355265  0.24872209
   0.49916415  0.24982826  0.98871414
   0.26464601  0.75130803  0.24911312
   0.24624730  0.50333983  0.00563007
   0.00232015  0.75020019  0.00093854
   0.74158668  0.73991208  0.24809352
   0.75873905  0.50372478  0.00257455
   0.49032330  0.51058829  0.24213003
   0.25620872  0.24266131  0.75061360
   0.25729810  0.00056044  0.49398828
   0.99678308  0.25566859  0.50098612
   0.25922405  0.75886972  0.74851953
   0.24558738  0.50226808  0.49357072
   0.99361224  0.74719923  0.49891173
   0.99967681  0.50061884  0.75413897
   0.74483880  0.76006998  0.74296799
   0.75932914  0.49720256  0.49714356
   0.50800951  0.77071296  0.49816403
   0.50481393  0.49812893  0.75139458
   0.52117727  0.02363119  0.98845244
   0.00165387  0.53060790  0.97089048
   0.50610311  0.73348046  0.28253188
   0.25534152  0.99892178  0.74014764
   0.47115981  0.00027069  0.54030714
   0.72060375  0.97642252  0.77075370
   0.00229226  0.75209895  0.25099911
   0.72147495  0.50655320  0.24426951
   0.01250063  0.00288316  0.48520845
   0.50191488  0.50983766  0.50204348
   0.74683109  0.51646818  0.75435002
   0.74944926  0.72757205  0.49557868
HECN                                    
           1
     8.742858   -0.020604   -0.003342
    -0.015044    8.764710    0.006502
     0.028164   -0.008731    8.788442
   V    Nb   Zr   N    C    Cr   Mo
   7   6   7  13  19   6   6
Direct configuration=     2
   0.00348568  0.98082279  0.02584394
   0.23379051  0.97807378  0.24927535
   0.26955284  0.51801537  0.24423127
   0.50084496  0.48026418  0.98849343
   0.47869729  0.23849441  0.75447503
   0.00259128  0.49854299  0.52900082
   0.50666015  0.74984304  0.73331738
   0.99635205  0.27481253  0.25752604
   0.74434699  0.74811875  0.00024514
   0.01141050  0.23377580  0.74447665
   0.75034210  0.25853107  0.51462267
   0.00050876  0.76000044  0.74817142
   0.25433591  0.50372576  0.75385874
   0.24144107  0.24530590  0.00284088
   0.49482611  0.24162773  0.24782554
   0.74047257  0.98978162  0.26052867
   0.75513157  0.24902638  0.98962379
   0.27069508  0.75785557  0.99844793
   0.25157210  0.25235584  0.49715535
   0.25037354  0.75060112  0.49882181
   0.24265746  0.25420505  0.24936588
   0.23832057  0.99963484  0.00259278
   0.99820161  0.23512274  0.00349713
   0.74972373  0.24820730  0.25412116
   0.75469974  0.99410901  0.99116102
   0.49212768  0.99233173  0.21794517
   0.00083051  0.50032064  0.24642826
   0.51243138  0.75146799  0.97896682
   0.00663614  0.99979013  0.75108137
   0.74888787  0.24385319  0.74540168
   0.74901815  0.00400938  0.51133580
   0.50559854  0.24249627  0.51064527
   0.50249912  0.99978170  0.75698759
   0.00159083  0.00360736  0.24868903
   0.49916180  0.24986229  0.98871814
   0.26474184  0.75133142  0.24909904
   0.24621678  0.50333809  0.00571783
   0.00231793  0.75018195  0.00093786
   0.74163809  0.73989215  0.24808713
   0.75873601  0.50366246  0.00251562
   0.49032041  0.51058457  0.24205720
   0.25623370  0.24265717  0.75064292
   0.25730258  0.00058299  0.49394632
   0.99678115  0.25572753  0.50098028
   0.25926044  0.75891819  0.74853244
   0.24557939  0.50227149  0.49350379
   0.99359238  0.74716803  0.49890402
   0.99966213  0.50059842  0.75414351
   0.74482026  0.76010865  0.74294582
   0.75938636  0.49717598  0.49709231
   0.50799493  0.77074664  0.49822296
   0.50482770  0.49808217  0.75145298
   0.52103445  0.02356043  0.98842978
   0.00164820  0.53044613  0.97099182
   0.50614018  0.73360077  0.28242677
   0.25539571  0.99892924  0.74025137
   0.47126927  0.00028417  0.54025704
   0.72073752  0.97662506  0.77063992
   0.00228112  0.75201653  0.25104403
   0.72161466  0.50641563  0.24420814
   0.01245489  0.00287526  0.48531295
   0.50189459  0.50976053  0.50202762
   0.74682475  0.51635393  0.75432639
   0.74947676  0.72772953  0.49558332
HECN                                    
           1
     8.742543   -0.021276   -0.003193
    -0.015722    8.762756    0.006741
     0.028314   -0.008491    8.788550
   V    Nb   Zr   N    C    Cr   Mo
   7   6   7  13  19   6   6
Direct configuration=     3
   0.00344394  0.98084141  0.02574044
   0.23381031  0.97816631  0.24927704
   0.26951930  0.51797430  0.24424053
   0.50083155  0.48031965  0.98855227
   0.47876095  0.23859887  0.75446720
   0.00256166  0.49852891  0.52896250
   0.50664027  0.74978780  0.73334368
   0.99631496  0.27476441  0.25750709
   0.74434923  0.74813829  0.00020946
   0.01137942  0.23384985  0.74452627
   0.75034587  0.25849272  0.51458055
   0.00050530  0.75998736  0.74817846
   0.25433384  0.50371557  0.75390449
   0.24144177  0.24534584  0.00284092
   0.49482455  0.24158106  0.24785615
   0.74052306  0.98978611  0.26053061
   0.75510074  0.24903371  0.98965163
   0.27068086  0.75786220  0.99844657
   0.25155237  0.25235120  0.49718887
   0.25036053  0.75063311  0.49882639
   0.24263517  0.25418958  0.24937371
   0.23835409  0.99964761  0.00250365
   0.99818502  0.23519268  0.00352050
   0.74975037  0.24821181  0.25413701
   0.75472703  0.99412530  0.99114790
   0.49208697  0.99219723  0.21791375
   0.00081495  0.50042295  0.24641709
   0.51243537  0.75148180  0.97892195
   0.00656801  0.99978072  0.75115518
   0.74880735  0.24378442  0.74538760
   0.74901430  0.00393879  0.51140232
   0.50559937  0.24244740  0.51067980
   0.50246819  0.99977512  0.75703581
   0.00161212  0.00364706  0.24866504
   0.49916010  0.24988697  0.98872104
   0.26481134  0.75134840  0.24908883
   0.24619465  0.50333683  0.00578148
   0.00231632  0.75016871  0.00093737
   0.74167538  0.73987770  0.24808250
   0.75873380  0.50361724  0.00247288
   0.49031831  0.51058188  0.24200438
   0.25625181  0.24265417  0.75066417
   0.25730583  0.00059936  0.49391590
   0.99677976  0.25577030  0.50097604
   0.25928684  0.75895335  0.74854180
   0.24557360  0.50227397  0.49345525
   0.99357797  0.74714539  0.49889842
   0.99965147  0.50058361  0.75414680
   0.74480682  0.76013670  0.74292974
   0.75942786  0.49715670  0.49705515
   0.50798436  0.77077106  0.49826569
   0.50483768  0.49804824  0.75149534
   0.52093086  0.02350908  0.98841335
   0.00164407  0.53032877  0.97106532
   0.50616707  0.73368805  0.28235053
   0.25543502  0.99893465  0.74032660
   0.47134866  0.00029396  0.54022070
   0.72083456  0.97677200  0.77055739
   0.00227304  0.75195675  0.25107661
   0.72171596  0.50631585  0.24416363
   0.01242171  0.00286951  0.48538873
   0.50187988  0.50970458  0.50201611
   0.74682014  0.51627105  0.75430925
   0.74949672  0.72784377  0.49558667
HECN                                    
           1
     8.743247   -0.021223   -0.003197
    -0.015668    8.763655    0.007105
     0.028313   -0.008127    8.788108
   V    Nb   Zr   N    C    Cr   Mo
   7   6   7  13  19   6   6
Direct configuration=     4
   0.00339275  0.98079760  0.02566939
   0.23377334  0.97830237  0.24928082
   0.26954103  0.51795754  0.24426530
   0.50085429  0.48038506  0.98867508
   0.47881988  0.23879213  0.75448962
   0.00253432  0.49851082  0.52894966
   0.50666883  0.74972817  0.73334954
   0.99632698  0.27462912  0.25753787
   0.74438860  0.74812517  0.00013567
   0.01131741  0.23401939  0.74454477
   0.75038362  0.25842241  0.51455356
   0.00045687  0.75993188  0.74822943
   0.25430889  0.50367762  0.75393391
   0.24148200  0.24537894  0.00288240
   0.49477631  0.24148401  0.24789411
   0.74062844  0.98978855  0.26045281
   0.75501897  0.24895269  0.98965635
   0.27062508  0.75788975  0.99848186
   0.25154095  0.25234988  0.49722793
   0.25039808  0.75064610  0.49878786
   0.24263097  0.25413924  0.24940671
   0.23845508  0.99971828  0.00228500
   0.99816045  0.23541605  0.00352232
   0.74973204  0.24816460  0.25414899
   0.75475104  0.99416444  0.99112771
   0.49205497  0.99192658  0.21785282
   0.00078081  0.50050301  0.24638194
   0.51243387  0.75150306  0.97886067
   0.00640756  0.99980903  0.75132390
   0.74866770  0.24362652  0.74538998
   0.74900103  0.00377395  0.51150985
   0.50559616  0.24237905  0.51069356
   0.50245045  0.99973424  0.75700262
   0.00165990  0.00367903  0.24864771
   0.49911882  0.24991696  0.98878852
   0.26486622  0.75141108  0.24910973
   0.24615631  0.50335091  0.00585656
   0.00230033  0.75010438  0.00093514
   0.74175047  0.73983975  0.24803700
   0.75870907  0.50363074  0.00242205
   0.49043207  0.51059894  0.24197234
   0.25625820  0.24269482  0.75069236
   0.25738939  0.00063888  0.49388824
   0.99676655  0.25580911  0.50101222
   0.25930528  0.75897152  0.74856139
   0.24556317  0.50228788  0.49341194
   0.99361723  0.74711559  0.49892605
   0.99963759  0.50053690  0.75415693
   0.74481886  0.76016699  0.74289854
   0.75942188  0.49723768  0.49698867
   0.50798844  0.77076271  0.49820101
   0.50480712  0.49798670  0.75150348
   0.52086699  0.02344333  0.98839382
   0.00165658  0.53019346  0.97113284
   0.50621494  0.73376234  0.28237010
   0.25552397  0.99896965  0.74038688
   0.47134996  0.00032566  0.54034079
   0.72087316  0.97700266  0.77048860
   0.00230500  0.75196524  0.25104760
   0.72165898  0.50631436  0.24408702
   0.01237291  0.00294332  0.48539750
   0.50196079  0.50971146  0.50195025
   0.74682160  0.51618101  0.75427862
   0.74946981  0.72781941  0.49561219
HECN                                    
           1
     8.743454   -0.021208   -0.003198
    -0.015652    8.763919    0.007212
     0.028313   -0.008019    8.787978
   V    Nb   Zr   N    C    Cr   Mo
   7   6   7  13  19   6   6
Direct configuration=     5
   0.00337770  0.98078473  0.02564851
   0.23376248  0.97834235  0.24928193
   0.26954742  0.51795261  0.24427259
   0.50086098  0.48040427  0.98871117
   0.47883719  0.23884892  0.75449621
   0.00252628  0.49850551  0.52894588
   0.50667722  0.74971065  0.73335127
   0.99633051  0.27458937  0.25754691
   0.74440017  0.74812131  0.00011399
   0.01129919  0.23406921  0.74455021
   0.75039471  0.25840175  0.51454563
   0.00044264  0.75991558  0.74824440
   0.25430156  0.50366647  0.75394256
   0.24149382  0.24538867  0.00289459
   0.49476214  0.24145550  0.24790527
   0.74065941  0.98978927  0.26042995
   0.75499495  0.24892888  0.98965774
   0.27060870  0.75789784  0.99849223
   0.25153760  0.25234949  0.49723941
   0.25040912  0.75064992  0.49877654
   0.24262974  0.25412445  0.24941641
   0.23848475  0.99973905  0.00222074
   0.99815323  0.23548168  0.00352285
   0.74972666  0.24815073  0.25415252
   0.75475809  0.99417594  0.99112178
   0.49204557  0.99184705  0.21783492
   0.00077078  0.50052654  0.24637161
   0.51243343  0.75150931  0.97884266
   0.00636042  0.99981734  0.75137348
   0.74862666  0.24358013  0.74539069
   0.74899713  0.00372552  0.51154145
   0.50559521  0.24235897  0.51069761
   0.50244524  0.99972223  0.75699287
   0.00167394  0.00368842  0.24864261
   0.49910669  0.24992577  0.98880834
   0.26488235  0.75142950  0.24911587
   0.24614504  0.50335504  0.00587862
   0.00229564  0.75008547  0.00093448
   0.74177253  0.73982860  0.24802363
   0.75870180  0.50363470  0.00240712
   0.49046550  0.51060395  0.24196293
   0.25626008  0.24270677  0.75070064
   0.25741395  0.00065049  0.49388011
   0.99676267  0.25582051  0.50102286
   0.25931070  0.75897686  0.74856714
   0.24556010  0.50229197  0.49339922
   0.99362876  0.74710683  0.49893417
   0.99963351  0.50052318  0.75415991
   0.74482240  0.76017589  0.74288937
   0.75942012  0.49726148  0.49696913
   0.50798964  0.77076026  0.49818200
   0.50479814  0.49796862  0.75150588
   0.52084822  0.02342401  0.98838808
   0.00166026  0.53015370  0.97115268
   0.50622901  0.73378417  0.28237585
   0.25555011  0.99897993  0.74040460
   0.47135034  0.00033497  0.54037608
   0.72088450  0.97707044  0.77046838
   0.00231439  0.75196774  0.25103908
   0.72164223  0.50631393  0.24406451
   0.01235857  0.00296501  0.48540008
   0.50198457  0.50971349  0.50193089
   0.74682202  0.51615455  0.75426962
   0.74946190  0.72781225  0.49561969
HECN                                    
           1
     8.743360   -0.021215   -0.003197
    -0.015660    8.763799    0.007164
     0.028313   -0.008068    8.788037
   V    Nb   Zr   N    C    Cr   Mo
   7   6   7  13  19   6   6
Direct configuration=     6
   0.00338452  0.98079056  0.02565797
   0.23376740  0.97832422  0.24928143
   0.26954452  0.51795485  0.24426928
   0.50085795  0.48039556  0.98869481
   0.47882934  0.23882317  0.75449323
   0.00252992  0.49850792  0.52894759
   0.50667341  0.74971859  0.73335049
   0.99632891  0.27460739  0.25754281
   0.74439493  0.74812306  0.00012382
   0.01130745  0.23404662  0.74454775
   0.75038968  0.25841111  0.51454923
   0.00044909  0.75992297  0.74823761
   0.25430488  0.50367152  0.75393864
   0.24148846  0.24538426  0.00288906
   0.49476857  0.24146843  0.24790021
   0.74064537  0.98978895  0.26044031
   0.75500584  0.24893967  0.98965711
   0.27061613  0.75789417  0.99848753
   0.25153912  0.25234967  0.49723421
   0.25040411  0.75064819  0.49878167
   0.24263029  0.25413116  0.24941201
   0.23847130  0.99972964  0.00224988
   0.99815650  0.23545193  0.00352261
   0.74972910  0.24815702  0.25415092
   0.75475489  0.99417072  0.99112447
   0.49204983  0.99188311  0.21784303
   0.00077533  0.50051587  0.24637629
   0.51243363  0.75150648  0.97885083
   0.00638179  0.99981357  0.75135100
   0.74864526  0.24360116  0.74539037
   0.74899890  0.00374748  0.51152712
   0.50559564  0.24236807  0.51069577
   0.50244761  0.99972768  0.75699729
   0.00166757  0.00368416  0.24864492
   0.49911219  0.24992178  0.98879935
   0.26487504  0.75142115  0.24911308
   0.24615015  0.50335317  0.00586862
   0.00229777  0.75009404  0.00093478
   0.74176253  0.73983366  0.24802970
   0.75870510  0.50363291  0.00241389
   0.49045034  0.51060168  0.24196720
   0.25625923  0.24270135  0.75069688
   0.25740281  0.00064522  0.49388380
   0.99676443  0.25581534  0.50101804
   0.25930825  0.75897444  0.74856453
   0.24556149  0.50229012  0.49340499
   0.99362353  0.74711080  0.49893049
   0.99963536  0.50052940  0.75415856
   0.74482080  0.76017186  0.74289352
   0.75942092  0.49725069  0.49697799
   0.50798910  0.77076137  0.49819062
   0.50480221  0.49797682  0.75150479
   0.52085673  0.02343277  0.98839069
   0.00165859  0.53017173  0.97114368
   0.50622263  0.73377428  0.28237325
   0.25553826  0.99897527  0.74039657
   0.47135017  0.00033075  0.54036008
   0.72087935  0.97703971  0.77047755
   0.00231013  0.75196661  0.25104294
   0.72164982  0.50631413  0.24407472
   0.01236507  0.00295518  0.48539891
   0.50197379  0.50971257  0.50193967
   0.74682183  0.51616655  0.75427370
   0.74946549  0.72781550  0.49561629
HECN                                    
           1
     8.743413   -0.021211   -0.003197
    -0.015656    8.763866    0.007191
     0.028313   -0.008041    8.788004
   V    Nb   Zr   N    C    Cr   Mo
   7   6   7  13  19   6   6
Direct configuration=     7
   0.00338072  0.98078730  0.02565269
   0.23376465  0.97833435  0.24928171
   0.26954614  0.51795360  0.24427113
   0.50085964  0.48040043  0.98870395
   0.47883373  0.23883755  0.75449489
   0.00252789  0.49850657  0.52894664
   0.50667554  0.74971415  0.73335092
   0.99632980  0.27459732  0.25754510
   0.74439785  0.74812208  0.00011833
   0.01130283  0.23405923  0.74454912
   0.75039249  0.25840588  0.51454722
   0.00044549  0.75991884  0.74824141
   0.25430303  0.50366870  0.75394083
   0.24149146  0.24538672  0.00289215
   0.49476498  0.24146121  0.24790303
   0.74065321  0.98978913  0.26043453
   0.75499976  0.24893365  0.98965746
   0.27061198  0.75789622  0.99849015
   0.25153827  0.25234957  0.49723712
   0.25040691  0.75064916  0.49877881
   0.24262998  0.25412741  0.24941446
   0.23847881  0.99973489  0.00223361
   0.99815467  0.23546854  0.00352274
   0.74972774  0.24815351  0.25415181
   0.75475668  0.99417363  0.99112297
   0.49204745  0.99186297  0.21783850
   0.00077279  0.50052183  0.24637368
   0.51243352  0.75150806  0.97884627
   0.00636985  0.99981568  0.75136356
   0.74863488  0.24358941  0.74539055
   0.74899791  0.00373522  0.51153512
   0.50559540  0.24236299  0.51069680
   0.50244629  0.99972463  0.75699482
   0.00167113  0.00368654  0.24864363
   0.49910912  0.24992401  0.98880437
   0.26487912  0.75142581  0.24911464
   0.24614729  0.50335421  0.00587420
   0.00229658  0.75008926  0.00093461
   0.74176812  0.73983084  0.24802631
   0.75870326  0.50363391  0.00241011
   0.49045881  0.51060295  0.24196481
   0.25625971  0.24270437  0.75069898
   0.25740903  0.00064816  0.49388174
   0.99676345  0.25581823  0.50102073
   0.25930962  0.75897580  0.74856599
   0.24556071  0.50229115  0.49340176
   0.99362645  0.74710858  0.49893254
   0.99963433  0.50052593  0.75415931
   0.74482169  0.76017411  0.74289120
   0.75942047  0.49725671  0.49697304
   0.50798940  0.77076075  0.49818581
   0.50479994  0.49797224  0.75150540
   0.52085198  0.02342788  0.98838923
   0.00165952  0.53016166  0.97114871
   0.50622619  0.73377980  0.28237470
   0.25554488  0.99897788  0.74040105
   0.47135026  0.00033311  0.54036902
   0.72088223  0.97705687  0.77047243
   0.00231251  0.75196724  0.25104079
   0.72164558  0.50631402  0.24406902
   0.01236144  0.00296067  0.48539956
   0.50197981  0.50971308  0.50193477
   0.74682194  0.51615985  0.75427142
   0.74946349  0.72781368  0.49561818
HECN                                    
           1
     8.743386   -0.021213   -0.003197
    -0.015658    8.763833    0.007177
     0.028313   -0.008054    8.788020
   V    Nb   Zr   N    C    Cr   Mo
   7   6   7  13  19   6   6
Direct configuration=     8
   0.00338262  0.98078893  0.02565533
   0.23376603  0.97832928  0.24928157
   0.26954533  0.51795422  0.24427021
   0.50085879  0.48039799  0.98869938
   0.47883154  0.23883036  0.75449406
   0.00252891  0.49850725  0.52894711
   0.50667448  0.74971637  0.73335070
   0.99632936  0.27460236  0.25754396
   0.74439639  0.74812257  0.00012108
   0.01130514  0.23405293  0.74454843
   0.75039108  0.25840850  0.51454822
   0.00044729  0.75992091  0.74823951
   0.25430396  0.50367011  0.75393973
   0.24148996  0.24538549  0.00289060
   0.49476677  0.24146482  0.24790162
   0.74064929  0.98978904  0.26043742
   0.75500280  0.24893666  0.98965729
   0.27061405  0.75789520  0.99848884
   0.25153870  0.25234962  0.49723566
   0.25040551  0.75064867  0.49878024
   0.24263014  0.25412928  0.24941324
   0.23847505  0.99973226  0.00224174
   0.99815559  0.23546024  0.00352268
   0.74972842  0.24815527  0.25415137
   0.75475579  0.99417218  0.99112372
   0.49204864  0.99187304  0.21784077
   0.00077406  0.50051885  0.24637498
   0.51243358  0.75150727  0.97884855
   0.00637582  0.99981463  0.75135728
   0.74864007  0.24359529  0.74539046
   0.74899841  0.00374135  0.51153112
   0.50559552  0.24236553  0.51069629
   0.50244695  0.99972615  0.75699605
   0.00166935  0.00368535  0.24864428
   0.49911065  0.24992290  0.98880186
   0.26487708  0.75142348  0.24911386
   0.24614872  0.50335369  0.00587141
   0.00229717  0.75009165  0.00093470
   0.74176532  0.73983225  0.24802800
   0.75870418  0.50363341  0.00241200
   0.49045457  0.51060232  0.24196600
   0.25625947  0.24270286  0.75069793
   0.25740592  0.00064669  0.49388277
   0.99676394  0.25581678  0.50101938
   0.25930893  0.75897512  0.74856526
   0.24556110  0.50229063  0.49340338
   0.99362499  0.74710969  0.49893151
   0.99963484  0.50052766  0.75415894
   0.74482124  0.76017298  0.74289236
   0.75942069  0.49725370  0.49697551
   0.50798925  0.77076106  0.49818821
   0.50480107  0.49797453  0.75150510
   0.52085435  0.02343032  0.98838996
   0.00165906  0.53016669  0.97114619
   0.50622441  0.73377704  0.28237397
   0.25554157  0.99897657  0.74039881
   0.47135021  0.00033193  0.54036455
   0.72088079  0.97704829  0.77047499
   0.00231132  0.75196692  0.25104186
   0.72164770  0.50631407  0.24407187
   0.01236325  0.00295793  0.48539924
   0.50197680  0.50971282  0.50193722
   0.74682188  0.51616320  0.75427256
   0.74946449  0.72781459  0.49561723
HECN                                    
           1
     8.743399   -0.021212   -0.003197
    -0.015657    8.763849    0.007184
     0.028313   -0.008048    8.788012
   V    Nb   Zr   N    C    Cr   Mo
   7   6   7  13  19   6   6
Direct configuration=     9
   0.00338170  0.98078814  0.02565405
   0.23376536  0.97833174  0.24928164
   0.26954572  0.51795392  0.24427065
   0.50085920  0.48039917  0.98870159
   0.47883260  0.23883384  0.75449446
   0.00252841  0.49850692  0.52894688
   0.50667499  0.74971530  0.73335081
   0.99632957  0.27459992  0.25754451
   0.74439710  0.74812233  0.00011975
   0.01130402  0.23405598  0.74454877
   0.75039176  0.25840723  0.51454774
   0.00044642  0.75991991  0.74824043
   0.25430351  0.50366943  0.75394026
   0.24149069  0.24538609  0.00289135
   0.49476590  0.24146307  0.24790230
   0.74065119  0.98978908  0.26043602
   0.75500133  0.24893520  0.98965737
   0.27061305  0.75789569  0.99848947
   0.25153849  0.25234960  0.49723637
   0.25040619  0.75064891  0.49877954
   0.24263006  0.25412838  0.24941383
   0.23847687  0.99973354  0.00223780
   0.99815515  0.23546426  0.00352271
   0.74972809  0.24815442  0.25415158
   0.75475622  0.99417288  0.99112335
   0.49204807  0.99186816  0.21783967
   0.00077344  0.50052030  0.24637435
   0.51243355  0.75150765  0.97884744
   0.00637293  0.99981514  0.75136032
   0.74863755  0.24359244  0.74539050
   0.74899817  0.00373838  0.51153306
   0.50559547  0.24236430  0.51069653
   0.50244663  0.99972542  0.75699546
   0.00167021  0.00368593  0.24864397
   0.49910991  0.24992344  0.98880308
   0.26487807  0.75142461  0.24911424
   0.24614803  0.50335394  0.00587276
   0.00229688  0.75009049  0.00093466
   0.74176668  0.73983156  0.24802718
   0.75870373  0.50363365  0.00241108
   0.49045662  0.51060262  0.24196543
   0.25625958  0.24270360  0.75069844
   0.25740743  0.00064741  0.49388227
   0.99676370  0.25581748  0.50102003
   0.25930927  0.75897545  0.74856562
   0.24556091  0.50229088  0.49340259
   0.99362570  0.74710916  0.49893201
   0.99963459  0.50052682  0.75415912
   0.74482146  0.76017353  0.74289180
   0.75942059  0.49725516  0.49697431
   0.50798933  0.77076091  0.49818705
   0.50480052  0.49797342  0.75150524
   0.52085320  0.02342914  0.98838961
   0.00165928  0.53016426  0.97114741
   0.50622527  0.73377838  0.28237433
   0.25554317  0.99897721  0.74039990
   0.47135024  0.00033250  0.54036671
   0.72088149  0.97705245  0.77047375
   0.00231190  0.75196708  0.25104134
   0.72164668  0.50631404  0.24407049
   0.01236237  0.00295926  0.48539940
   0.50197826  0.50971295  0.50193603
   0.74682191  0.51616158  0.75427201
   0.74946400  0.72781415  0.49561769
HECN                                    
           1
     8.742159   -0.020685   -0.003284
    -0.015130    8.762131    0.007356
     0.028222   -0.007871    8.786511
   V    Nb   Zr   N    C    Cr   Mo
   7   6   7  13  19   6   6
Direct configuration=    10
   0.00340067  0.98072173  0.02556820
   0.23373507  0.97838017  0.24928008
   0.26967617  0.51803447  0.24432605
   0.50087525  0.48041004  0.98878361
   0.47881549  0.23904401  0.75455613
   0.00252327  0.49848241  0.52892890
   0.50677056  0.74963966  0.73335285
   0.99635155  0.27458473  0.25757297
   0.74441997  0.74811402  0.00002481
   0.01128809  0.23411571  0.74456506
   0.75041417  0.25840988  0.51450664
   0.00040479  0.75990403  0.74828524
   0.25428965  0.50367815  0.75392326
   0.24146745  0.24537817  0.00290244
   0.49476120  0.24129272  0.24793288
   0.74070953  0.98972997  0.26035280
   0.75492148  0.24888550  0.98967234
   0.27057246  0.75793674  0.99849942
   0.25152222  0.25238060  0.49729930
   0.25041864  0.75066547  0.49882973
   0.24266032  0.25406188  0.24946272
   0.23855729  0.99979274  0.00199583
   0.99814120  0.23576137  0.00350661
   0.74966672  0.24808827  0.25416775
   0.75477158  0.99416307  0.99113790
   0.49209397  0.99168164  0.21778228
   0.00076064  0.50040908  0.24633628
   0.51243177  0.75151946  0.97878286
   0.00623081  0.99989080  0.75153167
   0.74852977  0.24343356  0.74538788
   0.74901123  0.00362577  0.51157318
   0.50559819  0.24232216  0.51067991
   0.50245186  0.99969550  0.75695894
   0.00167742  0.00370852  0.24863141
   0.49907234  0.24993413  0.98889385
   0.26487679  0.75148800  0.24913062
   0.24614174  0.50338980  0.00591030
   0.00229822  0.75001203  0.00093763
   0.74183194  0.73980763  0.24797564
   0.75863430  0.50363358  0.00237657
   0.49041936  0.51059699  0.24198060
   0.25623858  0.24277787  0.75072943
   0.25744700  0.00066077  0.49387116
   0.99677146  0.25583260  0.50107595
   0.25928506  0.75895093  0.74856059
   0.24556928  0.50230454  0.49339281
   0.99367777  0.74712152  0.49895928
   0.99962002  0.50050634  0.75417255
   0.74484181  0.76020973  0.74285147
   0.75938275  0.49717154  0.49691531
   0.50802110  0.77071250  0.49813958
   0.50476959  0.49792406  0.75146485
   0.52082346  0.02338924  0.98837693
   0.00167865  0.53011173  0.97117442
   0.50628221  0.73381727  0.28237928
   0.25556531  0.99903196  0.74046631
   0.47132362  0.00038708  0.54048804
   0.72085106  0.97712157  0.77044635
   0.00236024  0.75203869  0.25098713
   0.72166476  0.50640125  0.24398220
   0.01235039  0.00304893  0.48544599
   0.50203590  0.50976984  0.50190399
   0.74680211  0.51613177  0.75425319
   0.74944307  0.72777386  0.49566018
HECN                                    
           1
     8.742445   -0.020807   -0.003264
    -0.015252    8.762527    0.007316
     0.028243   -0.007911    8.786857
   V    Nb   Zr   N    C    Cr   Mo
   7   6   7  13  19   6   6
Direct configuration=    11
   0.00339630  0.98073703  0.02558798
   0.23374205  0.97836901  0.24928044
   0.26964611  0.51801592  0.24431329
   0.50087155  0.48040753  0.98876471
   0.47881944  0.23899558  0.75454192
   0.00252445  0.49848805  0.52893304
   0.50674854  0.74965709  0.73335238
   0.99634648  0.27458823  0.25756641
   0.74441470  0.74811594  0.00004668
   0.01129176  0.23410195  0.74456131
   0.75040901  0.25840927  0.51451611
   0.00041438  0.75990769  0.74827492
   0.25429285  0.50367614  0.75392718
   0.24147281  0.24538000  0.00289988
   0.49476228  0.24133197  0.24792584
   0.74069609  0.98974359  0.26037197
   0.75493988  0.24889695  0.98966889
   0.27058181  0.75792728  0.99849713
   0.25152597  0.25237345  0.49728480
   0.25041577  0.75066166  0.49881817
   0.24265335  0.25407720  0.24945146
   0.23853876  0.99977910  0.00205158
   0.99814442  0.23569292  0.00351032
   0.74968086  0.24810351  0.25416402
   0.75476804  0.99416533  0.99113455
   0.49208339  0.99172462  0.21779550
   0.00076359  0.50043471  0.24634505
   0.51243218  0.75151674  0.97879774
   0.00626355  0.99987337  0.75149219
   0.74855460  0.24347017  0.74538848
   0.74900822  0.00365171  0.51156393
   0.50559756  0.24233187  0.51068374
   0.50245066  0.99970240  0.75696735
   0.00167576  0.00370332  0.24863430
   0.49908100  0.24993166  0.98887294
   0.26487708  0.75147339  0.24912685
   0.24614319  0.50338154  0.00590165
   0.00229791  0.75003011  0.00093695
   0.74181691  0.73981314  0.24798751
   0.75865030  0.50363359  0.00238452
   0.49042795  0.51059829  0.24197710
   0.25624342  0.24276076  0.75072229
   0.25743788  0.00065769  0.49387372
   0.99676967  0.25582912  0.50106307
   0.25929063  0.75895657  0.74856175
   0.24556736  0.50230140  0.49339506
   0.99366578  0.74711867  0.49895300
   0.99962338  0.50051106  0.75416946
   0.74483712  0.76020139  0.74286076
   0.75939147  0.49719080  0.49692890
   0.50801378  0.77072366  0.49815052
   0.50477671  0.49793543  0.75147416
   0.52083032  0.02339844  0.98837985
   0.00167419  0.53012383  0.97116819
   0.50626909  0.73380831  0.28237814
   0.25556021  0.99901935  0.74045101
   0.47132975  0.00037451  0.54046009
   0.72085807  0.97710565  0.77045267
   0.00234910  0.75202219  0.25099962
   0.72166060  0.50638116  0.24400254
   0.01235315  0.00302827  0.48543525
   0.50202262  0.50975673  0.50191137
   0.74680667  0.51613863  0.75425753
   0.74944789  0.72778314  0.49565039
HECN                                    
           1
     8.742792   -0.020646   -0.003312
    -0.015091    8.762639    0.007361
     0.028196   -0.007866    8.787208
   V    Nb   Zr   N    C    Cr   Mo
   7   6   7  13  19   6   6
Direct configuration=    12
   0.00341618  0.98070868  0.02553317
   0.23373187  0.97838907  0.24928032
   0.26970755  0.51806586  0.24434588