  64  64   0   0
  0.1129557E+02  0.8932500E-09  0.9055600E-09  0.8937200E-09  0.5000000E-15
  1.000000000000000E-004
  CAR 
 HECN                                    
     15.17469035    -59.65159599  301      8.74514968      1.00000000
    -59.652  0.0000E+00  0.0000E+00
    -59.402  0.0000E+00  0.0000E+00
    -59.153  0.0000E+00  0.0000E+00
    -58.903  0.0000E+00  0.0000E+00
    -58.654  0.0000E+00  0.0000E+00
    -58.404  0.0000E+00  0.0000E+00
    -58.155  0.0000E+00  0.0000E+00
    -57.906  0.0000E+00  0.0000E+00
    -57.656  0.0000E+00  0.0000E+00
    -57.407  0.0000E+00  0.0000E+00
    -57.157  0.0000E+00  0.0000E+00
    -56.908  0.0000E+00  0.0000E+00
    -56.659  0.3138E-09  0.7828E-10
    -56.409  0.1022E-02  0.2549E-03
    -56.160  0.1701E+00  0.4269E-01
    -55.910  0.3739E+00  0.1360E+00
    -55.661  0.1622E-01  0.1400E+00
    -55.411  0.1765E-06  0.1400E+00
    -55.162  0.0000E+00  0.1400E+00
    -54.913  0.0000E+00  0.1400E+00
    -54.663  0.0000E+00  0.1400E+00
    -54.414  0.0000E+00  0.1400E+00
    -54.164  0.0000E+00  0.1400E+00
    -53.915  0.0000E+00  0.1400E+00
    -53.665  0.0000E+00  0.1400E+00
    -53.416  0.0000E+00  0.1400E+00
    -53.167  0.0000E+00  0.1400E+00
    -52.917  0.0000E+00  0.1400E+00
    -52.668  0.0000E+00  0.1400E+00
    -52.418  0.0000E+00  0.1400E+00
    -52.169  0.0000E+00  0.1400E+00
    -51.920  0.0000E+00  0.1400E+00
    -51.670  0.0000E+00  0.1400E+00
    -51.421  0.0000E+00  0.1400E+00
    -51.171  0.0000E+00  0.1400E+00
    -50.922  0.0000E+00  0.1400E+00
    -50.672  0.0000E+00  0.1400E+00
    -50.423  0.0000E+00  0.1400E+00
    -50.174  0.0000E+00  0.1400E+00
    -49.924  0.0000E+00  0.1400E+00
    -49.675  0.0000E+00  0.1400E+00
    -49.425  0.0000E+00  0.1400E+00
    -49.176  0.0000E+00  0.1400E+00
    -48.926  0.0000E+00  0.1400E+00
    -48.677  0.0000E+00  0.1400E+00
    -48.428  0.0000E+00  0.1400E+00
    -48.178  0.0000E+00  0.1400E+00
    -47.929  0.6744E-14  0.1400E+00
    -47.679  0.5049E-05  0.1400E+00
    -47.430  0.4242E-01  0.1506E+00
    -47.181  0.1207E+00  0.1807E+00
    -46.931  0.2157E+00  0.2345E+00
    -46.682  0.9645E-01  0.2586E+00
    -46.432  0.5813E-02  0.2600E+00
    -46.183  0.2487E-07  0.2600E+00
    -45.933  0.0000E+00  0.2600E+00
    -45.684  0.0000E+00  0.2600E+00
    -45.435  0.0000E+00  0.2600E+00
    -45.185  0.0000E+00  0.2600E+00
    -44.936  0.0000E+00  0.2600E+00
    -44.686  0.0000E+00  0.2600E+00
    -44.437  0.0000E+00  0.2600E+00
    -44.187  0.0000E+00  0.2600E+00
    -43.938  0.0000E+00  0.2600E+00
    -43.689  0.0000E+00  0.2600E+00
    -43.439  0.0000E+00  0.2600E+00
    -43.190  0.0000E+00  0.2600E+00
    -42.940  0.0000E+00  0.2600E+00
    -42.691  0.0000E+00  0.2600E+00
    -42.442  0.0000E+00  0.2600E+00
    -42.192  0.0000E+00  0.2600E+00
    -41.943  0.0000E+00  0.2600E+00
    -41.693  0.0000E+00  0.2600E+00
    -41.444  0.0000E+00  0.2600E+00
    -41.194  0.0000E+00  0.2600E+00
    -40.945  0.0000E+00  0.2600E+00
    -40.696  0.0000E+00  0.2600E+00
    -40.446  0.0000E+00  0.2600E+00
    -40.197  0.0000E+00  0.2600E+00
    -39.947  0.0000E+00  0.2600E+00
    -39.698  0.0000E+00  0.2600E+00
    -39.448  0.0000E+00  0.2600E+00
    -39.199  0.0000E+00  0.2600E+00
    -38.950  0.0000E+00  0.2600E+00
    -38.700  0.0000E+00  0.2600E+00
    -38.451  0.0000E+00  0.2600E+00
    -38.201  0.0000E+00  0.2600E+00
    -37.952  0.0000E+00  0.2600E+00
    -37.703  0.0000E+00  0.2600E+00
    -37.453  0.0000E+00  0.2600E+00
    -37.204  0.0000E+00  0.2600E+00
    -36.954  0.0000E+00  0.2600E+00
    -36.705  0.0000E+00  0.2600E+00
    -36.455  0.0000E+00  0.2600E+00
    -36.206  0.0000E+00  0.2600E+00
    -35.957  0.0000E+00  0.2600E+00
    -35.707  0.0000E+00  0.2600E+00
    -35.458  0.1033E-08  0.2600E+00
    -35.208  0.1920E-02  0.2605E+00
    -34.959  0.2451E+00  0.3216E+00
    -34.710  0.1019E+01  0.5757E+00
    -34.460  0.1773E+00  0.6199E+00
    -34.211  0.2951E-03  0.6200E+00
    -33.961  0.1914E-10  0.6200E+00
    -33.712  0.0000E+00  0.6200E+00
    -33.462  0.0000E+00  0.6200E+00
    -33.213  0.0000E+00  0.6200E+00
    -32.964  0.0000E+00  0.6200E+00
    -32.714  0.0000E+00  0.6200E+00
    -32.465  0.0000E+00  0.6200E+00
    -32.215  0.0000E+00  0.6200E+00
    -31.966  0.0000E+00  0.6200E+00
    -31.716  0.0000E+00  0.6200E+00
    -31.467  0.0000E+00  0.6200E+00
    -31.218  0.0000E+00  0.6200E+00
    -30.968  0.0000E+00  0.6200E+00
    -30.719  0.4989E-11  0.6200E+00
    -30.469  0.1808E-03  0.6200E+00
    -30.220  0.1806E+00  0.6651E+00
    -29.971  0.1116E+01  0.9434E+00
    -29.721  0.3847E+00  0.1039E+01
    -29.472  0.2713E-02  0.1040E+01
    -29.222  0.1169E-08  0.1040E+01
    -28.973  0.0000E+00  0.1040E+01
    -28.723  0.0000E+00  0.1040E+01
    -28.474  0.0000E+00  0.1040E+01
    -28.225  0.0000E+00  0.1040E+01
    -27.975  0.0000E+00  0.1040E+01
    -27.726  0.0000E+00  0.1040E+01
    -27.476  0.0000E+00  0.1040E+01
    -27.227  0.0000E+00  0.1040E+01
    -26.977  0.0000E+00  0.1040E+01
    -26.728  0.0000E+00  0.1040E+01
    -26.479  0.0000E+00  0.1040E+01
    -26.229  0.0000E+00  0.1040E+01
    -25.980  0.0000E+00  0.1040E+01
    -25.730  0.0000E+00  0.1040E+01
    -25.481  0.0000E+00  0.1040E+01
    -25.232  0.0000E+00  0.1040E+01
    -24.982  0.0000E+00  0.1040E+01
    -24.733  0.0000E+00  0.1040E+01
    -24.483  0.0000E+00  0.1040E+01
    -24.234  0.3945E-15  0.1040E+01
    -23.984  0.1059E-05  0.1040E+01
    -23.735  0.3049E-01  0.1048E+01
    -23.486  0.3358E+00  0.1131E+01
    -23.236  0.4252E+00  0.1237E+01
    -22.987  0.4541E+00  0.1351E+01
    -22.737  0.1967E+00  0.1400E+01
    -22.488  0.3263E-01  0.1408E+01
    -22.238  0.2017E+00  0.1458E+01
    -21.989  0.3285E+00  0.1540E+01
    -21.740  0.2357E+00  0.1599E+01
    -21.490  0.4947E+00  0.1722E+01
    -21.241  0.2614E+00  0.1788E+01
    -20.991  0.1301E+00  0.1820E+01
    -20.742  0.1193E-03  0.1820E+01
    -20.493  0.1918E-11  0.1820E+01
    -20.243  0.0000E+00  0.1820E+01
    -19.994  0.0000E+00  0.1820E+01
    -19.744  0.0000E+00  0.1820E+01
    -19.495  0.0000E+00  0.1820E+01
    -19.245  0.0000E+00  0.1820E+01
    -18.996  0.0000E+00  0.1820E+01
    -18.747  0.0000E+00  0.1820E+01
    -18.497  0.0000E+00  0.1820E+01
    -18.248  0.0000E+00  0.1820E+01
    -17.998  0.0000E+00  0.1820E+01
    -17.749  0.0000E+00  0.1820E+01
    -17.499  0.0000E+00  0.1820E+01
    -17.250  0.0000E+00  0.1820E+01
    -17.001  0.0000E+00  0.1820E+01
    -16.751  0.0000E+00  0.1820E+01
    -16.502  0.0000E+00  0.1820E+01
    -16.252  0.0000E+00  0.1820E+01
    -16.003  0.0000E+00  0.1820E+01
    -15.754  0.0000E+00  0.1820E+01
    -15.504  0.0000E+00  0.1820E+01
    -15.255  0.0000E+00  0.1820E+01
    -15.005  0.0000E+00  0.1820E+01
    -14.756  0.0000E+00  0.1820E+01
    -14.506  0.0000E+00  0.1820E+01
    -14.257  0.0000E+00  0.1820E+01
    -14.008  0.0000E+00  0.1820E+01
    -13.758  0.0000E+00  0.1820E+01
    -13.509  0.0000E+00  0.1820E+01
    -13.259  0.0000E+00  0.1820E+01
    -13.010  0.0000E+00  0.1820E+01
    -12.760  0.0000E+00  0.1820E+01
    -12.511  0.0000E+00  0.1820E+01
    -12.262  0.0000E+00  0.1820E+01
    -12.012  0.0000E+00  0.1820E+01
    -11.763  0.0000E+00  0.1820E+01
    -11.513  0.0000E+00  0.1820E+01
    -11.264  0.0000E+00  0.1820E+01
    -11.015  0.0000E+00  0.1820E+01
    -10.765  0.0000E+00  0.1820E+01
    -10.516  0.0000E+00  0.1820E+01
    -10.266  0.0000E+00  0.1820E+01
    -10.017  0.0000E+00  0.1820E+01
     -9.767  0.0000E+00  0.1820E+01
     -9.518  0.0000E+00  0.1820E+01
     -9.269  0.0000E+00  0.1820E+01
     -9.019  0.0000E+00  0.1820E+01
     -8.770  0.0000E+00  0.1820E+01
     -8.520  0.0000E+00  0.1820E+01
     -8.271  0.0000E+00  0.1820E+01
     -8.021  0.3953E-12  0.1820E+01
     -7.772  0.1155E-04  0.1820E+01
     -7.523  0.1666E-01  0.1824E+01
     -7.273  0.6407E-01  0.1840E+01
     -7.024  0.7183E-01  0.1858E+01
     -6.774  0.8377E-01  0.1879E+01
     -6.525  0.1084E+00  0.1906E+01
     -6.276  0.1511E+00  0.1944E+01
     -6.026  0.2211E+00  0.1999E+01
     -5.777  0.1600E+00  0.2039E+01
     -5.527  0.1475E+00  0.2076E+01
     -5.278  0.1792E-01  0.2080E+01
     -5.028  0.7457E-06  0.2080E+01
     -4.779  0.1932E-15  0.2080E+01
     -4.530  0.1056E-13  0.2080E+01
     -4.280  0.1863E-05  0.2080E+01
     -4.031  0.6391E-02  0.2082E+01
     -3.781  0.5944E-01  0.2096E+01
     -3.532  0.4713E-01  0.2108E+01
     -3.282  0.1030E+00  0.2134E+01
     -3.033  0.1698E+00  0.2176E+01
     -2.784  0.2470E+00  0.2238E+01
     -2.534  0.2775E+00  0.2307E+01
     -2.285  0.2340E+00  0.2365E+01
     -2.035  0.1799E+00  0.2410E+01
     -1.786  0.1115E+00  0.2438E+01
     -1.537  0.8033E-01  0.2458E+01
     -1.287  0.7347E-02  0.2460E+01
     -1.038  0.9764E-05  0.2460E+01
     -0.788  0.5536E-12  0.2460E+01
     -0.539  0.0000E+00  0.2460E+01
     -0.289  0.0000E+00  0.2460E+01
     -0.040  0.0000E+00  0.2460E+01
      0.209  0.0000E+00  0.2460E+01
      0.459  0.1179E-09  0.2460E+01
      0.708  0.1296E-03  0.2460E+01
      0.958  0.8319E-02  0.2462E+01
      1.207  0.4147E-01  0.2472E+01
      1.457  0.9958E-01  0.2497E+01
      1.706  0.1278E+00  0.2529E+01
      1.955  0.2027E+00  0.2580E+01
      2.205  0.2738E+00  0.2648E+01
      2.454  0.3043E+00  0.2724E+01
      2.704  0.2883E+00  0.2796E+01
      2.953  0.3486E+00  0.2883E+01
      3.202  0.3286E+00  0.2965E+01
      3.452  0.4280E+00  0.3071E+01
      3.701  0.5193E+00  0.3201E+01
      3.951  0.6214E+00  0.3356E+01
      4.200  0.6380E+00  0.3515E+01
      4.450  0.6330E+00  0.3673E+01
      4.699  0.6125E+00  0.3826E+01
      4.948  0.5375E+00  0.3960E+01
      5.198  0.4004E+00  0.4060E+01
      5.447  0.3505E+00  0.4147E+01
      5.697  0.3223E+00  0.4228E+01
      5.946  0.2601E+00  0.4292E+01
      6.196  0.1850E+00  0.4339E+01
      6.445  0.1296E+00  0.4371E+01
      6.694  0.8206E-01  0.4391E+01
      6.944  0.1572E+00  0.4431E+01
      7.193  0.2277E+00  0.4487E+01
      7.443  0.1990E+00  0.4537E+01
      7.692  0.1994E+00  0.4587E+01
      7.941  0.2297E+00  0.4644E+01
      8.191  0.2866E+00  0.4715E+01
      8.440  0.3049E+00  0.4792E+01
      8.690  0.2869E+00  0.4863E+01
      8.939  0.3114E+00  0.4941E+01
      9.189  0.4034E+00  0.5041E+01
      9.438  0.5374E+00  0.5175E+01
      9.687  0.5867E+00  0.5322E+01
      9.937  0.5275E+00  0.5453E+01
     10.186  0.5242E+00  0.5584E+01
     10.436  0.4966E+00  0.5708E+01
     10.685  0.4647E+00  0.5824E+01
     10.935  0.4613E+00  0.5939E+01
     11.184  0.4490E+00  0.6051E+01
     11.433  0.4228E+00  0.6156E+01
     11.683  0.2802E+00  0.6226E+01
     11.932  0.5507E-01  0.6240E+01
     12.182  0.2484E-03  0.6240E+01
     12.431  0.6036E-10  0.6240E+01
     12.680  0.0000E+00  0.6240E+01
     12.930  0.0000E+00  0.6240E+01
     13.179  0.0000E+00  0.6240E+01
     13.429  0.0000E+00  0.6240E+01
     13.678  0.0000E+00  0.6240E+01
     13.928  0.0000E+00  0.6240E+01
     14.177  0.0000E+00  0.6240E+01
     14.426  0.0000E+00  0.6240E+01
     14.676  0.0000E+00  0.6240E+01
     14.925  0.0000E+00  0.6240E+01
     15.175  0.0000E+00  0.6240E+01
