       N       E                     dE             d eps       ncg     rms          rms(c)
DAV:   1     0.616960436662E+04    0.61696E+04   -0.20349E+05  8928   0.143E+03
DAV:   2     0.282196884541E+03   -0.58874E+04   -0.56538E+04  9024   0.597E+02
DAV:   3    -0.668618243435E+03   -0.95082E+03   -0.87979E+03 14016   0.210E+02
DAV:   4    -0.773400360622E+03   -0.10478E+03   -0.10129E+03 14904   0.857E+01
DAV:   5    -0.786617611935E+03   -0.13217E+02   -0.12876E+02 17160   0.268E+01    0.805E+01
RMM:   6    -0.964193029580E+03   -0.17758E+03   -0.26598E+03 11607   0.138E+02    0.135E+02
RMM:   7    -0.642053247948E+03    0.32214E+03   -0.26385E+02 11914   0.507E+01    0.501E+01
RMM:   8    -0.655325793716E+03   -0.13273E+02   -0.73789E+01 13741   0.162E+01    0.497E+01
RMM:   9    -0.640381900927E+03    0.14944E+02   -0.34224E+01 12685   0.145E+01    0.398E+01
RMM:  10    -0.630976135397E+03    0.94058E+01   -0.11120E+01 13470   0.831E+00    0.197E+01
RMM:  11    -0.630366964902E+03    0.60917E+00   -0.46133E+00 13810   0.492E+00    0.210E+01
RMM:  12    -0.629088728515E+03    0.12782E+01   -0.37716E+00 13078   0.448E+00    0.161E+01
RMM:  13    -0.628842513078E+03    0.24622E+00   -0.36927E+00 12849   0.421E+00    0.171E+01
RMM:  14    -0.628323321884E+03    0.51919E+00   -0.28059E+00 12772   0.376E+00    0.122E+01
RMM:  15    -0.628762936041E+03   -0.43961E+00   -0.25727E+00 12904   0.317E+00    0.159E+01
RMM:  16    -0.627945808595E+03    0.81713E+00   -0.11338E+00 12287   0.267E+00    0.829E+00
RMM:  17    -0.628183044331E+03   -0.23724E+00   -0.64605E-01 12340   0.216E+00    0.116E+01
RMM:  18    -0.627699080194E+03    0.48396E+00   -0.40226E-01 12122   0.168E+00    0.542E+00
RMM:  19    -0.627585946501E+03    0.11313E+00   -0.28467E-01 13176   0.119E+00    0.343E+00
RMM:  20    -0.627651166351E+03   -0.65220E-01   -0.25171E-01 12902   0.106E+00    0.594E+00
RMM:  21    -0.627547958751E+03    0.10321E+00   -0.13512E-01 12885   0.895E-01    0.145E+00
RMM:  22    -0.627551284982E+03   -0.33262E-02   -0.79566E-02 12654   0.516E-01    0.194E+00
RMM:  23    -0.627542223207E+03    0.90618E-02   -0.40078E-02 12608   0.448E-01    0.141E+00
RMM:  24    -0.627545194636E+03   -0.29714E-02   -0.24322E-02 12774   0.345E-01    0.155E+00
RMM:  25    -0.627540282374E+03    0.49123E-02   -0.17522E-02 12708   0.270E-01    0.971E-01
RMM:  26    -0.627535346892E+03    0.49355E-02   -0.11753E-02 12936   0.190E-01    0.234E-01
RMM:  27    -0.627535757348E+03   -0.41046E-03   -0.69165E-03 12698   0.125E-01    0.297E-01
RMM:  28    -0.627535534330E+03    0.22302E-03   -0.36835E-03 11981   0.924E-02    0.885E-02
RMM:  29    -0.627535636809E+03   -0.10248E-03   -0.17780E-03 12253   0.640E-02    0.641E-02
RMM:  30    -0.627535710772E+03   -0.73963E-04   -0.13025E-03 10361   0.456E-02    0.547E-02
RMM:  31    -0.627535731829E+03   -0.21057E-04   -0.48838E-04  9187   0.380E-02    0.339E-02
RMM:  32    -0.627535778024E+03   -0.46195E-04   -0.58845E-04  7943   0.255E-02    0.117E-02
RMM:  33    -0.627535789114E+03   -0.11091E-04   -0.14686E-04  7267   0.236E-02    0.515E-03
RMM:  34    -0.627535804243E+03   -0.15129E-04   -0.15449E-04  7379   0.167E-02    0.347E-03
RMM:  35    -0.627535809136E+03   -0.48930E-05   -0.52222E-05  6882   0.146E-02
   1 F= -.62753581E+03 E0= -.62740217E+03  d E =-.627536E+03
       N       E                     dE             d eps       ncg     rms          rms(c)
DAV:   1    -0.778902552441E+03   -0.15137E+03   -0.46384E+03 12432   0.332E+02    0.916E+01
RMM:   2    -0.901617622079E+03   -0.12272E+03   -0.18415E+03  9979   0.168E+02    0.106E+02
RMM:   3    -0.665196675863E+03    0.23642E+03   -0.14415E+02 11725   0.428E+01    0.588E+01
RMM:   4    -0.646891513168E+03    0.18305E+02   -0.56556E+01 12019   0.228E+01    0.343E+01
RMM:   5    -0.638902731389E+03    0.79888E+01   -0.62435E+01 11467   0.258E+01    0.410E+01
RMM:   6    -0.628374026617E+03    0.10529E+02   -0.16600E+01 11425   0.136E+01    0.207E+01
RMM:   7    -0.628812241646E+03   -0.43822E+00   -0.80366E+00 11304   0.901E+00    0.247E+01
RMM:   8    -0.625112893922E+03    0.36993E+01   -0.36804E+00 11635   0.586E+00    0.904E+00
RMM:   9    -0.625146777192E+03   -0.33883E-01   -0.20606E+00 13130   0.307E+00    0.885E+00
RMM:  10    -0.624858189806E+03    0.28859E+00   -0.88746E-01 12828   0.276E+00    0.561E+00
RMM:  11    -0.624835705109E+03    0.22485E-01   -0.43911E-01 13672   0.179E+00    0.445E+00
RMM:  12    -0.624834369864E+03    0.13352E-02   -0.27880E-01 14104   0.129E+00    0.375E+00
RMM:  13    -0.624834980450E+03   -0.61059E-03   -0.15446E-01 13284   0.124E+00    0.340E+00
RMM:  14    -0.624858874594E+03   -0.23894E-01   -0.16311E-01 13952   0.105E+00    0.291E+00
RMM:  15    -0.624854208439E+03    0.46662E-02   -0.11897E-01 13579   0.104E+00    0.245E+00
RMM:  16    -0.624847402247E+03    0.68062E-02   -0.81841E-02 13996   0.808E-01    0.160E+00
RMM:  17    -0.624841679950E+03    0.57223E-02   -0.58558E-02 14276   0.558E-01    0.752E-01
RMM:  18    -0.624846119152E+03   -0.44392E-02   -0.36820E-02 14471   0.463E-01    0.925E-01
RMM:  19    -0.624842818317E+03    0.33008E-02   -0.24407E-02 14449   0.361E-01    0.325E-01
RMM:  20    -0.624843874376E+03   -0.10561E-02   -0.14309E-02 14595   0.274E-01    0.333E-01
RMM:  21    -0.624843636369E+03    0.23801E-03   -0.79456E-03 14259   0.217E-01    0.119E-01
RMM:  22    -0.624844112798E+03   -0.47643E-03   -0.52924E-03 13927   0.156E-01    0.121E-01
RMM:  23    -0.624844337794E+03   -0.22500E-03   -0.33468E-03 13321   0.126E-01    0.626E-02
RMM:  24    -0.624844520025E+03   -0.18223E-03   -0.21041E-03 12840   0.950E-02    0.301E-02
RMM:  25    -0.624844644385E+03   -0.12436E-03   -0.13544E-03 12283   0.807E-02    0.388E-02
RMM:  26    -0.624844722607E+03   -0.78222E-04   -0.94043E-04 11868   0.581E-02    0.256E-02
RMM:  27    -0.624844772999E+03   -0.50392E-04   -0.49698E-04 11896   0.505E-02    0.105E-02
RMM:  28    -0.624844804245E+03   -0.31246E-04   -0.37124E-04 11130   0.401E-02    0.213E-02
RMM:  29    -0.624844827366E+03   -0.23122E-04   -0.21536E-04 11022   0.329E-02    0.421E-03
RMM:  30    -0.624844843448E+03   -0.16081E-04   -0.15277E-04 10436   0.269E-02    0.349E-03
RMM:  31    -0.624844853498E+03   -0.10050E-04   -0.96021E-05  9861   0.224E-02    0.179E-03
RMM:  32    -0.624844859960E+03   -0.64615E-05   -0.62019E-05  8876   0.194E-02
   2 F= -.62484486E+03 E0= -.62475296E+03  d E =0.269095E+01
       N       E                     dE             d eps       ncg     rms          rms(c)
DAV:   1    -0.697962981132E+03   -0.73118E+02   -0.14506E+03 12072   0.170E+02    0.865E+01
RMM:   2    -0.102085946855E+04   -0.32290E+03   -0.53890E+02 12027   0.633E+01    0.101E+02
RMM:   3    -0.670752134909E+03    0.35011E+03   -0.17130E+02 11542   0.499E+01    0.468E+01
RMM:   4    -0.652196932700E+03    0.18555E+02   -0.77447E+01 11324   0.296E+01    0.442E+01
RMM:   5    -0.637178667824E+03    0.15018E+02   -0.23290E+01 12029   0.133E+01    0.260E+01
RMM:   6    -0.637244110055E+03   -0.65442E-01   -0.11364E+01 11507   0.929E+00    0.267E+01
RMM:   7    -0.634787219255E+03    0.24569E+01   -0.52836E+00 11173   0.706E+00    0.186E+01
RMM:   8    -0.633610239630E+03    0.11770E+01   -0.25458E+00 11727   0.460E+00    0.124E+01
RMM:   9    -0.633303479602E+03    0.30676E+00   -0.15467E+00 11606   0.407E+00    0.132E+01
RMM:  10    -0.632742636542E+03    0.56084E+00   -0.90358E-01 12487   0.252E+00    0.711E+00
RMM:  11    -0.632712326853E+03    0.30310E-01   -0.50734E-01 12563   0.200E+00    0.702E+00
RMM:  12    -0.632490201127E+03    0.22213E+00   -0.31745E-01 13037   0.157E+00    0.339E+00
RMM:  13    -0.632495024067E+03   -0.48229E-02   -0.16361E-01 13737   0.110E+00    0.342E+00
RMM:  14    -0.632492894012E+03    0.21301E-02   -0.12092E-01 13842   0.820E-01    0.257E+00
RMM:  15    -0.632467751873E+03    0.25142E-01   -0.62447E-02 14313   0.607E-01    0.107E+00
RMM:  16    -0.632478142282E+03   -0.10390E-01   -0.51056E-02 14105   0.500E-01    0.152E+00
RMM:  17    -0.632475101654E+03    0.30406E-02   -0.34849E-02 14077   0.427E-01    0.977E-01
RMM:  18    -0.632491071777E+03   -0.15970E-01   -0.32949E-02 13448   0.489E-01    0.181E+00
RMM:  19    -0.632484014410E+03    0.70574E-02   -0.34968E-02 13491   0.461E-01    0.599E-01
RMM:  20    -0.632484333039E+03   -0.31863E-03   -0.17734E-02 13854   0.303E-01    0.803E-01
RMM:  21    -0.632481812355E+03    0.25207E-02   -0.10809E-02 13795   0.248E-01    0.485E-01
RMM:  22    -0.632480656070E+03    0.11563E-02   -0.11834E-02 13524   0.267E-01    0.221E-01
RMM:  23    -0.632481209359E+03   -0.55329E-03   -0.67431E-03 13132   0.170E-01    0.203E-01
RMM:  24    -0.632481165722E+03    0.43638E-04   -0.31954E-03 11402   0.158E-01    0.124E-01
RMM:  25    -0.632481194681E+03   -0.28959E-04   -0.20477E-03 12755   0.899E-02    0.686E-02
RMM:  26    -0.632481284476E+03   -0.89795E-04   -0.12519E-03 12009   0.657E-02    0.571E-02
RMM:  27    -0.632481322458E+03   -0.37982E-04   -0.63128E-04 11742   0.533E-02    0.384E-02
RMM:  28    -0.632481351869E+03   -0.29411E-04   -0.44698E-04 11341   0.412E-02    0.157E-02
RMM:  29    -0.632481369896E+03   -0.18027E-04   -0.24397E-04 10682   0.386E-02    0.838E-03
RMM:  30    -0.632481391035E+03   -0.21139E-04   -0.22488E-04 10279   0.263E-02    0.730E-03
RMM:  31    -0.632481400160E+03   -0.91251E-05   -0.11696E-04  9750   0.227E-02    0.376E-03
RMM:  32    -0.632481405301E+03   -0.51416E-05   -0.70927E-05  8938   0.194E-02
   3 F= -.63248141E+03 E0= -.63236896E+03  d E =-.494560E+01
       N       E                     dE             d eps       ncg     rms          rms(c)
DAV:   1    -0.626446618616E+03    0.60348E+01   -0.82378E+02  9576   0.124E+02    0.657E+00
RMM:   2    -0.640667341841E+03   -0.14221E+02   -0.10099E+02 12620   0.310E+01    0.279E+01
RMM:   3    -0.635775932865E+03    0.48914E+01   -0.87073E+00 11633   0.102E+01    0.898E+00
RMM:   4    -0.635640559670E+03    0.13537E+00   -0.26401E+00 12043   0.434E+00    0.834E+00
RMM:   5    -0.635501032735E+03    0.13953E+00   -0.74510E-01 11700   0.256E+00    0.663E+00
RMM:   6    -0.635300946644E+03    0.20009E+00   -0.39736E-01 12214   0.153E+00    0.395E+00
RMM:   7    -0.635308678830E+03   -0.77322E-02   -0.26525E-01 12223   0.113E+00    0.448E+00
RMM:   8    -0.635332809389E+03   -0.24131E-01   -0.22523E-01 11666   0.129E+00    0.508E+00
RMM:   9    -0.635184311574E+03    0.14850E+00   -0.15088E-01 11603   0.115E+00    0.170E+00
RMM:  10    -0.635204563413E+03   -0.20252E-01   -0.87089E-02 12456   0.634E-01    0.260E+00
RMM:  11    -0.635187257646E+03    0.17306E-01   -0.36717E-02 11586   0.562E-01    0.169E+00
RMM:  12    -0.635174010799E+03    0.13247E-01   -0.21843E-02 12379   0.341E-01    0.626E-01
RMM:  13    -0.635174574031E+03   -0.56323E-03   -0.13297E-02 12542   0.231E-01    0.689E-01
RMM:  14    -0.635172342130E+03    0.22319E-02   -0.66644E-03 12465   0.157E-01    0.226E-01
RMM:  15    -0.635172820376E+03   -0.47825E-03   -0.41033E-03 12497   0.114E-01    0.359E-01
RMM:  16    -0.635172377067E+03    0.44331E-03   -0.18901E-03 11993   0.865E-02    0.189E-01
RMM:  17    -0.635172580184E+03   -0.20312E-03   -0.10917E-03 11142   0.667E-02    0.238E-01
RMM:  18    -0.635172347863E+03    0.23232E-03   -0.56026E-04 10701   0.476E-02    0.577E-02
RMM:  19    -0.635172384585E+03   -0.36722E-04   -0.38565E-04  9260   0.332E-02    0.658E-02
RMM:  20    -0.635172375053E+03    0.95320E-05   -0.19108E-04  8256   0.288E-02    0.270E-02
RMM:  21    -0.635172385566E+03   -0.10513E-04   -0.11643E-04  6904   0.221E-02    0.315E-02
RMM:  22    -0.635172384362E+03    0.12034E-05   -0.60026E-05  6503   0.195E-02
   4 F= -.63517238E+03 E0= -.63506836E+03  d E =-.269098E+01
       N       E                     dE             d eps       ncg     rms          rms(c)
DAV:   1    -0.635020112156E+03    0.15227E+00   -0.18394E+01  9456   0.187E+01    0.977E-01
RMM:   2    -0.635350766443E+03   -0.33065E+00   -0.22705E+00 12496   0.468E+00    0.491E+00
RMM:   3    -0.635233797743E+03    0.11697E+00   -0.19315E-01 11598   0.155E+00    0.174E+00
RMM:   4    -0.635226595118E+03    0.72026E-02   -0.60172E-02 11898   0.677E-01    0.125E+00
RMM:   5    -0.635222676020E+03    0.39191E-02   -0.18322E-02 11880   0.388E-01    0.887E-01
RMM:   6    -0.635218895013E+03    0.37810E-02   -0.86891E-03 11839   0.223E-01    0.615E-01
RMM:   7    -0.635218554261E+03    0.34075E-03   -0.53524E-03 11710   0.174E-01    0.630E-01
RMM:   8    -0.635219821922E+03   -0.12677E-02   -0.51399E-03 11307   0.200E-01    0.845E-01
RMM:   9    -0.635217304137E+03    0.25178E-02   -0.31815E-03 11074   0.176E-01    0.540E-01
RMM:  10    -0.635216111770E+03    0.11924E-02   -0.17702E-03 10960   0.118E-01    0.219E-01
RMM:  11    -0.635216319632E+03   -0.20786E-03   -0.12598E-03 11078   0.809E-02    0.292E-01
RMM:  12    -0.635215984282E+03    0.33535E-03   -0.51562E-04  9266   0.663E-02    0.135E-01
RMM:  13    -0.635215934219E+03    0.50062E-04   -0.33189E-04  9414   0.386E-02    0.796E-02
RMM:  14    -0.635215903731E+03    0.30489E-04   -0.17061E-04  7915   0.269E-02    0.357E-02
RMM:  15    -0.635215920945E+03   -0.17214E-04   -0.82705E-05  6726   0.220E-02    0.638E-02
RMM:  16    -0.635215909152E+03    0.11793E-04   -0.46558E-05  6210   0.219E-02    0.387E-02
RMM:  17    -0.635215906718E+03    0.24341E-05   -0.29872E-05  6067   0.163E-02
   5 F= -.63521591E+03 E0= -.63511318E+03  d E =-.273450E+01
       N       E                     dE             d eps       ncg     rms          rms(c)
DAV:   1    -0.632499686640E+03    0.27162E+01   -0.27824E+02 12072   0.103E+02    0.131E+01
RMM:   2    -0.653174138507E+03   -0.20674E+02   -0.72608E+01 12249   0.255E+01    0.380E+01
RMM:   3    -0.637323163622E+03    0.15851E+02   -0.10138E+01 10788   0.129E+01    0.141E+01
RMM:   4    -0.636691850940E+03    0.63131E+00   -0.33077E+00 11943   0.483E+00    0.106E+01
RMM:   5    -0.636334322577E+03    0.35753E+00   -0.91393E-01 11321   0.322E+00    0.841E+00
RMM:   6    -0.636021500275E+03    0.31282E+00   -0.41713E-01 11575   0.206E+00    0.466E+00
RMM:   7    -0.636007467435E+03    0.14033E-01   -0.24984E-01 11975   0.128E+00    0.451E+00
RMM:   8    -0.635964141061E+03    0.43326E-01   -0.15164E-01 11676   0.115E+00    0.385E+00
RMM:   9    -0.635906113313E+03    0.58028E-01   -0.94299E-02 11938   0.927E-01    0.213E+00
RMM:  10    -0.635931511156E+03   -0.25398E-01   -0.73201E-02 12518   0.793E-01    0.325E+00
RMM:  11    -0.635886805313E+03    0.44706E-01   -0.34694E-02 12157   0.617E-01    0.121E+00
RMM:  12    -0.635884795120E+03    0.20102E-02   -0.25253E-02 13699   0.372E-01    0.906E-01
RMM:  13    -0.635881826130E+03    0.29690E-02   -0.12971E-02 13898   0.267E-01    0.562E-01
RMM:  14    -0.635881855791E+03   -0.29660E-04   -0.79748E-03 13430   0.187E-01    0.455E-01
RMM:  15    -0.635881592034E+03    0.26376E-03   -0.40217E-03 13670   0.133E-01    0.241E-01
RMM:  16    -0.635881823891E+03   -0.23186E-03   -0.24975E-03 13679   0.101E-01    0.240E-01
RMM:  17    -0.635882201517E+03   -0.37763E-03   -0.16566E-03 13365   0.101E-01    0.295E-01
RMM:  18    -0.635882044739E+03    0.15678E-03   -0.12494E-03 13189   0.886E-02    0.164E-01
RMM:  19    -0.635882208468E+03   -0.16373E-03   -0.10536E-03 13225   0.764E-02    0.148E-01
RMM:  20    -0.635882081230E+03    0.12724E-03   -0.70977E-04 12810   0.639E-02    0.475E-02
RMM:  21    -0.635882102727E+03   -0.21498E-04   -0.43160E-04 12072   0.431E-02    0.326E-02
RMM:  22    -0.635882118737E+03   -0.16009E-04   -0.24461E-04 11293   0.384E-02    0.318E-02
RMM:  23    -0.635882126647E+03   -0.79103E-05   -0.16872E-04 10591   0.281E-02    0.185E-02
RMM:  24    -0.635882134677E+03   -0.80299E-05   -0.10607E-04  9451   0.232E-02    0.168E-02
RMM:  25    -0.635882138653E+03   -0.39765E-05   -0.68444E-05  8806   0.196E-02
   6 F= -.63588214E+03 E0= -.63578449E+03  d E =-.666232E+00
       N       E                     dE             d eps       ncg     rms          rms(c)
DAV:   1    -0.635839538153E+03    0.42597E-01   -0.34891E+00 12336   0.119E+01    0.144E+00
RMM:   2    -0.636122190483E+03   -0.28265E+00   -0.10135E+00 11736   0.322E+00    0.547E+00
RMM:   3    -0.635953851776E+03    0.16834E+00   -0.15907E-01 10753   0.154E+00    0.359E+00
RMM:   4    -0.635903103663E+03    0.50748E-01   -0.49788E-02 11295   0.727E-01    0.152E+00
RMM:   5    -0.635895427702E+03    0.76760E-02   -0.17311E-02 11654   0.382E-01    0.899E-01
RMM:   6    -0.635895215063E+03    0.21264E-03   -0.74454E-03 11481   0.252E-01    0.993E-01
RMM:   7    -0.635890920112E+03    0.42950E-02   -0.33427E-03 11162   0.187E-01    0.425E-01
RMM:   8    -0.635891172546E+03   -0.25243E-03   -0.27065E-03 11706   0.137E-01    0.480E-01
RMM:   9    -0.635890876750E+03    0.29580E-03   -0.18532E-03 11433   0.140E-01    0.466E-01
RMM:  10    -0.635889952162E+03    0.92459E-03   -0.11292E-03 11737   0.106E-01    0.180E-01
RMM:  11    -0.635889999737E+03   -0.47575E-04   -0.70326E-04 12166   0.651E-02    0.222E-01
RMM:  12    -0.635889783788E+03    0.21595E-03   -0.28053E-04 10393   0.529E-02    0.838E-02
RMM:  13    -0.635889792363E+03   -0.85753E-05   -0.20292E-04 10819   0.318E-02    0.739E-02
RMM:  14    -0.635889766553E+03    0.25810E-04   -0.93203E-05  8634   0.240E-02    0.305E-02
RMM:  15    -0.635889773864E+03   -0.73105E-05   -0.62244E-05  7533   0.195E-02
   7 F= -.63588977E+03 E0= -.63579256E+03  d E =-.673867E+00
       N       E                     dE             d eps       ncg     rms          rms(c)
DAV:   1    -0.631377540335E+03    0.45122E+01   -0.28391E+02 11928   0.113E+02    0.118E+01
RMM:   2    -0.651490638530E+03   -0.20113E+02   -0.87688E+01 10859   0.323E+01    0.386E+01
RMM:   3    -0.638349048594E+03    0.13142E+02   -0.12016E+01 11163   0.127E+01    0.184E+01
RMM:   4    -0.636587444343E+03    0.17616E+01   -0.36647E+00 12258   0.518E+00    0.655E+00
RMM:   5    -0.636601224781E+03   -0.13780E-01   -0.69217E-01 11845   0.257E+00    0.775E+00
RMM:   6    -0.636257754782E+03    0.34347E+00   -0.37136E-01 11510   0.188E+00    0.353E+00
RMM:   7    -0.636255995441E+03    0.17593E-02   -0.25491E-01 12201   0.131E+00    0.371E+00
RMM:   8    -0.636339259234E+03   -0.83264E-01   -0.20554E-01 10880   0.155E+00    0.600E+00
RMM:   9    -0.636164831037E+03    0.17443E+00   -0.11823E-01 11656   0.118E+00    0.196E+00
RMM:  10    -0.636155966083E+03    0.88650E-02   -0.52364E-02 13118   0.555E-01    0.127E+00
RMM:  11    -0.636151736651E+03    0.42294E-02   -0.23418E-02 13317   0.382E-01    0.776E-01
RMM:  12    -0.636149432124E+03    0.23045E-02   -0.11312E-02 14234   0.223E-01    0.389E-01
RMM:  13    -0.636150397482E+03   -0.96536E-03   -0.62563E-03 13495   0.195E-01    0.505E-01
RMM:  14    -0.636150046274E+03    0.35121E-03   -0.39720E-03 13795   0.140E-01    0.282E-01
RMM:  15    -0.636150335448E+03   -0.28917E-03   -0.23062E-03 13980   0.110E-01    0.264E-01
RMM:  16    -0.636150828204E+03   -0.49276E-03   -0.18231E-03 13612   0.102E-01    0.309E-01
RMM:  17    -0.636150723530E+03    0.10467E-03   -0.11171E-03 12510   0.101E-01    0.186E-01
RMM:  18    -0.636150828536E+03   -0.10501E-03   -0.11160E-03 13371   0.772E-02    0.116E-01
RMM:  19    -0.636150823312E+03    0.52234E-05   -0.69004E-04 12951   0.708E-02    0.793E-02
RMM:  20    -0.636150818216E+03    0.50958E-05   -0.49180E-04 12334   0.468E-02    0.347E-02
RMM:  21    -0.636150843182E+03   -0.24965E-04   -0.25113E-04 11845   0.421E-02    0.356E-02
RMM:  22    -0.636150856088E+03   -0.12906E-04   -0.21382E-04 10864   0.287E-02    0.179E-02
RMM:  23    -0.636150866014E+03   -0.99262E-05   -0.97172E-05  9988   0.259E-02
   8 F= -.63615087E+03 E0= -.63606264E+03  d E =-.261092E+00
       N       E                     dE             d eps       ncg     rms          rms(c)
DAV:   1    -0.635849104146E+03    0.30175E+00   -0.21642E+01 11976   0.310E+01    0.348E+00
RMM:   2    -0.637650250838E+03   -0.18011E+01   -0.63325E+00 11926   0.781E+00    0.134E+01
RMM:   3    -0.636477494098E+03    0.11728E+01   -0.96218E-01 10658   0.387E+00    0.703E+00
RMM:   4    -0.636260468457E+03    0.21703E+00   -0.28859E-01 11631   0.171E+00    0.313E+00
RMM:   5    -0.636230476438E+03    0.29992E-01   -0.91741E-02 12038   0.843E-01    0.193E+00
RMM:   6    -0.636217129573E+03    0.13347E-01   -0.43449E-02 11961   0.542E-01    0.167E+00
RMM:   7    -0.636205352027E+03    0.11778E-01   -0.14500E-02 11199   0.410E-01    0.991E-01
RMM:   8    -0.636209630953E+03   -0.42789E-02   -0.14342E-02 11734   0.359E-01    0.131E+00
RMM:   9    -0.636203256756E+03    0.63742E-02   -0.93015E-03 11613   0.311E-01    0.839E-01
RMM:  10    -0.636200281399E+03    0.29754E-02   -0.49761E-03 11865   0.234E-01    0.420E-01
RMM:  11    -0.636199598832E+03    0.68257E-03   -0.31094E-03 13307   0.133E-01    0.264E-01
RMM:  12    -0.636199402790E+03    0.19604E-03   -0.11948E-03 12807   0.884E-02    0.189E-01
RMM:  13    -0.636199365519E+03    0.37271E-04   -0.71520E-04 12608   0.611E-02    0.139E-01
RMM:  14    -0.636199298308E+03    0.67210E-04   -0.34413E-04 12141   0.433E-02    0.676E-02
RMM:  15    -0.636199326222E+03   -0.27914E-04   -0.24149E-04 11058   0.306E-02    0.731E-02
RMM:  16    -0.636199335709E+03   -0.94866E-05   -0.11882E-04  9716   0.310E-02    0.705E-02
RMM:  17    -0.636199352935E+03   -0.17226E-04   -0.12561E-04 10205   0.307E-02    0.621E-02
RMM:  18    -0.636199338501E+03    0.14434E-04   -0.91848E-05 10282   0.255E-02    0.282E-02
RMM:  19    -0.636199344821E+03   -0.63192E-05   -0.73388E-05  9080   0.223E-02
   9 F= -.63619934E+03 E0= -.63610883E+03  d E =-.309571E+00
       N       E                     dE             d eps       ncg     rms          rms(c)
DAV:   1    -0.633630321400E+03    0.25690E+01   -0.11594E+02  9072   0.693E+01    0.299E+00
RMM:   2    -0.636629185521E+03   -0.29989E+01   -0.28869E+01 13291   0.144E+01    0.644E+00
RMM:   3    -0.636659465270E+03   -0.30280E-01   -0.19729E+00 10634   0.578E+00    0.696E+00
RMM:   4    -0.636542614838E+03    0.11685E+00   -0.58156E-01 11615   0.227E+00    0.301E+00
RMM:   5    -0.636518373278E+03    0.24242E-01   -0.14838E-01 12137   0.112E+00    0.283E+00
RMM:   6    -0.636483084684E+03    0.35289E-01   -0.52090E-02 12388   0.602E-01    0.107E+00
RMM:   7    -0.636485127088E+03   -0.20424E-02   -0.32194E-02 12770   0.360E-01    0.125E+00
RMM:   8    -0.636483858990E+03    0.12681E-02   -0.23934E-02 11751   0.433E-01    0.146E+00
RMM:   9    -0.636475495581E+03    0.83634E-02   -0.16405E-02 12009   0.333E-01    0.767E-01
RMM:  10    -0.636474805855E+03    0.68973E-03   -0.10548E-02 12287   0.225E-01    0.653E-01
RMM:  11    -0.636473055721E+03    0.17501E-02   -0.48443E-03 11852   0.181E-01    0.332E-01
RMM:  12    -0.636472904361E+03    0.15136E-03   -0.24575E-03 12274   0.115E-01    0.295E-01
RMM:  13    -0.636472510228E+03    0.39413E-03   -0.12318E-03 11509   0.840E-02    0.141E-01
RMM:  14    -0.636472564395E+03   -0.54167E-04   -0.82142E-04 11812   0.587E-02    0.135E-01
RMM:  15    -0.636472490192E+03    0.74203E-04   -0.44332E-04 11690   0.447E-02    0.738E-02
RMM:  16    -0.636472509444E+03   -0.19252E-04   -0.22756E-04  9210   0.362E-02    0.843E-02
RMM:  17    -0.636472503379E+03    0.60655E-05   -0.13451E-04  8311   0.317E-02    0.573E-02
RMM:  18    -0.636472492502E+03    0.10877E-04   -0.79265E-05  7318   0.221E-02    0.260E-02
RMM:  19    -0.636472490809E+03    0.16928E-05   -0.52100E-05  6662   0.187E-02
  10 F= -.63647249E+03 E0= -.63638498E+03  d E =-.273146E+00
       N       E                     dE             d eps       ncg     rms          rms(c)
DAV:   1    -0.635176502135E+03    0.12960E+01   -0.54587E+01  9096   0.478E+01    0.208E+00
RMM:   2    -0.636634521854E+03   -0.14580E+01   -0.13777E+01 13283   0.995E+00    0.498E+00
RMM:   3    -0.636616437768E+03    0.18084E-01   -0.96855E-01 10630   0.403E+00    0.469E+00
RMM:   4    -0.636562920896E+03    0.53517E-01   -0.28040E-01 11551   0.159E+00    0.199E+00
RMM:   5    -0.636551827261E+03    0.11094E-01   -0.73824E-02 12090   0.807E-01    0.187E+00
RMM:   6    -0.636536708187E+03    0.15119E-01   -0.25245E-02 12277   0.422E-01    0.792E-01
RMM:   7    -0.636537506965E+03   -0.79878E-03   -0.15352E-02 12695   0.259E-01    0.873E-01
RMM:   8    -0.636537417895E+03    0.89070E-04   -0.12250E-02 11660   0.308E-01    0.101E+00
RMM:   9    -0.636532612607E+03    0.48053E-02   -0.84779E-03 12000   0.237E-01    0.467E-01
RMM:  10    -0.636532940666E+03   -0.32806E-03   -0.48303E-03 12074   0.166E-01    0.528E-01
RMM:  11    -0.636531792139E+03    0.11485E-02   -0.23495E-03 11612   0.124E-01    0.230E-01
RMM:  12    -0.636531811748E+03   -0.19609E-04   -0.13542E-03 11591   0.837E-02    0.235E-01
RMM:  13    -0.636531568712E+03    0.24304E-03   -0.67101E-04 10861   0.653E-02    0.100E-01
RMM:  14    -0.636531567988E+03    0.72361E-06   -0.43265E-04 10799   0.393E-02    0.749E-02
RMM:  15    -0.636531579806E+03   -0.11818E-04   -0.22755E-04  9002   0.360E-02    0.843E-02
RMM:  16    -0.636531553001E+03    0.26805E-04   -0.11357E-04  7638   0.274E-02    0.349E-02
RMM:  17    -0.636531557241E+03   -0.42400E-05   -0.72242E-05  6943   0.230E-02
  11 F= -.63653156E+03 E0= -.63644668E+03  d E =-.332212E+00
       N       E                     dE             d eps       ncg     rms          rms(c)
DAV:   1    -0.635330798549E+03    0.12008E+01   -0.76791E+01 11352   0.521E+01    0.497E+00
RMM:   2    -0.639061668750E+03   -0.37309E+01   -0.20065E+01 12303   0.127E+01    0.163E+01
RMM:   3    -0.637164503564E+03    0.18972E+01   -0.20817E+00 10875   0.526E+00    0.914E+00
RMM:   4    -0.636780751443E+03    0.38375E+00   -0.62376E-01 11540   0.239E+00    0.389E+00
RMM:   5    -0.636767340456E+03    0.13411E-01   -0.22129E-01 11694   0.138E+00    0.355E+00
RMM:   6    -0.636695651232E+03    0.71689E-01   -0.90871E-02 11709   0.809E-01    0.184E+00
RMM:   7    -0.636695767677E+03   -0.11644E-03   -0.37981E-02 11221   0.617E-01    0.204E+00
RMM:   8    -0.636691512015E+03    0.42557E-02   -0.39659E-02 11603   0.597E-01    0.166E+00
RMM:   9    -0.636677080525E+03    0.14431E-01   -0.27872E-02 12419   0.407E-01    0.854E-01
RMM:  10    -0.636677316157E+03   -0.23563E-03   -0.11390E-02 11829   0.355E-01    0.991E-01
RMM:  11    -0.636672677766E+03    0.46384E-02   -0.65784E-03 12167   0.239E-01    0.403E-01
RMM:  12    -0.636672602886E+03    0.74881E-04   -0.42419E-03 13043   0.140E-01    0.356E-01
RMM:  13    -0.636672383496E+03    0.21939E-03   -0.22626E-03 12356   0.107E-01    0.230E-01
RMM:  14    -0.636672203852E+03    0.17964E-03   -0.11780E-03 12816   0.691E-02    0.110E-01
RMM:  15    -0.636672235873E+03   -0.32021E-04   -0.66265E-04 12446   0.512E-02    0.824E-02
RMM:  16    -0.636672305151E+03   -0.69278E-04   -0.39170E-04 11950   0.433E-02    0.108E-01
RMM:  17    -0.636672334906E+03   -0.29755E-04   -0.25542E-04 10852   0.471E-02    0.111E-01
RMM:  18    -0.636672286179E+03    0.48727E-04   -0.20238E-04 10722   0.360E-02    0.401E-02
RMM:  19    -0.636672289950E+03   -0.37707E-05   -0.14449E-04 11117   0.269E-02    0.269E-02
RMM:  20    -0.636672289149E+03    0.80080E-06   -0.81339E-05  8519   0.213E-02
  12 F= -.63667229E+03 E0= -.63658916E+03  d E =-.140732E+00
       N       E                     dE             d eps       ncg     rms          rms(c)
DAV:   1    -0.636638040223E+03    0.34250E-01   -0.21479E+00 12048   0.884E+00    0.832E-01
RMM:   2    -0.636752514483E+03   -0.11447E+00   -0.56949E-01 12098   0.218E+00    0.330E+00
RMM:   3    -0.636695545457E+03    0.56969E-01   -0.65373E-02 10834   0.951E-01    0.194E+00
RMM:   4    -0.636678783512E+03    0.16762E-01   -0.19645E-02 11211   0.463E-01    0.688E-01
RMM:   5    -0.636677862656E+03    0.92086E-03   -0.72916E-03 11491   0.248E-01    0.560E-01
RMM:   6    -0.636676478850E+03    0.13838E-02   -0.28751E-03 11423   0.144E-01    0.424E-01
RMM:   7    -0.636675823335E+03    0.65552E-03   -0.10573E-03 10166   0.110E-01    0.257E-01
RMM:   8    -0.636676032695E+03   -0.20936E-03   -0.13600E-03 11460   0.982E-02    0.288E-01
RMM:   9    -0.636675566155E+03    0.46654E-03   -0.78093E-04 11679   0.805E-02    0.164E-01
RMM:  10    -0.636675504098E+03    0.62057E-04   -0.32189E-04  9987   0.618E-02    0.135E-01
RMM:  11    -0.636675425848E+03    0.78250E-04   -0.19111E-04 10000   0.370E-02    0.734E-02
RMM:  12    -0.636675410633E+03    0.15215E-04   -0.85511E-05  7503   0.260E-02    0.504E-02
RMM:  13    -0.636675407122E+03    0.35107E-05   -0.51266E-05  6692   0.233E-02
  13 F= -.63667541E+03 E0= -.63659259E+03  d E =-.143850E+00
       N       E                     dE             d eps       ncg     rms          rms(c)
DAV:   1    -0.635566932504E+03    0.11085E+01   -0.67150E+01 12384   0.518E+01    0.540E+00
RMM:   2    -0.639954444238E+03   -0.43875E+01   -0.19529E+01 11447   0.138E+01    0.198E+01
RMM:   3    -0.637387201395E+03    0.25672E+01   -0.26369E+00 10991   0.593E+00    0.996E+00
RMM:   4    -0.636846697643E+03    0.54050E+00   -0.83109E-01 11644   0.275E+00    0.351E+00
RMM:   5    -0.636839891391E+03    0.68063E-02   -0.25315E-01 11871   0.133E+00    0.326E+00
RMM:   6    -0.636775088730E+03    0.64803E-01   -0.92255E-02 11693   0.853E-01    0.165E+00
RMM:   7    -0.636771744973E+03    0.33438E-02   -0.45297E-02 11554   0.628E-01    0.171E+00
RMM:   8    -0.636785370754E+03   -0.13626E-01   -0.40577E-02 11259   0.648E-01    0.233E+00
RMM:   9    -0.636756333792E+03    0.29037E-01   -0.24816E-02 11914   0.486E-01    0.792E-01
RMM:  10    -0.636755243069E+03    0.10907E-02   -0.12264E-02 12446   0.305E-01    0.639E-01
RMM:  11    -0.636753645696E+03    0.15974E-02   -0.53730E-03 12855   0.188E-01    0.315E-01
RMM:  12    -0.636753764263E+03   -0.11857E-03   -0.26584E-03 12924   0.125E-01    0.327E-01
RMM:  13    -0.636753515615E+03    0.24865E-03   -0.15102E-03 12683   0.879E-02    0.159E-01
RMM:  14    -0.636753517935E+03   -0.23200E-05   -0.82508E-04 12800   0.581E-02    0.106E-01
RMM:  15    -0.636753609121E+03   -0.91186E-04   -0.51518E-04 12281   0.445E-02    0.819E-02
RMM:  16    -0.636753714643E+03   -0.10552E-03   -0.36407E-04 12075   0.478E-02    0.103E-01
RMM:  17    -0.636753769342E+03   -0.54699E-04   -0.25835E-04 11085   0.489E-02    0.108E-01
RMM:  18    -0.636753730785E+03    0.38557E-04   -0.19522E-04 11196   0.388E-02    0.388E-02
RMM:  19    -0.636753739475E+03   -0.86896E-05   -0.13923E-04 11079   0.282E-02    0.300E-02
RMM:  20    -0.636753739847E+03   -0.37264E-06   -0.83459E-05  8999   0.225E-02
  14 F= -.63675374E+03 E0= -.63667367E+03  d E =-.783327E-01
       N       E                     dE             d eps       ncg     rms          rms(c)
DAV:   1    -0.636746435022E+03    0.73045E-02   -0.45463E-01 12744   0.426E+00    0.454E-01
RMM:   2    -0.636776439768E+03   -0.30005E-01   -0.13325E-01 11904   0.109E+00    0.169E+00
RMM:   3    -0.636759861163E+03    0.16579E-01   -0.17208E-02 10840   0.490E-01    0.982E-01
RMM:   4    -0.636755435756E+03    0.44254E-02   -0.54677E-03 11461   0.234E-01    0.371E-01
RMM:   5    -0.636755034823E+03    0.40093E-03   -0.18315E-03 11272   0.118E-01    0.258E-01
RMM:   6    -0.636754782064E+03    0.25276E-03   -0.69467E-04 10862   0.773E-02    0.221E-01
RMM:   7    -0.636754587134E+03    0.19493E-03   -0.26285E-04  9064   0.615E-02    0.133E-01
RMM:   8    -0.636754664518E+03   -0.77384E-04   -0.31263E-04 10413   0.527E-02    0.167E-01
RMM:   9    -0.636754521471E+03    0.14305E-03   -0.18644E-04  8888   0.506E-02    0.925E-02
RMM:  10    -0.636754485234E+03    0.36237E-04   -0.82785E-05  7088   0.328E-02    0.490E-02
RMM:  11    -0.636754474468E+03    0.10766E-04   -0.42610E-05  6230   0.224E-02    0.341E-02
RMM:  12    -0.636754471299E+03    0.31689E-05   -0.16895E-05  5601   0.174E-02
  15 F= -.63675447E+03 E0= -.63667419E+03  d E =-.790642E-01
       N       E                     dE             d eps       ncg     rms          rms(c)
DAV:   1    -0.636062042683E+03    0.69243E+00   -0.27791E+01  9240   0.337E+01    0.174E+00
RMM:   2    -0.636899498252E+03   -0.83746E+00   -0.80769E+00 13298   0.720E+00    0.366E+00
RMM:   3    -0.636869333807E+03    0.30164E-01   -0.54019E-01 10843   0.277E+00    0.341E+00
RMM:   4    -0.636838567491E+03    0.30766E-01   -0.15185E-01 11374   0.119E+00    0.166E+00
RMM:   5    -0.636829153687E+03    0.94138E-02   -0.41318E-02 12174   0.544E-01    0.132E+00
RMM:   6    -0.636819548345E+03    0.96053E-02   -0.15133E-02 12021   0.312E-01    0.586E-01
RMM:   7    -0.636821920744E+03   -0.23724E-02   -0.93838E-03 11840   0.256E-01    0.902E-01
RMM:   8    -0.636820522744E+03    0.13980E-02   -0.79851E-03 11486   0.261E-01    0.909E-01
RMM:   9    -0.636816676773E+03    0.38460E-02   -0.43034E-03 11262   0.202E-01    0.306E-01
RMM:  10    -0.636816760101E+03   -0.83329E-04   -0.30433E-03 12611   0.117E-01    0.296E-01
RMM:  11    -0.636816399726E+03    0.36038E-03   -0.11230E-03 11472   0.867E-02    0.173E-01
RMM:  12    -0.636816391978E+03    0.77478E-05   -0.66959E-04 11276   0.572E-02    0.149E-01
RMM:  13    -0.636816310440E+03    0.81538E-04   -0.30931E-04  9586   0.428E-02    0.754E-02
RMM:  14    -0.636816299747E+03    0.10693E-04   -0.20098E-04  8982   0.322E-02    0.496E-02
RMM:  15    -0.636816298087E+03    0.16596E-05   -0.13172E-04  8739   0.251E-02    0.342E-02
RMM:  16    -0.636816301662E+03   -0.35747E-05   -0.63078E-05  6864   0.226E-02
  16 F= -.63681630E+03 E0= -.63673544E+03  d E =-.618304E-01
       N       E                     dE             d eps       ncg     rms          rms(c)
DAV:   1    -0.636537623648E+03    0.27867E+00   -0.10558E+01  9288   0.208E+01    0.107E+00
RMM:   2    -0.636852238292E+03   -0.31461E+00   -0.30936E+00 13278   0.440E+00    0.179E+00
RMM:   3    -0.636844899025E+03    0.73393E-02   -0.20528E-01 10780   0.168E+00    0.186E+00
RMM:   4    -0.636838257159E+03    0.66419E-02   -0.54816E-02 11465   0.702E-01    0.113E+00
RMM:   5    -0.636834064808E+03    0.41924E-02   -0.14647E-02 11954   0.347E-01    0.854E-01
RMM:   6    -0.636830289595E+03    0.37752E-02   -0.57848E-03 11699   0.196E-01    0.367E-01
RMM:   7    -0.636831316885E+03   -0.10273E-02   -0.40095E-03 11660   0.160E-01    0.577E-01
RMM:   8    -0.636830692729E+03    0.62416E-03   -0.32335E-03 11281   0.170E-01    0.558E-01
RMM:   9    -0.636829195710E+03    0.14970E-02   -0.18065E-03 11399   0.124E-01    0.178E-01
RMM:  10    -0.636829320031E+03   -0.12432E-03   -0.11709E-03 12068   0.767E-02    0.226E-01
RMM:  11    -0.636829105776E+03    0.21425E-03   -0.44523E-04 10264   0.567E-02    0.108E-01
RMM:  12    -0.636829099216E+03    0.65601E-05   -0.27235E-04  9278   0.376E-02    0.889E-02
RMM:  13    -0.636829072739E+03    0.26477E-04   -0.12689E-04  7360   0.294E-02    0.498E-02
RMM:  14    -0.636829064741E+03    0.79982E-05   -0.77558E-05  6850   0.246E-02
  17 F= -.63682906E+03 E0= -.63674783E+03  d E =-.745934E-01
       N       E                     dE             d eps       ncg     rms          rms(c)
DAV:   1    -0.635929561796E+03    0.89951E+00   -0.29362E+01  8784   0.353E+01    0.184E+00
RMM:   2    -0.637079292798E+03   -0.11497E+01   -0.10318E+01 13046   0.811E+00    0.611E+00
RMM:   3    -0.636925330861E+03    0.15396E+00   -0.81080E-01 11248   0.263E+00    0.246E+00
RMM:   4    -0.636917412644E+03    0.79182E-02   -0.16448E-01 11652   0.109E+00    0.166E+00
RMM:   5    -0.636904420373E+03    0.12992E-01   -0.34370E-02 11785   0.587E-01    0.133E+00
RMM:   6    -0.636896061440E+03    0.83589E-02   -0.14588E-02 11876   0.315E-01    0.673E-01
RMM:   7    -0.636898440093E+03   -0.23787E-02   -0.93589E-03 11829   0.249E-01    0.988E-01
RMM:   8    -0.636897955699E+03    0.48439E-03   -0.92393E-03 11448   0.284E-01    0.986E-01
RMM:   9    -0.636892453015E+03    0.55027E-02   -0.56241E-03 11455   0.215E-01    0.296E-01
RMM:  10    -0.636893130747E+03   -0.67773E-03   -0.31579E-03 12003   0.136E-01    0.467E-01
RMM:  11    -0.636892297947E+03    0.83280E-03   -0.13679E-03 10993   0.967E-02    0.175E-01
RMM:  12    -0.636892180056E+03    0.11789E-03   -0.78365E-04 11395   0.564E-02    0.104E-01
RMM:  13    -0.636892162856E+03    0.17199E-04   -0.40255E-04  9612   0.419E-02    0.791E-02
RMM:  14    -0.636892142597E+03    0.20260E-04   -0.19896E-04  8738   0.300E-02    0.423E-02
RMM:  15    -0.636892156064E+03   -0.13468E-04   -0.12026E-04  7811   0.258E-02    0.583E-02
RMM:  16    -0.636892143175E+03    0.12890E-04   -0.60504E-05  6610   0.236E-02    0.302E-02
RMM:  17    -0.636892146213E+03   -0.30382E-05   -0.43256E-05  6452   0.194E-02
  18 F= -.63689215E+03 E0= -.63681075E+03  d E =-.630815E-01
       N       E                     dE             d eps       ncg     rms          rms(c)
DAV:   1    -0.635604203966E+03    0.12879E+01   -0.45094E+01  8976   0.431E+01    0.219E+00
RMM:   2    -0.637200679260E+03   -0.15965E+01   -0.14461E+01 13079   0.947E+00    0.688E+00
RMM:   3    -0.636971006205E+03    0.22967E+00   -0.97991E-01 11061   0.337E+00    0.293E+00
RMM:   4    -0.636967175997E+03    0.38302E-02   -0.27261E-01 11787   0.134E+00    0.205E+00
RMM:   5    -0.636950016117E+03    0.17160E-01   -0.53010E-02 11944   0.693E-01    0.175E+00
RMM:   6    -0.636935533907E+03    0.14482E-01   -0.18446E-02 11565   0.408E-01    0.804E-01
RMM:   7    -0.636937419541E+03   -0.18856E-02   -0.16052E-02 12185   0.299E-01    0.982E-01
RMM:   8    -0.636938326227E+03   -0.90669E-03   -0.13203E-02 11372   0.342E-01    0.123E+00
RMM:   9    -0.636930873361E+03    0.74529E-02   -0.73233E-03 11611   0.239E-01    0.455E-01
RMM:  10    -0.636931338671E+03   -0.46531E-03   -0.42333E-03 11715   0.165E-01    0.529E-01
RMM:  11    -0.636930274672E+03    0.10640E-02   -0.23802E-03 11796   0.116E-01    0.188E-01
RMM:  12    -0.636930169024E+03    0.10565E-03   -0.11143E-03 11845   0.681E-02    0.135E-01
RMM:  13    -0.636930128521E+03    0.40503E-04   -0.61849E-04 10798   0.497E-02    0.911E-02
RMM:  14    -0.636930102953E+03    0.25569E-04   -0.30572E-04 10005   0.363E-02    0.524E-02
RMM:  15    -0.636930126902E+03   -0.23950E-04   -0.18110E-04  8713   0.306E-02    0.742E-02
RMM:  16    -0.636930105028E+03    0.21874E-04   -0.90128E-05  7133   0.259E-02    0.349E-02
RMM:  17    -0.636930108749E+03   -0.37211E-05   -0.64132E-05  6789   0.215E-02
  19 F= -.63693011E+03 E0= -.63684995E+03  d E =-.101044E+00
       N       E                     dE             d eps       ncg     rms          rms(c)
DAV:   1    -0.636113583405E+03    0.81652E+00   -0.26217E+01  8976   0.340E+01    0.232E+00
RMM:   2    -0.637497007923E+03   -0.13834E+01   -0.10302E+01 12794   0.803E+00    0.811E+00
RMM:   3    -0.637077770252E+03    0.41924E+00   -0.88314E-01 11249   0.285E+00    0.410E+00
RMM:   4    -0.637011834582E+03    0.65936E-01   -0.20494E-01 11363   0.135E+00    0.223E+00
RMM:   5    -0.637008464274E+03    0.33703E-02   -0.61111E-02 11619   0.754E-01    0.205E+00
RMM:   6    -0.636988987635E+03    0.19477E-01   -0.23154E-02 11531   0.428E-01    0.103E+00
RMM:   7    -0.636984888219E+03    0.40994E-02   -0.11255E-02 11946   0.262E-01    0.655E-01
RMM:   8    -0.636988930154E+03   -0.40419E-02   -0.10850E-02 11634   0.302E-01    0.110E+00
RMM:   9    -0.636983475075E+03    0.54551E-02   -0.78679E-03 11298   0.286E-01    0.660E-01
RMM:  10    -0.636981521123E+03    0.19540E-02   -0.40279E-03 12658   0.172E-01    0.239E-01
RMM:  11    -0.636981855421E+03   -0.33430E-03   -0.22322E-03 12927   0.106E-01    0.302E-01
RMM:  12    -0.636981412893E+03    0.44253E-03   -0.86385E-04 11061   0.860E-02    0.102E-01
RMM:  13    -0.636981429972E+03   -0.17079E-04   -0.58330E-04 12541   0.446E-02    0.729E-02
RMM:  14    -0.636981439353E+03   -0.93811E-05   -0.26965E-04 11272   0.331E-02    0.474E-02
RMM:  15    -0.636981472951E+03   -0.33598E-04   -0.12658E-04  9427   0.286E-02    0.639E-02
RMM:  16    -0.636981478037E+03   -0.50864E-05   -0.83242E-05  8569   0.304E-02
  20 F= -.63698148E+03 E0= -.63690405E+03  d E =-.513693E-01
       N       E                     dE             d eps       ncg     rms          rms(c)
DAV:   1    -0.636587194833E+03    0.39428E+00   -0.12037E+01  8976   0.231E+01    0.156E+00
RMM:   2    -0.637196743959E+03   -0.60955E+00   -0.47358E+00 12829   0.542E+00    0.491E+00
RMM:   3    -0.637036295284E+03    0.16045E+00   -0.40190E-01 11308   0.192E+00    0.274E+00
RMM:   4    -0.637009424075E+03    0.26871E-01   -0.90536E-02 11442   0.887E-01    0.157E+00
RMM:   5    -0.637006429478E+03    0.29946E-02   -0.26277E-02 11551   0.506E-01    0.133E+00
RMM:   6    -0.636997513240E+03    0.89162E-02   -0.10229E-02 11538   0.278E-01    0.620E-01
RMM:   7    -0.636996363030E+03    0.11502E-02   -0.49144E-03 11704   0.174E-01    0.467E-01
RMM:   8    -0.636998054874E+03   -0.16918E-02   -0.50209E-03 11620   0.207E-01    0.739E-01
RMM:   9    -0.636995452165E+03    0.26027E-02   -0.34472E-03 11286   0.190E-01    0.401E-01
RMM:  10    -0.636994767584E+03    0.68458E-03   -0.18237E-03 12544   0.114E-01    0.163E-01
RMM:  11    -0.636994840985E+03   -0.73401E-04   -0.94535E-04 12579   0.682E-02    0.172E-01
RMM:  12    -0.636994714723E+03    0.12626E-03   -0.37951E-04 10453   0.555E-02    0.735E-02
RMM:  13    -0.636994719514E+03   -0.47907E-05   -0.24346E-04 11128   0.314E-02    0.507E-02
RMM:  14    -0.636994724457E+03   -0.49428E-05   -0.11580E-04  8809   0.245E-02    0.321E-02
RMM:  15    -0.636994740585E+03   -0.16128E-04   -0.59255E-05  7631   0.210E-02    0.327E-02
RMM:  16    -0.636994746882E+03   -0.62971E-05   -0.38443E-05  6875   0.222E-02
  21 F= -.63699475E+03 E0= -.63691931E+03  d E =-.646381E-01
       N       E                     dE             d eps       ncg     rms          rms(c)
DAV:   1    -0.636229395138E+03    0.76535E+00   -0.30626E+01  9336   0.356E+01    0.262E+00
RMM:   2    -0.637430759611E+03   -0.12014E+01   -0.10018E+01 12739   0.788E+00    0.593E+00
RMM:   3    -0.637122806293E+03    0.30795E+00   -0.74149E-01 11221   0.312E+00    0.409E+00
RMM:   4    -0.637071612156E+03    0.51194E-01   -0.23003E-01 11501   0.141E+00    0.242E+00
RMM:   5    -0.637070141577E+03    0.14706E-02   -0.65493E-02 11653   0.748E-01    0.222E+00
RMM:   6    -0.637041140527E+03    0.29001E-01   -0.26822E-02 12067   0.441E-01    0.691E-01
RMM:   7    -0.637044676130E+03   -0.35356E-02   -0.14906E-02 11916   0.323E-01    0.110E+00
RMM:   8    -0.637040379643E+03    0.42965E-02   -0.94665E-03 11067   0.331E-01    0.774E-01
RMM:   9    -0.637038058451E+03    0.23212E-02   -0.74301E-03 12494   0.224E-01    0.511E-01
RMM:  10    -0.637038427533E+03   -0.36908E-03   -0.36779E-03 12052   0.187E-01    0.574E-01
RMM:  11    -0.637036740149E+03    0.16874E-02   -0.22202E-03 12706   0.125E-01    0.139E-01
RMM:  12    -0.637036871530E+03   -0.13138E-03   -0.13082E-03 12667   0.729E-02    0.179E-01
RMM:  13    -0.637036764480E+03    0.10705E-03   -0.54584E-04 11839   0.544E-02    0.793E-02
RMM:  14    -0.637036767930E+03   -0.34495E-05   -0.31590E-04 11675   0.333E-02    0.564E-02
RMM:  15    -0.637036775518E+03   -0.75879E-05   -0.16327E-04 10708   0.287E-02    0.386E-02
RMM:  16    -0.637036794152E+03   -0.18635E-04   -0.11291E-04  9458   0.263E-02    0.514E-02
RMM:  17    -0.637036792096E+03    0.20567E-05   -0.66832E-05  8160   0.269E-02
  22 F= -.63703679E+03 E0= -.63696308E+03  d E =-.420452E-01
       N       E                     dE             d eps       ncg     rms          rms(c)
DAV:   1    -0.636974738955E+03    0.62055E-01   -0.22397E+00  9600   0.986E+00    0.715E-01
RMM:   2    -0.637068167855E+03   -0.93429E-01   -0.78323E-01 12744   0.222E+00    0.158E+00
RMM:   3    -0.637044147338E+03    0.24021E-01   -0.62784E-02 11302   0.835E-01    0.907E-01
RMM:   4    -0.637041182077E+03    0.29653E-02   -0.17045E-02 11548   0.363E-01    0.479E-01
RMM:   5    -0.637041189763E+03   -0.76860E-05   -0.36837E-03 11151   0.200E-01    0.569E-01
RMM:   6    -0.637039605696E+03    0.15841E-02   -0.14872E-03 11016   0.117E-01    0.207E-01
RMM:   7    -0.637039894674E+03   -0.28898E-03   -0.11539E-03 10983   0.877E-02    0.313E-01
RMM:   8    -0.637039620444E+03    0.27423E-03   -0.74973E-04 10610   0.931E-02    0.239E-01
RMM:   9    -0.637039382868E+03    0.23758E-03   -0.58851E-04 11402   0.664E-02    0.148E-01
RMM:  10    -0.637039409109E+03   -0.26241E-04   -0.28635E-04 10088   0.537E-02    0.160E-01
RMM:  11    -0.637039285155E+03    0.12395E-03   -0.18134E-04  9478   0.363E-02    0.411E-02
RMM:  12    -0.637039290419E+03   -0.52642E-05   -0.94971E-05  7331   0.236E-02
  23 F= -.63703929E+03 E0= -.63696586E+03  d E =-.445435E-01
       N       E                     dE             d eps       ncg     rms          rms(c)
DAV:   1    -0.636886663567E+03    0.15262E+00   -0.79704E+00  9408   0.172E+01    0.741E-01
RMM:   2    -0.637100869026E+03   -0.21421E+00   -0.19641E+00 12608   0.366E+00    0.250E+00
RMM:   3    -0.637071804820E+03    0.29064E-01   -0.13170E-01 11289   0.125E+00    0.897E-01
RMM:   4    -0.637075017562E+03   -0.32127E-02   -0.38601E-02 12298   0.479E-01    0.840E-01
RMM:   5    -0.637070546939E+03    0.44706E-02   -0.70581E-03 11480   0.262E-01    0.376E-01
RMM:   6    -0.637070442516E+03    0.10442E-03   -0.30838E-03 11701   0.135E-01    0.341E-01
RMM:   7    -0.637071055016E+03   -0.61250E-03   -0.27004E-03 11578   0.127E-01    0.528E-01
RMM:   8    -0.637069720827E+03    0.13342E-02   -0.13223E-03 10565   0.116E-01    0.182E-01
RMM:   9    -0.637069674791E+03    0.46035E-04   -0.10017E-03 11168   0.728E-02    0.153E-01
RMM:  10    -0.637069581202E+03    0.93590E-04   -0.39999E-04  9763   0.533E-02    0.973E-02
RMM:  11    -0.637069556177E+03    0.25025E-04   -0.19034E-04  7960   0.370E-02    0.681E-02
RMM:  12    -0.637069536472E+03    0.19704E-04   -0.92933E-05  6843   0.254E-02    0.414E-02
RMM:  13    -0.637069535089E+03    0.13834E-05   -0.57475E-05  6437   0.218E-02
  24 F= -.63706954E+03 E0= -.63699671E+03  d E =-.302447E-01
       N       E                     dE             d eps       ncg     rms          rms(c)
DAV:   1    -0.636812012246E+03    0.25752E+00   -0.12122E+01  9480   0.211E+01    0.917E-01
RMM:   2    -0.637140665421E+03   -0.32865E+00   -0.29723E+00 12621   0.447E+00    0.328E+00
RMM:   3    -0.637090072018E+03    0.50593E-01   -0.19429E-01 11277   0.155E+00    0.103E+00
RMM:   4    -0.637095084263E+03   -0.50122E-02   -0.57548E-02 12288   0.581E-01    0.998E-01
RMM:   5    -0.637088733134E+03    0.63511E-02   -0.10531E-02 11588   0.313E-01    0.438E-01
RMM:   6    -0.637088674121E+03    0.59013E-04   -0.46578E-03 11908   0.163E-01    0.416E-01
RMM:   7    -0.637089219671E+03   -0.54555E-03   -0.42544E-03 11807   0.157E-01    0.592E-01
RMM:   8    -0.637087709478E+03    0.15102E-02   -0.18548E-03 10768   0.136E-01    0.281E-01
RMM:   9    -0.637087470650E+03    0.23883E-03   -0.14218E-03 11186   0.913E-02    0.181E-01
RMM:  10    -0.637087407217E+03    0.63433E-04   -0.63112E-04 10087   0.644E-02    0.148E-01
RMM:  11    -0.637087309604E+03    0.97612E-04   -0.28366E-04  8614   0.478E-02    0.715E-02
RMM:  12    -0.637087301050E+03    0.85541E-05   -0.16477E-04  7800   0.287E-02    0.608E-02
RMM:  13    -0.637087291393E+03    0.96576E-05   -0.91457E-05  6736   0.255E-02
  25 F= -.63708729E+03 E0= -.63701498E+03  d E =-.480010E-01
       N       E                     dE             d eps       ncg     rms          rms(c)
DAV:   1    -0.636794775738E+03    0.29253E+00   -0.10596E+01  8736   0.214E+01    0.146E+00
RMM:   2    -0.637290937328E+03   -0.49616E+00   -0.37152E+00 13023   0.498E+00    0.488E+00
RMM:   3    -0.637161654061E+03    0.12928E+00   -0.35507E-01 11082   0.180E+00    0.293E+00
RMM:   4    -0.637128132547E+03    0.33522E-01   -0.73194E-02 11428   0.792E-01    0.137E+00
RMM:   5    -0.637125327718E+03    0.28048E-02   -0.25300E-02 11737   0.455E-01    0.109E+00
RMM:   6    -0.637117616371E+03    0.77113E-02   -0.90491E-03 11964   0.249E-01    0.472E-01
RMM:   7    -0.637117788198E+03   -0.17183E-03   -0.46961E-03 11519   0.188E-01    0.553E-01
RMM:   8    -0.637118530147E+03   -0.74195E-03   -0.49926E-03 11210   0.231E-01    0.681E-01
RMM:   9    -0.637115967781E+03    0.25624E-02   -0.30587E-03 12063   0.151E-01    0.320E-01
RMM:  10    -0.637115635780E+03    0.33200E-03   -0.11771E-03 11670   0.953E-02    0.175E-01
RMM:  11    -0.637115598292E+03    0.37488E-04   -0.67226E-04 11963   0.572E-02    0.125E-01
RMM:  12    -0.637115554356E+03    0.43936E-04   -0.33451E-04  9660   0.421E-02    0.653E-02
RMM:  13    -0.637115557531E+03   -0.31750E-05   -0.16621E-04  9484   0.256E-02    0.440E-02
RMM:  14    -0.637115561751E+03   -0.42198E-05   -0.72910E-05  7431   0.224E-02
  26 F= -.63711556E+03 E0= -.63704342E+03  d E =-.282704E-01
       N       E                     dE             d eps       ncg     rms          rms(c)
DAV:   1    -0.636811215040E+03    0.30434E+00   -0.10448E+01  8736   0.211E+01    0.144E+00
RMM:   2    -0.637295892815E+03   -0.48468E+00   -0.36412E+00 13031   0.498E+00    0.482E+00
RMM:   3    -0.637171077560E+03    0.12482E+00   -0.35025E-01 11059   0.179E+00    0.284E+00
RMM:   4    -0.637139710831E+03    0.31367E-01   -0.71199E-02 11427   0.780E-01    0.136E+00
RMM:   5    -0.637136800946E+03    0.29099E-02   -0.24350E-02 11730   0.447E-01    0.108E+00
RMM:   6    -0.637129375145E+03    0.74258E-02   -0.89110E-03 11998   0.244E-01    0.472E-01
RMM:   7    -0.637129516944E+03   -0.14180E-03   -0.46049E-03 11513   0.186E-01    0.545E-01
RMM:   8    -0.637130187912E+03   -0.67097E-03   -0.49878E-03 11317   0.228E-01    0.660E-01
RMM:   9    -0.637127730749E+03    0.24572E-02   -0.30465E-03 12167   0.149E-01    0.310E-01
RMM:  10    -0.637127432232E+03    0.29852E-03   -0.11453E-03 11719   0.945E-02    0.176E-01
RMM:  11    -0.637127405107E+03    0.27125E-04   -0.65997E-04 11834   0.576E-02    0.131E-01
RMM:  12    -0.637127350583E+03    0.54524E-04   -0.32556E-04  9724   0.428E-02    0.617E-02
RMM:  13    -0.637127356808E+03   -0.62250E-05   -0.16964E-04  9568   0.253E-02    0.431E-02
RMM:  14    -0.637127362879E+03   -0.60715E-05   -0.73923E-05  7571   0.222E-02
  27 F= -.63712736E+03 E0= -.63705528E+03  d E =-.400715E-01
       N       E                     dE             d eps       ncg     rms          rms(c)
DAV:   1    -0.636995107151E+03    0.13225E+00   -0.47278E+00  8784   0.142E+01    0.934E-01
RMM:   2    -0.637201417511E+03   -0.20631E+00   -0.16609E+00 12922   0.318E+00    0.271E+00
RMM:   3    -0.637161734457E+03    0.39683E-01   -0.16127E-01 11349   0.110E+00    0.176E+00
RMM:   4    -0.637149412692E+03    0.12322E-01   -0.29642E-02 11343   0.511E-01    0.834E-01
RMM:   5    -0.637148890340E+03    0.52235E-03   -0.95209E-03 11814   0.266E-01    0.733E-01
RMM:   6    -0.637145849820E+03    0.30405E-02   -0.37357E-03 11698   0.150E-01    0.295E-01
RMM:   7    -0.637145925744E+03   -0.75923E-04   -0.16717E-03 10825   0.103E-01    0.346E-01
RMM:   8    -0.637146071919E+03   -0.14618E-03   -0.14886E-03 11232   0.121E-01    0.408E-01
RMM:   9    -0.637145350961E+03    0.72096E-03   -0.10729E-03 11044   0.104E-01    0.231E-01
RMM:  10    -0.637145222394E+03    0.12857E-03   -0.67206E-04 11350   0.701E-02    0.152E-01
RMM:  11    -0.637145103908E+03    0.11849E-03   -0.35310E-04 10918   0.455E-02    0.718E-02
RMM:  12    -0.637145094678E+03    0.92296E-05   -0.15334E-04  8114   0.306E-02    0.506E-02
RMM:  13    -0.637145085462E+03    0.92162E-05   -0.67744E-05  7140   0.218E-02
  28 F= -.63714509E+03 E0= -.63707254E+03  d E =-.177226E-01
       N       E                     dE             d eps       ncg     rms          rms(c)
DAV:   1    -0.636847232366E+03    0.29786E+00   -0.99600E+00  8736   0.207E+01    0.137E+00
RMM:   2    -0.637287270640E+03   -0.44004E+00   -0.34933E+00 12920   0.463E+00    0.406E+00
RMM:   3    -0.637197903209E+03    0.89367E-01   -0.34114E-01 11329   0.160E+00    0.256E+00
RMM:   4    -0.637171985556E+03    0.25918E-01   -0.62637E-02 11371   0.738E-01    0.125E+00
RMM:   5    -0.637170581648E+03    0.14039E-02   -0.19995E-02 11830   0.385E-01    0.108E+00
RMM:   6    -0.637164052855E+03    0.65288E-02   -0.76939E-03 11799   0.218E-01    0.425E-01
RMM:   7    -0.637164093167E+03   -0.40312E-04   -0.35544E-03 11420   0.145E-01    0.472E-01
RMM:   8    -0.637164410278E+03   -0.31711E-03   -0.29399E-03 11270   0.175E-01    0.565E-01
RMM:   9    -0.637163050785E+03    0.13595E-02   -0.23056E-03 11749   0.142E-01    0.349E-01
RMM:  10    -0.637162763185E+03    0.28760E-03   -0.12019E-03 11668   0.102E-01    0.233E-01
RMM:  11    -0.637162522466E+03    0.24072E-03   -0.79490E-04 12066   0.638E-02    0.113E-01
RMM:  12    -0.637162492767E+03    0.29700E-04   -0.34320E-04 10320   0.442E-02    0.694E-02
RMM:  13    -0.637162480208E+03    0.12558E-04   -0.16455E-04  9521   0.252E-02    0.338E-02
RMM:  14    -0.637162486922E+03   -0.67135E-05   -0.76557E-05  7870   0.226E-02
  29 F= -.63716249E+03 E0= -.63708921E+03  d E =-.351240E-01
       N       E                     dE             d eps       ncg     rms          rms(c)
DAV:   1    -0.636129161948E+03    0.10333E+01   -0.42499E+01  9312   0.410E+01    0.269E+00
RMM:   2    -0.637731960280E+03   -0.16028E+01   -0.12342E+01 12987   0.862E+00    0.827E+00
RMM:   3    -0.637296382527E+03    0.43558E+00   -0.87122E-01 11148   0.320E+00    0.489E+00
RMM:   4    -0.637203883465E+03    0.92499E-01   -0.26403E-01 11373   0.150E+00    0.251E+00
RMM:   5    -0.637199122432E+03    0.47610E-02   -0.82033E-02 11826   0.766E-01    0.220E+00
RMM:   6    -0.637171623525E+03    0.27499E-01   -0.30604E-02 11838   0.461E-01    0.812E-01
RMM:   7    -0.637172063298E+03   -0.43977E-03   -0.15764E-02 12014   0.303E-01    0.924E-01
RMM:   8    -0.637172158634E+03   -0.95336E-04   -0.12439E-02 11354   0.341E-01    0.101E+00
RMM:   9    -0.637167176760E+03    0.49819E-02   -0.82085E-03 12129   0.261E-01    0.577E-01
RMM:  10    -0.637167367518E+03   -0.19076E-03   -0.49641E-03 12291   0.193E-01    0.588E-01
RMM:  11    -0.637165853539E+03    0.15140E-02   -0.28783E-03 12667   0.129E-01    0.209E-01
RMM:  12    -0.637165815343E+03    0.38197E-04   -0.14804E-03 11871   0.824E-02    0.161E-01
RMM:  13    -0.637165733882E+03    0.81460E-04   -0.63153E-04 12529   0.529E-02    0.743E-02
RMM:  14    -0.637165761114E+03   -0.27232E-04   -0.35897E-04 12062   0.361E-02    0.665E-02
RMM:  15    -0.637165774226E+03   -0.13111E-04   -0.18151E-04 10545   0.317E-02    0.612E-02
RMM:  16    -0.637165795433E+03   -0.21208E-04   -0.11792E-04  8943   0.322E-02    0.749E-02
RMM:  17    -0.637165774771E+03    0.20662E-04   -0.82054E-05  8704   0.284E-02    0.273E-02
RMM:  18    -0.637165777460E+03   -0.26885E-05   -0.65288E-05  8285   0.204E-02
  30 F= -.63716578E+03 E0= -.63709103E+03  d E =-.384146E-01
       N       E                     dE             d eps       ncg     rms          rms(c)
DAV:   1    -0.636932196543E+03    0.23358E+00   -0.80069E+00  8856   0.185E+01    0.126E+00
RMM:   2    -0.637334071184E+03   -0.40187E+00   -0.27847E+00 12854   0.411E+00    0.481E+00
RMM:   3    -0.637200303557E+03    0.13377E+00   -0.26136E-01 11158   0.155E+00    0.234E+00
RMM:   4    -0.637177761134E+03    0.22542E-01   -0.58372E-02 11408   0.683E-01    0.116E+00
RMM:   5    -0.637175542807E+03    0.22183E-02   -0.17525E-02 11656   0.371E-01    0.858E-01
RMM:   6    -0.637171106185E+03    0.44366E-02   -0.63077E-03 11762   0.201E-01    0.399E-01
RMM:   7    -0.637170856460E+03    0.24972E-03   -0.25568E-03 11138   0.134E-01    0.385E-01
RMM:   8    -0.637171491680E+03   -0.63522E-03   -0.26682E-03 11291   0.159E-01    0.551E-01
RMM:   9    -0.637170231324E+03    0.12604E-02   -0.19302E-03 11330   0.140E-01    0.343E-01
RMM:  10    -0.637169819455E+03    0.41187E-03   -0.10020E-03 11850   0.877E-02    0.166E-01
RMM:  11    -0.637169722487E+03    0.96969E-04   -0.53644E-04 11560   0.535E-02    0.987E-02
RMM:  12    -0.637169695591E+03    0.26896E-04   -0.21385E-04  9245   0.373E-02    0.540E-02
RMM:  13    -0.637169696058E+03   -0.46739E-06   -0.10705E-04  8537   0.220E-02    0.312E-02
RMM:  14    -0.637169706012E+03   -0.99533E-05   -0.45121E-05  6821   0.214E-02
  31 F= -.63716971E+03 E0= -.63709561E+03  d E =-.423431E-01
       N       E                     dE             d eps       ncg     rms          rms(c)
DAV:   1    -0.636936632768E+03    0.23306E+00   -0.80716E+00  8736   0.181E+01    0.960E-01
RMM:   2    -0.637230256912E+03   -0.29362E+00   -0.25752E+00 13129   0.396E+00    0.296E+00
RMM:   3    -0.637206151441E+03    0.24105E-01   -0.24694E-01 11096   0.133E+00    0.194E+00
RMM:   4    -0.637192774408E+03    0.13377E-01   -0.37298E-02 11501   0.542E-01    0.787E-01
RMM:   5    -0.637191140182E+03    0.16342E-02   -0.95030E-03 11199   0.311E-01    0.658E-01
RMM:   6    -0.637188303181E+03    0.28370E-02   -0.43428E-03 11729   0.144E-01    0.261E-01
RMM:   7    -0.637189422139E+03   -0.11190E-02   -0.30757E-03 11414   0.153E-01    0.537E-01
RMM:   8    -0.637188378623E+03    0.10435E-02   -0.22924E-03 11471   0.136E-01    0.406E-01
RMM:   9    -0.637187531908E+03    0.84671E-03   -0.10767E-03 11514   0.877E-02    0.109E-01
RMM:  10    -0.637187666174E+03   -0.13427E-03   -0.60008E-04 10478   0.573E-02    0.174E-01
RMM:  11    -0.637187524034E+03    0.14214E-03   -0.21440E-04  8555   0.386E-02    0.371E-02
RMM:  12    -0.637187531704E+03   -0.76692E-05   -0.12450E-04  7984   0.214E-02    0.364E-02
RMM:  13    -0.637187533103E+03   -0.13989E-05   -0.50461E-05  6389   0.195E-02
  32 F= -.63718753E+03 E0= -.63711297E+03  d E =-.178271E-01
       N       E                     dE             d eps       ncg     rms          rms(c)
DAV:   1    -0.636679827772E+03    0.50770E+00   -0.19869E+01  9096   0.279E+01    0.142E+00
RMM:   2    -0.637323372185E+03   -0.64354E+00   -0.55588E+00 13107   0.575E+00    0.462E+00
RMM:   3    -0.637236706790E+03    0.86665E-01   -0.40926E-01 11087   0.205E+00    0.277E+00
RMM:   4    -0.637210624430E+03    0.26082E-01   -0.10038E-01 11603   0.840E-01    0.125E+00
RMM:   5    -0.637207746229E+03    0.28782E-02   -0.23690E-02 11398   0.480E-01    0.109E+00
RMM:   6    -0.637200309384E+03    0.74368E-02   -0.10613E-02 12151   0.227E-01    0.476E-01
RMM:   7    -0.637201890243E+03   -0.15809E-02   -0.48157E-03 11026   0.200E-01    0.764E-01
RMM:   8    -0.637200704194E+03    0.11860E-02   -0.72922E-03 11720   0.230E-01    0.657E-01
RMM:   9    -0.637198359394E+03    0.23448E-02   -0.28403E-03 11287   0.156E-01    0.268E-01
RMM:  10    -0.637198240161E+03    0.11923E-03   -0.17423E-03 12204   0.896E-02    0.172E-01
RMM:  11    -0.637198123016E+03    0.11714E-03   -0.71616E-04 11791   0.510E-02    0.590E-02
RMM:  12    -0.637198151470E+03   -0.28454E-04   -0.31200E-04  9706   0.354E-02    0.751E-02
RMM:  13    -0.637198152292E+03   -0.82218E-06   -0.16632E-04  8156   0.282E-02    0.553E-02
RMM:  14    -0.637198155355E+03   -0.30633E-05   -0.87130E-05  7625   0.268E-02
  33 F= -.63719816E+03 E0= -.63712292E+03  d E =-.284493E-01
       N       E                     dE             d eps       ncg     rms          rms(c)
DAV:   1    -0.637181986225E+03    0.16166E-01   -0.14059E+00  9552   0.692E+00    0.329E-01
RMM:   2    -0.637214522902E+03   -0.32537E-01   -0.29698E-01 12872   0.152E+00    0.942E-01
RMM:   3    -0.637210416873E+03    0.41060E-02   -0.19444E-02 11263   0.487E-01    0.521E-01
RMM:   4    -0.637210090177E+03    0.32670E-03   -0.58270E-03 11602   0.214E-01    0.391E-01
RMM:   5    -0.637209575510E+03    0.51467E-03   -0.13941E-03 10637   0.124E-01    0.288E-01
RMM:   6    -0.637209105551E+03    0.46996E-03   -0.71154E-04 10506   0.724E-02    0.115E-01
RMM:   7    -0.637209223273E+03   -0.11772E-03   -0.65081E-04 10843   0.603E-02    0.186E-01
RMM:   8    -0.637209161708E+03    0.61565E-04   -0.43201E-04  9913   0.687E-02    0.186E-01
RMM:   9    -0.637208978479E+03    0.18323E-03   -0.26980E-04  9748   0.453E-02    0.683E-02
RMM:  10    -0.637208978484E+03   -0.57553E-08   -0.10994E-04  6981   0.294E-02    0.650E-02
RMM:  11    -0.637208965301E+03    0.13183E-04   -0.53241E-05  6282   0.225E-02    0.273E-02
RMM:  12    -0.637208964923E+03    0.37820E-06   -0.26032E-05  6074   0.157E-02
  34 F= -.63720896E+03 E0= -.63713355E+03  d E =-.108096E-01
       N       E                     dE             d eps       ncg     rms          rms(c)
DAV:   1    -0.637099697782E+03    0.10927E+00   -0.63472E+00  9384   0.147E+01    0.691E-01
RMM:   2    -0.637243845244E+03   -0.14415E+00   -0.13426E+00 12876   0.322E+00    0.184E+00
RMM:   3    -0.637229444613E+03    0.14401E-01   -0.90087E-02 11319   0.103E+00    0.116E+00
RMM:   4    -0.637227053631E+03    0.23910E-02   -0.24959E-02 11686   0.458E-01    0.772E-01
RMM:   5    -0.637225131955E+03    0.19217E-02   -0.64386E-03 11681   0.253E-01    0.625E-01
RMM:   6    -0.637222997666E+03    0.21343E-02   -0.29132E-03 11415   0.149E-01    0.249E-01
RMM:   7    -0.637223464132E+03   -0.46647E-03   -0.28693E-03 11635   0.128E-01    0.372E-01
RMM:   8    -0.637223065163E+03    0.39897E-03   -0.20217E-03 11112   0.138E-01    0.348E-01
RMM:   9    -0.637222364079E+03    0.70108E-03   -0.11551E-03 11269   0.860E-02    0.107E-01
RMM:  10    -0.637222414201E+03   -0.50122E-04   -0.49399E-04 10417   0.487E-02    0.142E-01
RMM:  11    -0.637222351647E+03    0.62554E-04   -0.21354E-04  7951   0.355E-02    0.720E-02
RMM:  12    -0.637222339281E+03    0.12366E-04   -0.10261E-04  7099   0.260E-02    0.491E-02
RMM:  13    -0.637222333741E+03    0.55403E-05   -0.58774E-05  6444   0.231E-02
  35 F= -.63722233E+03 E0= -.63714654E+03  d E =-.241784E-01
       N       E                     dE             d eps       ncg     rms          rms(c)
DAV:   1    -0.637197599223E+03    0.24740E-01   -0.13547E+00  9432   0.680E+00    0.322E-01
RMM:   2    -0.637228703570E+03   -0.31104E-01   -0.28713E-01 12881   0.149E+00    0.888E-01
RMM:   3    -0.637225412178E+03    0.32914E-02   -0.20053E-02 11221   0.503E-01    0.524E-01
RMM:   4    -0.637225032073E+03    0.38010E-03   -0.57987E-03 11677   0.218E-01    0.367E-01
RMM:   5    -0.637224595077E+03    0.43700E-03   -0.14759E-03 10964   0.120E-01    0.286E-01
RMM:   6    -0.637224152354E+03    0.44272E-03   -0.66107E-04 10505   0.720E-02    0.118E-01
RMM:   7    -0.637224229769E+03   -0.77415E-04   -0.61191E-04 10796   0.575E-02    0.161E-01
RMM:   8    -0.637224198773E+03    0.30996E-04   -0.46419E-04 10150   0.681E-02    0.185E-01
RMM:   9    -0.637224019529E+03    0.17924E-03   -0.23446E-04  9197   0.440E-02    0.564E-02
RMM:  10    -0.637224030927E+03   -0.11398E-04   -0.11033E-04  7012   0.286E-02    0.675E-02
RMM:  11    -0.637224017719E+03    0.13208E-04   -0.53258E-05  6232   0.226E-02    0.311E-02
RMM:  12    -0.637224015315E+03    0.24047E-05   -0.25268E-05  6018   0.158E-02
  36 F= -.63722402E+03 E0= -.63714807E+03  d E =-.258600E-01
       N       E                     dE             d eps       ncg     rms          rms(c)
DAV:   1    -0.637190527529E+03    0.33490E-01   -0.33216E+00 10656   0.104E+01    0.125E+00
RMM:   2    -0.637388232482E+03   -0.19770E+00   -0.85786E-01 11863   0.287E+00    0.410E+00
RMM:   3    -0.637260460590E+03    0.12777E+00   -0.11278E-01 10835   0.125E+00    0.199E+00
RMM:   4    -0.637238356293E+03    0.22104E-01   -0.37382E-02 11520   0.544E-01    0.807E-01
RMM:   5    -0.637238214238E+03    0.14206E-03   -0.10002E-02 11514   0.313E-01    0.832E-01
RMM:   6    -0.637235094552E+03    0.31197E-02   -0.46066E-03 11528   0.198E-01    0.516E-01
RMM:   7    -0.637234056284E+03    0.10383E-02   -0.22195E-03 11045   0.149E-01    0.328E-01
RMM:   8    -0.637234279562E+03   -0.22328E-03   -0.21714E-03 11674   0.133E-01    0.356E-01
RMM:   9    -0.637233475634E+03    0.80393E-03   -0.12887E-03 12184   0.987E-02    0.153E-01
RMM:  10    -0.637233524322E+03   -0.48688E-04   -0.51459E-04 10625   0.716E-02    0.184E-01
RMM:  11    -0.637233370328E+03    0.15399E-03   -0.29460E-04 10779   0.470E-02    0.857E-02
RMM:  12    -0.637233361905E+03    0.84229E-05   -0.16515E-04  8865   0.311E-02    0.625E-02
RMM:  13    -0.637233348466E+03    0.13440E-04   -0.71018E-05  7854   0.233E-02    0.288E-02
RMM:  14    -0.637233351078E+03   -0.26119E-05   -0.37575E-05  6943   0.182E-02
  37 F= -.63723335E+03 E0= -.63715691E+03  d E =-.933576E-02
       N       E                     dE             d eps       ncg     rms          rms(c)
DAV:   1    -0.637229593285E+03    0.37552E-02   -0.38321E-01 11184   0.352E+00    0.425E-01
RMM:   2    -0.637252583611E+03   -0.22990E-01   -0.96580E-02 11771   0.938E-01    0.143E+00
RMM:   3    -0.637237418411E+03    0.15165E-01   -0.12480E-02 10589   0.441E-01    0.702E-01
RMM:   4    -0.637234678393E+03    0.27400E-02   -0.44130E-03 11256   0.192E-01    0.271E-01
RMM:   5    -0.637234666754E+03    0.11639E-04   -0.11782E-03 10581   0.105E-01    0.280E-01
RMM:   6    -0.637234332033E+03    0.33472E-03   -0.55781E-04 10624   0.715E-02    0.180E-01
RMM:   7    -0.637234197368E+03    0.13466E-03   -0.26821E-04  9314   0.537E-02    0.108E-01
RMM:   8    -0.637234227971E+03   -0.30603E-04   -0.25564E-04 10125   0.479E-02    0.121E-01
RMM:   9    -0.637234140301E+03    0.87670E-04   -0.15093E-04  9003   0.380E-02    0.564E-02
RMM:  10    -0.637234142347E+03   -0.20467E-05   -0.60375E-05  6739   0.264E-02
  38 F= -.63723414E+03 E0= -.63715755E+03  d E =-.101270E-01
       N       E                     dE             d eps       ncg     rms          rms(c)
DAV:   1    -0.637204811664E+03    0.29329E-01   -0.26177E+00 10416   0.888E+00    0.106E+00
RMM:   2    -0.637333973010E+03   -0.12916E+00   -0.66596E-01 11810   0.257E+00    0.309E+00
RMM:   3    -0.637256591206E+03    0.77382E-01   -0.89125E-02 10949   0.105E+00    0.160E+00
RMM:   4    -0.637243023246E+03    0.13568E-01   -0.26886E-02 11814   0.437E-01    0.640E-01
RMM:   5    -0.637244007617E+03   -0.98437E-03   -0.68329E-03 11256   0.267E-01    0.839E-01
RMM:   6    -0.637240563952E+03    0.34437E-02   -0.34718E-03 11404   0.179E-01    0.383E-01
RMM:   7    -0.637240242834E+03    0.32112E-03   -0.18392E-03 10874   0.131E-01    0.325E-01
RMM:   8    -0.637240355549E+03   -0.11272E-03   -0.16320E-03 11373   0.121E-01    0.332E-01
RMM:   9    -0.637239716199E+03    0.63935E-03   -0.99323E-04 11887   0.907E-02    0.149E-01
RMM:  10    -0.637239759430E+03   -0.43231E-04   -0.42321E-04 10356   0.622E-02    0.172E-01
RMM:  11    -0.637239641842E+03    0.11759E-03   -0.21653E-04  9976   0.413E-02    0.793E-02
RMM:  12    -0.637239627146E+03    0.14697E-04   -0.12840E-04  8283   0.271E-02    0.409E-02
RMM:  13    -0.637239631115E+03   -0.39690E-05   -0.54523E-05  7133   0.210E-02
  39 F= -.63723963E+03 E0= -.63716315E+03  d E =-.548877E-02
       N       E                     dE             d eps       ncg     rms          rms(c)
DAV:   1    -0.637238020265E+03    0.16069E-02   -0.13424E-01 10800   0.200E+00    0.243E-01
RMM:   2    -0.637244908301E+03   -0.68880E-02   -0.34102E-02 11790   0.572E-01    0.721E-01
RMM:   3    -0.637240705265E+03    0.42030E-02   -0.45079E-03 10508   0.244E-01    0.377E-01
RMM:   4    -0.637239966499E+03    0.73877E-03   -0.14034E-03 10963   0.103E-01    0.157E-01
RMM:   5    -0.637239989211E+03   -0.22712E-04   -0.37250E-04  9474   0.646E-02    0.178E-01
RMM:   6    -0.637239845776E+03    0.14344E-03   -0.19373E-04  9367   0.421E-02    0.916E-02
RMM:   7    -0.637239821330E+03    0.24446E-04   -0.83816E-05  7056   0.345E-02    0.676E-02
RMM:   8    -0.637239834618E+03   -0.13288E-04   -0.88520E-05  7553   0.314E-02    0.724E-02
RMM:   9    -0.637239806644E+03    0.27974E-04   -0.48917E-05  6513   0.249E-02    0.345E-02
RMM:  10    -0.637239810705E+03   -0.40610E-05   -0.26047E-05  5738   0.221E-02
  40 F= -.63723981E+03 E0= -.63716336E+03  d E =-.566836E-02
       N       E                     dE             d eps       ncg     rms          rms(c)
DAV:   1    -0.637220500715E+03    0.19306E-01   -0.15408E+00  9264   0.635E+00    0.416E-01
RMM:   2    -0.637256195725E+03   -0.35695E-01   -0.27727E-01 12902   0.146E+00    0.122E+00
RMM:   3    -0.637245854239E+03    0.10341E-01   -0.22313E-02 11250   0.535E-01    0.686E-01
RMM:   4    -0.637244198978E+03    0.16553E-02   -0.67637E-03 11720   0.232E-01    0.396E-01
RMM:   5    -0.637244121860E+03    0.77118E-04   -0.22589E-03 11275   0.135E-01    0.377E-01
RMM:   6    -0.637243370129E+03    0.75173E-03   -0.97130E-04 10781   0.835E-02    0.178E-01
RMM:   7    -0.637243317446E+03    0.52683E-04   -0.54690E-04 10094   0.649E-02    0.162E-01
RMM:   8    -0.637243400010E+03   -0.82564E-04   -0.48338E-04 10221   0.715E-02    0.201E-01
RMM:   9    -0.637243159949E+03    0.24006E-03   -0.28695E-04  9680   0.541E-02    0.899E-02
RMM:  10    -0.637243159957E+03   -0.77634E-08   -0.13271E-04  7556   0.351E-02    0.869E-02
RMM:  11    -0.637243132945E+03    0.27012E-04   -0.68610E-05  6513   0.255E-02    0.406E-02
RMM:  12    -0.637243128614E+03    0.43307E-05   -0.36990E-05  6105   0.205E-02
  41 F= -.63724313E+03 E0= -.63716662E+03  d E =-.331791E-02
       N       E                     dE             d eps       ncg     rms          rms(c)
DAV:   1    -0.637239818188E+03    0.33148E-02   -0.25221E-01  9528   0.257E+00    0.170E-01
RMM:   2    -0.637245718850E+03   -0.59007E-02   -0.45183E-02 12880   0.586E-01    0.500E-01
RMM:   3    -0.637243896388E+03    0.18225E-02   -0.36349E-03 10996   0.220E-01    0.263E-01
RMM:   4    -0.637243650486E+03    0.24590E-03   -0.11714E-03 11111   0.954E-02    0.152E-01
RMM:   5    -0.637243652996E+03   -0.25098E-05   -0.36860E-04  9675   0.584E-02    0.157E-01
RMM:   6    -0.637243529096E+03    0.12390E-03   -0.14749E-04  8149   0.367E-02    0.753E-02
RMM:   7    -0.637243518592E+03    0.10504E-04   -0.90118E-05  7232   0.281E-02    0.638E-02
RMM:   8    -0.637243529680E+03   -0.11088E-04   -0.84162E-05  7552   0.318E-02    0.733E-02
RMM:   9    -0.637243494682E+03    0.34998E-04   -0.54072E-05  7111   0.238E-02    0.311E-02
RMM:  10    -0.637243496385E+03   -0.17032E-05   -0.20345E-05  5672   0.183E-02
  42 F= -.63724350E+03 E0= -.63716696E+03  d E =-.368568E-02
       N       E                     dE             d eps       ncg     rms          rms(c)
DAV:   1    -0.637236626903E+03    0.68678E-02   -0.41691E-01  9072   0.359E+00    0.149E-01
RMM:   2    -0.637245518975E+03   -0.88921E-02   -0.86105E-02 12779   0.813E-01    0.336E-01
RMM:   3    -0.637245155323E+03    0.36365E-03   -0.62015E-03 11314   0.241E-01    0.240E-01
RMM:   4    -0.637245187744E+03   -0.32421E-04   -0.14623E-03 11051   0.105E-01    0.202E-01
RMM:   5    -0.637244978833E+03    0.20891E-03   -0.31912E-04  9159   0.605E-02    0.954E-02
RMM:   6    -0.637244940524E+03    0.38309E-04   -0.16073E-04  8383   0.323E-02    0.544E-02
RMM:   7    -0.637244951887E+03   -0.11363E-04   -0.11195E-04  8534   0.269E-02    0.741E-02
RMM:   8    -0.637244931021E+03    0.20866E-04   -0.88342E-05  7833   0.290E-02    0.580E-02
RMM:   9    -0.637244915870E+03    0.15151E-04   -0.50256E-05  6953   0.222E-02    0.381E-02
RMM:  10    -0.637244915834E+03    0.35761E-07   -0.20500E-05  5651   0.182E-02
  43 F= -.63724492E+03 E0= -.63716839E+03  d E =-.141945E-02
       N       E                     dE             d eps       ncg     rms          rms(c)
DAV:   1    -0.637237108120E+03    0.78078E-02   -0.40944E-01  9048   0.356E+00    0.148E-01
RMM:   2    -0.637245881044E+03   -0.87729E-02   -0.85064E-02 12773   0.811E-01    0.343E-01
RMM:   3    -0.637245568496E+03    0.31255E-03   -0.62648E-03 11367   0.238E-01    0.251E-01
RMM:   4    -0.637245564033E+03    0.44638E-05   -0.14318E-03 11125   0.104E-01    0.191E-01
RMM:   5    -0.637245364153E+03    0.19988E-03   -0.33630E-04  9243   0.596E-02    0.868E-02
RMM:   6    -0.637245337426E+03    0.26727E-04   -0.15834E-04  8495   0.315E-02    0.586E-02
RMM:   7    -0.637245345808E+03   -0.83824E-05   -0.10411E-04  8247   0.276E-02    0.745E-02
RMM:   8    -0.637245338929E+03    0.68792E-05   -0.87564E-05  7763   0.274E-02
  44 F= -.63724534E+03 E0= -.63716882E+03  d E =-.184254E-02
       N       E                     dE             d eps       ncg     rms          rms(c)
DAV:   1    -0.637239557090E+03    0.57887E-02   -0.50018E-01 10752   0.395E+00    0.482E-01
RMM:   2    -0.637270575862E+03   -0.31019E-01   -0.12916E-01 11783   0.112E+00    0.170E+00
RMM:   3    -0.637250370907E+03    0.20205E-01   -0.17708E-02 10811   0.483E-01    0.825E-01
RMM:   4    -0.637246740793E+03    0.36301E-02   -0.56053E-03 11336   0.218E-01    0.355E-01
RMM:   5    -0.637246545999E+03    0.19479E-03   -0.15971E-03 10769   0.123E-01    0.301E-01
RMM:   6    -0.637246155862E+03    0.39014E-03   -0.72157E-04 10814   0.795E-02    0.197E-01
RMM:   7    -0.637245989941E+03    0.16592E-03   -0.32097E-04  9175   0.618E-02    0.117E-01
RMM:   8    -0.637246040473E+03   -0.50532E-04   -0.34244E-04 10604   0.538E-02    0.139E-01
RMM:   9    -0.637245944029E+03    0.96445E-04   -0.15748E-04  8733   0.445E-02    0.846E-02
RMM:  10    -0.637245931311E+03    0.12718E-04   -0.83366E-05  7247   0.292E-02    0.604E-02
RMM:  11    -0.637245924967E+03    0.63438E-05   -0.43570E-05  6268   0.234E-02
  45 F= -.63724592E+03 E0= -.63716951E+03  d E =-.586038E-03
       N       E                     dE             d eps       ncg     rms          rms(c)
DAV:   1    -0.637245918463E+03    0.12847E-04   -0.20830E-04 13608   0.793E-02    0.180E-02
RMM:   2    -0.637245968322E+03   -0.49859E-04   -0.50315E-05  6386   0.275E-02    0.878E-02
RMM:   3    -0.637245925483E+03    0.42839E-04   -0.20123E-05  5715   0.247E-02    0.193E-02
RMM:   4    -0.637245925430E+03    0.53260E-07   -0.57276E-06  4808   0.937E-03
  46 F= -.63724593E+03 E0= -.63716951E+03  d E =-.586501E-03
       N       E                     dE             d eps       ncg     rms          rms(c)
DAV:   1    -0.637240027012E+03    0.58985E-02   -0.47446E-01 10416   0.374E+00    0.359E-01
RMM:   2    -0.637257434533E+03   -0.17408E-01   -0.10978E-01 12266   0.945E-01    0.101E+00
RMM:   3    -0.637248761375E+03    0.86732E-02   -0.10138E-02 11117   0.369E-01    0.581E-01
RMM:   4    -0.637247115868E+03    0.16455E-02   -0.35062E-03 11443   0.173E-01    0.245E-01
RMM:   5    -0.637247231521E+03   -0.11565E-03   -0.10571E-03 10475   0.996E-02    0.303E-01
RMM:   6    -0.637246772469E+03    0.45905E-03   -0.46231E-04 10135   0.689E-02    0.137E-01
RMM:   7    -0.637246737503E+03    0.34967E-04   -0.28704E-04  9518   0.483E-02    0.120E-01
RMM:   8    -0.637246732058E+03    0.54442E-05   -0.21543E-04  9455   0.499E-02    0.112E-01
RMM:   9    -0.637246656957E+03    0.75102E-04   -0.13712E-04  8513   0.359E-02    0.523E-02
RMM:  10    -0.637246664155E+03   -0.71982E-05   -0.59566E-05  6218   0.256E-02
  47 F= -.63724666E+03 E0= -.63717019E+03  d E =-.738725E-03
       N       E                     dE             d eps       ncg     rms          rms(c)
DAV:   1    -0.637246645500E+03    0.11456E-04   -0.39520E-04 13344   0.111E-01    0.312E-02
RMM:   2    -0.637246951683E+03   -0.30618E-03   -0.20861E-04  8108   0.499E-02    0.250E-01
RMM:   3    -0.637246650518E+03    0.30116E-03   -0.80036E-05  6750   0.409E-02    0.310E-02
RMM:   4    -0.637246643748E+03    0.67699E-05   -0.11751E-05  5316   0.149E-02
  48 F= -.63724664E+03 E0= -.63717018E+03  d E =-.718318E-03
       N       E                     dE             d eps       ncg     rms          rms(c)
DAV:   1    -0.637246641220E+03    0.92985E-05   -0.15304E-04 12528   0.706E-02    0.119E-02
RMM:   2    -0.637246667152E+03   -0.25933E-04   -0.28216E-05  5903   0.216E-02    0.661E-02
RMM:   3    -0.637246642076E+03    0.25077E-04   -0.12014E-05  5140   0.216E-02    0.125E-02
RMM:   4    -0.637246641343E+03    0.73263E-06   -0.36470E-06  4514   0.735E-03
  49 F= -.63724664E+03 E0= -.63717018E+03  d E =-.715913E-03
       N       E                     dE             d eps       ncg     rms          rms(c)
DAV:   1    -0.637244378153E+03    0.22639E-02   -0.12120E-01  9744   0.216E+00    0.811E-02
RMM:   2    -0.637246928956E+03   -0.25508E-02   -0.26148E-02 12740   0.435E-01    0.917E-02
RMM:   3    -0.637246975795E+03   -0.46840E-04   -0.17732E-03 10725   0.155E-01    0.125E-01
RMM:   4    -0.637246963822E+03    0.11974E-04   -0.46123E-04  9280   0.663E-02    0.963E-02
RMM:   5    -0.637246921689E+03    0.42132E-04   -0.12024E-04  7241   0.343E-02    0.454E-02
RMM:   6    -0.637246917165E+03    0.45241E-05   -0.38329E-05  6355   0.217E-02
  50 F= -.63724692E+03 E0= -.63717045E+03  d E =-.275822E-03
       N       E                     dE             d eps       ncg     rms          rms(c)
DAV:   1    -0.637246727699E+03    0.19399E-03   -0.10264E-02 10176   0.629E-01    0.523E-02
RMM:   2    -0.637247559742E+03   -0.83204E-03   -0.28907E-03 12005   0.140E-01    0.326E-01
RMM:   3    -0.637246961236E+03    0.59851E-03   -0.34852E-04  8490   0.830E-02    0.731E-02
RMM:   4    -0.637246942298E+03    0.18938E-04   -0.10667E-04  7795   0.305E-02    0.319E-02
RMM:   5    -0.637246942905E+03   -0.60690E-06   -0.24791E-05  5830   0.196E-02
  51 F= -.63724694E+03 E0= -.63717049E+03  d E =-.301562E-03
       N       E                     dE             d eps       ncg     rms          rms(c)
DAV:   1    -0.637246214173E+03    0.72812E-03   -0.41784E-02 11160   0.132E+00    0.103E-01
RMM:   2    -0.637248045987E+03   -0.18318E-02   -0.11958E-02 12604   0.286E-01    0.319E-01
RMM:   3    -0.637247279318E+03    0.76667E-03   -0.10077E-03 10291   0.119E-01    0.189E-01
RMM:   4    -0.637247098174E+03    0.18114E-03   -0.32806E-04  9925   0.586E-02    0.671E-02
RMM:   5    -0.637247111934E+03   -0.13760E-04   -0.89584E-05  7039   0.324E-02    0.902E-02
RMM:   6    -0.637247072030E+03    0.39904E-04   -0.29304E-05  5715   0.247E-02    0.359E-02
RMM:   7    -0.637247070718E+03    0.13115E-05   -0.22862E-05  5723   0.187E-02
  52 F= -.63724707E+03 E0= -.63717064E+03  d E =-.127814E-03
       N       E                     dE             d eps       ncg     rms          rms(c)
DAV:   1    -0.637243147161E+03    0.39249E-02   -0.18532E-01 10584   0.279E+00    0.225E-01
RMM:   2    -0.637251914771E+03   -0.87676E-02   -0.54619E-02 12707   0.600E-01    0.712E-01
RMM:   3    -0.637247959297E+03    0.39555E-02   -0.45263E-03 11041   0.255E-01    0.406E-01
RMM:   4    -0.637247129084E+03    0.83021E-03   -0.15363E-03 10955   0.119E-01    0.146E-01
RMM:   5    -0.637247179839E+03   -0.50755E-04   -0.52558E-04  9974   0.618E-02    0.184E-01
RMM:   6    -0.637247021275E+03    0.15856E-03   -0.14566E-04  8013   0.452E-02    0.858E-02
RMM:   7    -0.637246990108E+03    0.31167E-04   -0.10736E-04  7854   0.286E-02    0.563E-02
RMM:   8    -0.637247022788E+03   -0.32680E-04   -0.83971E-05  7402   0.362E-02    0.932E-02
RMM:   9    -0.637246975058E+03    0.47730E-04   -0.60790E-05  7307   0.278E-02    0.369E-02
RMM:  10    -0.637246976372E+03   -0.13138E-05   -0.25282E-05  5753   0.200E-02
  53 F= -.63724698E+03 E0= -.63717057E+03  d E =-.334671E-04
       N       E                     dE             d eps       ncg     rms          rms(c)
DAV:   1    -0.637245955205E+03    0.10199E-02   -0.62040E-02 11784   0.160E+00    0.130E-01
RMM:   2    -0.637248872590E+03   -0.29174E-02   -0.17114E-02 12413   0.342E-01    0.442E-01
RMM:   3    -0.637247416212E+03    0.14564E-02   -0.15023E-03 10563   0.152E-01    0.224E-01
RMM:   4    -0.637247156411E+03    0.25980E-03   -0.49801E-04 10757   0.695E-02    0.915E-02
RMM:   5    -0.637247161286E+03   -0.48756E-05   -0.12120E-04  7848   0.370E-02    0.102E-01
RMM:   6    -0.637247107402E+03    0.53884E-04   -0.41472E-05  6001   0.266E-02    0.452E-02
RMM:   7    -0.637247101576E+03    0.58268E-05   -0.28782E-05  5837   0.230E-02
  54 F= -.63724710E+03 E0= -.63717067E+03  d E =-.158671E-03
       N       E                     dE             d eps       ncg     rms          rms(c)
DAV:   1    -0.637247030170E+03    0.77233E-04   -0.45427E-03 12456   0.433E-01    0.569E-02
RMM:   2    -0.637247732073E+03   -0.70190E-03   -0.16871E-03 11214   0.110E-01    0.301E-01
RMM:   3    -0.637247146924E+03    0.58515E-03   -0.27990E-04  8535   0.735E-02    0.925E-02
RMM:   4    -0.637247100138E+03    0.46785E-04   -0.74746E-05  7230   0.305E-02    0.305E-02
RMM:   5    -0.637247101491E+03   -0.13528E-05   -0.18161E-05  5565   0.196E-02
  55 F= -.63724710E+03 E0= -.63717068E+03  d E =-.158587E-03
       N       E                     dE             d eps       ncg     rms          rms(c)
DAV:   1    -0.637247085818E+03    0.14321E-04   -0.59357E-04 12696   0.156E-01    0.159E-02
RMM:   2    -0.637247139564E+03   -0.53747E-04   -0.14632E-04  8235   0.361E-02    0.890E-02
RMM:   3    -0.637247097995E+03    0.41569E-04   -0.22399E-05  5746   0.247E-02    0.261E-02
RMM:   4    -0.637247094716E+03    0.32791E-05   -0.73843E-06  4496   0.132E-02
  56 F= -.63724709E+03 E0= -.63717067E+03  d E =-.151812E-03
       N       E                     dE             d eps       ncg     rms          rms(c)
DAV:   1    -0.637247094375E+03    0.36201E-05   -0.15902E-04 12240   0.842E-02    0.175E-02
RMM:   2    -0.637247180955E+03   -0.86580E-04   -0.70916E-05  6766   0.315E-02    0.128E-01
RMM:   3    -0.637247097188E+03    0.83767E-04   -0.26549E-05  5864   0.277E-02    0.201E-02
RMM:   4    -0.637247094995E+03    0.21930E-05   -0.38015E-06  4367   0.877E-03
  57 F= -.63724709E+03 E0= -.63717067E+03  d E =-.152090E-03
       N       E                     dE             d eps       ncg     rms          rms(c)
DAV:   1    -0.637247093108E+03    0.40799E-05   -0.39419E-05  7824   0.462E-02    0.473E-03
RMM:   2    -0.637247097505E+03   -0.43973E-05   -0.11308E-05  4870   0.141E-02
  58 F= -.63724710E+03 E0= -.63717067E+03  d E =-.154600E-03
       N       E                     dE             d eps       ncg     rms          rms(c)
DAV:   1    -0.637247094353E+03   -0.12451E-05   -0.21072E-05  6048   0.384E-02    0.697E-03
RMM:   2    -0.637247107097E+03   -0.12744E-04   -0.75901E-06  4761   0.127E-02    0.513E-02
RMM:   3    -0.637247094847E+03    0.12249E-04   -0.50173E-06  4409   0.115E-02    0.121E-02
RMM:   4    -0.637247094063E+03    0.78468E-06   -0.11010E-06  4279   0.446E-03
  59 F= -.63724709E+03 E0= -.63717067E+03  d E =-.151158E-03
       N       E                     dE             d eps       ncg     rms          rms(c)
DAV:   1    -0.637246693552E+03    0.40130E-03   -0.17797E-02  9528   0.902E-01    0.571E-02
RMM:   2    -0.637247354580E+03   -0.66103E-03   -0.55754E-03 12846   0.187E-01    0.135E-01
RMM:   3    -0.637247200715E+03    0.15386E-03   -0.38239E-04  9162   0.747E-02    0.860E-02
RMM:   4    -0.637247176952E+03    0.23763E-04   -0.10300E-04  7499   0.345E-02    0.500E-02
RMM:   5    -0.637247177610E+03   -0.65764E-06   -0.28154E-05  5764   0.241E-02
  60 F= -.63724718E+03 E0= -.63717075E+03  d E =-.835472E-04
       N       E                     dE             d eps       ncg     rms          rms(c)
DAV:   1    -0.637247144554E+03    0.32398E-04   -0.21868E-03 13368   0.306E-01    0.301E-02
RMM:   2    -0.637247288222E+03   -0.14367E-03   -0.54372E-04  9662   0.684E-02    0.128E-01
RMM:   3    -0.637247189672E+03    0.98550E-04   -0.73050E-05  6484   0.402E-02    0.394E-02
RMM:   4    -0.637247182442E+03    0.72303E-05   -0.21303E-05  5668   0.190E-02
  61 F= -.63724718E+03 E0= -.63717075E+03  d E =-.883792E-04
       N       E                     dE             d eps       ncg     rms          rms(c)
DAV:   1    -0.637247007538E+03    0.18213E-03   -0.80544E-03 10176   0.597E-01    0.446E-02
RMM:   2    -0.637247363670E+03   -0.35613E-03   -0.25381E-03 12093   0.128E-01    0.143E-01
RMM:   3    -0.637247254999E+03    0.10867E-03   -0.20143E-04  8122   0.579E-02    0.105E-01
RMM:   4    -0.637247205144E+03    0.49855E-04   -0.60482E-05  6618   0.306E-02    0.229E-02
RMM:   5    -0.637247207060E+03   -0.19154E-05   -0.19925E-05  5617   0.206E-02
  62 F= -.63724721E+03 E0= -.63717076E+03  d E =-.112997E-03
       N       E                     dE             d eps       ncg     rms          rms(c)
DAV:   1    -0.637247172778E+03    0.32366E-04   -0.98917E-04 12000   0.211E-01    0.157E-02
RMM:   2    -0.637247220390E+03   -0.47613E-04   -0.26205E-04  9387   0.430E-02    0.643E-02
RMM:   3    -0.637247195202E+03    0.25189E-04   -0.25909E-05  5695   0.263E-02    0.169E-02
RMM:   4    -0.637247195357E+03   -0.15512E-06   -0.80984E-06  4577   0.121E-02
  63 F= -.63724720E+03 E0= -.63717077E+03  d E =-.101294E-03
       N       E                     dE             d eps       ncg     rms          rms(c)
DAV:   1    -0.637247187825E+03    0.73764E-05   -0.62229E-04 12144   0.170E-01    0.189E-02
RMM:   2    -0.637247312220E+03   -0.12439E-03   -0.18898E-04  8136   0.420E-02    0.151E-01
RMM:   3    -0.637247201043E+03    0.11118E-03   -0.36148E-05  5978   0.279E-02    0.170E-02
RMM:   4    -0.637247199697E+03    0.13458E-05   -0.72163E-06  4519   0.116E-02
  64 F= -.63724720E+03 E0= -.63717076E+03  d E =-.105634E-03
       N       E                     dE             d eps       ncg     rms          rms(c)
DAV:   1    -0.637247181652E+03    0.19391E-04   -0.43670E-03 11544   0.385E-01    0.415E-02
RMM:   2    -0.637247399929E+03   -0.21828E-03   -0.10648E-03 10979   0.966E-02    0.134E-01
RMM:   3    -0.637247268157E+03    0.13177E-03   -0.12267E-04  7634   0.514E-02    0.665E-02
RMM:   4    -0.637247243435E+03    0.24723E-04   -0.38858E-05  6095   0.245E-02    0.255E-02
RMM:   5    -0.637247245077E+03   -0.16427E-05   -0.13806E-05  5348   0.195E-02
  65 F= -.63724725E+03 E0= -.63717079E+03  d E =-.453804E-04
