<?xml version="1.0" encoding="ISO-8859-1"?>
<modeling>
 <generator>
  <i name="program" type="string">vasp </i>
  <i name="version" type="string">5.4.4.18Apr17-6-g9f103f2a35  </i>
  <i name="subversion" type="string">(build Oct 18 2021 20:38:43) complex            parallel </i>
  <i name="platform" type="string">LinuxIFC </i>
  <i name="date" type="string">2024 06 11 </i>
  <i name="time" type="string">17:00:07 </i>
 </generator>
 <incar>
  <i type="string" name="SYSTEM">HECN</i>
  <i type="int" name="ISTART">     0</i>
  <i type="string" name="PREC">normal</i>
  <i type="string" name="ALGO">Fast</i>
  <i type="int" name="ICHARG">     2</i>
  <i type="int" name="NELM">    60</i>
  <i type="int" name="IBRION">     2</i>
  <i name="EDIFF">      0.00001000</i>
  <i name="EDIFFG">     -0.01000000</i>
  <i type="int" name="NSW">   100</i>
  <i type="int" name="ISIF">     3</i>
  <i name="ENCUT">    400.00000000</i>
  <i name="POTIM">      0.50000000</i>
  <i type="logical" name="LREAL"> F  </i>
  <i type="int" name="ISMEAR">     0</i>
  <i name="SIGMA">      0.10000000</i>
  <i type="logical" name="LWAVE"> F  </i>
  <i type="logical" name="LCHARG"> F  </i>
  <v type="int" name="KPOINT_BSE">    -1     0     0     0</v>
  <i type="int" name="NELM">    60</i>
 </incar>
 <structure name="primitive_cell" >
  <crystal>
   <varray name="basis" >
    <v>       8.93249989       0.00000000       0.00000000 </v>
    <v>       0.00575300       9.05559834       0.00000000 </v>
    <v>       0.03210180      -0.01574346       8.93712807 </v>
   </varray>
   <i name="volume">    722.91652451 </i>
   <varray name="rec_basis" >
    <v>       0.11195074      -0.00007112      -0.00040225 </v>
    <v>       0.00000000       0.11042893       0.00019453 </v>
    <v>       0.00000000       0.00000000       0.11189277 </v>
   </varray>
  </crystal>
  <varray name="positions" >
   <v>      -0.00311999      -0.00795003      -0.00075998 </v>
   <v>      -0.25232999      -0.00252000       0.01202000 </v>
   <v>      -0.00162995      -0.25686004       0.00460000 </v>
   <v>      -0.00280000      -0.00228008       0.25899999 </v>
   <v>       0.00281000       0.25024000       0.00130000 </v>
   <v>      -0.01103011       0.00202000      -0.26291001 </v>
   <v>       0.26146999      -0.00015998      -0.00704004 </v>
   <v>      -0.00135002      -0.22426001       0.26102000 </v>
   <v>      -0.25720997      -0.02130006      -0.23549005 </v>
   <v>       0.23780002       0.01082000      -0.25392002 </v>
   <v>      -0.24282000      -0.25897003       0.01100000 </v>
   <v>       0.24762001      -0.25026001      -0.00025994 </v>
   <v>      -0.00485996      -0.25507996      -0.25488003 </v>
   <v>      -0.24281000       0.25603001      -0.00408003 </v>
   <v>       0.25398003      -0.00285005       0.24912000 </v>
   <v>       0.24788999       0.24839000      -0.00342003 </v>
   <v>      -0.00562996       0.23617001       0.26379999 </v>
   <v>      -0.25120996      -0.01212001       0.26967001 </v>
   <v>       0.00201000       0.25541000      -0.26105999 </v>
   <v>       0.24177002      -0.24659003      -0.24981998 </v>
   <v>      -0.24963995      -0.25112000      -0.25243996 </v>
   <v>      -0.24255004       0.24437997      -0.25103001 </v>
   <v>       0.25133999      -0.25041998       0.24910999 </v>
   <v>      -0.24367000      -0.26108997       0.25767000 </v>
   <v>      -0.24686002       0.24616999       0.25492002 </v>
   <v>       0.24982001       0.24942998       0.24825000 </v>
   <v>       0.24900999       0.25315000      -0.25146000 </v>
   <v>      -0.48411003       0.01358000      -0.01924992 </v>
   <v>      -0.00158006      -0.49023002      -0.01386996 </v>
   <v>       0.02362000      -0.00216999       0.49557002 </v>
   <v>      -0.49480995      -0.23869001       0.00855000 </v>
   <v>      -0.49285006      -0.00023001       0.24673000 </v>
   <v>      -0.24160996      -0.49684002       0.00288000 </v>
   <v>      -0.00999997      -0.23784997       0.49746000 </v>
   <v>      -0.00948001       0.48088003       0.24100999 </v>
   <v>       0.24446000      -0.00176004      -0.49712002 </v>
   <v>      -0.26367999       0.00417000      -0.48937000 </v>
   <v>       0.24328000      -0.49927003      -0.00489006 </v>
   <v>      -0.49572003       0.24673000       0.00262000 </v>
   <v>      -0.00796004      -0.49944001      -0.24861998 </v>
   <v>      -0.00195991       0.24229999      -0.49871997 </v>
   <v>      -0.49991002       0.00061000      -0.26528002 </v>
   <v>      -0.26123997      -0.47171998      -0.26185001 </v>
   <v>       0.49950005      -0.24518001      -0.25182996 </v>
   <v>       0.24457999      -0.24951001       0.49983999 </v>
   <v>      -0.24599997      -0.27062001       0.49116997 </v>
   <v>      -0.49520997       0.24631001      -0.25289998 </v>
   <v>       0.24803003      -0.49835000       0.24955001 </v>
   <v>      -0.26448999      -0.48531996       0.26666001 </v>
   <v>      -0.49167000       0.25676999       0.25376001 </v>
   <v>      -0.49620997      -0.26073003       0.25905001 </v>
   <v>      -0.24692999       0.26163001      -0.49466998 </v>
   <v>       0.25272001       0.24823001      -0.49984997 </v>
   <v>       0.25679999       0.49462002      -0.25454998 </v>
   <v>       0.47957999      -0.01691999       0.49717999 </v>
   <v>      -0.49498994       0.49745998      -0.00165997 </v>
   <v>      -0.00572008      -0.49550001       0.49779000 </v>
   <v>      -0.49436004       0.23264998       0.49544997 </v>
   <v>      -0.49424994      -0.25041998       0.49720000 </v>
   <v>      -0.49299998      -0.49666998       0.25878999 </v>
   <v>      -0.49498997      -0.49782002      -0.26087997 </v>
   <v>      -0.25963999      -0.49803000      -0.49932997 </v>
   <v>       0.25841001      -0.49937998      -0.49870999 </v>
   <v>      -0.49461000      -0.47166995       0.49917999 </v>
  </varray>
 </structure>
 <varray name="primitive_index" >
  <v type="int" >        1 </v>
  <v type="int" >       25 </v>
  <v type="int" >       38 </v>
  <v type="int" >       34 </v>
  <v type="int" >       23 </v>
  <v type="int" >       29 </v>
  <v type="int" >       22 </v>
  <v type="int" >       59 </v>
  <v type="int" >       58 </v>
  <v type="int" >       56 </v>
  <v type="int" >        9 </v>
  <v type="int" >       18 </v>
  <v type="int" >       12 </v>
  <v type="int" >       17 </v>
  <v type="int" >        2 </v>
  <v type="int" >       14 </v>
  <v type="int" >        8 </v>
  <v type="int" >       16 </v>
  <v type="int" >       10 </v>
  <v type="int" >       45 </v>
  <v type="int" >       49 </v>
  <v type="int" >       30 </v>
  <v type="int" >       36 </v>
  <v type="int" >       39 </v>
  <v type="int" >       24 </v>
  <v type="int" >       21 </v>
  <v type="int" >       42 </v>
  <v type="int" >       53 </v>
  <v type="int" >       54 </v>
  <v type="int" >       61 </v>
  <v type="int" >       28 </v>
  <v type="int" >       26 </v>
  <v type="int" >       40 </v>
  <v type="int" >       47 </v>
  <v type="int" >       27 </v>
  <v type="int" >       43 </v>
  <v type="int" >       31 </v>
  <v type="int" >       37 </v>
  <v type="int" >       35 </v>
  <v type="int" >       48 </v>
  <v type="int" >       44 </v>
  <v type="int" >       33 </v>
  <v type="int" >       63 </v>
  <v type="int" >        7 </v>
  <v type="int" >       20 </v>
  <v type="int" >       64 </v>
  <v type="int" >        5 </v>
  <v type="int" >        3 </v>
  <v type="int" >       60 </v>
  <v type="int" >       15 </v>
  <v type="int" >       55 </v>
  <v type="int" >       11 </v>
  <v type="int" >       19 </v>
  <v type="int" >       13 </v>
  <v type="int" >       57 </v>
  <v type="int" >        4 </v>
  <v type="int" >        6 </v>
  <v type="int" >       32 </v>
  <v type="int" >       51 </v>
  <v type="int" >       41 </v>
  <v type="int" >       52 </v>
  <v type="int" >       50 </v>
  <v type="int" >       46 </v>
  <v type="int" >       62 </v>
 </varray>
 <kpoints>
  <generation param="Gamma">
   <v type="int" name="divisions">       3        3        3 </v>
   <v name="usershift">      0.00000000       0.00000000       0.00000000 </v>
   <v name="genvec1">      0.33333333      -0.00000000      -0.00000000 </v>
   <v name="genvec2">      0.00000000       0.33333333       0.00000000 </v>
   <v name="genvec3">      0.00000000       0.00000000       0.33333333 </v>
   <v name="shift">      0.00000000       0.00000000       0.00000000 </v>
  </generation>
  <varray name="kpointlist" >
   <v>       0.00000000       0.00000000       0.00000000 </v>
   <v>       0.33333333       0.00000000       0.00000000 </v>
   <v>       0.00000000       0.33333333       0.00000000 </v>
   <v>       0.33333333       0.33333333       0.00000000 </v>
   <v>      -0.33333333       0.33333333       0.00000000 </v>
   <v>       0.00000000       0.00000000       0.33333333 </v>
   <v>       0.33333333       0.00000000       0.33333333 </v>
   <v>      -0.33333333       0.00000000       0.33333333 </v>
   <v>       0.00000000       0.33333333       0.33333333 </v>
   <v>       0.33333333       0.33333333       0.33333333 </v>
   <v>      -0.33333333       0.33333333       0.33333333 </v>
   <v>       0.00000000      -0.33333333       0.33333333 </v>
   <v>       0.33333333      -0.33333333       0.33333333 </v>
   <v>      -0.33333333      -0.33333333       0.33333333 </v>
  </varray>
  <varray name="weights" >
   <v>       0.03703704 </v>
   <v>       0.07407407 </v>
   <v>       0.07407407 </v>
   <v>       0.07407407 </v>
   <v>       0.07407407 </v>
   <v>       0.07407407 </v>
   <v>       0.07407407 </v>
   <v>       0.07407407 </v>
   <v>       0.07407407 </v>
   <v>       0.07407407 </v>
   <v>       0.07407407 </v>
   <v>       0.07407407 </v>
   <v>       0.07407407 </v>
   <v>       0.07407407 </v>
  </varray>
 </kpoints>
 <parameters>
  <separator name="general" >
   <i type="string" name="SYSTEM">HECN</i>
   <i type="logical" name="LCOMPAT"> F  </i>
  </separator>
  <separator name="electronic" >
   <i type="string" name="PREC">normal</i>
   <i name="ENMAX">    400.00000000</i>
   <i name="ENAUG">    644.87300000</i>
   <i name="EDIFF">      0.00001000</i>
   <i type="int" name="IALGO">    68</i>
   <i type="int" name="IWAVPR">    11</i>
   <i type="int" name="NBANDS">   312</i>
   <i name="NELECT">    488.00000000</i>
   <i type="int" name="TURBO">     0</i>
   <i type="int" name="IRESTART">     0</i>
   <i type="int" name="NREBOOT">     0</i>
   <i type="int" name="NMIN">     0</i>
   <i name="EREF">      0.00000000</i>
   <separator name="electronic smearing" >
    <i type="int" name="ISMEAR">     0</i>
    <i name="SIGMA">      0.10000000</i>
    <i name="KSPACING">      0.50000000</i>
    <i type="logical" name="KGAMMA"> T  </i>
   </separator>
   <separator name="electronic projectors" >
    <i type="logical" name="LREAL"> F  </i>
    <v name="ROPT">      0.00000000      0.00000000      0.00000000      0.00000000      0.00000000      0.00000000      0.00000000</v>
    <i type="int" name="LMAXPAW">  -100</i>
    <i type="int" name="LMAXMIX">     2</i>
    <i type="logical" name="NLSPLINE"> F  </i>
   </separator>
   <separator name="electronic startup" >
    <i type="int" name="ISTART">     0</i>
    <i type="int" name="ICHARG">     2</i>
    <i type="int" name="INIWAV">     1</i>
   </separator>
   <separator name="electronic spin" >
    <i type="int" name="ISPIN">     1</i>
    <i type="logical" name="LNONCOLLINEAR"> F  </i>
    <v name="MAGMOM">      1.00000000      1.00000000      1.00000000      1.00000000      1.00000000      1.00000000      1.00000000      1.00000000      1.00000000      1.00000000      1.00000000      1.00000000      1.00000000      1.00000000      1.00000000      1.00000000      1.00000000      1.00000000      1.00000000      1.00000000
      1.00000000      1.00000000      1.00000000      1.00000000      1.00000000      1.00000000      1.00000000      1.00000000      1.00000000      1.00000000      1.00000000      1.00000000      1.00000000      1.00000000      1.00000000      1.00000000      1.00000000      1.00000000      1.00000000      1.00000000
      1.00000000      1.00000000      1.00000000      1.00000000      1.00000000      1.00000000      1.00000000      1.00000000      1.00000000      1.00000000      1.00000000      1.00000000      1.00000000      1.00000000      1.00000000      1.00000000      1.00000000      1.00000000      1.00000000      1.00000000
      1.00000000      1.00000000      1.00000000      1.00000000</v>
    <i name="NUPDOWN">     -1.00000000</i>
    <i type="logical" name="LSORBIT"> F  </i>
    <v name="SAXIS">      0.00000000      0.00000000      1.00000000</v>
    <i type="logical" name="LSPIRAL"> F  </i>
    <v name="QSPIRAL">      0.00000000      0.00000000      0.00000000</v>
    <i type="logical" name="LZEROZ"> F  </i>
   </separator>
   <separator name="electronic exchange-correlation" >
    <i type="logical" name="LASPH"> F  </i>
    <i type="logical" name="LMETAGGA"> F  </i>
   </separator>
   <separator name="electronic convergence" >
    <i type="int" name="NELM">    60</i>
    <i type="int" name="NELMDL">    -5</i>
    <i type="int" name="NELMIN">     2</i>
    <i name="ENINI">    400.00000000</i>
    <separator name="electronic convergence detail" >
     <i type="logical" name="LDIAG"> T  </i>
     <i type="logical" name="LSUBROT"> F  </i>
     <i name="WEIMIN">      0.00100000</i>
     <i name="EBREAK">      0.00000001</i>
     <i name="DEPER">      0.30000000</i>
     <i type="int" name="NRMM">     4</i>
     <i name="TIME">      0.40000000</i>
    </separator>
   </separator>
   <separator name="electronic mixer" >
    <i name="AMIX">      0.40000000</i>
    <i name="BMIX">      1.00000000</i>
    <i name="AMIN">      0.10000000</i>
    <i name="AMIX_MAG">      1.60000000</i>
    <i name="BMIX_MAG">      1.00000000</i>
    <separator name="electronic mixer details" >
     <i type="int" name="IMIX">     4</i>
     <i type="logical" name="MIXFIRST"> F  </i>
     <i type="int" name="MAXMIX">   -45</i>
     <i name="WC">    100.00000000</i>
     <i type="int" name="INIMIX">     1</i>
     <i type="int" name="MIXPRE">     1</i>
     <i type="int" name="MREMOVE">     5</i>
    </separator>
   </separator>
   <separator name="electronic dipolcorrection" >
    <i type="logical" name="LDIPOL"> F  </i>
    <i type="logical" name="LMONO"> F  </i>
    <i type="int" name="IDIPOL">     0</i>
    <i name="EPSILON">      1.00000000</i>
    <v name="DIPOL">   -100.00000000   -100.00000000   -100.00000000</v>
    <i name="EFIELD">      0.00000000</i>
   </separator>
  </separator>
  <separator name="grids" >
   <i type="int" name="NGX">    48</i>
   <i type="int" name="NGY">    48</i>
   <i type="int" name="NGZ">    48</i>
   <i type="int" name="NGXF">    96</i>
   <i type="int" name="NGYF">    96</i>
   <i type="int" name="NGZF">    96</i>
   <i type="logical" name="ADDGRID"> F  </i>
  </separator>
  <separator name="ionic" >
   <i type="int" name="NSW">   100</i>
   <i type="int" name="IBRION">     2</i>
   <i type="int" name="MDALGO">     0</i>
   <i type="int" name="ISIF">     3</i>
   <i name="PSTRESS">      0.00000000</i>
   <i name="EDIFFG">     -0.01000000</i>
   <i type="int" name="NFREE">     1</i>
   <i name="POTIM">      0.50000000</i>
   <i name="SMASS">     -3.00000000</i>
   <i name="SCALEE">      1.00000000</i>
  </separator>
  <separator name="ionic md" >
   <i name="TEBEG">      0.00010000</i>
   <i name="TEEND">      0.00010000</i>
   <i type="int" name="NBLOCK">     1</i>
   <i type="int" name="KBLOCK">   100</i>
   <i type="int" name="NPACO">   256</i>
   <i name="APACO">     16.00000000</i>
  </separator>
  <separator name="symmetry" >
   <i type="int" name="ISYM">     2</i>
   <i name="SYMPREC">      0.00001000</i>
  </separator>
  <separator name="dos" >
   <i type="int" name="LORBIT">     0</i>
   <v name="RWIGS">     -1.00000000     -1.00000000     -1.00000000     -1.00000000     -1.00000000     -1.00000000     -1.00000000</v>
   <i type="int" name="NEDOS">   301</i>
   <i name="EMIN">     10.00000000</i>
   <i name="EMAX">    -10.00000000</i>
   <i name="EFERMI">      0.00000000</i>
  </separator>
  <separator name="writing" >
   <i type="int" name="NWRITE">     2</i>
   <i type="logical" name="LWAVE"> F  </i>
   <i type="logical" name="LDOWNSAMPLE"> F  </i>
   <i type="logical" name="LCHARG"> F  </i>
   <i type="logical" name="LPARD"> F  </i>
   <i type="logical" name="LVTOT"> F  </i>
   <i type="logical" name="LVHAR"> F  </i>
   <i type="logical" name="LELF"> F  </i>
   <i type="logical" name="LOPTICS"> F  </i>
   <v name="STM">      0.00000000      0.00000000      0.00000000      0.00000000      0.00000000      0.00000000      0.00000000</v>
  </separator>
  <separator name="performance" >
   <i type="int" name="NPAR">    24</i>
   <i type="int" name="NSIM">     4</i>
   <i type="int" name="NBLK">    -1</i>
   <i type="logical" name="LPLANE"> T  </i>
   <i type="logical" name="LSCALAPACK"> T  </i>
   <i type="logical" name="LSCAAWARE"> F  </i>
   <i type="logical" name="LSCALU"> F  </i>
   <i type="logical" name="LASYNC"> F  </i>
   <i type="logical" name="LORBITALREAL"> F  </i>
  </separator>
  <separator name="miscellaneous" >
   <i type="int" name="IDIOT">     3</i>
   <i type="int" name="ISPECIAL">     0</i>
   <i type="logical" name="LMUSIC"> F  </i>
   <v name="POMASS">     50.94100000     92.91000000    178.49000000     14.00100000     12.01100000     51.99600000     95.94000000</v>
   <v name="DARWINR">      0.00000000      0.00000000      0.00000000      0.00000000      0.00000000      0.00000000      0.00000000</v>
   <v name="DARWINV">      1.00000000      1.00000000      1.00000000      1.00000000      1.00000000      1.00000000      1.00000000</v>
   <i type="logical" name="LCORR"> T  </i>
  </separator>
  <i type="logical" name="GGA_COMPAT"> T  </i>
  <i type="logical" name="LBERRY"> F  </i>
  <i type="int" name="ICORELEVEL">     0</i>
  <i type="logical" name="LDAU"> F  </i>
  <i type="int" name="I_CONSTRAINED_M">     0</i>
  <separator name="electronic exchange-correlation" >
   <i type="string" name="GGA">--</i>
   <i type="int" name="VOSKOWN">     0</i>
   <i type="logical" name="LHFCALC"> F  </i>
   <i type="string" name="PRECFOCK"></i>
   <i type="logical" name="LSYMGRAD"> F  </i>
   <i type="logical" name="LHFONE"> F  </i>
   <i type="logical" name="LRHFCALC"> F  </i>
   <i type="logical" name="LTHOMAS"> F  </i>
   <i type="logical" name="LMODELHF"> F  </i>
   <i name="ENCUT4O">     -1.00000000</i>
   <i type="int" name="EXXOEP">     0</i>
   <i type="int" name="FOURORBIT">     0</i>
   <i name="AEXX">      0.00000000</i>
   <i name="HFALPHA">      0.00000000</i>
   <i name="MCALPHA">      0.00000000</i>
   <i name="ALDAX">      1.00000000</i>
   <i name="AGGAX">      1.00000000</i>
   <i name="ALDAC">      1.00000000</i>
   <i name="AGGAC">      1.00000000</i>
   <i type="int" name="NKREDX">     1</i>
   <i type="int" name="NKREDY">     1</i>
   <i type="int" name="NKREDZ">     1</i>
   <i type="logical" name="SHIFTRED"> F  </i>
   <i type="logical" name="ODDONLY"> F  </i>
   <i type="logical" name="EVENONLY"> F  </i>
   <i type="int" name="LMAXFOCK">     0</i>
   <i type="int" name="NMAXFOCKAE">     0</i>
   <i type="logical" name="LFOCKAEDFT"> F  </i>
   <i name="HFSCREEN">      0.00000000</i>
   <i name="HFSCREENC">      0.00000000</i>
   <i type="int" name="NBANDSGWLOW">     0</i>
  </separator>
  <separator name="vdW DFT" >
   <i type="logical" name="LUSE_VDW"> F  </i>
   <i name="Zab_VDW">     -0.84910000</i>
   <i name="PARAM1">      0.12340000</i>
   <i name="PARAM2">      1.00000000</i>
   <i name="PARAM3">      0.00000000</i>
  </separator>
  <separator name="model GW" >
   <i type="int" name="MODEL_GW">     0</i>
   <i name="MODEL_EPS0">      6.77734242</i>
   <i name="MODEL_ALPHA">      1.00000000</i>
  </separator>
  <separator name="linear response parameters" >
   <i type="logical" name="LEPSILON"> F  </i>
   <i type="logical" name="LRPA"> F  </i>
   <i type="logical" name="LNABLA"> F  </i>
   <i type="logical" name="LVEL"> F  </i>
   <i type="int" name="KINTER">     0</i>
   <i name="CSHIFT">      0.10000000</i>
   <i name="OMEGAMAX">     -1.00000000</i>
   <i name="DEG_THRESHOLD">      0.00200000</i>
   <i name="RTIME">     -0.10000000</i>
   <i name="WPLASMAI">      0.00000000</i>
   <v name="DFIELD">      0.00000000      0.00000000      0.00000000</v>
   <v name="WPLASMA">      0.00000000      0.00000000      0.00000000      0.00000000      0.00000000      0.00000000      0.00000000      0.00000000      0.00000000</v>
  </separator>
  <separator name="orbital magnetization" >
   <i type="logical" name="NUCIND"> F  </i>
   <v name="MAGPOS">      0.00000000      0.00000000      0.00000000</v>
   <i type="logical" name="LNICSALL"> T  </i>
   <i type="logical" name="ORBITALMAG"> F  </i>
   <i type="logical" name="LMAGBLOCH"> F  </i>
   <i type="logical" name="LCHIMAG"> F  </i>
   <i type="logical" name="LGAUGE"> T  </i>
   <i type="int" name="MAGATOM">     0</i>
   <v name="MAGDIPOL">      0.00000000      0.00000000      0.00000000</v>
   <v name="AVECCONST">      0.00000000      0.00000000      0.00000000</v>
  </separator>
  <separator name="response functions" >
   <i type="logical" name="LADDER"> F  </i>
   <i type="logical" name="LRPAFORCE"> F  </i>
   <i type="logical" name="LFXC"> F  </i>
   <i type="logical" name="LHARTREE"> T  </i>
   <i type="int" name="IBSE">     0</i>
   <v type="int" name="KPOINT">    -1     0     0     0</v>
   <i type="logical" name="LTCTE"> F  </i>
   <i type="logical" name="LTETE"> F  </i>
   <i type="logical" name="LTRIPLET"> F  </i>
   <i type="logical" name="LFXCEPS"> F  </i>
   <i type="logical" name="LFXHEG"> F  </i>
   <i type="int" name="NATURALO">     2</i>
   <i type="logical" name="L2ORDER"> F  </i>
   <i type="logical" name="LMP2LT"> F  </i>
   <i type="logical" name="LUSEW"> F  </i>
   <i name="ENCUTGW">     -2.00000000</i>
   <i name="ENCUTGWSOFT">     -2.00000000</i>
   <i name="ENCUTLF">     -1.00000000</i>
   <i type="int" name="LMAXMP2">    -1</i>
   <i name="SCISSOR">      0.00000000</i>
   <i type="int" name="NOMEGA">     0</i>
   <i type="int" name="NOMEGAR">     0</i>
   <i type="int" name="NBANDSGW">    -1</i>
   <i type="int" name="NBANDSO">    -1</i>
   <i type="int" name="NBANDSV">    -1</i>
   <i type="int" name="NELM">    60</i>
   <i type="int" name="NELMHF">     1</i>
   <i type="int" name="DIM">     3</i>
   <i type="int" name="ANTIRES">     0</i>
   <i name="OMEGAMAX">    -30.00000000</i>
   <i name="OMEGAMIN">    -30.00000000</i>
   <i name="OMEGATL">   -200.00000000</i>
   <i type="int" name="OMEGAGRID">   140</i>
   <i name="CSHIFT">     -0.10000000</i>
   <i type="logical" name="SELFENERGY"> F  </i>
   <i type="logical" name="LSPECTRAL"> F  </i>
   <i type="logical" name="LSPECTRALGW"> F  </i>
   <i type="logical" name="LSINGLES"> F  </i>
   <i type="logical" name="LFERMIGW"> F  </i>
   <i type="logical" name="ODDONLYGW"> F  </i>
   <i type="logical" name="EVENONLYGW"> F  </i>
   <i type="int" name="NKREDLFX">     1</i>
   <i type="int" name="NKREDLFY">     1</i>
   <i type="int" name="NKREDLFZ">     1</i>
   <i type="int" name="MAXMEM">  2800</i>
   <i type="int" name="TELESCOPE">     0</i>
   <i type="int" name="TAUPAR">     1</i>
   <i type="int" name="OMEGAPAR">    -1</i>
   <i name="LAMBDA">      1.00000000</i>
  </separator>
  <separator name="External order field" >
   <i name="OFIELD_KAPPA">      0.00000000</i>
   <v name="OFIELD_K">      0.00000000      0.00000000      0.00000000</v>
   <i name="OFIELD_Q6_NEAR">      0.00000000</i>
   <i name="OFIELD_Q6_FAR">      0.00000000</i>
   <i name="OFIELD_A">      0.00000000</i>
  </separator>
 </parameters>
 <atominfo>
  <atoms>      64 </atoms>
  <types>       7 </types>
  <array name="atoms" >
   <dimension dim="1">ion</dimension>
   <field type="string">element</field>
   <field type="int">atomtype</field>
   <set>
    <rc><c>V </c><c>   1</c></rc>
    <rc><c>V </c><c>   1</c></rc>
    <rc><c>V </c><c>   1</c></rc>
    <rc><c>V </c><c>   1</c></rc>
    <rc><c>V </c><c>   1</c></rc>
    <rc><c>V </c><c>   1</c></rc>
    <rc><c>V </c><c>   1</c></rc>
    <rc><c>Nb</c><c>   2</c></rc>
    <rc><c>Nb</c><c>   2</c></rc>
    <rc><c>Nb</c><c>   2</c></rc>
    <rc><c>Nb</c><c>   2</c></rc>
    <rc><c>Nb</c><c>   2</c></rc>
    <rc><c>Nb</c><c>   2</c></rc>
    <rc><c>Hf</c><c>   3</c></rc>
    <rc><c>Hf</c><c>   3</c></rc>
    <rc><c>Hf</c><c>   3</c></rc>
    <rc><c>Hf</c><c>   3</c></rc>
    <rc><c>Hf</c><c>   3</c></rc>
    <rc><c>Hf</c><c>   3</c></rc>
    <rc><c>Hf</c><c>   3</c></rc>
    <rc><c>N </c><c>   4</c></rc>
    <rc><c>N </c><c>   4</c></rc>
    <rc><c>N </c><c>   4</c></rc>
    <rc><c>N </c><c>   4</c></rc>
    <rc><c>N </c><c>   4</c></rc>
    <rc><c>N </c><c>   4</c></rc>
    <rc><c>N </c><c>   4</c></rc>
    <rc><c>N </c><c>   4</c></rc>
    <rc><c>N </c><c>   4</c></rc>
    <rc><c>N </c><c>   4</c></rc>
    <rc><c>N </c><c>   4</c></rc>
    <rc><c>N </c><c>   4</c></rc>
    <rc><c>N </c><c>   4</c></rc>
    <rc><c>C </c><c>   5</c></rc>
    <rc><c>C </c><c>   5</c></rc>
    <rc><c>C </c><c>   5</c></rc>
    <rc><c>C </c><c>   5</c></rc>
    <rc><c>C </c><c>   5</c></rc>
    <rc><c>C </c><c>   5</c></rc>
    <rc><c>C </c><c>   5</c></rc>
    <rc><c>C </c><c>   5</c></rc>
    <rc><c>C </c><c>   5</c></rc>
    <rc><c>C </c><c>   5</c></rc>
    <rc><c>C </c><c>   5</c></rc>
    <rc><c>C </c><c>   5</c></rc>
    <rc><c>C </c><c>   5</c></rc>
    <rc><c>C </c><c>   5</c></rc>
    <rc><c>C </c><c>   5</c></rc>
    <rc><c>C </c><c>   5</c></rc>
    <rc><c>C </c><c>   5</c></rc>
    <rc><c>C </c><c>   5</c></rc>
    <rc><c>C </c><c>   5</c></rc>
    <rc><c>Cr</c><c>   6</c></rc>
    <rc><c>Cr</c><c>   6</c></rc>
    <rc><c>Cr</c><c>   6</c></rc>
    <rc><c>Cr</c><c>   6</c></rc>
    <rc><c>Cr</c><c>   6</c></rc>
    <rc><c>Cr</c><c>   6</c></rc>
    <rc><c>Mo</c><c>   7</c></rc>
    <rc><c>Mo</c><c>   7</c></rc>
    <rc><c>Mo</c><c>   7</c></rc>
    <rc><c>Mo</c><c>   7</c></rc>
    <rc><c>Mo</c><c>   7</c></rc>
    <rc><c>Mo</c><c>   7</c></rc>
   </set>
  </array>
  <array name="atomtypes" >
   <dimension dim="1">type</dimension>
   <field type="int">atomspertype</field>
   <field type="string">element</field>
   <field>mass</field>
   <field>valence</field>
   <field type="string">pseudopotential</field>
   <set>
    <rc><c>   7</c><c>V </c><c>     50.94100000</c><c>     13.00000000</c><c> PAW_PBE V_sv 07Sep2000                 </c></rc>
    <rc><c>   6</c><c>Nb</c><c>     92.91000000</c><c>     13.00000000</c><c> PAW_PBE Nb_sv 17Jan2003                </c></rc>
    <rc><c>   7</c><c>Hf</c><c>    178.49000000</c><c>     10.00000000</c><c> PAW_PBE Hf_pv 06Sep2000                </c></rc>
    <rc><c>  13</c><c>N </c><c>     14.00100000</c><c>      5.00000000</c><c> PAW_PBE N 08Apr2002                    </c></rc>
    <rc><c>  19</c><c>C </c><c>     12.01100000</c><c>      4.00000000</c><c> PAW_PBE C 08Apr2002                    </c></rc>
    <rc><c>   6</c><c>Cr</c><c>     51.99600000</c><c>     12.00000000</c><c> PAW_PBE Cr_pv 07Sep2000                </c></rc>
    <rc><c>   6</c><c>Mo</c><c>     95.94000000</c><c>      6.00000000</c><c> PAW_PBE Mo 08Apr2002                   </c></rc>
   </set>
  </array>
 </atominfo>
 <structure name="initialpos" >
  <crystal>
   <varray name="basis" >
    <v>       8.93249989       0.00000000       0.00000000 </v>
    <v>       0.00575300       9.05559834       0.00000000 </v>
    <v>       0.03210180      -0.01574346       8.93712807 </v>
   </varray>
   <i name="volume">    722.91652451 </i>
   <varray name="rec_basis" >
    <v>       0.11195074      -0.00007112      -0.00040225 </v>
    <v>       0.00000000       0.11042893       0.00019453 </v>
    <v>       0.00000000       0.00000000       0.11189277 </v>
   </varray>
  </crystal>
  <varray name="positions" >
   <v>       0.99688001       0.99204997       0.99924002 </v>
   <v>       0.25398003       0.99714995       0.24912000 </v>
   <v>       0.24803003       0.50165000       0.24955001 </v>
   <v>       0.50501006       0.49745998       0.99834003 </v>
   <v>       0.50479003       0.24631001       0.74710002 </v>
   <v>       0.99427992       0.50449999       0.49779000 </v>
   <v>       0.49950005       0.75481999       0.74817004 </v>
   <v>       0.99437004       0.23617001       0.26379999 </v>
   <v>       0.75718000       0.74102998       0.01100000 </v>
   <v>       0.00201000       0.25541000       0.73894001 </v>
   <v>       0.75307001       0.26163001       0.50533002 </v>
   <v>       0.99514004       0.74492004       0.74511997 </v>
   <v>       0.25679999       0.49462002       0.74545002 </v>
   <v>       0.24788999       0.24839000       0.99657997 </v>
   <v>       0.50833000       0.25676999       0.25376001 </v>
   <v>       0.74879004       0.98787999       0.26967001 </v>
   <v>       0.75719000       0.25603001       0.99591997 </v>
   <v>       0.24762001       0.74973999       0.99974006 </v>
   <v>       0.25272001       0.24823001       0.50015003 </v>
   <v>       0.24457999       0.75048999       0.49983999 </v>
   <v>       0.24982001       0.24942998       0.24825000 </v>
   <v>       0.26146999       0.99984002       0.99295996 </v>
   <v>       0.00281000       0.25024000       0.00130000 </v>
   <v>       0.75313998       0.24617000       0.25492002 </v>
   <v>       0.74767001       0.99748000       0.01202000 </v>
   <v>       0.50714994       0.99977000       0.24673000 </v>
   <v>       0.99051999       0.48088002       0.24100998 </v>
   <v>       0.50519005       0.76130999       0.00855000 </v>
   <v>       0.98896989       0.00202000       0.73708999 </v>
   <v>       0.75744996       0.24437997       0.74896999 </v>
   <v>       0.73632001       0.00417000       0.51063000 </v>
   <v>       0.50563996       0.23264999       0.49544997 </v>
   <v>       0.50008998       0.00061000       0.73471998 </v>
   <v>       0.99720000       0.99771992       0.25899999 </v>
   <v>       0.50427997       0.24673000       0.00262000 </v>
   <v>       0.25133999       0.74958002       0.24910999 </v>
   <v>       0.24328000       0.50072997       0.99510994 </v>
   <v>       0.99837005       0.74313996       0.00460000 </v>
   <v>       0.75633000       0.73891003       0.25767000 </v>
   <v>       0.75839004       0.50315998       0.00288000 </v>
   <v>       0.50700002       0.50333002       0.25878999 </v>
   <v>       0.24900999       0.25315000       0.74854000 </v>
   <v>       0.24446000       0.99823996       0.50287998 </v>
   <v>       0.99804009       0.24229999       0.50128003 </v>
   <v>       0.24177002       0.75340997       0.75018002 </v>
   <v>       0.25841001       0.50062002       0.50129001 </v>
   <v>       0.99000004       0.76215003       0.49746000 </v>
   <v>       0.99203996       0.50055999       0.75138002 </v>
   <v>       0.75036005       0.74888000       0.74756004 </v>
   <v>       0.74036002       0.50197000       0.50067003 </v>
   <v>       0.50575006       0.74958002       0.49720000 </v>
   <v>       0.50501003       0.50217998       0.73912003 </v>
   <v>       0.51588997       0.01358000       0.98075008 </v>
   <v>       0.99841994       0.50976998       0.98613004 </v>
   <v>       0.50379003       0.73926997       0.25905001 </v>
   <v>       0.23780002       0.01082000       0.74607998 </v>
   <v>       0.47957999       0.98308000       0.49717999 </v>
   <v>       0.74279003       0.97869994       0.76450995 </v>
   <v>       0.99864998       0.77573999       0.26102000 </v>
   <v>       0.73551001       0.51468004       0.26666001 </v>
   <v>       0.02362000       0.99783001       0.49557002 </v>
   <v>       0.50539000       0.52833005       0.49917999 </v>
   <v>       0.73876003       0.52828003       0.73814999 </v>
   <v>       0.75400003       0.72937999       0.49116997 </v>
  </varray>
 </structure>
 <calculation>
  <scstep>
   <time name="dav">   21.19   21.26</time>
   <time name="total">   21.23   21.32</time>
   <energy>
    <i name="alphaZ">   3480.27532988 </i>
    <i name="ewald"> -38115.04443218 </i>
    <i name="hartreedc">  -9503.11935197 </i>
    <i name="XCdc">   1470.66948838 </i>
    <i name="pawpsdc">  29829.79084479 </i>
    <i name="pawaedc"> -29635.61106609 </i>
    <i name="eentropy">     -0.09184052 </i>
    <i name="bandstr">   2210.96711203 </i>
    <i name="atom">  46431.76828230 </i>
    <i name="e_fr_energy">   6169.60436662 </i>
    <i name="e_wo_entrp">   6169.69620714 </i>
    <i name="e_0_energy">   6169.65028688 </i>
   </energy>
  </scstep>
  <scstep>
   <time name="dav">   22.26   22.28</time>
   <time name="total">   22.27   22.28</time>
   <energy>
    <i name="e_fr_energy">    282.19688454 </i>
    <i name="e_wo_entrp">    282.35430253 </i>
    <i name="e_0_energy">    282.27559354 </i>
   </energy>
  </scstep>
  <scstep>
   <time name="dav">   31.81   31.86</time>
   <time name="total">   31.81   31.86</time>
   <energy>
    <i name="e_fr_energy">   -668.61824344 </i>
    <i name="e_wo_entrp">   -668.48848072 </i>
    <i name="e_0_energy">   -668.55336208 </i>
   </energy>
  </scstep>
  <scstep>
   <time name="dav">   33.31   33.40</time>
   <time name="total">   33.32   33.40</time>
   <energy>
    <i name="e_fr_energy">   -773.40036062 </i>
    <i name="e_wo_entrp">   -773.27435609 </i>
    <i name="e_0_energy">   -773.33735836 </i>
   </energy>
  </scstep>
  <scstep>
   <time name="dav">   37.61   37.70</time>
   <time name="total">   37.87   37.97</time>
   <energy>
    <i name="e_fr_energy">   -786.61761194 </i>
    <i name="e_wo_entrp">   -786.49622198 </i>
    <i name="e_0_energy">   -786.55691696 </i>
   </energy>
  </scstep>
  <scstep>
   <time name="diag">    1.80    1.80</time>
   <time name="diis">   18.56   18.58</time>
   <time name="orth">    0.45    0.45</time>
   <time name="total">   21.10   21.13</time>
   <energy>
    <i name="e_fr_energy">   -964.19302958 </i>
    <i name="e_wo_entrp">   -963.96030882 </i>
    <i name="e_0_energy">   -964.07666920 </i>
   </energy>
  </scstep>
  <scstep>
   <time name="diag">    1.86    1.88</time>
   <time name="diis">   18.89   18.96</time>
   <time name="orth">    0.43    0.43</time>
   <time name="total">   21.46   21.58</time>
   <energy>
    <i name="e_fr_energy">   -642.05324795 </i>
    <i name="e_wo_entrp">   -641.86798773 </i>
    <i name="e_0_energy">   -641.96061784 </i>
   </energy>
  </scstep>
  <scstep>
   <time name="diag">    1.79    1.80</time>
   <time name="diis">   21.55   21.59</time>
   <time name="orth">    0.43    0.43</time>
   <time name="total">   24.04   24.10</time>
   <energy>
    <i name="e_fr_energy">   -655.32579372 </i>
    <i name="e_wo_entrp">   -655.18164754 </i>
    <i name="e_0_energy">   -655.25372063 </i>
   </energy>
  </scstep>
  <scstep>
   <time name="diag">    1.79    1.79</time>
   <time name="diis">   20.38   20.52</time>
   <time name="orth">    0.43    0.43</time>
   <time name="total">   22.87   23.02</time>
   <energy>
    <i name="e_fr_energy">   -640.38190093 </i>
    <i name="e_wo_entrp">   -640.16981007 </i>
    <i name="e_0_energy">   -640.27585550 </i>
   </energy>
  </scstep>
  <scstep>
   <time name="diag">    1.79    1.79</time>
   <time name="diis">   21.50   21.55</time>
   <time name="orth">    0.43    0.43</time>
   <time name="total">   23.99   24.05</time>
   <energy>
    <i name="e_fr_energy">   -630.97613540 </i>
    <i name="e_wo_entrp">   -630.72712492 </i>
    <i name="e_0_energy">   -630.85163016 </i>
   </energy>
  </scstep>
  <scstep>
   <time name="diag">    1.80    1.80</time>
   <time name="diis">   22.55   22.61</time>
   <time name="orth">    0.43    0.43</time>
   <time name="total">   25.06   25.13</time>
   <energy>
    <i name="e_fr_energy">   -630.36696490 </i>
    <i name="e_wo_entrp">   -630.12254459 </i>
    <i name="e_0_energy">   -630.24475475 </i>
   </energy>
  </scstep>
  <scstep>
   <time name="diag">    1.81    1.81</time>
   <time name="diis">   20.68   20.70</time>
   <time name="orth">    0.43    0.43</time>
   <time name="total">   23.20   23.23</time>
   <energy>
    <i name="e_fr_energy">   -629.08872852 </i>
    <i name="e_wo_entrp">   -628.82763678 </i>
    <i name="e_0_energy">   -628.95818265 </i>
   </energy>
  </scstep>
  <scstep>
   <time name="diag">    1.82    1.82</time>
   <time name="diis">   20.28   20.29</time>
   <time name="orth">    0.43    0.43</time>
   <time name="total">   22.82   22.83</time>
   <energy>
    <i name="e_fr_energy">   -628.84251308 </i>
    <i name="e_wo_entrp">   -628.59578539 </i>
    <i name="e_0_energy">   -628.71914923 </i>
   </energy>
  </scstep>
  <scstep>
   <time name="diag">    1.80    1.80</time>
   <time name="diis">   20.45   20.48</time>
   <time name="orth">    0.45    0.45</time>
   <time name="total">   22.98   23.02</time>
   <energy>
    <i name="e_fr_energy">   -628.32332188 </i>
    <i name="e_wo_entrp">   -628.06379470 </i>
    <i name="e_0_energy">   -628.19355829 </i>
   </energy>
  </scstep>
  <scstep>
   <time name="diag">    1.80    1.80</time>
   <time name="diis">   20.56   20.57</time>
   <time name="orth">    0.43    0.43</time>
   <time name="total">   23.07   23.09</time>
   <energy>
    <i name="e_fr_energy">   -628.76293604 </i>
    <i name="e_wo_entrp">   -628.51547837 </i>
    <i name="e_0_energy">   -628.63920720 </i>
   </energy>
  </scstep>
  <scstep>
   <time name="diag">    1.79    1.79</time>
   <time name="diis">   20.13   20.22</time>
   <time name="orth">    0.43    0.43</time>
   <time name="total">   22.63   22.72</time>
   <energy>
    <i name="e_fr_energy">   -627.94580860 </i>
    <i name="e_wo_entrp">   -627.68540193 </i>
    <i name="e_0_energy">   -627.81560526 </i>
   </energy>
  </scstep>
  <scstep>
   <time name="diag">    1.80    1.80</time>
   <time name="diis">   19.79   19.87</time>
   <time name="orth">    0.43    0.43</time>
   <time name="total">   22.30   22.38</time>
   <energy>
    <i name="e_fr_energy">   -628.18304433 </i>
    <i name="e_wo_entrp">   -627.93701651 </i>
    <i name="e_0_energy">   -628.06003042 </i>
   </energy>
  </scstep>
  <scstep>
   <time name="diag">    1.79    1.79</time>
   <time name="diis">   19.66   19.69</time>
   <time name="orth">    0.43    0.44</time>
   <time name="total">   22.16   22.20</time>
   <energy>
    <i name="e_fr_energy">   -627.69908019 </i>
    <i name="e_wo_entrp">   -627.42909388 </i>
    <i name="e_0_energy">   -627.56408703 </i>
   </energy>
  </scstep>
  <scstep>
   <time name="diag">    1.79    1.79</time>
   <time name="diis">   20.85   20.88</time>
   <time name="orth">    0.45    0.45</time>
   <time name="total">   23.38   23.41</time>
   <energy>
    <i name="e_fr_energy">   -627.58594650 </i>
    <i name="e_wo_entrp">   -627.31724622 </i>
    <i name="e_0_energy">   -627.45159636 </i>
   </energy>
  </scstep>
  <scstep>
   <time name="diag">    1.82    1.82</time>
   <time name="diis">   20.43   20.47</time>
   <time name="orth">    0.43    0.43</time>
   <time name="total">   22.97   23.02</time>
   <energy>
    <i name="e_fr_energy">   -627.65116635 </i>
    <i name="e_wo_entrp">   -627.39867502 </i>
    <i name="e_0_energy">   -627.52492069 </i>
   </energy>
  </scstep>
  <scstep>
   <time name="diag">    1.80    1.80</time>
   <time name="diis">   20.39   20.40</time>
   <time name="orth">    0.43    0.43</time>
   <time name="total">   22.91   22.92</time>
   <energy>
    <i name="e_fr_energy">   -627.54795875 </i>
    <i name="e_wo_entrp">   -627.27997313 </i>
    <i name="e_0_energy">   -627.41396594 </i>
   </energy>
  </scstep>
  <scstep>
   <time name="diag">    1.80    1.80</time>
   <time name="diis">   20.21   20.24</time>
   <time name="orth">    0.43    0.43</time>
   <time name="total">   22.72   22.75</time>
   <energy>
    <i name="e_fr_energy">   -627.55128498 </i>
    <i name="e_wo_entrp">   -627.28422010 </i>
    <i name="e_0_energy">   -627.41775254 </i>
   </energy>
  </scstep>
  <scstep>
   <time name="diag">    1.79    1.79</time>
   <time name="diis">   20.03   20.05</time>
   <time name="orth">    0.43    0.43</time>
   <time name="total">   22.54   22.56</time>
   <energy>
    <i name="e_fr_energy">   -627.54222321 </i>
    <i name="e_wo_entrp">   -627.27670978 </i>
    <i name="e_0_energy">   -627.40946649 </i>
   </energy>
  </scstep>
  <scstep>
   <time name="diag">    1.80    1.80</time>
   <time name="diis">   20.39   20.41</time>
   <time name="orth">    0.43    0.43</time>
   <time name="total">   22.91   22.93</time>
   <energy>
    <i name="e_fr_energy">   -627.54519464 </i>
    <i name="e_wo_entrp">   -627.27681676 </i>
    <i name="e_0_energy">   -627.41100570 </i>
   </energy>
  </scstep>
  <scstep>
   <time name="diag">    1.79    1.79</time>
   <time name="diis">   20.16   20.29</time>
   <time name="orth">    0.43    0.43</time>
   <time name="total">   22.67   22.80</time>
   <energy>
    <i name="e_fr_energy">   -627.54028237 </i>
    <i name="e_wo_entrp">   -627.27202994 </i>
    <i name="e_0_energy">   -627.40615615 </i>
   </energy>
  </scstep>
  <scstep>
   <time name="diag">    1.79    1.79</time>
   <time name="diis">   20.66   20.69</time>
   <time name="orth">    0.43    0.43</time>
   <time name="total">   23.16   23.20</time>
   <energy>
    <i name="e_fr_energy">   -627.53534689 </i>
    <i name="e_wo_entrp">   -627.26765201 </i>
    <i name="e_0_energy">   -627.40149945 </i>
   </energy>
  </scstep>
  <scstep>
   <time name="diag">    1.80    1.80</time>
   <time name="diis">   20.49   20.53</time>
   <time name="orth">    0.43    0.43</time>
   <time name="total">   23.01   23.04</time>
   <energy>
    <i name="e_fr_energy">   -627.53575735 </i>
    <i name="e_wo_entrp">   -627.26884944 </i>
    <i name="e_0_energy">   -627.40230339 </i>
   </energy>
  </scstep>
  <scstep>
   <time name="diag">    1.80    1.80</time>
   <time name="diis">   19.48   19.51</time>
   <time name="orth">    0.43    0.43</time>
   <time name="total">   22.00   22.03</time>
   <energy>
    <i name="e_fr_energy">   -627.53553433 </i>
    <i name="e_wo_entrp">   -627.26832161 </i>
    <i name="e_0_energy">   -627.40192797 </i>
   </energy>
  </scstep>
  <scstep>
   <time name="diag">    1.79    1.79</time>
   <time name="diis">   19.23   19.27</time>
   <time name="orth">    0.43    0.43</time>
   <time name="total">   21.73   21.77</time>
   <energy>
    <i name="e_fr_energy">   -627.53563681 </i>
    <i name="e_wo_entrp">   -627.26827893 </i>
    <i name="e_0_energy">   -627.40195787 </i>
   </energy>
  </scstep>
  <scstep>
   <time name="diag">    1.79    1.79</time>
   <time name="diis">   16.73   16.79</time>
   <time name="orth">    0.47    0.47</time>
   <time name="total">   19.28   19.34</time>
   <energy>
    <i name="e_fr_energy">   -627.53571077 </i>
    <i name="e_wo_entrp">   -627.26840770 </i>
    <i name="e_0_energy">   -627.40205924 </i>
   </energy>
  </scstep>
  <scstep>
   <time name="diag">    1.81    1.81</time>
   <time name="diis">   15.21   15.22</time>
   <time name="orth">    0.43    0.43</time>
   <time name="total">   17.73   17.74</time>
   <energy>
    <i name="e_fr_energy">   -627.53573183 </i>
    <i name="e_wo_entrp">   -627.26851995 </i>
    <i name="e_0_energy">   -627.40212589 </i>
   </energy>
  </scstep>
  <scstep>
   <time name="diag">    1.80    1.80</time>
   <time name="diis">   13.38   13.39</time>
   <time name="orth">    0.43    0.43</time>
   <time name="total">   15.89   15.90</time>
   <energy>
    <i name="e_fr_energy">   -627.53577802 </i>
    <i name="e_wo_entrp">   -627.26847977 </i>
    <i name="e_0_energy">   -627.40212890 </i>
   </energy>
  </scstep>
  <scstep>
   <time name="diag">    1.79    1.79</time>
   <time name="diis">   12.08   12.09</time>
   <time name="orth">    0.43    0.43</time>
   <time name="total">   14.58   14.60</time>
   <energy>
    <i name="e_fr_energy">   -627.53578911 </i>
    <i name="e_wo_entrp">   -627.26851594 </i>
    <i name="e_0_energy">   -627.40215253 </i>
   </energy>
  </scstep>
  <scstep>
   <time name="diag">    1.79    1.79</time>
   <time name="diis">   12.31   12.37</time>
   <time name="orth">    0.43    0.43</time>
   <time name="total">   14.81   14.87</time>
   <energy>
    <i name="e_fr_energy">   -627.53580424 </i>
    <i name="e_wo_entrp">   -627.26852198 </i>
    <i name="e_0_energy">   -627.40216311 </i>
   </energy>
  </scstep>
  <scstep>
   <time name="diag">    1.79    1.79</time>
   <time name="diis">   11.39   11.42</time>
   <time name="orth">    0.43    0.43</time>
   <time name="total">   13.64   13.68</time>
   <energy>
    <i name="alphaZ">   3480.27532988 </i>
    <i name="ewald"> -38115.04443218 </i>
    <i name="hartreedc">  -8944.78087056 </i>
    <i name="XCdc">   1461.96585004 </i>
    <i name="pawpsdc">  30705.45020688 </i>
    <i name="pawaedc"> -30548.51667168 </i>
    <i name="eentropy">     -0.26728298 </i>
    <i name="bandstr">  -5098.38622083 </i>
    <i name="atom">  46431.76828230 </i>
    <i name="e_fr_energy">   -627.53580914 </i>
    <i name="e_wo_entrp">   -627.26852616 </i>
    <i name="e_0_energy">   -627.40216765 </i>
   </energy>
  </scstep>
  <structure>
   <crystal>
    <varray name="basis" >
     <v>       8.93249989       0.00000000       0.00000000 </v>
     <v>       0.00575300       9.05559834       0.00000000 </v>
     <v>       0.03210180      -0.01574346       8.93712807 </v>
    </varray>
    <i name="volume">    722.91652451 </i>
    <varray name="rec_basis" >
     <v>       0.11195074      -0.00007112      -0.00040225 </v>
     <v>       0.00000000       0.11042893       0.00019453 </v>
     <v>       0.00000000       0.00000000       0.11189277 </v>
    </varray>
   </crystal>
   <varray name="positions" >
    <v>       0.99688001       0.99204997       0.99924002 </v>
    <v>       0.25398003       0.99714995       0.24912000 </v>
    <v>       0.24803003       0.50165000       0.24955001 </v>
    <v>       0.50501006       0.49745998       0.99834003 </v>
    <v>       0.50479003       0.24631001       0.74710002 </v>
    <v>       0.99427992       0.50449999       0.49779000 </v>
    <v>       0.49950005       0.75481999       0.74817004 </v>
    <v>       0.99437004       0.23617001       0.26379999 </v>
    <v>       0.75718000       0.74102998       0.01100000 </v>
    <v>       0.00201000       0.25541000       0.73894001 </v>
    <v>       0.75307001       0.26163001       0.50533002 </v>
    <v>       0.99514004       0.74492004       0.74511997 </v>
    <v>       0.25679999       0.49462002       0.74545002 </v>
    <v>       0.24788999       0.24839000       0.99657997 </v>
    <v>       0.50833000       0.25676999       0.25376001 </v>
    <v>       0.74879004       0.98787999       0.26967001 </v>
    <v>       0.75719000       0.25603001       0.99591997 </v>
    <v>       0.24762001       0.74973999       0.99974006 </v>
    <v>       0.25272001       0.24823001       0.50015003 </v>
    <v>       0.24457999       0.75048999       0.49983999 </v>
    <v>       0.24982001       0.24942998       0.24825000 </v>
    <v>       0.26146999       0.99984002       0.99295996 </v>
    <v>       0.00281000       0.25024000       0.00130000 </v>
    <v>       0.75313998       0.24617000       0.25492002 </v>
    <v>       0.74767001       0.99748000       0.01202000 </v>
    <v>       0.50714994       0.99977000       0.24673000 </v>
    <v>       0.99051999       0.48088002       0.24100998 </v>
    <v>       0.50519005       0.76130999       0.00855000 </v>
    <v>       0.98896989       0.00202000       0.73708999 </v>
    <v>       0.75744996       0.24437997       0.74896999 </v>
    <v>       0.73632001       0.00417000       0.51063000 </v>
    <v>       0.50563996       0.23264999       0.49544997 </v>
    <v>       0.50008998       0.00061000       0.73471998 </v>
    <v>       0.99720000       0.99771992       0.25899999 </v>
    <v>       0.50427997       0.24673000       0.00262000 </v>
    <v>       0.25133999       0.74958002       0.24910999 </v>
    <v>       0.24328000       0.50072997       0.99510994 </v>
    <v>       0.99837005       0.74313996       0.00460000 </v>
    <v>       0.75633000       0.73891003       0.25767000 </v>
    <v>       0.75839004       0.50315998       0.00288000 </v>
    <v>       0.50700002       0.50333002       0.25878999 </v>
    <v>       0.24900999       0.25315000       0.74854000 </v>
    <v>       0.24446000       0.99823996       0.50287998 </v>
    <v>       0.99804009       0.24229999       0.50128003 </v>
    <v>       0.24177002       0.75340997       0.75018002 </v>
    <v>       0.25841001       0.50062002       0.50129001 </v>
    <v>       0.99000004       0.76215003       0.49746000 </v>
    <v>       0.99203996       0.50055999       0.75138002 </v>
    <v>       0.75036005       0.74888000       0.74756004 </v>
    <v>       0.74036002       0.50197000       0.50067003 </v>
    <v>       0.50575006       0.74958002       0.49720000 </v>
    <v>       0.50501003       0.50217998       0.73912003 </v>
    <v>       0.51588997       0.01358000       0.98075008 </v>
    <v>       0.99841994       0.50976998       0.98613004 </v>
    <v>       0.50379003       0.73926997       0.25905001 </v>
    <v>       0.23780002       0.01082000       0.74607998 </v>
    <v>       0.47957999       0.98308000       0.49717999 </v>
    <v>       0.74279003       0.97869994       0.76450995 </v>
    <v>       0.99864998       0.77573999       0.26102000 </v>
    <v>       0.73551001       0.51468004       0.26666001 </v>
    <v>       0.02362000       0.99783001       0.49557002 </v>
    <v>       0.50539000       0.52833005       0.49917999 </v>
    <v>       0.73876003       0.52828003       0.73814999 </v>
    <v>       0.75400003       0.72937999       0.49116997 </v>
   </varray>
  </structure>
  <varray name="forces" >
   <v>      -0.00541516      -0.67650836      -0.09902123 </v>
   <v>      -0.41325196      -0.94209984       0.07786050 </v>
   <v>       0.58601335       0.89190720      -0.15226348 </v>
   <v>      -0.13832109      -0.66324916      -0.19439646 </v>
   <v>      -0.60438355      -0.48937841       0.74245326 </v>
   <v>       0.06286172      -0.48448267       0.64550411 </v>
   <v>       0.07599557       0.51324727      -0.14914513 </v>
   <v>       0.89747724       0.38528095      -0.37594290 </v>
   <v>      -0.73575045       0.58723291      -0.33317832 </v>
   <v>       0.11264917      -0.39407195       0.06830339 </v>
   <v>      -0.27221218      -0.61377247       0.85415013 </v>
   <v>       0.63586372       0.53717006       0.43612178 </v>
   <v>       0.14059821       0.39336041       0.66579495 </v>
   <v>       0.16487065      -0.56499355       0.54598100 </v>
   <v>      -0.93620629      -0.95445194      -0.24482926 </v>
   <v>      -1.45100675       0.54724115      -0.48721324 </v>
   <v>      -0.15848158      -0.52151574      -0.69245501 </v>
   <v>       1.30081919       0.79633597       0.21854378 </v>
   <v>       0.75506939       0.11458338      -0.46244009 </v>
   <v>       0.75189433      -0.20204505      -0.25535839 </v>
   <v>       0.19862869       0.10122586       0.14466562 </v>
   <v>      -0.49545017       0.13925304       0.32230003 </v>
   <v>      -0.11706413      -0.48622460       0.06772154 </v>
   <v>      -0.23866022      -0.19108589      -0.21609753 </v>
   <v>       0.26185513      -0.03581123      -1.01150105 </v>
   <v>      -1.11264601      -0.02108888       0.41123740 </v>
   <v>       0.79784760       0.02571981       0.72112405 </v>
   <v>      -0.09766409      -0.52598309      -0.58309316 </v>
   <v>      -0.09665797       0.05437317       1.13270565 </v>
   <v>      -0.98667463      -0.06097935       0.16959738 </v>
   <v>       0.05555441      -0.06012214      -0.14789000 </v>
   <v>      -0.30569880       0.02211688       0.80111157 </v>
   <v>       0.65774833      -0.11560267       0.58627398 </v>
   <v>       0.99939182       0.48562081      -1.58209451 </v>
   <v>       0.00508290       0.32811518      -1.24409663 </v>
   <v>       0.25619815      -0.15989421       0.14770369 </v>
   <v>       0.52520744      -0.11895882       0.92479676 </v>
   <v>      -0.07701872       0.35770924      -0.06518189 </v>
   <v>      -0.82306578       0.66456445      -0.85116222 </v>
   <v>      -0.54392525       0.10206933      -0.02379404 </v>
   <v>      -1.70621501       0.78799936      -1.49426621 </v>
   <v>       0.83345396      -0.70393020      -0.02804466 </v>
   <v>       1.75694218      -0.07284613      -0.10828690 </v>
   <v>       0.11167136       1.18851383      -0.09692416 </v>
   <v>       0.92041751       0.10184375      -0.03932094 </v>
   <v>      -1.03175069      -0.04568133      -1.10049059 </v>
   <v>       0.68531727      -1.40099159       0.46309842 </v>
   <v>       0.28693641       0.10311396      -0.29836015 </v>
   <v>      -1.30971520       1.62355989       0.39898427 </v>
   <v>       1.89928306      -0.68632428       0.35226169 </v>
   <v>      -0.61222449       1.36584675       0.26026496 </v>
   <v>      -0.39863445      -0.17893348       1.43992733 </v>
   <v>       0.16291280       0.55491373      -0.95085479 </v>
   <v>       0.19148637       0.87472997      -0.76065970 </v>
   <v>       0.08285018      -0.64058294      -0.21829325 </v>
   <v>      -0.19719265       0.03653612       0.33133617 </v>
   <v>      -0.61607579      -0.26499965       0.53610605 </v>
   <v>      -0.78752284      -0.88500947       0.37763385 </v>
   <v>       0.84448585      -0.16120091      -0.90926478 </v>
   <v>       0.38562254      -0.41123588      -1.09058773 </v>
   <v>      -0.17894832       0.46186310       0.75068161 </v>
   <v>      -1.03024222      -0.26890058       0.07894720 </v>
   <v>      -0.12482676      -1.07049887       1.06699429 </v>
   <v>       0.19989671       0.92740778       0.52632201 </v>
  </varray>
  <varray name="stress" >
   <v>    -186.61648450       1.52562642      -2.08861623 </v>
   <v>       1.52562684    -197.93234489       1.19753340 </v>
   <v>      -2.08861777       1.19753337    -179.61498176 </v>
  </varray>
  <energy>
   <i name="e_fr_energy">   -627.53580914 </i>
   <i name="e_wo_entrp">   -627.40216765 </i>
   <i name="e_0_energy">     -0.26728298 </i>
  </energy>
  <time name="totalsc">  835.09  836.96</time>
 </calculation>
 <calculation>
  <scstep>
   <time name="dav">   28.40   28.41</time>
   <time name="total">   28.68   28.70</time>
   <energy>
    <i name="alphaZ">   4243.62137268 </i>
    <i name="ewald"> -40517.89025237 </i>
    <i name="hartreedc">  -9754.69709810 </i>
    <i name="XCdc">   1591.17876574 </i>
    <i name="pawpsdc">  30705.39661980 </i>
    <i name="pawaedc"> -30548.45942325 </i>
    <i name="eentropy">     -0.08754041 </i>
    <i name="bandstr">  -2929.73327883 </i>
    <i name="atom">  46431.76828230 </i>
    <i name="e_fr_energy">   -778.90255244 </i>
    <i name="e_wo_entrp">   -778.81501203 </i>
    <i name="e_0_energy">   -778.85878224 </i>
   </energy>
  </scstep>
  <scstep>
   <time name="diag">    1.77    1.77</time>
   <time name="diis">   16.30   16.31</time>
   <time name="orth">    0.43    0.43</time>
   <time name="total">   18.79   18.80</time>
   <energy>
    <i name="e_fr_energy">   -901.61762208 </i>
    <i name="e_wo_entrp">   -901.49080339 </i>
    <i name="e_0_energy">   -901.55421274 </i>
   </energy>
  </scstep>
  <scstep>
   <time name="diag">    1.80    1.80</time>
   <time name="diis">   18.61   18.69</time>
   <time name="orth">    0.43    0.43</time>
   <time name="total">   21.11   21.20</time>
   <energy>
    <i name="e_fr_energy">   -665.19667586 </i>
    <i name="e_wo_entrp">   -665.05384737 </i>
    <i name="e_0_energy">   -665.12526162 </i>
   </energy>
  </scstep>
  <scstep>
   <time name="diag">    1.78    1.78</time>
   <time name="diis">   19.53   19.55</time>
   <time name="orth">    0.43    0.43</time>
   <time name="total">   22.03   22.04</time>
   <energy>
    <i name="e_fr_energy">   -646.89151317 </i>
    <i name="e_wo_entrp">   -646.73576274 </i>
    <i name="e_0_energy">   -646.81363796 </i>
   </energy>
  </scstep>
  <scstep>
   <time name="diag">    1.78    1.78</time>
   <time name="diis">   18.50   18.52</time>
   <time name="orth">    0.43    0.43</time>
   <time name="total">   21.00   21.02</time>
   <energy>
    <i name="e_fr_energy">   -638.90273139 </i>
    <i name="e_wo_entrp">   -638.73016181 </i>
    <i name="e_0_energy">   -638.81644660 </i>
   </energy>
  </scstep>
  <scstep>
   <time name="diag">    1.81    1.81</time>
   <time name="diis">   18.33   18.38</time>
   <time name="orth">    0.43    0.43</time>
   <time name="total">   20.85   20.92</time>
   <energy>
    <i name="e_fr_energy">   -628.37402662 </i>
    <i name="e_wo_entrp">   -628.19529049 </i>
    <i name="e_0_energy">   -628.28465855 </i>
   </energy>
  </scstep>
  <scstep>
   <time name="diag">    1.78    1.79</time>
   <time name="diis">   18.01   18.02</time>
   <time name="orth">    0.43    0.43</time>
   <time name="total">   20.50   20.53</time>
   <energy>
    <i name="e_fr_energy">   -628.81224165 </i>
    <i name="e_wo_entrp">   -628.65484089 </i>
    <i name="e_0_energy">   -628.73354127 </i>
   </energy>
  </scstep>
  <scstep>
   <time name="diag">    1.78    1.78</time>
   <time name="diis">   18.82   18.87</time>
   <time name="orth">    0.43    0.43</time>
   <time name="total">   21.31   21.37</time>
   <energy>
    <i name="e_fr_energy">   -625.11289392 </i>
    <i name="e_wo_entrp">   -624.92684764 </i>
    <i name="e_0_energy">   -625.01987078 </i>
   </energy>
  </scstep>
  <scstep>
   <time name="diag">    1.80    1.80</time>
   <time name="diis">   21.24   21.26</time>
   <time name="orth">    0.43    0.43</time>
   <time name="total">   23.74   23.77</time>
   <energy>
    <i name="e_fr_energy">   -625.14677719 </i>
    <i name="e_wo_entrp">   -624.97735765 </i>
    <i name="e_0_energy">   -625.06206742 </i>
   </energy>
  </scstep>
  <scstep>
   <time name="diag">    1.78    1.78</time>
   <time name="diis">   20.86   20.88</time>
   <time name="orth">    0.43    0.43</time>
   <time name="total">   23.35   23.37</time>
   <energy>
    <i name="e_fr_energy">   -624.85818981 </i>
    <i name="e_wo_entrp">   -624.66795090 </i>
    <i name="e_0_energy">   -624.76307035 </i>
   </energy>
  </scstep>
  <scstep>
   <time name="diag">    1.82    1.83</time>
   <time name="diis">   21.75   21.81</time>
   <time name="orth">    0.43    0.43</time>
   <time name="total">   24.29   24.35</time>
   <energy>
    <i name="e_fr_energy">   -624.83570511 </i>
    <i name="e_wo_entrp">   -624.66035837 </i>
    <i name="e_0_energy">   -624.74803174 </i>
   </energy>
  </scstep>
  <scstep>
   <time name="diag">    1.78    1.78</time>
   <time name="diis">   22.28   22.35</time>
   <time name="orth">    0.43    0.43</time>
   <time name="total">   24.78   24.85</time>
   <energy>
    <i name="e_fr_energy">   -624.83436986 </i>
    <i name="e_wo_entrp">   -624.64893496 </i>
    <i name="e_0_energy">   -624.74165241 </i>
   </energy>
  </scstep>
  <scstep>
   <time name="diag">    1.79    1.79</time>
   <time name="diis">   21.48   21.49</time>
   <time name="orth">    0.43    0.43</time>
   <time name="total">   23.98   23.99</time>
   <energy>
    <i name="e_fr_energy">   -624.83498045 </i>
    <i name="e_wo_entrp">   -624.65405033 </i>
    <i name="e_0_energy">   -624.74451539 </i>
   </energy>
  </scstep>
  <scstep>
   <time name="diag">    1.85    1.85</time>
   <time name="diis">   22.05   22.09</time>
   <time name="orth">    0.43    0.43</time>
   <time name="total">   24.60   24.66</time>
   <energy>
    <i name="e_fr_energy">   -624.85887459 </i>
    <i name="e_wo_entrp">   -624.67412544 </i>
    <i name="e_0_energy">   -624.76650001 </i>
   </energy>
  </scstep>
  <scstep>
   <time name="diag">    1.78    1.78</time>
   <time name="diis">   21.62   21.68</time>
   <time name="orth">    0.43    0.43</time>
   <time name="total">   24.11   24.17</time>
   <energy>
    <i name="e_fr_energy">   -624.85420844 </i>
    <i name="e_wo_entrp">   -624.67352551 </i>
    <i name="e_0_energy">   -624.76386697 </i>
   </energy>
  </scstep>
  <scstep>
   <time name="diag">    1.79    1.79</time>
   <time name="diis">   22.28   22.31</time>
   <time name="orth">    0.43    0.43</time>
   <time name="total">   24.78   24.81</time>
   <energy>
    <i name="e_fr_energy">   -624.84740225 </i>
    <i name="e_wo_entrp">   -624.66149001 </i>
    <i name="e_0_energy">   -624.75444613 </i>
   </energy>
  </scstep>
  <scstep>
   <time name="diag">    1.78    1.78</time>
   <time name="diis">   22.40   22.47</time>
   <time name="orth">    0.43    0.43</time>
   <time name="total">   24.89   24.96</time>
   <energy>
    <i name="e_fr_energy">   -624.84167995 </i>
    <i name="e_wo_entrp">   -624.65809078 </i>
    <i name="e_0_energy">   -624.74988536 </i>
   </energy>
  </scstep>
  <scstep>
   <time name="diag">    1.78    1.79</time>
   <time name="diis">   23.02   23.12</time>
   <time name="orth">    0.44    0.44</time>
   <time name="total">   25.52   25.62</time>
   <energy>
    <i name="e_fr_energy">   -624.84611915 </i>
    <i name="e_wo_entrp">   -624.66248085 </i>
    <i name="e_0_energy">   -624.75430000 </i>
   </energy>
  </scstep>
  <scstep>
   <time name="diag">    1.78    1.78</time>
   <time name="diis">   22.76   22.79</time>
   <time name="orth">    0.43    0.43</time>
   <time name="total">   25.26   25.29</time>
   <energy>
    <i name="e_fr_energy">   -624.84281832 </i>
    <i name="e_wo_entrp">   -624.65930786 </i>
    <i name="e_0_energy">   -624.75106309 </i>
   </energy>
  </scstep>
  <scstep>
   <time name="diag">    1.80    1.80</time>
   <time name="diis">   23.18   23.23</time>
   <time name="orth">    0.43    0.43</time>
   <time name="total">   25.69   25.75</time>
   <energy>
    <i name="e_fr_energy">   -624.84387438 </i>
    <i name="e_wo_entrp">   -624.65984881 </i>
    <i name="e_0_energy">   -624.75186159 </i>
   </energy>
  </scstep>
  <scstep>
   <time name="diag">    1.78    1.78</time>
   <time name="diis">   22.88   22.96</time>
   <time name="orth">    0.43    0.43</time>
   <time name="total">   25.38   25.46</time>
   <energy>
    <i name="e_fr_energy">   -624.84363637 </i>
    <i name="e_wo_entrp">   -624.65980656 </i>
    <i name="e_0_energy">   -624.75172147 </i>
   </energy>
  </scstep>
  <scstep>
   <time name="diag">    1.78    1.78</time>
   <time name="diis">   22.08   22.11</time>
   <time name="orth">    0.43    0.43</time>
   <time name="total">   24.58   24.60</time>
   <energy>
    <i name="e_fr_energy">   -624.84411280 </i>
    <i name="e_wo_entrp">   -624.66031218 </i>
    <i name="e_0_energy">   -624.75221249 </i>
   </energy>
  </scstep>
  <scstep>
   <time name="diag">    1.78    1.78</time>
   <time name="diis">   21.52   21.58</time>
   <time name="orth">    0.43    0.43</time>
   <time name="total">   24.02   24.09</time>
   <energy>
    <i name="e_fr_energy">   -624.84433779 </i>
    <i name="e_wo_entrp">   -624.66065094 </i>
    <i name="e_0_energy">   -624.75249437 </i>
   </energy>
  </scstep>
  <scstep>
   <time name="diag">    1.78    1.78</time>
   <time name="diis">   20.46   20.51</time>
   <time name="orth">    0.43    0.43</time>
   <time name="total">   22.96   23.01</time>
   <energy>
    <i name="e_fr_energy">   -624.84452002 </i>
    <i name="e_wo_entrp">   -624.66071228 </i>
    <i name="e_0_energy">   -624.75261615 </i>
   </energy>
  </scstep>
  <scstep>
   <time name="diag">    1.82    1.83</time>
   <time name="diis">   19.85   19.90</time>
   <time name="orth">    0.43    0.43</time>
   <time name="total">   22.38   22.44</time>
   <energy>
    <i name="e_fr_energy">   -624.84464438 </i>
    <i name="e_wo_entrp">   -624.66083264 </i>
    <i name="e_0_energy">   -624.75273851 </i>
   </energy>
  </scstep>
  <scstep>
   <time name="diag">    1.85    1.90</time>
   <time name="diis">   19.15   19.24</time>
   <time name="orth">    0.43    0.43</time>
   <time name="total">   21.72   21.86</time>
   <energy>
    <i name="e_fr_energy">   -624.84472261 </i>
    <i name="e_wo_entrp">   -624.66092014 </i>
    <i name="e_0_energy">   -624.75282137 </i>
   </energy>
  </scstep>
  <scstep>
   <time name="diag">    1.79    1.82</time>
   <time name="diis">   19.51   19.53</time>
   <time name="orth">    0.43    0.43</time>
   <time name="total">   22.01   22.07</time>
   <energy>
    <i name="e_fr_energy">   -624.84477300 </i>
    <i name="e_wo_entrp">   -624.66098478 </i>
    <i name="e_0_energy">   -624.75287889 </i>
   </energy>
  </scstep>
  <scstep>
   <time name="diag">    1.78    1.78</time>
   <time name="diis">   18.02   18.10</time>
   <time name="orth">    0.45    0.45</time>
   <time name="total">   20.54   20.62</time>
   <energy>
    <i name="e_fr_energy">   -624.84480424 </i>
    <i name="e_wo_entrp">   -624.66100316 </i>
    <i name="e_0_energy">   -624.75290370 </i>
   </energy>
  </scstep>
  <scstep>
   <time name="diag">    1.80    1.80</time>
   <time name="diis">   18.17   18.21</time>
   <time name="orth">    0.43    0.43</time>
   <time name="total">   20.68   20.73</time>
   <energy>
    <i name="e_fr_energy">   -624.84482737 </i>
    <i name="e_wo_entrp">   -624.66102823 </i>
    <i name="e_0_energy">   -624.75292780 </i>
   </energy>
  </scstep>
  <scstep>
   <time name="diag">    1.79    1.79</time>
   <time name="diis">   17.30   17.35</time>
   <time name="orth">    0.43    0.43</time>
   <time name="total">   19.80   19.85</time>
   <energy>
    <i name="e_fr_energy">   -624.84484345 </i>
    <i name="e_wo_entrp">   -624.66104805 </i>
    <i name="e_0_energy">   -624.75294575 </i>
   </energy>
  </scstep>
  <scstep>
   <time name="diag">    1.78    1.78</time>
   <time name="diis">   16.23   16.28</time>
   <time name="orth">    0.43    0.43</time>
   <time name="total">   18.73   18.78</time>
   <energy>
    <i name="e_fr_energy">   -624.84485350 </i>
    <i name="e_wo_entrp">   -624.66105576 </i>
    <i name="e_0_energy">   -624.75295463 </i>
   </energy>
  </scstep>
  <scstep>
   <time name="diag">    1.88    1.91</time>
   <time name="diis">   14.69   14.73</time>
   <time name="orth">    0.43    0.43</time>
   <time name="total">   17.04   17.11</time>
   <energy>
    <i name="alphaZ">   4243.62137268 </i>
    <i name="ewald"> -40517.89025237 </i>
    <i name="hartreedc">  -8293.33389451 </i>
    <i name="XCdc">   1511.27889317 </i>
    <i name="pawpsdc">  32982.40795076 </i>
    <i name="pawaedc"> -32830.79366897 </i>
    <i name="eentropy">     -0.18379745 </i>
    <i name="bandstr">  -4151.71974556 </i>
    <i name="atom">  46431.76828230 </i>
    <i name="e_fr_energy">   -624.84485996 </i>
    <i name="e_wo_entrp">   -624.66106251 </i>
    <i name="e_0_energy">   -624.75296123 </i>
   </energy>
  </scstep>
  <structure>
   <crystal>
    <varray name="basis" >
     <v>       8.36554068       0.00463500      -0.00634542 </v>
     <v>       0.01008672       8.44597641       0.00368428 </v>
     <v>       0.02370737      -0.01102684       8.39112817 </v>
    </varray>
    <i name="volume">    592.87771572 </i>
    <varray name="rec_basis" >
     <v>       0.11953782      -0.00014261      -0.00033792 </v>
     <v>      -0.00006548       0.11839958       0.00015577 </v>
     <v>       0.00009042      -0.00005209       0.11917316 </v>
    </varray>
   </crystal>
   <varray name="positions" >
    <v>       0.99685501       0.98844502       0.99870550 </v>
    <v>       0.25174986       0.99213176       0.24954029 </v>
    <v>       0.25119486       0.50640011       0.24872809 </v>
    <v>       0.50426907       0.49392477       0.99729068 </v>
    <v>       0.50151315       0.24370987       0.75110778 </v>
    <v>       0.99460856       0.50192502       0.50127443 </v>
    <v>       0.49991162       0.75755286       0.74736496 </v>
    <v>       0.99922311       0.23821902       0.26177065 </v>
    <v>       0.75321080       0.74415526       0.00920150 </v>
    <v>       0.00261842       0.25331127       0.73930871 </v>
    <v>       0.75158538       0.25836822       0.50994073 </v>
    <v>       0.99856391       0.74778584       0.74747416 </v>
    <v>       0.25754507       0.49672185       0.74904399 </v>
    <v>       0.24877177       0.24538518       0.99952718 </v>
    <v>       0.50328177       0.25168296       0.25243842 </v>
    <v>       0.74096102       0.99079079       0.26704003 </v>
    <v>       0.75634930       0.25324519       0.99218210 </v>
    <v>       0.25463850       0.75398443       0.00091976 </v>
    <v>       0.25680657       0.24883610       0.49765378 </v>
    <v>       0.24864647       0.74941122       0.49846156 </v>
    <v>       0.25088961       0.24997061       0.24903090 </v>
    <v>       0.25878743       0.00058490       0.99469974 </v>
    <v>       0.00217811       0.24765033       0.00166556 </v>
    <v>       0.75185587       0.24514998       0.25375352 </v>
    <v>       0.74910399       0.99727972       0.00655991 </v>
    <v>       0.50113285       0.99966151       0.24894986 </v>
    <v>       0.99481493       0.48102381       0.24490262 </v>
    <v>       0.50467571       0.75850240       0.00540246 </v>
    <v>       0.98842569       0.00232030       0.74320434 </v>
    <v>       0.75211804       0.24405671       0.74988548 </v>
    <v>       0.73662313       0.00384832       0.50983169 </v>
    <v>       0.50397332       0.23277533       0.49977437 </v>
    <v>       0.50363137      -0.00000036       0.73788469 </v>
    <v>       0.00262655       0.00029216       0.25045984 </v>
    <v>       0.50433044       0.24846632      -0.00409564 </v>
    <v>       0.25272134       0.74872958       0.24990730 </v>
    <v>       0.24609901       0.50010491       0.00010200 </v>
    <v>       0.99795412       0.74504500       0.00424815 </v>
    <v>       0.75189902       0.74244243       0.25307542 </v>
    <v>       0.75545252       0.50370352       0.00275156 </v>
    <v>       0.49781138       0.50751397       0.25072393 </v>
    <v>       0.25351427       0.24939963       0.74838862 </v>
    <v>       0.25395125       0.99785086       0.50229544 </v>
    <v>       0.99864100       0.24863075       0.50075683 </v>
    <v>       0.24674142       0.75395216       0.74996776 </v>
    <v>       0.25285924       0.50036633       0.49534956 </v>
    <v>       0.99369712       0.75469075       0.49995981 </v>
    <v>       0.99359508       0.50110652       0.74976947 </v>
    <v>       0.74327323       0.75753307       0.74971376 </v>
    <v>       0.75061318       0.49831700       0.50257154 </v>
    <v>       0.50243382       0.75685885       0.49860491 </v>
    <v>       0.50282976       0.50124025       0.74689276 </v>
    <v>       0.51678638       0.01652731       0.97561736 </v>
    <v>       0.99946588       0.51442287       0.98202399 </v>
    <v>       0.50424392       0.73585529       0.25787166 </v>
    <v>       0.23672847       0.01101775       0.74786854 </v>
    <v>       0.47624320       0.98167328       0.50007390 </v>
    <v>       0.73853248       0.97398870       0.76654842 </v>
    <v>       0.00322908       0.77487268       0.25611178 </v>
    <v>       0.73761525       0.51247899       0.26077301 </v>
    <v>       0.02263738       0.00029758       0.49962220 </v>
    <v>       0.49982525       0.52689826       0.49960615 </v>
    <v>       0.73806884       0.52258708       0.74390963 </v>
    <v>       0.75506624       0.73432559       0.49401106 </v>
   </varray>
  </structure>
  <varray name="forces" >
   <v>       0.50096843      -0.13458462      -0.50822582 </v>
   <v>      -0.19994935      -0.36176031      -0.09569330 </v>
   <v>       0.49719107       0.55466319      -0.47293388 </v>
   <v>      -0.46215843      -0.46214751      -0.03967957 </v>
   <v>      -0.80761900      -0.33239176       0.51679723 </v>
   <v>       0.97406922      -0.59635813       0.47851989 </v>
   <v>      -0.37124232       0.52496020       0.03715506 </v>
   <v>       0.57443380       0.81465602      -1.47045937 </v>
   <v>      -1.18657116       1.24054925      -0.81716864 </v>
   <v>       0.58274067      -0.71344973       1.42327163 </v>
   <v>      -0.60901943      -1.01292204      -0.09787215 </v>
   <v>       0.03794250       0.99696268       0.89866871 </v>
   <v>      -0.69957931       0.29428862       0.54984947 </v>
   <v>      -0.01418367      -0.11179737       0.14882106 </v>
   <v>      -0.69894269       0.07857615      -0.65368081 </v>
   <v>       0.51292445       0.70651325      -1.20066856 </v>
   <v>      -0.10523706      -0.53733436       0.47220280 </v>
   <v>       0.99179577       0.31024782      -0.04622464 </v>
   <v>      -0.02460132       0.30114202       0.13891109 </v>
   <v>      -0.16797231      -0.00216845       0.16812352 </v>
   <v>       0.01301137       0.09880492      -0.09875328 </v>
   <v>      -0.13608763      -0.07563391       0.28906262 </v>
   <v>       0.08593075      -0.12236420       0.14994872 </v>
   <v>      -0.08732947       0.22654426      -0.24124218 </v>
   <v>       0.32428036       0.02551226      -0.91982259 </v>
   <v>      -2.03277026      -0.79281839      -0.25138509 </v>
   <v>       0.84947165       1.52915451       0.25431481 </v>
   <v>      -0.01706805      -0.19375501      -0.50120990 </v>
   <v>      -0.29962636      -0.01015405       1.55862254 </v>
   <v>      -1.13813069      -0.04411579      -0.12579779 </v>
   <v>       0.36554622      -0.55630537       1.22158167 </v>
   <v>       0.21578104       0.36710000       1.11616429 </v>
   <v>       0.10441859       0.00857327       0.52465844 </v>
   <v>       0.36276103       0.59532607      -1.29468287 </v>
   <v>      -0.32181486       0.52914341      -0.84985050 </v>
   <v>       1.03839450      -0.14627412      -0.16847507 </v>
   <v>       0.25902532       0.05392792       1.12145941 </v>
   <v>       0.79203583       0.32819721       0.06089241 </v>
   <v>      -0.80428467       0.92063589      -0.22303299 </v>
   <v>      -0.20298649      -0.48714027       0.13747172 </v>
   <v>      -1.72598866       0.20029736      -1.40041939 </v>
   <v>       1.14251523      -0.81926374       0.19143641 </v>
   <v>       1.09386940       0.07610972       0.15676599 </v>
   <v>       0.49174660       1.39332194      -0.13482244 </v>
   <v>       1.38554981       0.77296326       0.12912579 </v>
   <v>      -1.28182719      -0.16743144      -0.80100486 </v>
   <v>       0.83035082      -1.34805043       0.06512262 </v>
   <v>       0.51473489      -0.03869736      -0.28214081 </v>
   <v>      -0.62241467       0.43079729      -0.01918685 </v>
   <v>       0.86546102      -0.21395303      -0.09632575 </v>
   <v>       0.10928585       1.54227085       0.10557854 </v>
   <v>      -0.56797788      -0.33963855       1.25644067 </v>
   <v>      -0.55811046      -0.11409676      -0.58644620 </v>
   <v>       0.28599798       0.08862193      -0.15533925 </v>
   <v>      -0.38981620       0.20461926      -0.59072375 </v>
   <v>      -0.01671852      -0.66018899       0.50600033 </v>
   <v>       0.82344259       0.63384780       0.43535724 </v>
   <v>      -0.69730115       1.19555435       0.33219320 </v>
   <v>       0.28861942      -2.58761360      -1.25079601 </v>
   <v>       0.47176110      -2.10630338      -1.71921100 </v>
   <v>      -1.53990648       0.62407436       0.15203713 </v>
   <v>       0.02914805      -2.56814259      -0.37713290 </v>
   <v>       0.82087807      -1.66924883       1.96429721 </v>
   <v>      -0.44884769       1.65814703       0.92955598 </v>
  </varray>
  <varray name="stress" >
   <v>     463.18350330      -3.72874562       0.62977673 </v>
   <v>      -3.72874601     444.51651473      -0.56427002 </v>
   <v>       0.62977601      -0.56427031     451.66060960 </v>
  </varray>
  <energy>
   <i name="e_fr_energy">   -624.84485996 </i>
   <i name="e_wo_entrp">   -624.75296123 </i>
   <i name="e_0_energy">     -0.18379745 </i>
  </energy>
  <time name="totalsc">  773.88  775.71</time>
 </calculation>
 <calculation>
  <scstep>
   <time name="dav">   27.54   27.65</time>
   <time name="total">   27.83   27.94</time>
   <energy>
    <i name="alphaZ">   3808.45431874 </i>
    <i name="ewald"> -39205.17541500 </i>
    <i name="hartreedc">  -7876.67710344 </i>
    <i name="XCdc">   1442.88384775 </i>
    <i name="pawpsdc">  32982.40906379 </i>
    <i name="pawaedc"> -32830.78943452 </i>
    <i name="eentropy">     -0.24229609 </i>
    <i name="bandstr">  -5450.59424466 </i>
    <i name="atom">  46431.76828230 </i>
    <i name="e_fr_energy">   -697.96298113 </i>
    <i name="e_wo_entrp">   -697.72068504 </i>
    <i name="e_0_energy">   -697.84183309 </i>
   </energy>
  </scstep>
  <scstep>
   <time name="diag">    1.79    1.79</time>
   <time name="diis">   19.31   19.42</time>
   <time name="orth">    0.43    0.43</time>
   <time name="total">   21.80   21.92</time>
   <energy>
    <i name="e_fr_energy">  -1020.85946855 </i>
    <i name="e_wo_entrp">  -1020.74597209 </i>
    <i name="e_0_energy">  -1020.80272032 </i>
   </energy>
  </scstep>
  <scstep>
   <time name="diag">    1.79    1.79</time>
   <time name="diis">   19.02   19.18</time>
   <time name="orth">    0.43    0.43</time>
   <time name="total">   21.52   21.68</time>
   <energy>
    <i name="e_fr_energy">   -670.75213491 </i>
    <i name="e_wo_entrp">   -670.59759817 </i>
    <i name="e_0_energy">   -670.67486654 </i>
   </energy>
  </scstep>
  <scstep>
   <time name="diag">    1.79    1.80</time>
   <time name="diis">   17.92   17.96</time>
   <time name="orth">    0.43    0.43</time>
   <time name="total">   20.42   20.49</time>
   <energy>
    <i name="e_fr_energy">   -652.19693270 </i>
    <i name="e_wo_entrp">   -652.03169851 </i>
    <i name="e_0_energy">   -652.11431561 </i>
   </energy>
  </scstep>
  <scstep>
   <time name="diag">    1.79    1.79</time>
   <time name="diis">   19.63   19.67</time>
   <time name="orth">    0.43    0.43</time>
   <time name="total">   22.13   22.18</time>
   <energy>
    <i name="e_fr_energy">   -637.17866782 </i>
    <i name="e_wo_entrp">   -636.97788652 </i>
    <i name="e_0_energy">   -637.07827717 </i>
   </energy>
  </scstep>
  <scstep>
   <time name="diag">    1.85    1.85</time>
   <time name="diis">   18.65   18.70</time>
   <time name="orth">    0.43    0.43</time>
   <time name="total">   21.21   21.26</time>
   <energy>
    <i name="e_fr_energy">   -637.24411005 </i>
    <i name="e_wo_entrp">   -637.03087011 </i>
    <i name="e_0_energy">   -637.13749008 </i>
   </energy>
  </scstep>
  <scstep>
   <time name="diag">    1.79    1.83</time>
   <time name="diis">   17.77   17.79</time>
   <time name="orth">    0.43    0.43</time>
   <time name="total">   20.27   20.34</time>
   <energy>
    <i name="e_fr_energy">   -634.78721926 </i>
    <i name="e_wo_entrp">   -634.57005075 </i>
    <i name="e_0_energy">   -634.67863500 </i>
   </energy>
  </scstep>
  <scstep>
   <time name="diag">    1.79    1.79</time>
   <time name="diis">   18.87   18.88</time>
   <time name="orth">    0.43    0.43</time>
   <time name="total">   21.37   21.39</time>
   <energy>
    <i name="e_fr_energy">   -633.61023963 </i>
    <i name="e_wo_entrp">   -633.41866333 </i>
    <i name="e_0_energy">   -633.51445148 </i>
   </energy>
  </scstep>
  <scstep>
   <time name="diag">    1.81    1.82</time>
   <time name="diis">   18.60   18.70</time>
   <time name="orth">    0.43    0.43</time>
[...]
      </set>
     </set>
    </set>
   </array>
  </eigenvalues>
  <separator name="orbital magnetization" >
   <v name="MAGDIPOLOUT">      0.00000000      0.00000000      0.00000000</v>
  </separator>
  <dos>
   <i name="efermi">      8.74514968 </i>
   <total>
    <array>
     <dimension dim="1">gridpoints</dimension>
     <dimension dim="2">spin</dimension>
     <field>energy</field>
     <field>total</field>
     <field>integrated</field>
     <set>
      <set comment="spin 1">
       <r>   -59.6516     0.0000     0.0000 </r>
       <r>   -59.4022     0.0000     0.0000 </r>
       <r>   -59.1528     0.0000     0.0000 </r>
       <r>   -58.9033     0.0000     0.0000 </r>
       <r>   -58.6539     0.0000     0.0000 </r>
       <r>   -58.4045     0.0000     0.0000 </r>
       <r>   -58.1551     0.0000     0.0000 </r>
       <r>   -57.9056     0.0000     0.0000 </r>
       <r>   -57.6562     0.0000     0.0000 </r>
       <r>   -57.4068     0.0000     0.0000 </r>
       <r>   -57.1574     0.0000     0.0000 </r>
       <r>   -56.9080     0.0000     0.0000 </r>
       <r>   -56.6585     0.0000     0.0000 </r>
       <r>   -56.4091     0.1022     0.0255 </r>
       <r>   -56.1597    17.0116     4.2686 </r>
       <r>   -55.9103    37.3946    13.5955 </r>
       <r>   -55.6609     1.6216    14.0000 </r>
       <r>   -55.4114     0.0000    14.0000 </r>
       <r>   -55.1620     0.0000    14.0000 </r>
       <r>   -54.9126     0.0000    14.0000 </r>
       <r>   -54.6632     0.0000    14.0000 </r>
       <r>   -54.4138     0.0000    14.0000 </r>
       <r>   -54.1643     0.0000    14.0000 </r>
       <r>   -53.9149     0.0000    14.0000 </r>
       <r>   -53.6655     0.0000    14.0000 </r>
       <r>   -53.4161     0.0000    14.0000 </r>
       <r>   -53.1667     0.0000    14.0000 </r>
       <r>   -52.9172     0.0000    14.0000 </r>
       <r>   -52.6678     0.0000    14.0000 </r>
       <r>   -52.4184     0.0000    14.0000 </r>
       <r>   -52.1690     0.0000    14.0000 </r>
       <r>   -51.9195     0.0000    14.0000 </r>
       <r>   -51.6701     0.0000    14.0000 </r>
       <r>   -51.4207     0.0000    14.0000 </r>
       <r>   -51.1713     0.0000    14.0000 </r>
       <r>   -50.9219     0.0000    14.0000 </r>
       <r>   -50.6724     0.0000    14.0000 </r>
       <r>   -50.4230     0.0000    14.0000 </r>
       <r>   -50.1736     0.0000    14.0000 </r>
       <r>   -49.9242     0.0000    14.0000 </r>
       <r>   -49.6748     0.0000    14.0000 </r>
       <r>   -49.4253     0.0000    14.0000 </r>
       <r>   -49.1759     0.0000    14.0000 </r>
       <r>   -48.9265     0.0000    14.0000 </r>
       <r>   -48.6771     0.0000    14.0000 </r>
       <r>   -48.4277     0.0000    14.0000 </r>
       <r>   -48.1782     0.0000    14.0000 </r>
       <r>   -47.9288     0.0000    14.0000 </r>
       <r>   -47.6794     0.0005    14.0001 </r>
       <r>   -47.4300     4.2423    15.0583 </r>
       <r>   -47.1805    12.0703    18.0688 </r>
       <r>   -46.9311    21.5721    23.4494 </r>
       <r>   -46.6817     9.6449    25.8550 </r>
       <r>   -46.4323     0.5813    26.0000 </r>
       <r>   -46.1829     0.0000    26.0000 </r>
       <r>   -45.9334     0.0000    26.0000 </r>
       <r>   -45.6840     0.0000    26.0000 </r>
       <r>   -45.4346     0.0000    26.0000 </r>
       <r>   -45.1852     0.0000    26.0000 </r>
       <r>   -44.9358     0.0000    26.0000 </r>
       <r>   -44.6863     0.0000    26.0000 </r>
       <r>   -44.4369     0.0000    26.0000 </r>
       <r>   -44.1875     0.0000    26.0000 </r>
       <r>   -43.9381     0.0000    26.0000 </r>
       <r>   -43.6887     0.0000    26.0000 </r>
       <r>   -43.4392     0.0000    26.0000 </r>
       <r>   -43.1898     0.0000    26.0000 </r>
       <r>   -42.9404     0.0000    26.0000 </r>
       <r>   -42.6910     0.0000    26.0000 </r>
       <r>   -42.4416     0.0000    26.0000 </r>
       <r>   -42.1921     0.0000    26.0000 </r>
       <r>   -41.9427     0.0000    26.0000 </r>
       <r>   -41.6933     0.0000    26.0000 </r>
       <r>   -41.4439     0.0000    26.0000 </r>
       <r>   -41.1944     0.0000    26.0000 </r>
       <r>   -40.9450     0.0000    26.0000 </r>
       <r>   -40.6956     0.0000    26.0000 </r>
       <r>   -40.4462     0.0000    26.0000 </r>
       <r>   -40.1968     0.0000    26.0000 </r>
       <r>   -39.9473     0.0000    26.0000 </r>
       <r>   -39.6979     0.0000    26.0000 </r>
       <r>   -39.4485     0.0000    26.0000 </r>
       <r>   -39.1991     0.0000    26.0000 </r>
       <r>   -38.9497     0.0000    26.0000 </r>
       <r>   -38.7002     0.0000    26.0000 </r>
       <r>   -38.4508     0.0000    26.0000 </r>
       <r>   -38.2014     0.0000    26.0000 </r>
       <r>   -37.9520     0.0000    26.0000 </r>
       <r>   -37.7026     0.0000    26.0000 </r>
       <r>   -37.4531     0.0000    26.0000 </r>
       <r>   -37.2037     0.0000    26.0000 </r>
       <r>   -36.9543     0.0000    26.0000 </r>
       <r>   -36.7049     0.0000    26.0000 </r>
       <r>   -36.4554     0.0000    26.0000 </r>
       <r>   -36.2060     0.0000    26.0000 </r>
       <r>   -35.9566     0.0000    26.0000 </r>
       <r>   -35.7072     0.0000    26.0000 </r>
       <r>   -35.4578     0.0000    26.0000 </r>
       <r>   -35.2083     0.1920    26.0479 </r>
       <r>   -34.9589    24.5072    32.1605 </r>
       <r>   -34.7095   101.8738    57.5700 </r>
       <r>   -34.4601    17.7317    61.9926 </r>
       <r>   -34.2107     0.0295    62.0000 </r>
       <r>   -33.9612     0.0000    62.0000 </r>
       <r>   -33.7118     0.0000    62.0000 </r>
       <r>   -33.4624     0.0000    62.0000 </r>
       <r>   -33.2130     0.0000    62.0000 </r>
       <r>   -32.9636     0.0000    62.0000 </r>
       <r>   -32.7141     0.0000    62.0000 </r>
       <r>   -32.4647     0.0000    62.0000 </r>
       <r>   -32.2153     0.0000    62.0000 </r>
       <r>   -31.9659     0.0000    62.0000 </r>
       <r>   -31.7164     0.0000    62.0000 </r>
       <r>   -31.4670     0.0000    62.0000 </r>
       <r>   -31.2176     0.0000    62.0000 </r>
       <r>   -30.9682     0.0000    62.0000 </r>
       <r>   -30.7188     0.0000    62.0000 </r>
       <r>   -30.4693     0.0181    62.0045 </r>
       <r>   -30.2199    18.0587    66.5087 </r>
       <r>   -29.9705   111.5720    94.3371 </r>
       <r>   -29.7211    38.4700   103.9323 </r>
       <r>   -29.4717     0.2713   104.0000 </r>
       <r>   -29.2222     0.0000   104.0000 </r>
       <r>   -28.9728     0.0000   104.0000 </r>
       <r>   -28.7234     0.0000   104.0000 </r>
       <r>   -28.4740     0.0000   104.0000 </r>
       <r>   -28.2246     0.0000   104.0000 </r>
       <r>   -27.9751     0.0000   104.0000 </r>
       <r>   -27.7257     0.0000   104.0000 </r>
       <r>   -27.4763     0.0000   104.0000 </r>
       <r>   -27.2269     0.0000   104.0000 </r>
       <r>   -26.9775     0.0000   104.0000 </r>
       <r>   -26.7280     0.0000   104.0000 </r>
       <r>   -26.4786     0.0000   104.0000 </r>
       <r>   -26.2292     0.0000   104.0000 </r>
       <r>   -25.9798     0.0000   104.0000 </r>
       <r>   -25.7303     0.0000   104.0000 </r>
       <r>   -25.4809     0.0000   104.0000 </r>
       <r>   -25.2315     0.0000   104.0000 </r>
       <r>   -24.9821     0.0000   104.0000 </r>
       <r>   -24.7327     0.0000   104.0000 </r>
       <r>   -24.4832     0.0000   104.0000 </r>
       <r>   -24.2338     0.0000   104.0000 </r>
       <r>   -23.9844     0.0001   104.0000 </r>
       <r>   -23.7350     3.0492   104.7606 </r>
       <r>   -23.4856    33.5817   113.1365 </r>
       <r>   -23.2361    42.5196   123.7418 </r>
       <r>   -22.9867    45.4149   135.0692 </r>
       <r>   -22.7373    19.6697   139.9753 </r>
       <r>   -22.4879     3.2629   140.7891 </r>
       <r>   -22.2385    20.1717   145.8203 </r>
       <r>   -21.9890    32.8486   154.0135 </r>
       <r>   -21.7396    23.5728   159.8930 </r>
       <r>   -21.4902    49.4691   172.2317 </r>
       <r>   -21.2408    26.1386   178.7512 </r>
       <r>   -20.9913    13.0134   181.9970 </r>
       <r>   -20.7419     0.0119   182.0000 </r>
       <r>   -20.4925     0.0000   182.0000 </r>
       <r>   -20.2431     0.0000   182.0000 </r>
       <r>   -19.9937     0.0000   182.0000 </r>
       <r>   -19.7442     0.0000   182.0000 </r>
       <r>   -19.4948     0.0000   182.0000 </r>
       <r>   -19.2454     0.0000   182.0000 </r>
       <r>   -18.9960     0.0000   182.0000 </r>
       <r>   -18.7466     0.0000   182.0000 </r>
       <r>   -18.4971     0.0000   182.0000 </r>
       <r>   -18.2477     0.0000   182.0000 </r>
       <r>   -17.9983     0.0000   182.0000 </r>
       <r>   -17.7489     0.0000   182.0000 </r>
       <r>   -17.4995     0.0000   182.0000 </r>
       <r>   -17.2500     0.0000   182.0000 </r>
       <r>   -17.0006     0.0000   182.0000 </r>
       <r>   -16.7512     0.0000   182.0000 </r>
       <r>   -16.5018     0.0000   182.0000 </r>
       <r>   -16.2523     0.0000   182.0000 </r>
       <r>   -16.0029     0.0000   182.0000 </r>
       <r>   -15.7535     0.0000   182.0000 </r>
       <r>   -15.5041     0.0000   182.0000 </r>
       <r>   -15.2547     0.0000   182.0000 </r>
       <r>   -15.0052     0.0000   182.0000 </r>
       <r>   -14.7558     0.0000   182.0000 </r>
       <r>   -14.5064     0.0000   182.0000 </r>
       <r>   -14.2570     0.0000   182.0000 </r>
       <r>   -14.0076     0.0000   182.0000 </r>
       <r>   -13.7581     0.0000   182.0000 </r>
       <r>   -13.5087     0.0000   182.0000 </r>
       <r>   -13.2593     0.0000   182.0000 </r>
       <r>   -13.0099     0.0000   182.0000 </r>
       <r>   -12.7605     0.0000   182.0000 </r>
       <r>   -12.5110     0.0000   182.0000 </r>
       <r>   -12.2616     0.0000   182.0000 </r>
       <r>   -12.0122     0.0000   182.0000 </r>
       <r>   -11.7628     0.0000   182.0000 </r>
       <r>   -11.5134     0.0000   182.0000 </r>
       <r>   -11.2639     0.0000   182.0000 </r>
       <r>   -11.0145     0.0000   182.0000 </r>
       <r>   -10.7651     0.0000   182.0000 </r>
       <r>   -10.5157     0.0000   182.0000 </r>
       <r>   -10.2662     0.0000   182.0000 </r>
       <r>   -10.0168     0.0000   182.0000 </r>
       <r>    -9.7674     0.0000   182.0000 </r>
       <r>    -9.5180     0.0000   182.0000 </r>
       <r>    -9.2686     0.0000   182.0000 </r>
       <r>    -9.0191     0.0000   182.0000 </r>
       <r>    -8.7697     0.0000   182.0000 </r>
       <r>    -8.5203     0.0000   182.0000 </r>
       <r>    -8.2709     0.0000   182.0000 </r>
       <r>    -8.0215     0.0000   182.0000 </r>
       <r>    -7.7720     0.0012   182.0003 </r>
       <r>    -7.5226     1.6657   182.4157 </r>
       <r>    -7.2732     6.4073   184.0139 </r>
       <r>    -7.0238     7.1835   185.8056 </r>
       <r>    -6.7744     8.3774   187.8951 </r>
       <r>    -6.5249    10.8408   190.5990 </r>
       <r>    -6.2755    15.1111   194.3680 </r>
       <r>    -6.0261    22.1084   199.8823 </r>
       <r>    -5.7767    15.9996   203.8730 </r>
       <r>    -5.5272    14.7543   207.5530 </r>
       <r>    -5.2778     1.7921   208.0000 </r>
       <r>    -5.0284     0.0001   208.0000 </r>
       <r>    -4.7790     0.0000   208.0000 </r>
       <r>    -4.5296     0.0000   208.0000 </r>
       <r>    -4.2801     0.0002   208.0000 </r>
       <r>    -4.0307     0.6391   208.1595 </r>
       <r>    -3.7813     5.9440   209.6420 </r>
       <r>    -3.5319     4.7135   210.8177 </r>
       <r>    -3.2825    10.3013   213.3870 </r>
       <r>    -3.0330    16.9835   217.6231 </r>
       <r>    -2.7836    24.7029   223.7845 </r>
       <r>    -2.5342    27.7522   230.7065 </r>
       <r>    -2.2848    23.4026   236.5435 </r>
       <r>    -2.0354    17.9905   241.0308 </r>
       <r>    -1.7859    11.1544   243.8129 </r>
       <r>    -1.5365     8.0330   245.8165 </r>
       <r>    -1.2871     0.7347   245.9998 </r>
       <r>    -1.0377     0.0010   246.0000 </r>
       <r>    -0.7883     0.0000   246.0000 </r>
       <r>    -0.5388     0.0000   246.0000 </r>
       <r>    -0.2894     0.0000   246.0000 </r>
       <r>    -0.0400     0.0000   246.0000 </r>
       <r>     0.2094     0.0000   246.0000 </r>
       <r>     0.4589     0.0000   246.0000 </r>
       <r>     0.7083     0.0130   246.0032 </r>
       <r>     0.9577     0.8319   246.2107 </r>
       <r>     1.2071     4.1472   247.2451 </r>
       <r>     1.4565     9.9576   249.7288 </r>
       <r>     1.7060    12.7845   252.9175 </r>
       <r>     1.9554    20.2697   257.9732 </r>
       <r>     2.2048    27.3770   264.8016 </r>
       <r>     2.4542    30.4270   272.3907 </r>
       <r>     2.7036    28.8321   279.5820 </r>
       <r>     2.9531    34.8607   288.2770 </r>
       <r>     3.2025    32.8579   296.4725 </r>
       <r>     3.4519    42.8023   307.1483 </r>
       <r>     3.7013    51.9344   320.1018 </r>
       <r>     3.9507    62.1414   335.6011 </r>
       <r>     4.2002    63.7998   351.5141 </r>
       <r>     4.4496    63.2962   367.3015 </r>
       <r>     4.6990    61.2458   382.5775 </r>
       <r>     4.9484    53.7505   395.9840 </r>
       <r>     5.1979    40.0411   405.9711 </r>
       <r>     5.4473    35.0466   414.7125 </r>
       <r>     5.6967    32.2264   422.7504 </r>
       <r>     5.9461    26.0070   429.2371 </r>
       <r>     6.1955    18.4960   433.8504 </r>
       <r>     6.4450    12.9631   437.0837 </r>
       <r>     6.6944     8.2061   439.1304 </r>
       <r>     6.9438    15.7219   443.0518 </r>
       <r>     7.1932    22.7653   448.7299 </r>
       <r>     7.4426    19.9039   453.6944 </r>
       <r>     7.6921    19.9402   458.6679 </r>
       <r>     7.9415    22.9655   464.3960 </r>
       <r>     8.1909    28.6629   471.5451 </r>
       <r>     8.4403    30.4920   479.1504 </r>
       <r>     8.6897    28.6873   486.3057 </r>
       <r>     8.9392    31.1379   494.0721 </r>
       <r>     9.1886    40.3357   504.1327 </r>
       <r>     9.4380    53.7406   517.5367 </r>
       <r>     9.6874    58.6698   532.1702 </r>
       <r>     9.9369    52.7546   545.3283 </r>
       <r>    10.1863    52.4197   558.4029 </r>
       <r>    10.4357    49.6603   570.7892 </r>
       <r>    10.6851    46.4728   582.3805 </r>
       <r>    10.9345    46.1270   593.8855 </r>
       <r>    11.1840    44.9039   605.0855 </r>
       <r>    11.4334    42.2814   615.6314 </r>
       <r>    11.6828    28.0202   622.6202 </r>
       <r>    11.9322     5.5071   623.9938 </r>
       <r>    12.1816     0.0248   624.0000 </r>
       <r>    12.4311     0.0000   624.0000 </r>
       <r>    12.6805     0.0000   624.0000 </r>
       <r>    12.9299     0.0000   624.0000 </r>
       <r>    13.1793     0.0000   624.0000 </r>
       <r>    13.4287     0.0000   624.0000 </r>
       <r>    13.6782     0.0000   624.0000 </r>
       <r>    13.9276     0.0000   624.0000 </r>
       <r>    14.1770     0.0000   624.0000 </r>
       <r>    14.4264     0.0000   624.0000 </r>
       <r>    14.6758     0.0000   624.0000 </r>
       <r>    14.9253     0.0000   624.0000 </r>
       <r>    15.1747     0.0000   624.0000 </r>
      </set>
     </set>
    </array>
   </total>
  </dos>
 </calculation>
 <structure name="finalpos" >
  <crystal>
   <varray name="basis" >
    <v>       8.71077315      -0.01772245      -0.00353385 </v>
    <v>      -0.01212493       8.74126045       0.00842637 </v>
    <v>       0.02784833      -0.00685559       8.76170357 </v>
   </varray>
   <i name="volume">    667.14307015 </i>
   <varray name="rec_basis" >
    <v>       0.11480055       0.00015959      -0.00036476 </v>
    <v>       0.00023279       0.11440021       0.00008877 </v>
    <v>       0.00004608      -0.00010996       0.11413282 </v>
   </varray>
  </crystal>
  <varray name="positions" >
   <v>       0.00419346       0.97998052       0.02432883 </v>
   <v>       0.23371543       0.97911199       0.25012750 </v>
   <v>       0.26865684       0.51806465       0.24442139 </v>
   <v>       0.50001589       0.47914705       0.99025806 </v>
   <v>       0.47964557       0.23985763       0.75590030 </v>
   <v>       0.00258886       0.49798634       0.52799707 </v>
   <v>       0.50645648       0.75097796       0.73362201 </v>
   <v>      -0.00409354       0.27179204       0.25827516 </v>
   <v>       0.74469456       0.74928579      -0.00089823 </v>
   <v>       0.01076697       0.23498140       0.74396920 </v>
   <v>       0.75082819       0.25611784       0.51431200 </v>
   <v>       0.00011265       0.75983309       0.74825933 </v>
   <v>       0.25450069       0.50380437       0.75419415 </v>
   <v>       0.24134632       0.24452310       0.00334642 </v>
   <v>       0.49533774       0.24157859       0.24852768 </v>
   <v>       0.74009757       0.98995607       0.25918076 </v>
   <v>       0.75551337       0.24846256       0.98975848 </v>
   <v>       0.27019920       0.75824884      -0.00147563 </v>
   <v>       0.25191337       0.25205361       0.49734101 </v>
   <v>       0.25035220       0.75049489       0.49860873 </v>
   <v>       0.24624469       0.25180427       0.24970383 </v>
   <v>       0.24487014       0.00034315       0.00050343 </v>
   <v>      -0.00121949       0.23874077       0.00327786 </v>
   <v>       0.74699304       0.24472054       0.25098634 </v>
   <v>       0.75464119       0.99736399      -0.00379132 </v>
   <v>       0.49539707       0.99713061       0.22398263 </v>
   <v>       0.00084859       0.49962009       0.24522735 </v>
   <v>       0.50946931       0.75457050      -0.01763954 </v>
   <v>       0.00491004      -0.00000902       0.75262252 </v>
   <v>       0.74742783       0.24182257       0.74821034 </v>
   <v>       0.74732855       0.00431214       0.50546093 </v>
   <v>       0.50253936       0.24341387       0.50554057 </v>
   <v>       0.50310158       0.00103978       0.75461355 </v>
   <v>      -0.00016380       0.00336671       0.24820652 </v>
   <v>       0.49908356       0.24997748      -0.00857042 </v>
   <v>       0.26567131       0.75199248       0.24898421 </v>
   <v>       0.24683939       0.50293365       0.00584960 </v>
   <v>       0.00410740       0.75011056       0.00060021 </v>
   <v>       0.74178830       0.74157182       0.24774963 </v>
   <v>       0.75789654       0.50238184       0.00211783 </v>
   <v>       0.49058090       0.50743622       0.24228016 </v>
   <v>       0.25627463       0.24312987       0.75109820 </v>
   <v>       0.25658316       0.00026775       0.49408730 </v>
   <v>      -0.00115909       0.25593242       0.50102139 </v>
   <v>       0.25927054       0.75884748       0.74851363 </v>
   <v>       0.24584249       0.50189062       0.49306874 </v>
   <v>       0.99576251       0.74659092       0.49859828 </v>
   <v>       0.99938514       0.50044573       0.75386620 </v>
   <v>       0.74459021       0.76171839       0.74253661 </v>
   <v>       0.75948735       0.49628435       0.49693266 </v>
   <v>       0.50593513       0.77000064       0.49706209 </v>
   <v>       0.50449836       0.49849224       0.75159800 </v>
   <v>       0.51679274       0.02256715       0.98757927 </v>
   <v>       0.00169582       0.52952569       0.97190554 </v>
   <v>       0.50580137       0.73105260       0.28095301 </v>
   <v>       0.25566377      -0.00082900       0.74043719 </v>
   <v>       0.47148018      -0.00264263       0.53824314 </v>
   <v>       0.72074936       0.97940629       0.77492248 </v>
   <v>       0.00317491       0.75167825       0.25054870 </v>
   <v>       0.72321761       0.50693772       0.24404710 </v>
   <v>       0.01202074       0.00321694       0.48572068 </v>
   <v>       0.50184040       0.51018074       0.50066889 </v>
   <v>       0.74604844       0.51627934       0.75421901 </v>
   <v>       0.74984730       0.72812389       0.49640160 </v>
  </varray>
 </structure>
</modeling>
