HECN                                    
           1
     8.932500    0.000000    0.000000
     0.005753    9.055598    0.000000
     0.032102   -0.015743    8.937128
   Nb   W    Hf   N    C    Cr   Mo
   7   6   7  13  19   6   6
Direct configuration=     1
   0.99688001  0.99204997  0.99924002
   0.25398003  0.99714995  0.24912000
   0.24803003  0.50165000  0.24955001
   0.50501006  0.49745998  0.99834003
   0.50479003  0.24631001  0.74710002
   0.99427992  0.50449999  0.49779000
   0.49950005  0.75481999  0.74817004
   0.99437004  0.23617001  0.26379999
   0.75718000  0.74102998  0.01100000
   0.00201000  0.25541000  0.73894001
   0.75307001  0.26163001  0.50533002
   0.99514004  0.74492004  0.74511997
   0.25679999  0.49462002  0.74545002
   0.24788999  0.24839000  0.99657997
   0.50833000  0.25676999  0.25376001
   0.74879004  0.98787999  0.26967001
   0.75719000  0.25603001  0.99591997
   0.24762001  0.74973999  0.99974006
   0.25272001  0.24823001  0.50015003
   0.24457999  0.75048999  0.49983999
   0.24982001  0.24942998  0.24825000
   0.26146999  0.99984002  0.99295996
   0.00281000  0.25024000  0.00130000
   0.75313998  0.24617000  0.25492002
   0.74767001  0.99748000  0.01202000
   0.50714994  0.99977000  0.24673000
   0.99051999  0.48088002  0.24100998
   0.50519005  0.76130999  0.00855000
   0.98896989  0.00202000  0.73708999
   0.75744996  0.24437997  0.74896999
   0.73632001  0.00417000  0.51063000
   0.50563996  0.23264999  0.49544997
   0.50008998  0.00061000  0.73471998
   0.99720000  0.99771992  0.25899999
   0.50427997  0.24673000  0.00262000
   0.25133999  0.74958002  0.24910999
   0.24328000  0.50072997  0.99510994
   0.99837005  0.74313996  0.00460000
   0.75633000  0.73891003  0.25767000
   0.75839004  0.50315998  0.00288000
   0.50700002  0.50333002  0.25878999
   0.24900999  0.25315000  0.74854000
   0.24446000  0.99823996  0.50287998
   0.99804009  0.24229999  0.50128003
   0.24177002  0.75340997  0.75018002
   0.25841001  0.50062002  0.50129001
   0.99000004  0.76215003  0.49746000
   0.99203996  0.50055999  0.75138002
   0.75036005  0.74888000  0.74756004
   0.74036002  0.50197000  0.50067003
   0.50575006  0.74958002  0.49720000
   0.50501003  0.50217998  0.73912003
   0.51588997  0.01358000  0.98075008
   0.99841994  0.50976998  0.98613004
   0.50379003  0.73926997  0.25905001
   0.23780002  0.01082000  0.74607998
   0.47957999  0.98308000  0.49717999
   0.74279003  0.97869994  0.76450995
   0.99864998  0.77573999  0.26102000
   0.73551001  0.51468004  0.26666001
   0.02362000  0.99783001  0.49557002
   0.50539000  0.52833005  0.49917999
   0.73876003  0.52828003  0.73814999
   0.75400003  0.72937999  0.49116997
HECN                                    
           1
     8.492358   -0.006923   -0.003921
    -0.001549    8.573172    0.003582
     0.026610   -0.011392    8.512960
   Nb   W    Hf   N    C    Cr   Mo
   7   6   7  13  19   6   6
Direct configuration=     2
   0.99651436  0.99074619  0.99595566
   0.25446823  0.99274554  0.24842632
   0.25042172  0.50673097  0.24769108
   0.50432464  0.49528280  0.99730124
   0.50180679  0.24335651  0.74985844
   0.99505204  0.50024833  0.50042774
   0.49803219  0.75972777  0.74865334
   0.99618217  0.23368498  0.26649989
   0.75972634  0.73974043  0.01001765
   0.00889864  0.25792635  0.73387477
   0.75472750  0.26147016  0.50778373
   0.99777855  0.74274136  0.74730067
   0.25690768  0.49675201  0.74930272
   0.24855951  0.24754524  0.99657368
   0.50707277  0.25108097  0.25302919
   0.74120982  0.99142408  0.26873555
   0.75594913  0.25446373  0.99318709
   0.25096459  0.75184186  0.99933124
   0.25553700  0.24909882  0.50079516
   0.24793943  0.75042564  0.50008997
   0.25032425  0.24935168  0.24906338
   0.25880993  0.00030718  0.99417526
   0.00216045  0.24853784  0.00229157
   0.75390778  0.24530179  0.25453101
   0.74814130  0.99607978  0.00732064
   0.50256098  0.99969608  0.24848028
   0.99388510  0.47764822  0.24326435
   0.50632409  0.75922654  0.00636539
   0.98757927  0.00306687  0.74252604
   0.75686541  0.24276028  0.74836606
   0.73643876  0.00644900  0.51070454
   0.50545550  0.23161769  0.49762658
   0.50337836  0.00092667  0.73802553
   0.00042238  0.00306970  0.25190554
   0.50409633  0.24809356 -0.00093749
   0.25353020  0.74962341  0.24953703
   0.24470391  0.49959267  0.99531739
   0.99535510  0.74242819  0.00286111
   0.75121722  0.74226062  0.24949768
   0.75817737  0.50609432  0.00292560
   0.49843417  0.50685433  0.25314017
   0.24910307  0.25031836  0.74842603
   0.25478965  0.99822000  0.50547741
   0.99577945  0.24624274  0.50236243
   0.24345385  0.75324312  0.75013636
   0.25315571  0.49975319  0.50053796
   0.99349521  0.75654282  0.50310333
   0.99421190  0.49956158  0.75244816
   0.74955958  0.75817284  0.75107862
   0.74643880  0.49507815  0.50340961
   0.50244656  0.75734177  0.49536501
   0.49937987  0.49993684  0.74453137
   0.51742580  0.01720219  0.97657757
   0.99727344  0.51705196  0.98174154
   0.50486459  0.73528299  0.25999825
   0.23537963  0.01056278  0.74692569
   0.47664025  0.98180666  0.49845223
   0.73915801  0.97391469  0.76612397
   0.00109890  0.77555166  0.25778082
   0.73652571  0.51378865  0.25961770
   0.02007817  0.99895251  0.49775587
   0.50095845  0.52707681  0.49780354
   0.73952972  0.52346593  0.74488872
   0.75541310  0.73491137  0.49363518
HECN                                    
           1
     8.745052   -0.002948   -0.001670
     0.002643    8.850142    0.001525
     0.029763   -0.013890    8.756483
   Nb   W    Hf   N    C    Cr   Mo
   7   6   7  13  19   6   6
Direct configuration=     3
   0.99673674  0.99153618  0.99793500
   0.25417582  0.99541608  0.24884316
   0.24897542  0.50364810  0.24881213
   0.50473993  0.49660317  0.99792698
   0.50360899  0.24514974  0.74819594
   0.99458716  0.50282694  0.49883661
   0.49891600  0.75675240  0.74836370
   0.99508835  0.23519177  0.26487145
   0.75818959  0.74052095  0.01060870
   0.00473894  0.25639573  0.73692645
   0.75372597  0.26156691  0.50630431
   0.99618570  0.74406183  0.74598502
   0.25684050  0.49546004  0.74698111
   0.24815563  0.24805719  0.99657707
   0.50783503  0.25453137  0.25346857
   0.74578580  0.98927832  0.26930178
   0.75670001  0.25541348  0.99483421
   0.24894395  0.75056550  0.99957725
   0.25383527  0.24857074  0.50040576
   0.24591071  0.75046308  0.49993835
   0.25001956  0.24939912  0.24857297
   0.26041569  0.00002549  0.99344363
   0.00255327  0.24957064  0.00169367
   0.75344467  0.24582782  0.25476504
   0.74785872  0.99692749  0.01015258
   0.50533167  0.99974359  0.24742660
   0.99185398  0.47960700  0.24190383
   0.50564093  0.76048889  0.00768126
   0.98841697  0.00243408  0.73925025
   0.75721938  0.24374264  0.74872981
   0.73636589  0.00506692  0.51066016
   0.50556679  0.23224434  0.49631447
   0.50139150  0.00073387  0.73603236
  -0.00152421 -0.00017791  0.25618201
   0.50420755  0.24726585  0.00120710
   0.25220745  0.74959613  0.24927904
   0.24384456  0.50028172  0.99519167
   0.99717659  0.74286086  0.00390984
   0.75430532  0.74022916  0.25442562
   0.75830431  0.50431497  0.00289892
   0.50360669  0.50471984  0.25654874
   0.24904831  0.25203547  0.74849398
   0.24855112  0.99822772  0.50390900
   0.99714231  0.24385313  0.50171167
   0.24243712  0.75334347  0.75016216
   0.25632929  0.50028123  0.50099248
   0.99138578  0.75994290  0.49969955
   0.99290052  0.50016625  0.75180351
   0.75003733  0.75253870  0.74896047
   0.74277066  0.49925527  0.50175495
   0.50443809  0.75263599  0.49647390
   0.50277937  0.50130126  0.74127081
   0.51649772  0.01500379  0.97909294
   0.99796337  0.51263543  0.98438877
   0.50421742  0.73770051  0.25942541
   0.23684113  0.01072016  0.74641657
   0.47841576  0.98258061  0.49768591
   0.74135323  0.97681877  0.76515095
  -0.00037893  0.77566385  0.25973243
   0.73591478  0.51432693  0.26386177
   0.02221581  0.99827408  0.49643967
   0.50363556  0.52783862  0.49863408
   0.73906544  0.52638665  0.74082567
   0.75455633  0.73155693  0.49215035
HECN                                    
           1
     8.765694   -0.008161   -0.003830
    -0.002631    8.832737    0.004124
     0.027685   -0.011314    8.786719
   Nb   W    Hf   N    C    Cr   Mo
   7   6   7  13  19   6   6
Direct configuration=     4
   0.99729332  0.99085269  0.99351639
   0.25505702  0.99177694  0.24828782
   0.25099766  0.50799703  0.24634287
   0.50341986  0.49477805  0.99719101
   0.50030677  0.24224631  0.75063647
   0.99665157  0.49845861  0.50082804
   0.49740764  0.76177310  0.74898851
   0.99752788  0.23409063  0.26575117
   0.75913156  0.74141531  0.00859961
   0.01143283  0.25814295  0.73435541
   0.75409054  0.26034552  0.50850024
   0.99903062  0.74262627  0.74946141
   0.25564373  0.49836942  0.75142801
   0.24878884  0.24691310  0.99730394
   0.50556625  0.24965367  0.25225378
   0.74024381  0.99274879  0.26719494
   0.75557992  0.25332717  0.99235682
   0.25271460  0.75290955  0.99925456
   0.25667775  0.24918943  0.50030173
   0.24888944  0.75058603  0.50021775
   0.25039038  0.24939397  0.24926533
   0.25856545  0.00030823  0.99414749
   0.00197654  0.24831510  0.00289589
   0.75399081  0.24536279  0.25387739
   0.74741179  0.99559693  0.00509937
   0.50008741  0.99904384  0.24839442
   0.99492510  0.47806403  0.24335698
   0.50651129  0.75924227  0.00573598
   0.98678794  0.00352253  0.74472939
   0.75666927  0.24220066  0.74814130
   0.73714023  0.00644538  0.51252819
   0.50563968  0.23163879  0.49883566
   0.50472328  0.00091778  0.73979047
   0.00048364  0.00444544  0.24915990
   0.50369222  0.24820334 -0.00172013
   0.25528868  0.74964800  0.24944019
   0.24453791  0.49948773  0.99584697
   0.99652544  0.74175692  0.00282067
   0.74867039  0.74442002  0.24758287
   0.75890233  0.50538324  0.00313501
   0.49517191  0.50792200  0.25102464
   0.24998447  0.24828891  0.74864164
   0.25829901  0.99832078  0.50747878
   0.99667410  0.24751473  0.50227833
   0.24475892  0.75405350  0.75039954
   0.25134189  0.49959435  0.49988370
   0.99518875  0.75430010  0.50454797
   0.99508788  0.49875348  0.75348860
   0.74919820  0.76125699  0.75178089
   0.74735965  0.49366071  0.50373806
   0.50187967  0.76135730  0.49414140
   0.49764709  0.49917235  0.74609917
   0.51737329  0.01815721  0.97488461
   0.99701240  0.51995757  0.98025463
   0.50457748  0.73427932  0.26009082
   0.23385292  0.00952241  0.74752948
   0.47663816  0.98220875  0.49867584
   0.73712166  0.97369430  0.76723785
   0.00184575  0.77272356  0.25533031
   0.73753197  0.51112444  0.25556995
   0.01789617  0.99997838  0.49910995
   0.49937556  0.52402308  0.49675034
   0.74049161  0.52036363  0.74974372
   0.75432048  0.73817430  0.49548609
HECN                                    
           1
     8.768444   -0.008855   -0.004118
    -0.003334    8.830417    0.004470
     0.027408   -0.010971    8.790747
   Nb   W    Hf   N    C    Cr   Mo
   7   6   7  13  19   6   6
Direct configuration=     5
   0.99736710  0.99076166  0.99292973
   0.25517385  0.99129120  0.24821425
   0.25126674  0.50857787  0.24601490
   0.50324422  0.49453431  0.99709331
   0.49986767  0.24185834  0.75096053
   0.99692570  0.49787551  0.50109270
   0.49720756  0.76244323  0.74907122
   0.99785209  0.23394378  0.26586810
   0.75925677  0.74153486  0.00833284
   0.01232267  0.25837684  0.73401417
   0.75413898  0.26018241  0.50879187
   0.99940878  0.74243471  0.74992316
   0.25548503  0.49875755  0.75201832
   0.24887295  0.24676038  0.99740052
   0.50526424  0.24900236  0.25209260
   0.73950735  0.99321175  0.26691488
   0.75543078  0.25304866  0.99202792
   0.25321599  0.75322279  0.99921174
   0.25705563  0.24927225  0.50028798
   0.24928541  0.75060267  0.50025494
   0.25043969  0.24939328  0.24935727
   0.25831955  0.00034581  0.99424088
   0.00189981  0.24814740  0.00305555
   0.75406334  0.24530079  0.25375956
   0.74735211  0.99541946  0.00442843
   0.49939029  0.99894997  0.24852279
   0.99533325  0.47785823  0.24355010
   0.50662682  0.75907599  0.00547776
   0.98657167  0.00366749  0.74545682
   0.75659600  0.24199478  0.74806320
   0.73724333  0.00662939  0.51277620
   0.50564941  0.23155786  0.49917045
   0.50516630  0.00094245  0.74028958
   0.00075067  0.00506310  0.24822738
   0.50362370  0.24832857 -0.00210886
   0.25569827  0.74965516  0.24946168
   0.24463003  0.49938176  0.99593403
   0.99643876  0.74160953  0.00267607
   0.74792147  0.74497934  0.24667393
   0.75898191  0.50552590  0.00316633
   0.49405079  0.50834905  0.25029075
   0.25010861  0.24778881  0.74866143
   0.25959488  0.99833383  0.50795309
   0.99661218  0.24800351  0.50235341
   0.24506761  0.75414846  0.75043111
   0.25067885  0.49950230  0.49973634
   0.99569397  0.75354689  0.50519210
   0.99537858  0.49856498  0.75371247
   0.74908746  0.76242072  0.75215502
   0.74796926  0.49291410  0.50400175
   0.50154021  0.76252150  0.49383126
   0.49696487  0.49888755  0.74674020
   0.51748979  0.01857843  0.97432573
   0.99688644  0.52093518  0.97970538
   0.50462509  0.73382258  0.26017932
   0.23345565  0.00936222  0.74767720
   0.47640188  0.98215893  0.49880724
   0.73655899  0.97327677  0.76751493
   0.00214108  0.77233138  0.25474598
   0.73774640  0.51069736  0.25446914
   0.01732220  0.00020547  0.49946430
   0.49880893  0.52351343  0.49650023
   0.74068100  0.51955930  0.75092814
   0.75428977  0.73905758  0.49592875
HECN                                    
           1
     8.796998   -0.011500   -0.008442
    -0.005964    8.877209    0.002742
     0.023173   -0.012770    8.810873
   Nb   W    Hf   N    C    Cr   Mo
   7   6   7  13  19   6   6
Direct configuration=     6
   0.99833811  0.98921710  0.98989173
   0.25390661  0.98967445  0.25083543
   0.25077257  0.51046835  0.24415591
   0.50296138  0.49317917  0.99686565
   0.49710663  0.24090810  0.75120661
   0.99860077  0.49753430  0.50159954
   0.49808075  0.76319669  0.74680280
   0.99858721  0.23537745  0.26683798
   0.75953592  0.74306186  0.00649808
   0.01573816  0.25821799  0.73460286
   0.75380683  0.25837697  0.51045617
   0.00023269  0.74069766  0.75218597
   0.25399179  0.49987521  0.75438688
   0.24746409  0.24564524  0.99821639
   0.50383042  0.24977997  0.25153483
   0.73988114  0.99318353  0.26577536
   0.75604843  0.25201992  0.99019818
   0.25505788  0.75449252  0.99947790
   0.25712008  0.24878866  0.50022073
   0.24836635  0.75084858  0.50051150
   0.25077124  0.24918011  0.24994472
   0.25722188  0.00065055  0.99509607
   0.00162477  0.24641016  0.00371008
   0.75387597  0.24514101  0.25331675
   0.74609954  0.99503307  0.00120560
   0.49782051  0.99894800  0.24862693
   0.99668850  0.47844718  0.24536370
   0.50703916  0.75855602  0.00316897
   0.98631817  0.00428253  0.74699376
   0.75714144  0.24259450  0.74713834
   0.73973015  0.00636183  0.51256194
   0.50646339  0.23339612  0.49949931
   0.50792207  0.00056151  0.74343696
  -0.00025360  0.00210783  0.24647933
   0.50316291  0.24848930 -0.00173791
   0.25798217  0.75017337  0.24922214
   0.24406938  0.50029793  0.99674878
   0.99959257  0.74236563  0.00318494
   0.74496621  0.74500993  0.24731041
   0.76006304  0.50398943  0.00372641
   0.49504544  0.50829990  0.24883363
   0.25147663  0.24600096  0.74901856
   0.25922619  0.99888696  0.51106147
   0.99896206  0.24851244  0.50132745
   0.24677023  0.75503956  0.75081354
   0.24934166  0.50001474  0.49939223
   0.99656015  0.75161775  0.50553732
   0.99640553  0.49727757  0.75507545
   0.75009919  0.76059064  0.75157969
   0.74666353  0.49495422  0.50319539
   0.50312362  0.76281243  0.49160731
   0.49683579  0.49921638  0.74683493
   0.51833479  0.02068504  0.97103910
   0.99591437  0.52624707  0.97585491
   0.50411726  0.73028186  0.26268748
   0.22831641  0.00711789  0.74732423
   0.47763566  0.98384801  0.49968919
   0.73178171  0.97481404  0.77041635
   0.00066021  0.77316204  0.25261446
   0.73443699  0.51162308  0.25111606
   0.01786340  0.00077351  0.49989787
   0.49933205  0.52365132  0.49450174
   0.74033948  0.52015736  0.75656195
   0.75303074  0.73787525  0.49676210
HECN                                    
           1
     8.808242   -0.012541   -0.010145
    -0.007000    8.895635    0.002061
     0.021505   -0.013478    8.818798
   Nb   W    Hf   N    C    Cr   Mo
   7   6   7  13  19   6   6
Direct configuration=     7
   0.99871847  0.98861194  0.98869820
   0.25340952  0.98904121  0.25186490
   0.25057846  0.51120867  0.24342558
   0.50285017  0.49264829  0.99677605
   0.49602283  0.24053558  0.75130269
   0.99925831  0.49740087  0.50179896
   0.49842314  0.76349176  0.74591179
   0.99887610  0.23593920  0.26721928
   0.75964531  0.74365989  0.00577739
   0.01707887  0.25815620  0.73483480
   0.75367657  0.25766985  0.51110984
   0.00055632  0.74001750  0.75307503
   0.25340626  0.50031302  0.75531726
   0.24691113  0.24520833  0.99853658
   0.50326762  0.25008436  0.25131548
   0.74002764  0.99317243  0.26532773
   0.75629040  0.25161688  0.98947934
   0.25578104  0.75499012  0.99958293
   0.25714531  0.24859923  0.50019428
   0.24800569  0.75094483  0.50061214
   0.25090147  0.24909669  0.25017557
   0.25679123  0.00076986  0.99543187
   0.00151673  0.24572969  0.00396705
   0.75380232  0.24507836  0.25314272
   0.74560722  0.99488131 -0.00006089
   0.49720438  0.99894705  0.24866754
   0.99722087  0.47867819  0.24607655
   0.50720051  0.75835220  0.00226190
   0.98621903  0.00452355  0.74759760
   0.75735542  0.24282940  0.74677512
   0.74070617  0.00625729  0.51247822
   0.50678316  0.23411631  0.49962882
   0.50900430  0.00041286  0.74467403
  -0.00064846  0.00094996  0.24579211
   0.50298213  0.24855223 -0.00159224
   0.25887864  0.75037661  0.24912851
   0.24384958  0.50065680  0.99706885
   0.00083066  0.74266221  0.00338554
   0.74380637  0.74502162  0.24755991
   0.76048733  0.50338775  0.00394655
   0.49543557  0.50828065  0.24826132
   0.25201344  0.24530082  0.74915900
   0.25908214  0.99910383  0.51228269
   0.99988427  0.24871198  0.50092485
   0.24743871  0.75538884  0.75096419
   0.24881680  0.50021529  0.49925682
   0.99689997  0.75086221  0.50567297
   0.99680873  0.49677351  0.75561104
   0.75049599  0.75987385  0.75135370
   0.74615110  0.49575315  0.50287848
   0.50374472  0.76292640  0.49073387
   0.49678519  0.49934518  0.74687216
   0.51866608  0.02151007  0.96974815
   0.99553271  0.52832740  0.97434233
   0.50391800  0.72889505  0.26367254
   0.22629888  0.00623813  0.74718440
   0.47812030  0.98450985  0.50003607
   0.72990731  0.97541589  0.77155549
   0.00007865  0.77348708  0.25177679
   0.73313747  0.51198504  0.24979811
   0.01807597  0.00099612  0.50006837
   0.49953701  0.52370524  0.49371666
   0.74020658  0.52039203  0.75877539
   0.75253659  0.73741203  0.49708918
HECN                                    
           1
     8.757339   -0.014704   -0.011101
    -0.009203    8.858448   -0.003375
     0.020371   -0.018808    8.776481
   Nb   W    Hf   N    C    Cr   Mo
   7   6   7  13  19   6   6
Direct configuration=     8
   0.99976462  0.98728393  0.98686808
   0.25255106  0.98848668  0.25532019
   0.25027033  0.51214135  0.24244720
   0.50265142  0.49155096  0.99590072
   0.49367299  0.24108452  0.75112038
   0.99955348  0.49747423  0.50232706
   0.50065285  0.76262625  0.74270883
   0.99858885  0.23489297  0.26711326
   0.76071467  0.74524195  0.00402008
   0.01904043  0.25709796  0.73478346
   0.75434888  0.25832127  0.51206704
   0.00045584  0.73876266  0.75374626
   0.25255729  0.50157669  0.75673000
   0.24552059  0.24445278  0.99957500
   0.50279031  0.25066576  0.25124909
   0.73973368  0.99270538  0.26454903
   0.75699853  0.25052655  0.98809638
   0.25885685  0.75644898  0.99960475
   0.25735743  0.24876588  0.50051115
   0.24799748  0.75136727  0.50096924
   0.25087665  0.24904854  0.25077277
   0.25545005  0.00099469  0.99671406
   0.00123708  0.24320121  0.00420418
   0.75350378  0.24466302  0.25293406
   0.74459926  0.99427264 -0.00224804
   0.49685762  0.00006277  0.24901753
   0.99853192  0.47868239  0.24882445
   0.50794045  0.75743824 -0.00053432
   0.98691888  0.00493805  0.74739863
   0.75780608  0.24343562  0.74583161
   0.74367971  0.00674318  0.51088678
   0.50784500  0.23651278  0.49974327
   0.51120283 -0.00000666  0.74639236
  -0.00203693  0.00099419  0.24593604
   0.50252440  0.24844989 -0.00102426
   0.26009784  0.75095575  0.24942907
   0.24293504  0.50163432  0.99748951
   0.00330396  0.74432111  0.00414598
   0.74166317  0.74445381  0.24818310
   0.76210925  0.50242616  0.00478414
   0.49603900  0.50696240  0.24722207
   0.25340649  0.24422398  0.74968577
   0.25834941  0.99911814  0.51524302
   0.00173515  0.24870002  0.50144027
   0.24893982  0.75595929  0.75117463
   0.24885841  0.50068334  0.49920249
   0.99622078  0.75052476  0.50530983
   0.99694068  0.49560179  0.75590931
   0.75210431  0.75854166  0.75016800
   0.74509927  0.49667162  0.50233432
   0.50467512  0.76256778  0.48861627
   0.49735832  0.50008031  0.74593158
   0.51943819  0.02402278  0.96764045
   0.99422607  0.53243577  0.97198028
   0.50411489  0.72654492  0.26747844
   0.21924026  0.00351568  0.74628266
   0.47858750  0.98668127  0.50113883
   0.72570145  0.97568711  0.77448012
  -0.00213160  0.77281899  0.25052688
   0.73011162  0.51414462  0.24789506
   0.01788892  0.00092854  0.49999309
   0.49994512  0.52325869  0.49206877
   0.73999521  0.52156425  0.76214389
   0.75203233  0.73406630  0.49754597
HECN                                    
           1
     8.766424   -0.014318   -0.010930
    -0.008810    8.865085   -0.002405
     0.020573   -0.017856    8.784034
   Nb   W    Hf   N    C    Cr   Mo
   7   6   7  13  19   6   6
Direct configuration=     9
   0.99957691  0.98752211  0.98719644
   0.25270512  0.98858573  0.25470057
   0.25032563  0.51197430  0.24262258
   0.50268717  0.49174775  0.99605783
   0.49409482  0.24098626  0.75115306
   0.99950048  0.49746101  0.50223233
   0.50025267  0.76278163  0.74328332
   0.99864047  0.23508052  0.26713240
   0.76052265  0.74495853  0.00433506
   0.01868833  0.25728755  0.73479274
   0.75422813  0.25820438  0.51189528
   0.00047392  0.73898751  0.75362602
   0.25270962  0.50135008  0.75647650
   0.24577024  0.24458815  0.99938887
   0.50287597  0.25056158  0.25126094
   0.73978649  0.99278919  0.26468874
   0.75687148  0.25072209  0.98834452
   0.25830460  0.75618736  0.99960061
   0.25731933  0.24873597  0.50045430
   0.24799893  0.75129151  0.50090515
   0.25088109  0.24905711  0.25066567
   0.25569079  0.00095431  0.99648410
   0.00128739  0.24365440  0.00416194
   0.75355740  0.24473750  0.25297154
   0.74478029  0.99438202 -0.00185569
   0.49691982 -0.00013723  0.24895464
   0.99829649  0.47868128  0.24833158
   0.50780771  0.75760233 -0.00003273
   0.98679322  0.00486375  0.74743425
   0.75772517  0.24332704  0.74600076
   0.74314589  0.00665613  0.51117209
   0.50765426  0.23608318  0.49972246
   0.51080812  0.00006825  0.74608418
  -0.00178767  0.00098631  0.24591025
   0.50260657  0.24846819 -0.00112611
   0.25987893  0.75085186  0.24937508
   0.24309917  0.50145911  0.99741398
   0.00285985  0.74402358  0.00400936
   0.74204795  0.74455561  0.24807144
   0.76181810  0.50259835  0.00463399
   0.49593075  0.50719877  0.24740859
   0.25315644  0.24441687  0.74959138
   0.25848089  0.99911528  0.51471210
   0.00140286  0.24870202  0.50134779
   0.24867030  0.75585695  0.75113680
   0.24885092  0.50059945  0.49921218
   0.99634274  0.75058531  0.50537501
   0.99691704  0.49581176  0.75585594
   0.75181566  0.75878049  0.75038077
   0.74528807  0.49650710  0.50243183
   0.50450815  0.76263225  0.48899608
   0.49725541  0.49994863  0.74610018
   0.51929951  0.02357260  0.96801817
   0.99446051  0.53169971  0.97240348
   0.50407957  0.72696573  0.26679611
   0.22050760  0.00400407  0.74644484
   0.47850351  0.98629193  0.50094080
   0.72645644  0.97563837  0.77395565
  -0.00173474  0.77293898  0.25075117
   0.73065478  0.51375789  0.24823619
   0.01792251  0.00094067  0.50000660
   0.49987191  0.52333889  0.49236436
   0.74003303  0.52135378  0.76153962
   0.75212300  0.73466596  0.49746443
HECN                                    
           1
     8.772844   -0.015965   -0.008387
    -0.010486    8.867030   -0.008135
     0.023153   -0.023535    8.802259
   Nb   W    Hf   N    C    Cr   Mo
   7   6   7  13  19   6   6
Direct configuration=    10
   0.00033147  0.98722075  0.98726026
   0.25266932  0.98937132  0.25764297
   0.25008691  0.51167268  0.24283557
   0.50246889  0.49130979  0.99485692
   0.49319739  0.24296611  0.75077296
   0.99895407  0.49771567  0.50243539
   0.50268867  0.76068311  0.74030062
   0.99761970  0.23307489  0.26630576
   0.76148380  0.74649036  0.00312483
   0.01844460  0.25545204  0.73505282
   0.75550626  0.26048721  0.51136254
  -0.00015896  0.73922711  0.75268539
   0.25251934  0.50264968  0.75650897
   0.24512902  0.24451527  0.00030720
   0.50331972  0.25030580  0.25148543
   0.73867006  0.99225046  0.26439695
   0.75717661  0.24984445  0.98795033
   0.26193122  0.75747226  0.99946484
   0.25783270  0.24941943  0.50087673
   0.24864099  0.75151625  0.50128026
   0.25043100  0.24923060  0.25113953
   0.25470885  0.00113189  0.99766071
   0.00104297  0.24129550  0.00417186
   0.75332344  0.24429745  0.25293348
   0.74449836  0.99373252 -0.00213415
   0.49705313  0.00124059  0.24934159
   0.99921028  0.47855228  0.25078011
   0.50880615  0.75657332 -0.00235117
   0.98739721  0.00493004  0.74582555
   0.75785563  0.24344115  0.74545075
   0.74565768  0.00772689  0.50918043
   0.50865493  0.23833006  0.49996939
   0.51122512 -0.00003126  0.74544852
  -0.00282328  0.00249317  0.24689226
   0.50229367  0.24829981 -0.00084412
   0.26004225  0.75124339  0.25005742
   0.24204526  0.50208818  0.99740514
   0.00442745  0.74578559  0.00445476
   0.74094428  0.74441270  0.24773240
   0.76342359  0.50235272  0.00553315
   0.49494429  0.50545575  0.24643917
   0.25401881  0.24390396  0.75014736
   0.25838839  0.99888150  0.51690437
   0.00212722  0.24850143  0.50234186
   0.24972135  0.75613220  0.75105073
   0.24977849  0.50083791  0.49941439
   0.99504156  0.75136327  0.50474681
   0.99622226  0.49506445  0.75511626
   0.75338612  0.75917731  0.74897754
   0.74538350  0.49570602  0.50251861
   0.50446963  0.76289294  0.48781857
   0.49787785  0.50061618  0.74474645
   0.51904935  0.02536900  0.96826131
   0.99345253  0.53289804  0.97276786
   0.50483680  0.72706202  0.27034910
   0.21440750  0.00139887  0.74566911
   0.47835368  0.98853508  0.50217040
   0.72531094  0.97481190  0.77535139
  -0.00368940  0.77096581  0.25068638
   0.73003167  0.51496807  0.24787628
   0.01609467  0.00065241  0.49982252
   0.49923011  0.52109515  0.49174218
   0.74052940  0.52141838  0.76193043
   0.75230387  0.73152088  0.49759670
HECN                                    
           1
     8.777047   -0.017043   -0.006723
    -0.011584    8.868303   -0.011887
     0.024842   -0.027252    8.814190
   Nb   W    Hf   N    C    Cr   Mo
   7   6   7  13  19   6   6
Direct configuration=    11
   0.00082501  0.98702362  0.98730169
   0.25264544  0.98988669  0.25956550
   0.24993068  0.51147534  0.24297463
   0.50232628  0.49102262  0.99407226
   0.49261066  0.24426163  0.75052566
   0.99859663  0.49788235  0.50256825
   0.50428248  0.75930871  0.73835076
   0.99695188  0.23176177  0.26576508
   0.76211294  0.74749253  0.00233469
   0.01828488  0.25425081  0.73522199
   0.75634273  0.26198122  0.51101524
  -0.00057276  0.73938346  0.75207112
   0.25239503  0.50350024  0.75653077
   0.24470938  0.24446787  0.00090720
   0.50360993  0.25013854  0.25163189
   0.73793974  0.99189761  0.26420631
   0.75737618  0.24926992  0.98769239
   0.26430375  0.75831359  0.99937601
   0.25816852  0.24986698  0.50115289
   0.24906094  0.75166357  0.50152529
   0.25013651  0.24934429  0.25144925
   0.25406631  0.00124849  0.99842962
   0.00088279  0.23975162  0.00417738
   0.75317035  0.24400941  0.25290848
   0.74431391  0.99330728 -0.00231629
   0.49714043  0.00214254  0.24959494
   0.99980756  0.47846898  0.25237943
   0.50945958  0.75589901 -0.00386637
   0.98779261  0.00497282  0.74477454
   0.75794110  0.24351561  0.74509147
   0.74730127  0.00842717  0.50787932
   0.50930975  0.23980083  0.50013147
   0.51149801 -0.00009660  0.74503314
  -0.00350071  0.00347967  0.24753462
   0.50208891  0.24818968 -0.00065992
   0.26014901  0.75149995  0.25050331
   0.24135593  0.50249976  0.99739983
   0.00545303  0.74693917  0.00474619
   0.74022237  0.74431889  0.24751106
   0.76447362  0.50219252  0.00612014
   0.49429896  0.50431446  0.24580533
   0.25458277  0.24356861  0.75051018
   0.25832744  0.99872940  0.51833644
   0.00260085  0.24837064  0.50299103
   0.25040894  0.75631244  0.75099443
   0.25038524  0.50099416  0.49954642
   0.99419062  0.75187201  0.50433699
   0.99576782  0.49457495  0.75463286
   0.75441374  0.75943663  0.74806073
   0.74544581  0.49518177  0.50257494
   0.50444468  0.76306307  0.48704945
   0.49828536  0.50105260  0.74386226
   0.51888588  0.02654478  0.96842096
   0.99279325  0.53368235  0.97300660
   0.50533149  0.72712660  0.27267006
   0.21041695 -0.00030724  0.74516239
   0.47825572  0.99000367  0.50297464
   0.72456124  0.97427143  0.77626305
  -0.00496827  0.76967415  0.25064358
   0.72962428  0.51575989  0.24764179
   0.01489899  0.00046346  0.49970248
   0.49881012  0.51962632  0.49133489
   0.74085403  0.52146087  0.76218567
   0.75242178  0.72946255  0.49768174
HECN                                    
           1
     8.801258   -0.017716   -0.006945
    -0.012279    8.876968   -0.012198
     0.024694   -0.027582    8.820255
   Nb   W    Hf   N    C    Cr   Mo
   7   6   7  13  19   6   6
Direct configuration=    12
   0.00068490  0.98726296  0.98850883
   0.25261315  0.99038646  0.26078141
   0.24960631  0.51149559  0.24338329