   2   2   0   0
  0.2327242E+02  0.3231200E-09  0.3231200E-09  0.5147700E-09  0.5000000E-15
  1.000000000000000E-004
  CAR 
 HECN                                    
     29.04298095     -2.50732348  301      4.63097399      1.00000000
     -2.507  0.0000E+00  0.0000E+00
     -2.402  0.0000E+00  0.0000E+00
     -2.297  0.0000E+00  0.0000E+00
     -2.192  0.0000E+00  0.0000E+00
     -2.087  0.0000E+00  0.0000E+00
     -1.981  0.0000E+00  0.0000E+00
     -1.876  0.0000E+00  0.0000E+00
     -1.771  0.0000E+00  0.0000E+00
     -1.666  0.0000E+00  0.0000E+00
     -1.561  0.1888E-13  0.1986E-14
     -1.456  0.2240E-09  0.2356E-10
     -1.350  0.3103E-06  0.3265E-07
     -1.245  0.5231E-04  0.5534E-05
     -1.140  0.1159E-02  0.1274E-03
     -1.035  0.3759E-02  0.5227E-03
     -0.930  0.1923E-02  0.7250E-03
     -0.825  0.1483E-03  0.7406E-03
     -0.719  0.1544E-05  0.7407E-03
     -0.614  0.5254E-08  0.7407E-03
     -0.509  0.2674E-05  0.7410E-03
     -0.404  0.2706E-03  0.7695E-03
     -0.299  0.3689E-02  0.1157E-02
     -0.194  0.7562E-02  0.1953E-02
     -0.088  0.2445E-02  0.2210E-02
      0.017  0.1161E-03  0.2222E-02
      0.122  0.7264E-06  0.2222E-02
      0.227  0.5538E-09  0.2222E-02
      0.332  0.4935E-13  0.2222E-02
      0.437  0.0000E+00  0.2222E-02
      0.543  0.0000E+00  0.2222E-02
      0.648  0.1408E-16  0.2222E-02
      0.753  0.7515E-12  0.2222E-02
      0.858  0.4721E-08  0.2222E-02
      0.963  0.3510E-05  0.2223E-02
      1.068  0.3324E-03  0.2258E-02
      1.174  0.5019E-02  0.2785E-02
      1.279  0.2006E-01  0.4895E-02
      1.384  0.3297E-01  0.8363E-02
      1.489  0.4942E-01  0.1356E-01
      1.594  0.3534E-01  0.1728E-01
      1.699  0.4670E-02  0.1777E-01
      1.805  0.9658E-04  0.1778E-01
      1.910  0.3337E-06  0.1778E-01
      2.015  0.2388E-04  0.1778E-01
      2.120  0.2088E-02  0.1800E-01
      2.225  0.2479E-01  0.2061E-01
      2.330  0.4520E-01  0.2536E-01
      2.436  0.2321E-01  0.2780E-01
      2.541  0.2796E-01  0.3074E-01
      2.646  0.1533E-01  0.3235E-01
      2.751  0.2279E-02  0.3259E-01
      2.856  0.3249E-02  0.3293E-01
      2.961  0.2315E-01  0.3537E-01
      3.067  0.3355E-01  0.3890E-01
      3.172  0.2739E-01  0.4178E-01
      3.277  0.7420E-01  0.4958E-01
      3.382  0.6071E-01  0.5597E-01
      3.487  0.2595E-01  0.5870E-01
      3.592  0.2444E-01  0.6127E-01
      3.698  0.8602E-02  0.6217E-01
      3.803  0.1198E-02  0.6230E-01
      3.908  0.1482E-01  0.6386E-01
      4.013  0.4555E-01  0.6865E-01
      4.118  0.2634E-01  0.7142E-01
      4.223  0.2227E-01  0.7376E-01
      4.329  0.1533E-01  0.7537E-01
      4.434  0.2196E-02  0.7560E-01
      4.539  0.1019E-01  0.7667E-01
      4.644  0.3666E-01  0.8053E-01
      4.749  0.3002E-01  0.8369E-01
      4.854  0.2477E-01  0.8629E-01
      4.960  0.1067E-01  0.8741E-01
      5.065  0.1558E-01  0.8905E-01
      5.170  0.4611E-01  0.9390E-01
      5.275  0.3297E-01  0.9737E-01
      5.380  0.3863E-01  0.1014E+00
      5.485  0.4626E-01  0.1063E+00
      5.591  0.5261E-01  0.1118E+00
      5.696  0.7456E-01  0.1197E+00
      5.801  0.6005E-01  0.1260E+00
      5.906  0.1299E-01  0.1274E+00
      6.011  0.8873E-03  0.1274E+00
      6.116  0.5368E-02  0.1280E+00
      6.222  0.2924E-01  0.1311E+00
      6.327  0.6717E-01  0.1381E+00
      6.432  0.3548E-01  0.1419E+00
      6.537  0.3223E-02  0.1422E+00
      6.642  0.4249E-04  0.1422E+00
      6.747  0.9249E-07  0.1422E+00
      6.853  0.9962E-05  0.1422E+00
      6.958  0.6128E-03  0.1423E+00
      7.063  0.5214E-02  0.1428E+00
      7.168  0.6913E-02  0.1436E+00
      7.273  0.4476E-02  0.1440E+00
      7.378  0.1401E-01  0.1455E+00
      7.484  0.1010E-01  0.1466E+00
      7.589  0.7974E-02  0.1474E+00
      7.694  0.3880E-01  0.1515E+00
      7.799  0.3578E-01  0.1553E+00
      7.904  0.2430E-01  0.1578E+00
      8.009  0.3644E-01  0.1616E+00
      8.115  0.1240E-01  0.1629E+00
      8.220  0.1107E-01  0.1641E+00
      8.325  0.4704E-01  0.1691E+00
      8.430  0.5464E-01  0.1748E+00
      8.535  0.1864E-01  0.1768E+00
      8.640  0.4572E-01  0.1816E+00
      8.746  0.6799E-01  0.1887E+00
      8.851  0.2907E-01  0.1918E+00
      8.956  0.1133E-01  0.1930E+00
      9.061  0.2620E-01  0.1957E+00
      9.166  0.5068E-01  0.2011E+00
      9.271  0.5094E-01  0.2064E+00
      9.377  0.4934E-01  0.2116E+00
      9.482  0.1567E-01  0.2133E+00
      9.587  0.9717E-03  0.2134E+00
      9.692  0.5263E-02  0.2139E+00
      9.797  0.2155E-01  0.2162E+00
      9.902  0.1388E-01  0.2176E+00
     10.008  0.1729E-02  0.2178E+00
     10.113  0.1045E-01  0.2189E+00
     10.218  0.4303E-01  0.2234E+00
     10.323  0.2790E-01  0.2264E+00
     10.428  0.2758E-02  0.2267E+00
     10.533  0.3735E-04  0.2267E+00
     10.639  0.6315E-07  0.2267E+00
     10.744  0.1264E-10  0.2267E+00
     10.849  0.9737E-14  0.2267E+00
     10.954  0.1708E-09  0.2267E+00
     11.059  0.3584E-06  0.2267E+00
     11.164  0.9066E-04  0.2267E+00
     11.270  0.2958E-02  0.2270E+00
     11.375  0.1383E-01  0.2284E+00
     11.480  0.1014E-01  0.2295E+00
     11.585  0.1354E-02  0.2297E+00
     11.690  0.6304E-02  0.2303E+00
     11.795  0.3158E-01  0.2336E+00
     11.901  0.2809E-01  0.2366E+00
     12.006  0.4177E-02  0.2370E+00
     12.111  0.9106E-04  0.2370E+00
     12.216  0.4020E-05  0.2370E+00
     12.321  0.4986E-03  0.2371E+00
     12.426  0.8785E-02  0.2380E+00
     12.532  0.2356E-01  0.2405E+00
     12.637  0.1925E-01  0.2425E+00
     12.742  0.2349E-01  0.2450E+00
     12.847  0.8463E-02  0.2459E+00
     12.952  0.4633E-03  0.2459E+00
     13.057  0.1793E-03  0.2459E+00
     13.163  0.4233E-02  0.2464E+00
     13.268  0.1486E-01  0.2480E+00
     13.373  0.8212E-02  0.2488E+00
     13.478  0.7009E-03  0.2489E+00
     13.583  0.5693E-03  0.2489E+00
     13.688  0.3209E-02  0.2493E+00
     13.794  0.2877E-02  0.2496E+00
     13.899  0.2223E-02  0.2498E+00
     14.004  0.2338E-01  0.2523E+00
     14.109  0.4508E-01  0.2570E+00
     14.214  0.1649E-01  0.2588E+00
     14.320  0.2034E-01  0.2609E+00
     14.425  0.3422E-01  0.2645E+00
     14.530  0.4219E-01  0.2689E+00
     14.635  0.2787E-01  0.2719E+00
     14.740  0.2498E-01  0.2745E+00
     14.845  0.2793E-01  0.2774E+00
     14.951  0.2990E-01  0.2806E+00
     15.056  0.4486E-01  0.2853E+00
     15.161  0.1559E-01  0.2869E+00
     15.266  0.1274E-01  0.2883E+00
     15.371  0.1270E-01  0.2896E+00
     15.476  0.1456E-01  0.2911E+00
     15.582  0.2081E-01  0.2933E+00
     15.687  0.3648E-01  0.2972E+00
     15.792  0.5233E-01  0.3027E+00
     15.897  0.2127E-01  0.3049E+00
     16.002  0.2615E-02  0.3052E+00
     16.107  0.1999E-02  0.3054E+00
     16.213  0.1952E-01  0.3074E+00
     16.318  0.4535E-01  0.3122E+00
     16.423  0.2853E-01  0.3152E+00
     16.528  0.1495E-01  0.3168E+00
     16.633  0.5795E-01  0.3229E+00
     16.738  0.8160E-01  0.3315E+00
     16.844  0.3637E-01  0.3353E+00
     16.949  0.2220E-01  0.3376E+00
     17.054  0.7064E-01  0.3450E+00
     17.159  0.7393E-01  0.3528E+00
     17.264  0.5009E-01  0.3581E+00
     17.369  0.1843E-01  0.3600E+00
     17.475  0.2309E-01  0.3625E+00
     17.580  0.1118E-01  0.3636E+00
     17.685  0.5183E-02  0.3642E+00
     17.790  0.2565E-01  0.3669E+00
     17.895  0.5083E-01  0.3722E+00
     18.000  0.3941E-01  0.3764E+00
     18.106  0.6814E-02  0.3771E+00
     18.211  0.5185E-02  0.3776E+00
     18.316  0.7052E-02  0.3784E+00
     18.421  0.3214E-02  0.3787E+00
     18.526  0.4170E-02  0.3791E+00
     18.631  0.7114E-02  0.3799E+00
     18.737  0.1675E-01  0.3817E+00
     18.842  0.1028E-01  0.3827E+00
     18.947  0.2053E-02  0.3830E+00
     19.052  0.1094E-03  0.3830E+00
     19.157  0.9160E-06  0.3830E+00
     19.262  0.9730E-09  0.3830E+00
     19.368  0.3430E-07  0.3830E+00
     19.473  0.2408E-04  0.3830E+00
     19.578  0.2099E-02  0.3832E+00
     19.683  0.2483E-01  0.3858E+00
     19.788  0.4449E-01  0.3905E+00
     19.893  0.1255E-01  0.3918E+00
     19.999  0.5163E-03  0.3919E+00
     20.104  0.2854E-05  0.3919E+00
     20.209  0.3219E-04  0.3919E+00
     20.314  0.1710E-02  0.3920E+00
     20.419  0.1315E-01  0.3934E+00
     20.524  0.1658E-01  0.3952E+00
     20.630  0.3613E-02  0.3955E+00
     20.735  0.2690E-03  0.3956E+00
     20.840  0.4893E-02  0.3961E+00
     20.945  0.2578E-01  0.3988E+00
     21.050  0.2577E-01  0.4015E+00
     21.155  0.2615E-01  0.4043E+00
     21.261  0.2515E-01  0.4069E+00
     21.366  0.4672E-02  0.4074E+00
     21.471  0.1391E-03  0.4074E+00
     21.576  0.6035E-06  0.4074E+00
     21.681  0.7094E-09  0.4074E+00
     21.786  0.8252E-06  0.4074E+00
     21.892  0.2269E-03  0.4074E+00
     21.997  0.8019E-02  0.4083E+00
     22.102  0.4045E-01  0.4125E+00
     22.207  0.3267E-01  0.4160E+00
     22.312  0.9642E-02  0.4170E+00
     22.417  0.9436E-02  0.4180E+00
     22.523  0.1829E-01  0.4199E+00
     22.628  0.1858E-01  0.4218E+00
     22.733  0.7108E-02  0.4226E+00
     22.838  0.2971E-01  0.4257E+00
     22.943  0.5619E-01  0.4316E+00
     23.048  0.2215E-01  0.4340E+00
     23.154  0.8592E-02  0.4349E+00
     23.259  0.2298E-01  0.4373E+00
     23.364  0.1942E-01  0.4393E+00
     23.469  0.3039E-01  0.4425E+00
     23.574  0.1684E-01  0.4443E+00
     23.679  0.1454E-02  0.4444E+00
     23.785  0.4659E-04  0.4444E+00
     23.890  0.1551E-02  0.4446E+00
     23.995  0.1137E-01  0.4458E+00
     24.100  0.1308E-01  0.4472E+00
     24.205  0.1146E-01  0.4484E+00
     24.310  0.6694E-01  0.4554E+00
     24.416  0.8569E-01  0.4644E+00
     24.521  0.2104E-01  0.4667E+00
     24.626  0.9052E-02  0.4676E+00
     24.731  0.1533E-01  0.4692E+00
     24.836  0.2158E-01  0.4715E+00
     24.941  0.1048E+00  0.4825E+00
     25.047  0.1175E+00  0.4949E+00
     25.152  0.2651E-01  0.4976E+00
     25.257  0.2701E-02  0.4979E+00
     25.362  0.2205E-01  0.5003E+00
     25.467  0.5971E-01  0.5065E+00
     25.572  0.3930E-01  0.5107E+00
     25.678  0.3343E-01  0.5142E+00
     25.783  0.3140E-01  0.5175E+00
     25.888  0.2247E-01  0.5198E+00
     25.993  0.3141E-01  0.5231E+00
     26.098  0.1524E-01  0.5247E+00
     26.203  0.8387E-02  0.5256E+00
     26.309  0.5983E-02  0.5263E+00
     26.414  0.1921E-01  0.5283E+00
     26.519  0.1916E-01  0.5303E+00
     26.624  0.2782E-01  0.5332E+00
     26.729  0.5744E-01  0.5393E+00
     26.834  0.2918E-01  0.5423E+00
     26.940  0.6858E-02  0.5431E+00
     27.045  0.1965E-01  0.5451E+00
     27.150  0.5444E-01  0.5508E+00
     27.255  0.4059E-01  0.5551E+00
     27.360  0.1193E-01  0.5564E+00
     27.465  0.4996E-02  0.5569E+00
     27.571  0.9529E-02  0.5579E+00
     27.676  0.1517E-01  0.5595E+00
     27.781  0.4635E-02  0.5600E+00
     27.886  0.2093E-03  0.5600E+00
     27.991  0.1241E-05  0.5600E+00
     28.096  0.8959E-09  0.5600E+00
     28.202  0.7553E-13  0.5600E+00
     28.307  0.0000E+00  0.5600E+00
     28.412  0.0000E+00  0.5600E+00
     28.517  0.0000E+00  0.5600E+00
     28.622  0.0000E+00  0.5600E+00
     28.727  0.0000E+00  0.5600E+00
     28.833  0.0000E+00  0.5600E+00
     28.938  0.0000E+00  0.5600E+00
     29.043  0.0000E+00  0.5600E+00
