    2    2  100    1
  0.2327242E+02  0.3231200E-09  0.3231200E-09  0.5147700E-09  0.5000000E-15
  1.000000000000000E-004
  CAR 
 HECN                                    
      8      6     28
 
  0.0000000E+00  0.0000000E+00  0.0000000E+00  0.3703704E-01
      1         -1.073219   1.000000
      2          1.517593   1.000000
      3          5.300333   0.000000
      4          5.441366   0.000000
      5          5.538987   0.000000
      6          5.538988   0.000000
      7          6.151191   0.000000
      8          6.151191   0.000000
      9          7.078245   0.000000
     10          7.078246   0.000000
     11          9.172132   0.000000
     12          9.172132   0.000000
     13         13.681884   0.000000
     14         15.848379   0.000000
     15         16.746257   0.000000
     16         17.081782   0.000000
     17         17.081783   0.000000
     18         18.228967   0.000000
     19         18.228968   0.000000
     20         18.466504   0.000000
     21         18.793758   0.000000
     22         20.467541   0.000000
     23         22.319397   0.000000
     24         22.319398   0.000000
     25         26.664211   0.000000
     26         26.664211   0.000000
     27         26.784894   0.000000
     28         27.424057   0.000000
 
  0.3333333E+00  0.1606488E-16  0.0000000E+00  0.2222222E+00
      1          1.312395   1.000000
      2          2.481741   1.000000
      3          2.959554   1.000000
      4          4.206263   1.000000
      5          5.334288   0.000000
      6          5.516817   0.000000
      7          5.723434   0.000000
      8          7.925629   0.000000
      9          8.276573   0.000000
     10          8.660808   0.000000
     11          9.772175   0.000000
     12         12.481177   0.000000
     13         12.685250   0.000000
     14         14.320023   0.000000
     15         14.740352   0.000000
     16         16.228600   0.000000
     17         17.185760   0.000000
     18         17.185977   0.000000
     19         17.433477   0.000000
     20         20.928473   0.000000
     21         21.151856   0.000000
     22         23.218874   0.000000
     23         24.323546   0.000000
     24         24.913536   0.000000
     25         24.978736   0.000000
     26         25.733292   0.000000
     27         26.408523   0.000000
     28         27.206036   0.000000
 
  0.3333333E+00  0.3333333E+00  0.0000000E+00  0.7407407E-01
      1          2.566682   1.000000
      2          3.375284   1.000000
      3          3.375285   1.000000
      4          3.547042   1.000000
      5          4.813248   0.004972
      6          4.813248   0.004972
      7          6.243357   0.000000
      8          8.806038   0.000000
      9          8.806039   0.000000
     10          9.034485   0.000000
     11         11.357049   0.000000
     12         11.357049   0.000000
     13         11.749836   0.000000
     14         14.780021   0.000000
     15         15.477798   0.000000
     16         15.477799   0.000000
     17         15.623802   0.000000
     18         15.623803   0.000000
     19         17.767666   0.000000
     20         21.188875   0.000000
     21         22.823324   0.000000
     22         22.823324   0.000000
     23         24.659792   0.000000
     24         24.659792   0.000000
     25         25.028688   0.000000
     26         25.627912   0.000000
     27         27.608875   0.000000
     28         27.608876   0.000000
 
  0.0000000E+00  0.0000000E+00  0.3333333E+00  0.7407407E-01
      1         -0.257864   1.000000
      2          1.209465   1.000000
      3          4.585612   0.739408
      4          4.792754   0.011071
      5          5.415842   0.000000
      6          5.415842   0.000000
      7          5.745047   0.000000
      8          5.745047   0.000000
      9          7.966037   0.000000
     10          7.966037   0.000000
     11          9.059429   0.000000
     12          9.059429   0.000000
     13         15.224944   0.000000
     14         15.291439   0.000000
     15         16.570841   0.000000
     16         17.052652   0.000000
     17         17.052652   0.000000
     18         17.061857   0.000000
     19         17.777242   0.000000
     20         17.777242   0.000000
     21         20.962404   0.000000
     22         22.494809   0.000000
     23         22.542463   0.000000
     24         22.542463   0.000000
     25         24.002070   0.000000
     26         24.002070   0.000000
     27         26.144865   0.000000
     28         26.785356   0.000000
 
  0.3333333E+00  0.1606488E-16  0.3333333E+00  0.4444444E+00
      1          1.474164   1.000000
      2          2.258657   1.000000
      3          3.255259   1.000000
      4          3.971635   1.000000
      5          5.128157   0.000000
      6          5.655983   0.000000
      7          6.303561   0.000000
      8          7.686439   0.000000
      9          8.360233   0.000000
     10          8.658949   0.000000
     11          9.315559   0.000000
     12         10.193211   0.000000
     13         14.041419   0.000000
     14         14.984286   0.000000
     15         15.736059   0.000000
     16         16.623299   0.000000
     17         16.713463   0.000000
     18         17.009609   0.000000
     19         17.898764   0.000000
     20         19.716338   0.000000
     21         22.088356   0.000000
     22         22.897748   0.000000
     23         24.305797   0.000000
     24         24.930485   0.000000
     25         24.960704   0.000000
     26         25.433344   0.000000
     27         26.667229   0.000000
     28         27.095426   0.000000
 
  0.3333333E+00  0.3333333E+00  0.3333333E+00  0.1481481E+00
      1          3.028462   1.000000
      2          3.250464   1.000000
      3          3.250464   1.000000
      4          3.530649   1.000000
      5          4.620318   0.559894
      6          4.620318   0.559893
      7          6.266817   0.000000
      8          7.358937   0.000000
      9          9.152784   0.000000
     10          9.152784   0.000000
     11         11.797148   0.000000
     12         11.797148   0.000000
     13         13.233994   0.000000
     14         14.434125   0.000000
     15         14.520733   0.000000
     16         14.520734   0.000000
     17         16.315383   0.000000
     18         16.315383   0.000000
     19         18.687486   0.000000
     20         20.425144   0.000000
     21         23.436986   0.000000
     22         23.436986   0.000000
     23         24.359426   0.000000
     24         24.359426   0.000000
     25         25.386791   0.000000
     26         25.609285   0.000000
     27         25.939179   0.000000
     28         25.939179   0.000000
