 running   28 mpi-ranks, on    1 nodes
 distrk:  each k-point on   28 cores,    1 groups
 distr:  one band on    1 cores,   28 groups
 vasp.6.4.3 19Mar24 (build Sep 18 2024 11:30:23) complex                        
  
 POSCAR found type information on POSCAR Zr
 POSCAR found :  1 types and       2 ions
 Reading from existing POTCAR
 scaLAPACK will be used
 -----------------------------------------------------------------------------
|                                                                             |
|           W    W    AA    RRRRR   N    N  II  N    N   GGGG   !!!           |
|           W    W   A  A   R    R  NN   N  II  NN   N  G    G  !!!           |
|           W    W  A    A  R    R  N N  N  II  N N  N  G       !!!           |
|           W WW W  AAAAAA  RRRRR   N  N N  II  N  N N  G  GGG   !            |
|           WW  WW  A    A  R   R   N   NN  II  N   NN  G    G                |
|           W    W  A    A  R    R  N    N  II  N    N   GGGG   !!!           |
|                                                                             |
|     For optimal performance we recommend to set                             |
|       NCORE = 2 up to number-of-cores-per-socket                            |
|     NCORE specifies how many cores store one orbital (NPAR=cpu/NCORE).      |
|     This setting can greatly improve the performance of VASP for DFT.       |
|     The default, NCORE=1 might be grossly inefficient on modern             |
|     multi-core architectures or massively parallel machines. Do your        |
|     own testing! More info at https://www.vasp.at/wiki/index.php/NCORE      |
|     Unfortunately you need to use the default for GW and RPA                |
|     calculations (for HF NCORE is supported but not extensively tested      |
|     yet).                                                                   |
|                                                                             |
 -----------------------------------------------------------------------------

 Reading from existing POTCAR
 LDA part: xc-table for (Slater+PW92), standard interpolation
 POSCAR, INCAR and KPOINTS ok, starting setup
 FFT: planning ... GRIDC
 FFT: planning ... GRID_SOFT
 FFT: planning ... GRID
 WAVECAR not read
 entering main loop
       N       E                     dE             d eps       ncg     rms          rms(c)
DAV:   1    -0.927684549281E+01   -0.92768E+01   -0.24713E+03   336   0.178E+02
DAV:   2    -0.177164274022E+02   -0.84396E+01   -0.79405E+01   364   0.218E+01
DAV:   3    -0.177480777444E+02   -0.31650E-01   -0.31645E-01   420   0.181E+00
DAV:   4    -0.177481189062E+02   -0.41162E-04   -0.41161E-04   532   0.560E-02
DAV:   5    -0.177481189064E+02   -0.20401E-09   -0.41363E-09   448   0.194E-04    0.392E+00
RMM:   6    -0.172657819536E+02    0.48234E+00   -0.73128E-02   336   0.943E-01    0.216E+00
RMM:   7    -0.170209353191E+02    0.24485E+00   -0.14749E-01   336   0.122E+00    0.137E-01
RMM:   8    -0.170209365975E+02   -0.12783E-05   -0.11847E-02   336   0.367E-01    0.800E-02
RMM:   9    -0.170208535350E+02    0.83062E-04   -0.31269E-03   336   0.145E-01    0.297E-02
RMM:  10    -0.170209012309E+02   -0.47696E-04   -0.44084E-04   336   0.731E-02    0.935E-03
RMM:  11    -0.170209126076E+02   -0.11377E-04   -0.13394E-04   333   0.332E-02    0.203E-03
RMM:  12    -0.170209157096E+02   -0.31021E-05   -0.19391E-05   303   0.135E-02
   1 F= -.17020916E+02 E0= -.17012569E+02  d E =-.170209E+02
 curvature:   0.00 expect dE= 0.000E+00 dE for cont linesearch  0.000E+00
 trial: gam= 0.00000 g(F)=  0.239E-47 g(S)=  0.798E-02 ort = 0.000E+00 (trialstep = 0.100E+01)
 search vector abs. value=  0.798E-02
 bond charge predicted
       N       E                     dE             d eps       ncg     rms          rms(c)
DAV:   1    -0.170272388585E+02   -0.63263E-02   -0.21965E-01   504   0.945E-01    0.124E-01
RMM:   2    -0.170266486211E+02    0.59024E-03   -0.29881E-04   336   0.544E-02    0.666E-02
RMM:   3    -0.170264094809E+02    0.23914E-03   -0.94645E-05   336   0.239E-02    0.919E-03
RMM:   4    -0.170264068242E+02    0.26567E-05   -0.52103E-06   257   0.839E-03
   2 F= -.17026407E+02 E0= -.17016614E+02  d E =-.549111E-02
 trial-energy change:   -0.005491  1 .order   -0.005621   -0.007984   -0.003258
 step:   2.0389(harm=  1.6895)  dis= 0.00000  next Energy=   -17.027954 (dE=-0.704E-02)
 bond charge predicted
       N       E                     dE             d eps       ncg     rms          rms(c)
DAV:   1    -0.170285803595E+02   -0.21709E-02   -0.24076E-01   420   0.981E-01    0.133E-01
RMM:   2    -0.170279124267E+02    0.66793E-03   -0.40291E-04   336   0.622E-02    0.717E-02
RMM:   3    -0.170276417911E+02    0.27064E-03   -0.10864E-04   336   0.255E-02    0.104E-02
RMM:   4    -0.170276387230E+02    0.30681E-05   -0.62296E-06   266   0.902E-03
   3 F= -.17027639E+02 E0= -.17017422E+02  d E =-.672301E-02
 curvature:  -0.63 expect dE=-0.420E-02 dE for cont linesearch -0.621E-04
 trial: gam= 0.94921 g(F)=  0.126E-47 g(S)=  0.669E-02 ort =-0.888E-03 (trialstep = 0.791E+00)
 search vector abs. value=  0.122E-01
 bond charge predicted
       N       E                     dE             d eps       ncg     rms          rms(c)
DAV:   1    -0.170299963096E+02   -0.23545E-02   -0.23685E-01   476   0.139E+00    0.124E-01
RMM:   2    -0.170294041578E+02    0.59215E-03   -0.50643E-04   336   0.783E-02    0.661E-02
RMM:   3    -0.170291821537E+02    0.22200E-03   -0.99929E-05   336   0.279E-02    0.998E-03
RMM:   4    -0.170291866870E+02   -0.45333E-05   -0.75454E-06   285   0.993E-03
   4 F= -.17029187E+02 E0= -.17018864E+02  d E =-.154796E-02
 trial-energy change:   -0.001548  1 .order   -0.001578   -0.004622    0.001466
 step:   0.6002(harm=  0.6002)  dis= 0.00000  next Energy=   -17.029393 (dE=-0.175E-02)
 bond charge predicted
       N       E                     dE             d eps       ncg     rms          rms(c)
DAV:   1    -0.170294253935E+02   -0.24324E-03   -0.13854E-02   448   0.336E-01    0.297E-02
RMM:   2    -0.170293899306E+02    0.35463E-04   -0.31993E-05   326   0.196E-02    0.160E-02
RMM:   3    -0.170293737529E+02    0.16178E-04   -0.55831E-06   281   0.644E-03    0.237E-03
RMM:   4    -0.170293737495E+02    0.34656E-08   -0.30116E-07   179   0.215E-03
   5 F= -.17029374E+02 E0= -.17019134E+02  d E =-.173503E-02
 curvature:  -0.63 expect dE=-0.829E-04 dE for cont linesearch -0.584E-06
 ZBRENT: interpolating
 opt :   0.5895  next Energy=   -17.029374 (dE=-0.174E-02)
 bond charge predicted
       N       E                     dE             d eps       ncg     rms          rms(c)
DAV:   1    -0.170293745506E+02   -0.79762E-06   -0.44391E-05   476   0.189E-02    0.165E-03
RMM:   2    -0.170293744387E+02    0.11192E-06   -0.11108E-07   123   0.117E-03
   6 F= -.17029374E+02 E0= -.17019137E+02  d E =-.173572E-02
 curvature:  -0.61 expect dE=-0.952E-04 dE for cont linesearch -0.192E-07
 trial: gam=-0.09142 g(F)=  0.488E-47 g(S)=  0.155E-03 ort =-0.195E-04 (trialstep = 0.750E+00)
 search vector abs. value=  0.260E-03
 bond charge predicted
       N       E                     dE             d eps       ncg     rms          rms(c)
DAV:   1    -0.170294717378E+02   -0.97187E-04   -0.43497E-03   448   0.133E-01    0.192E-02
RMM:   2    -0.170294588614E+02    0.12876E-04   -0.70304E-06   297   0.832E-03    0.103E-02
RMM:   3    -0.170294546411E+02    0.42202E-05   -0.21180E-06   199   0.349E-03
   7 F= -.17029455E+02 E0= -.17019196E+02  d E =-.802025E-04
 trial-energy change:   -0.000080  1 .order   -0.000078   -0.000118   -0.000039
 step:   1.1276(harm=  1.1276)  dis= 0.00000  next Energy=   -17.029463 (dE=-0.883E-04)
 bond charge predicted
       N       E                     dE             d eps       ncg     rms          rms(c)
DAV:   1    -0.170294638361E+02   -0.49748E-05   -0.10974E-03   448   0.671E-02    0.946E-03
RMM:   2    -0.170294609892E+02    0.28469E-05   -0.18015E-06   198   0.421E-03
   8 F= -.17029461E+02 E0= -.17019193E+02  d E =-.865506E-04
 curvature:  -0.94 expect dE=-0.681E-05 dE for cont linesearch -0.775E-06
 trial: gam= 0.00000 g(F)=  0.274E-47 g(S)=  0.726E-05 ort = 0.147E-04 (trialstep = 0.826E+00)
 search vector abs. value=  0.727E-05
 reached required accuracy - stopping structural energy minimisation
