  64  64   0   0
  0.2218804E+02  0.1124000E-08  0.1124000E-08  0.1124000E-08  0.5000000E-15
  1.000000000000000E-004
  CAR 
 HECN                                    
     15.61594832    -59.09973065  301      9.37758028      1.00000000
    -59.100  0.0000E+00  0.0000E+00
    -58.851  0.0000E+00  0.0000E+00
    -58.602  0.0000E+00  0.0000E+00
    -58.353  0.0000E+00  0.0000E+00
    -58.104  0.0000E+00  0.0000E+00
    -57.854  0.0000E+00  0.0000E+00
    -57.605  0.0000E+00  0.0000E+00
    -57.356  0.0000E+00  0.0000E+00
    -57.107  0.0000E+00  0.0000E+00
    -56.858  0.0000E+00  0.0000E+00
    -56.609  0.0000E+00  0.0000E+00
    -56.360  0.0000E+00  0.0000E+00
    -56.111  0.3344E-09  0.8329E-10
    -55.862  0.1139E-02  0.2838E-03
    -55.613  0.2168E+00  0.5428E-01
    -55.364  0.3354E+00  0.1378E+00
    -55.115  0.8765E-02  0.1400E+00
    -54.866  0.4216E-07  0.1400E+00
    -54.617  0.0000E+00  0.1400E+00
    -54.368  0.0000E+00  0.1400E+00
    -54.119  0.0000E+00  0.1400E+00
    -53.870  0.0000E+00  0.1400E+00
    -53.621  0.0000E+00  0.1400E+00
    -53.372  0.0000E+00  0.1400E+00
    -53.122  0.0000E+00  0.1400E+00
    -52.873  0.0000E+00  0.1400E+00
    -52.624  0.0000E+00  0.1400E+00
    -52.375  0.0000E+00  0.1400E+00
    -52.126  0.0000E+00  0.1400E+00
    -51.877  0.0000E+00  0.1400E+00
    -51.628  0.0000E+00  0.1400E+00
    -51.379  0.0000E+00  0.1400E+00
    -51.130  0.0000E+00  0.1400E+00
    -50.881  0.0000E+00  0.1400E+00
    -50.632  0.0000E+00  0.1400E+00
    -50.383  0.0000E+00  0.1400E+00
    -50.134  0.0000E+00  0.1400E+00
    -49.885  0.0000E+00  0.1400E+00
    -49.636  0.0000E+00  0.1400E+00
    -49.387  0.0000E+00  0.1400E+00
    -49.138  0.0000E+00  0.1400E+00
    -48.889  0.4993E-13  0.1400E+00
    -48.640  0.1389E-04  0.1400E+00
    -48.390  0.3836E-01  0.1496E+00
    -48.141  0.1264E+00  0.1810E+00
    -47.892  0.3326E+00  0.2639E+00
    -47.643  0.6474E-01  0.2800E+00
    -47.394  0.7527E-04  0.2800E+00
    -47.145  0.8458E-06  0.2800E+00
    -46.896  0.1878E-01  0.2847E+00
    -46.647  0.1310E+00  0.3173E+00
    -46.398  0.2378E+00  0.3765E+00
    -46.149  0.9045E-01  0.3991E+00
    -45.900  0.3769E-02  0.4000E+00
    -45.651  0.8111E-08  0.4000E+00
    -45.402  0.0000E+00  0.4000E+00
    -45.153  0.0000E+00  0.4000E+00
    -44.904  0.0000E+00  0.4000E+00
    -44.655  0.0000E+00  0.4000E+00
    -44.406  0.0000E+00  0.4000E+00
    -44.157  0.0000E+00  0.4000E+00
    -43.908  0.0000E+00  0.4000E+00
    -43.658  0.0000E+00  0.4000E+00
    -43.409  0.0000E+00  0.4000E+00
    -43.160  0.0000E+00  0.4000E+00
    -42.911  0.0000E+00  0.4000E+00
    -42.662  0.0000E+00  0.4000E+00
    -42.413  0.0000E+00  0.4000E+00
    -42.164  0.0000E+00  0.4000E+00
    -41.915  0.0000E+00  0.4000E+00
    -41.666  0.0000E+00  0.4000E+00
    -41.417  0.0000E+00  0.4000E+00
    -41.168  0.0000E+00  0.4000E+00
    -40.919  0.0000E+00  0.4000E+00
    -40.670  0.0000E+00  0.4000E+00
    -40.421  0.0000E+00  0.4000E+00
    -40.172  0.0000E+00  0.4000E+00
    -39.923  0.0000E+00  0.4000E+00
    -39.674  0.0000E+00  0.4000E+00
    -39.425  0.0000E+00  0.4000E+00
    -39.176  0.0000E+00  0.4000E+00
    -38.926  0.0000E+00  0.4000E+00
    -38.677  0.0000E+00  0.4000E+00
    -38.428  0.0000E+00  0.4000E+00
    -38.179  0.0000E+00  0.4000E+00
    -37.930  0.0000E+00  0.4000E+00
    -37.681  0.0000E+00  0.4000E+00
    -37.432  0.0000E+00  0.4000E+00
    -37.183  0.0000E+00  0.4000E+00
    -36.934  0.0000E+00  0.4000E+00
    -36.685  0.0000E+00  0.4000E+00
    -36.436  0.0000E+00  0.4000E+00
    -36.187  0.0000E+00  0.4000E+00
    -35.938  0.0000E+00  0.4000E+00
    -35.689  0.0000E+00  0.4000E+00
    -35.440  0.0000E+00  0.4000E+00
    -35.191  0.0000E+00  0.4000E+00
    -34.942  0.0000E+00  0.4000E+00
    -34.693  0.0000E+00  0.4000E+00
    -34.444  0.0000E+00  0.4000E+00
    -34.195  0.0000E+00  0.4000E+00
    -33.945  0.0000E+00  0.4000E+00
    -33.696  0.0000E+00  0.4000E+00
    -33.447  0.0000E+00  0.4000E+00
    -33.198  0.0000E+00  0.4000E+00
    -32.949  0.0000E+00  0.4000E+00
    -32.700  0.0000E+00  0.4000E+00
    -32.451  0.0000E+00  0.4000E+00
    -32.202  0.0000E+00  0.4000E+00
    -31.953  0.0000E+00  0.4000E+00
    -31.704  0.0000E+00  0.4000E+00
    -31.455  0.0000E+00  0.4000E+00
    -31.206  0.0000E+00  0.4000E+00
    -30.957  0.0000E+00  0.4000E+00
    -30.708  0.1047E-10  0.4000E+00
    -30.459  0.2281E-03  0.4001E+00
    -30.210  0.1444E+00  0.4360E+00
    -29.961  0.7844E+00  0.6314E+00
    -29.712  0.6528E+00  0.7939E+00
    -29.463  0.1073E+01  0.1061E+01
    -29.213  0.4762E+00  0.1180E+01
    -28.964  0.1245E-02  0.1180E+01
    -28.715  0.1990E-09  0.1180E+01
    -28.466  0.0000E+00  0.1180E+01
    -28.217  0.0000E+00  0.1180E+01
    -27.968  0.0000E+00  0.1180E+01
    -27.719  0.0000E+00  0.1180E+01
    -27.470  0.0000E+00  0.1180E+01
    -27.221  0.0000E+00  0.1180E+01
    -26.972  0.0000E+00  0.1180E+01
    -26.723  0.0000E+00  0.1180E+01
    -26.474  0.1911E-08  0.1180E+01
    -26.225  0.2531E-02  0.1181E+01
    -25.976  0.3318E+00  0.1263E+01
    -25.727  0.7699E+00  0.1455E+01
    -25.478  0.3391E+00  0.1539E+01
    -25.229  0.2233E-02  0.1540E+01
    -24.980  0.1041E-02  0.1540E+01
    -24.731  0.1675E+00  0.1582E+01
    -24.481  0.5689E+00  0.1724E+01
    -24.232  0.8146E+00  0.1927E+01
    -23.983  0.1342E+00  0.1960E+01
    -23.734  0.2455E-03  0.1960E+01
    -23.485  0.7568E-07  0.1960E+01
    -23.236  0.8996E-02  0.1962E+01
    -22.987  0.1950E+00  0.2011E+01
    -22.738  0.4618E+00  0.2126E+01
    -22.489  0.5373E+00  0.2260E+01
    -22.240  0.2377E+00  0.2319E+01
    -21.991  0.4621E-02  0.2320E+01
    -21.742  0.9072E-08  0.2320E+01
    -21.493  0.0000E+00  0.2320E+01
    -21.244  0.0000E+00  0.2320E+01
    -20.995  0.0000E+00  0.2320E+01
    -20.746  0.0000E+00  0.2320E+01
    -20.497  0.0000E+00  0.2320E+01
    -20.248  0.0000E+00  0.2320E+01
    -19.999  0.0000E+00  0.2320E+01
    -19.749  0.0000E+00  0.2320E+01
    -19.500  0.0000E+00  0.2320E+01
    -19.251  0.0000E+00  0.2320E+01
    -19.002  0.0000E+00  0.2320E+01
    -18.753  0.0000E+00  0.2320E+01
    -18.504  0.0000E+00  0.2320E+01
    -18.255  0.0000E+00  0.2320E+01
    -18.006  0.0000E+00  0.2320E+01
    -17.757  0.0000E+00  0.2320E+01
    -17.508  0.0000E+00  0.2320E+01
    -17.259  0.0000E+00  0.2320E+01
    -17.010  0.0000E+00  0.2320E+01
    -16.761  0.0000E+00  0.2320E+01
    -16.512  0.0000E+00  0.2320E+01
    -16.263  0.0000E+00  0.2320E+01
    -16.014  0.0000E+00  0.2320E+01
    -15.765  0.0000E+00  0.2320E+01
    -15.516  0.0000E+00  0.2320E+01
    -15.267  0.0000E+00  0.2320E+01
    -15.017  0.0000E+00  0.2320E+01
    -14.768  0.0000E+00  0.2320E+01
    -14.519  0.0000E+00  0.2320E+01
    -14.270  0.0000E+00  0.2320E+01
    -14.021  0.0000E+00  0.2320E+01
    -13.772  0.0000E+00  0.2320E+01
    -13.523  0.0000E+00  0.2320E+01
    -13.274  0.0000E+00  0.2320E+01
    -13.025  0.0000E+00  0.2320E+01
    -12.776  0.0000E+00  0.2320E+01
    -12.527  0.0000E+00  0.2320E+01
    -12.278  0.0000E+00  0.2320E+01
    -12.029  0.0000E+00  0.2320E+01
    -11.780  0.0000E+00  0.2320E+01
    -11.531  0.0000E+00  0.2320E+01
    -11.282  0.0000E+00  0.2320E+01
    -11.033  0.0000E+00  0.2320E+01
    -10.784  0.0000E+00  0.2320E+01
    -10.535  0.0000E+00  0.2320E+01
    -10.285  0.0000E+00  0.2320E+01
    -10.036  0.0000E+00  0.2320E+01
     -9.787  0.0000E+00  0.2320E+01
     -9.538  0.0000E+00  0.2320E+01
     -9.289  0.0000E+00  0.2320E+01
     -9.040  0.0000E+00  0.2320E+01
     -8.791  0.0000E+00  0.2320E+01
     -8.542  0.0000E+00  0.2320E+01
     -8.293  0.0000E+00  0.2320E+01
     -8.044  0.0000E+00  0.2320E+01
     -7.795  0.2770E-10  0.2320E+01
     -7.546  0.7863E-04  0.2320E+01
     -7.297  0.2765E-01  0.2327E+01
     -7.048  0.5349E-01  0.2340E+01
     -6.799  0.6188E-01  0.2356E+01
     -6.550  0.8337E-01  0.2376E+01
     -6.301  0.1159E+00  0.2405E+01
     -6.052  0.1812E+00  0.2450E+01
     -5.803  0.2109E+00  0.2503E+01
     -5.553  0.2452E+00  0.2564E+01
     -5.304  0.6414E-01  0.2580E+01
     -5.055  0.1145E-03  0.2580E+01
     -4.806  0.4049E-11  0.2580E+01
     -4.557  0.1467E-14  0.2580E+01
     -4.308  0.6684E-06  0.2580E+01
     -4.059  0.5444E-02  0.2581E+01
     -3.810  0.6292E-01  0.2597E+01
     -3.561  0.1750E-01  0.2601E+01
     -3.312  0.8689E-01  0.2623E+01
     -3.063  0.1017E+00  0.2648E+01
     -2.814  0.1262E+00  0.2680E+01
     -2.565  0.1881E+00  0.2727E+01
     -2.316  0.1845E+00  0.2773E+01
     -2.067  0.2238E+00  0.2828E+01
     -1.818  0.2030E+00  0.2879E+01
     -1.569  0.1913E+00  0.2926E+01
     -1.320  0.1100E+00  0.2954E+01
     -1.071  0.2449E-01  0.2960E+01
     -0.822  0.6873E-04  0.2960E+01
     -0.572  0.1119E-10  0.2960E+01
     -0.323  0.0000E+00  0.2960E+01
     -0.074  0.0000E+00  0.2960E+01
      0.175  0.0000E+00  0.2960E+01
      0.424  0.2127E-09  0.2960E+01
      0.673  0.1405E-03  0.2960E+01
      0.922  0.6517E-02  0.2962E+01
      1.171  0.2647E-01  0.2968E+01
      1.420  0.8341E-01  0.2989E+01
      1.669  0.9679E-01  0.3013E+01
      1.918  0.1444E+00  0.3049E+01
      2.167  0.1967E+00  0.3098E+01
      2.416  0.2561E+00  0.3162E+01
      2.665  0.2809E+00  0.3232E+01
      2.914  0.2375E+00  0.3291E+01
      3.163  0.3369E+00  0.3375E+01
      3.412  0.3414E+00  0.3460E+01
      3.661  0.3900E+00  0.3557E+01
      3.910  0.4497E+00  0.3669E+01
      4.160  0.5817E+00  0.3814E+01
      4.409  0.6215E+00  0.3969E+01
      4.658  0.6410E+00  0.4128E+01
      4.907  0.5636E+00  0.4269E+01
      5.156  0.5560E+00  0.4407E+01
      5.405  0.4512E+00  0.4520E+01
      5.654  0.3568E+00  0.4608E+01
      5.903  0.3422E+00  0.4694E+01
      6.152  0.2439E+00  0.4754E+01
      6.401  0.1973E+00  0.4804E+01
      6.650  0.1817E+00  0.4849E+01
      6.899  0.9864E-01  0.4873E+01
      7.148  0.5427E-01  0.4887E+01
      7.397  0.1434E+00  0.4923E+01
      7.646  0.1673E+00  0.4964E+01
      7.895  0.1684E+00  0.5006E+01
      8.144  0.1679E+00  0.5048E+01
      8.393  0.1701E+00  0.5090E+01
      8.642  0.1786E+00  0.5135E+01
      8.892  0.2628E+00  0.5200E+01
      9.141  0.2638E+00  0.5266E+01
      9.390  0.2264E+00  0.5322E+01
      9.639  0.2518E+00  0.5385E+01
      9.888  0.4006E+00  0.5485E+01
     10.137  0.4753E+00  0.5603E+01
     10.386  0.5128E+00  0.5731E+01
     10.635  0.5165E+00  0.5860E+01
     10.884  0.5663E+00  0.6001E+01
     11.133  0.6374E+00  0.6159E+01
     11.382  0.6294E+00  0.6316E+01
     11.631  0.6037E+00  0.6467E+01
     11.880  0.5669E+00  0.6608E+01
     12.129  0.3832E+00  0.6703E+01
     12.378  0.6723E-01  0.6720E+01
     12.627  0.2768E-03  0.6720E+01
     12.876  0.5999E-10  0.6720E+01
     13.125  0.0000E+00  0.6720E+01
     13.374  0.0000E+00  0.6720E+01
     13.624  0.0000E+00  0.6720E+01
     13.873  0.0000E+00  0.6720E+01
     14.122  0.0000E+00  0.6720E+01
     14.371  0.0000E+00  0.6720E+01
     14.620  0.0000E+00  0.6720E+01
     14.869  0.0000E+00  0.6720E+01
     15.118  0.0000E+00  0.6720E+01
     15.367  0.0000E+00  0.6720E+01
     15.616  0.0000E+00  0.6720E+01
