 running on   24 total cores
 distrk:  each k-point on   24 cores,    1 groups
 distr:  one band on    1 cores,   24 groups
 using from now: INCAR     
 vasp.5.4.4.18Apr17-6-g9f103f2a35 (build Oct 18 2021 20:38:43) complex          
  
 POSCAR found type information on POSCAR  Ti W  V  N  C  Nb Ta
 POSCAR found :  7 types and      64 ions
 scaLAPACK will be used

 ----------------------------------------------------------------------------- 
|                                                                             |
|           W    W    AA    RRRRR   N    N  II  N    N   GGGG   !!!           |
|           W    W   A  A   R    R  NN   N  II  NN   N  G    G  !!!           |
|           W    W  A    A  R    R  N N  N  II  N N  N  G       !!!           |
|           W WW W  AAAAAA  RRRRR   N  N N  II  N  N N  G  GGG   !            |
|           WW  WW  A    A  R   R   N   NN  II  N   NN  G    G                |
|           W    W  A    A  R    R  N    N  II  N    N   GGGG   !!!           |
|                                                                             |
|      For optimal performance we recommend to set                            |
|        NCORE= 4 - approx SQRT( number of cores)                             |
|      NCORE specifies how many cores store one orbital (NPAR=cpu/NCORE).     |
|      This setting can  greatly improve the performance of VASP for DFT.     |
|      The default,   NCORE=1            might be grossly inefficient         |
|      on modern multi-core architectures or massively parallel machines.     |
|      Do your own testing !!!!                                               |
|      Unfortunately you need to use the default for GW and RPA calculations. |
|      (for HF NCORE is supported but not extensively tested yet)             |
|                                                                             |
 ----------------------------------------------------------------------------- 


 ----------------------------------------------------------------------------- 
|                                                                             |
|  ADVICE TO THIS USER RUNNING 'VASP/VAMP'   (HEAR YOUR MASTER'S VOICE ...):  |
|                                                                             |
|      You have a (more or less) 'large supercell' and for larger cells       |
|      it might be more efficient to use real space projection operators      |
|      So try LREAL= Auto  in the INCAR   file.                               |
|      Mind: If you want to do a very accurate calculations keep the          |
|      reciprocal projection scheme          (i.e. LREAL=.FALSE.)             |
|                                                                             |
 ----------------------------------------------------------------------------- 

 LDA part: xc-table for Pade appr. of Perdew
 POSCAR, INCAR and KPOINTS ok, starting setup
 FFT: planning ...
 WAVECAR not read
 entering main loop
       N       E                     dE             d eps       ncg     rms          rms(c)
DAV:   1     0.566637949567E+04    0.56664E+04   -0.23551E+05 10416   0.128E+03
DAV:   2     0.309710012926E+03   -0.53567E+04   -0.52092E+04  9792   0.526E+02
DAV:   3    -0.512051602885E+03   -0.82176E+03   -0.77835E+03 15696   0.164E+02
DAV:   4    -0.609882438420E+03   -0.97831E+02   -0.94666E+02 15120   0.572E+01
DAV:   5    -0.627647955050E+03   -0.17766E+02   -0.17212E+02 18792   0.221E+01    0.774E+01
RMM:   6    -0.817572707944E+03   -0.18992E+03   -0.32750E+03 12711   0.810E+01    0.139E+02
RMM:   7    -0.495452703598E+03    0.32212E+03   -0.36735E+02 13886   0.332E+01    0.560E+01
RMM:   8    -0.459270933439E+03    0.36182E+02   -0.83275E+01 13117   0.183E+01    0.273E+01
RMM:   9    -0.454677941122E+03    0.45930E+01   -0.31404E+01 13935   0.861E+00    0.349E+01
RMM:  10    -0.452588415601E+03    0.20895E+01   -0.15392E+01 14180   0.461E+00    0.229E+01
RMM:  11    -0.455905375070E+03   -0.33170E+01   -0.12939E+01 13913   0.446E+00    0.360E+01
RMM:  12    -0.455850554833E+03    0.54820E-01   -0.17511E+01 13558   0.614E+00    0.369E+01
RMM:  13    -0.456440734141E+03   -0.59018E+00   -0.12483E+01 13839   0.490E+00    0.392E+01
RMM:  14    -0.451432573078E+03    0.50082E+01   -0.82065E+00 13783   0.316E+00    0.163E+01
RMM:  15    -0.452241890808E+03   -0.80932E+00   -0.35853E+00 13572   0.296E+00    0.278E+01
RMM:  16    -0.450301366867E+03    0.19405E+01   -0.27660E+00 13564   0.211E+00    0.159E+01
RMM:  17    -0.450670863587E+03   -0.36950E+00   -0.15666E+00 13709   0.193E+00    0.211E+01
RMM:  18    -0.449985390437E+03    0.68547E+00   -0.19164E+00 13670   0.175E+00    0.108E+01
RMM:  19    -0.450386374414E+03   -0.40098E+00   -0.13174E+00 13896   0.171E+00    0.175E+01
RMM:  20    -0.449716954403E+03    0.66942E+00   -0.13191E+00 13746   0.133E+00    0.528E+00
RMM:  21    -0.449791087063E+03   -0.74133E-01   -0.93192E-01 13889   0.137E+00    0.428E+00
RMM:  22    -0.449751275757E+03    0.39811E-01   -0.61148E-01 13963   0.724E-01    0.213E+00
RMM:  23    -0.449749641866E+03    0.16339E-02   -0.35780E-01 13964   0.638E-01    0.271E+00
RMM:  24    -0.449750329942E+03   -0.68808E-03   -0.29616E-01 14052   0.502E-01    0.130E+00
RMM:  25    -0.449766016803E+03   -0.15687E-01   -0.24682E-01 14128   0.439E-01    0.121E+00
RMM:  26    -0.449777953644E+03   -0.11937E-01   -0.17293E-01 13959   0.283E-01    0.578E-01
RMM:  27    -0.449787953517E+03   -0.99999E-02   -0.12746E-01 13822   0.239E-01    0.504E-01
RMM:  28    -0.449798339398E+03   -0.10386E-01   -0.11700E-01 13468   0.163E-01    0.365E-01
RMM:  29    -0.449807037165E+03   -0.86978E-02   -0.93712E-02 13282   0.152E-01    0.261E-01
RMM:  30    -0.449814920980E+03   -0.78838E-02   -0.82900E-02 12560   0.121E-01    0.186E-01
RMM:  31    -0.449821436631E+03   -0.65157E-02   -0.67986E-02 12556   0.112E-01    0.154E-01
RMM:  32    -0.449826873653E+03   -0.54370E-02   -0.56935E-02 12061   0.931E-02    0.963E-02
RMM:  33    -0.449831643525E+03   -0.47699E-02   -0.49462E-02 12464   0.900E-02    0.939E-02
RMM:  34    -0.449835766193E+03   -0.41227E-02   -0.41797E-02 12497   0.844E-02    0.111E-01
RMM:  35    -0.449839285506E+03   -0.35193E-02   -0.35837E-02 11890   0.782E-02    0.740E-02
RMM:  36    -0.449842270849E+03   -0.29853E-02   -0.30592E-02 11307   0.606E-02    0.493E-02
RMM:  37    -0.449844872737E+03   -0.26019E-02   -0.26505E-02 11312   0.548E-02    0.433E-02
RMM:  38    -0.449847116590E+03   -0.22439E-02   -0.22728E-02 10924   0.469E-02    0.399E-02
WARNING in EDDRMM: call to ZHEGV failed, returncode =   8  4     11
RMM:  39    -0.449849063661E+03   -0.19471E-02   -0.19742E-02 10993   0.445E-02    0.281E-02
RMM:  40    -0.449850749294E+03   -0.16856E-02   -0.17032E-02 10249   0.410E-02    0.220E-02
RMM:  41    -0.449852216414E+03   -0.14671E-02   -0.14814E-02  9948   0.375E-02    0.187E-02
RMM:  42    -0.449853484525E+03   -0.12681E-02   -0.12809E-02  9804   0.334E-02    0.158E-02
RMM:  43    -0.449854590807E+03   -0.11063E-02   -0.11178E-02  9624   0.315E-02    0.191E-02
RMM:  44    -0.449855551496E+03   -0.96069E-03   -0.97093E-03  9190   0.287E-02    0.208E-02
RMM:  45    -0.449856411685E+03   -0.86019E-03   -0.85429E-03  7933   0.273E-02    0.603E-02
RMM:  46    -0.449857138641E+03   -0.72696E-03   -0.73901E-03  8342   0.256E-02    0.620E-02
RMM:  47    -0.449857776917E+03   -0.63828E-03   -0.64987E-03  7737   0.241E-02    0.632E-02
RMM:  48    -0.449858320878E+03   -0.54396E-03   -0.56408E-03  9122   0.234E-02    0.454E-02
WARNING in EDDRMM: call to ZHEGV failed, returncode =   6  3     11
RMM:  49    -0.449858815428E+03   -0.49455E-03   -0.49668E-03  7499   0.222E-02    0.546E-02
RMM:  50    -0.449859223183E+03   -0.40776E-03   -0.43015E-03 10253   0.225E-02    0.329E-02
RMM:  51    -0.449859594125E+03   -0.37094E-03   -0.37898E-03  9937   0.206E-02    0.194E-02
RMM:  52    -0.449859919932E+03   -0.32581E-03   -0.33023E-03  8723   0.189E-02    0.184E-02
RMM:  53    -0.449860210068E+03   -0.29014E-03   -0.29386E-03  7396   0.171E-02    0.215E-02
RMM:  54    -0.449860464113E+03   -0.25405E-03   -0.25705E-03  7407   0.166E-02    0.248E-02
RMM:  55    -0.449860682180E+03   -0.21807E-03   -0.22309E-03  6928   0.155E-02    0.196E-02
RMM:  56    -0.449860872875E+03   -0.19069E-03   -0.19454E-03  7036   0.148E-02    0.159E-02
RMM:  57    -0.449861046458E+03   -0.17358E-03   -0.17547E-03  6349   0.141E-02    0.190E-02
RMM:  58    -0.449861198772E+03   -0.15231E-03   -0.15298E-03  5942   0.130E-02    0.253E-02
RMM:  59    -0.449861331470E+03   -0.13270E-03   -0.13440E-03  5845   0.122E-02    0.274E-02
RMM:  60    -0.449861445205E+03   -0.11374E-03   -0.11755E-03  6043   0.117E-02
   1 F= -.44986145E+03 E0= -.44953552E+03  d E =-.449861E+03
 curvature:   0.00 expect dE= 0.000E+00 dE for cont linesearch  0.000E+00
 trial: gam= 0.00000 g(F)=  0.830E+00 g(S)=  0.328E+03 ort = 0.000E+00 (trialstep = 0.100E+01)
 search vector abs. value=  0.328E+03
 bond charge predicted
       N       E                     dE             d eps       ncg     rms          rms(c)
DAV:   1    -0.463667228072E+04   -0.41868E+04   -0.11932E+05 10296   0.111E+03    0.419E+02
RMM:   2    -0.145585204911E+04    0.31808E+04   -0.97032E+03 13732   0.322E+02    0.200E+02
RMM:   3    -0.580834032741E+03    0.87502E+03   -0.32674E+03 10144   0.236E+02    0.573E+01
RMM:   4    -0.670663893223E+03   -0.89830E+02   -0.88989E+02 13080   0.778E+01    0.524E+01
RMM:   5    -0.614757288962E+03    0.55907E+02   -0.15347E+02 14615   0.314E+01    0.351E+01
RMM:   6    -0.598692824580E+03    0.16064E+02   -0.79157E+01 15140   0.215E+01    0.229E+01
RMM:   7    -0.606243823596E+03   -0.75510E+01   -0.80662E+01 15233   0.186E+01    0.266E+01
RMM:   8    -0.603888940238E+03    0.23549E+01   -0.24052E+01 15711   0.111E+01    0.182E+01
RMM:   9    -0.603135151341E+03    0.75379E+00   -0.16755E+01 15081   0.944E+00    0.939E+00
RMM:  10    -0.604602094983E+03   -0.14669E+01   -0.10283E+01 15919   0.654E+00    0.873E+00
RMM:  11    -0.605065900906E+03   -0.46381E+00   -0.61232E+00 15805   0.494E+00    0.695E+00
RMM:  12    -0.605712191664E+03   -0.64629E+00   -0.47648E+00 16112   0.402E+00    0.530E+00
RMM:  13    -0.606129421652E+03   -0.41723E+00   -0.29227E+00 16008   0.330E+00    0.294E+00
RMM:  14    -0.606448766714E+03   -0.31935E+00   -0.21662E+00 16135   0.282E+00    0.339E+00
RMM:  15    -0.606405487284E+03    0.43279E-01   -0.12783E+00 15773   0.237E+00    0.124E+00
RMM:  16    -0.606437266966E+03   -0.31780E-01   -0.65270E-01 16126   0.166E+00    0.115E+00
RMM:  17    -0.606455752926E+03   -0.18486E-01   -0.36791E-01 16363   0.109E+00    0.783E-01
RMM:  18    -0.606466345435E+03   -0.10593E-01   -0.18594E-01 16543   0.894E-01    0.355E-01
RMM:  19    -0.606474023706E+03   -0.76783E-02   -0.10981E-01 16155   0.627E-01    0.168E-01
RMM:  20    -0.606478854271E+03   -0.48306E-02   -0.59986E-02 16487   0.508E-01    0.191E-01
RMM:  21    -0.606481929508E+03   -0.30752E-02   -0.38399E-02 16198   0.362E-01    0.218E-01
RMM:  22    -0.606483372830E+03   -0.14433E-02   -0.20795E-02 16330   0.311E-01    0.640E-02
RMM:  23    -0.606484508901E+03   -0.11361E-02   -0.13223E-02 16087   0.223E-01    0.631E-02
RMM:  24    -0.606485176576E+03   -0.66767E-03   -0.78000E-03 15982   0.190E-01    0.252E-02
RMM:  25    -0.606485628839E+03   -0.45226E-03   -0.51312E-03 15787   0.135E-01    0.225E-02
RMM:  26    -0.606485909679E+03   -0.28084E-03   -0.31112E-03 15855   0.119E-01    0.802E-03
RMM:  27    -0.606486104807E+03   -0.19513E-03   -0.21333E-03 15405   0.863E-02    0.129E-02
RMM:  28    -0.606486226584E+03   -0.12178E-03   -0.13380E-03 15281   0.764E-02    0.647E-03
RMM:  29    -0.606486310555E+03   -0.83971E-04   -0.92598E-04 14579   0.583E-02    0.124E-02
RMM:  30    -0.606486364266E+03   -0.53711E-04   -0.59279E-04 14044   0.494E-02    0.256E-03
RMM:  31    -0.606486400810E+03   -0.36544E-04   -0.40688E-04 13068   0.396E-02    0.404E-03
RMM:  32    -0.606486425153E+03   -0.24343E-04   -0.26671E-04 12389   0.334E-02    0.206E-03
RMM:  33    -0.606486442317E+03   -0.17164E-04   -0.19321E-04 11536   0.285E-02    0.484E-03
RMM:  34    -0.606486453526E+03   -0.11209E-04   -0.12902E-04 10698   0.252E-02    0.172E-03
RMM:  35    -0.606486461176E+03   -0.76495E-05   -0.92128E-05  9978   0.218E-02
   2 F= -.60648646E+03 E0= -.60642852E+03  d E =-.156625E+03
 trial-energy change: -156.625016  1 .order   20.371154 -328.452263  369.194572
 step:   0.7535(harm=  0.4708)  dis= 0.02225  next Energy=  -649.335631 (dE=-0.199E+03)
 bond charge predicted
       N       E                     dE             d eps       ncg     rms          rms(c)
DAV:   1    -0.106402162247E+04   -0.45754E+03   -0.93941E+03 10680   0.352E+02    0.192E+02
RMM:   2    -0.143844197141E+04   -0.37442E+03   -0.25873E+03 11430   0.123E+02    0.115E+02
RMM:   3    -0.875707014970E+03    0.56273E+03   -0.70964E+02 13738   0.587E+01    0.720E+01
RMM:   4    -0.710431974213E+03    0.16528E+03   -0.17911E+02 13119   0.355E+01    0.504E+01
RMM:   5    -0.703437919240E+03    0.69941E+01   -0.62997E+02 13729   0.434E+01    0.541E+01
RMM:   6    -0.663746509356E+03    0.39691E+02   -0.56646E+01 12689   0.248E+01    0.302E+01
RMM:   7    -0.660298950292E+03    0.34476E+01   -0.23637E+01 13810   0.915E+00    0.184E+01
RMM:   8    -0.655397724662E+03    0.49012E+01   -0.79414E+00 12993   0.784E+00    0.941E+00
RMM:   9    -0.655380938951E+03    0.16786E-01   -0.35677E+00 14574   0.379E+00    0.964E+00
RMM:  10    -0.654906973310E+03    0.47397E+00   -0.21181E+00 14408   0.284E+00    0.433E+00
RMM:  11    -0.654995627558E+03   -0.88654E-01   -0.11600E+00 14912   0.201E+00    0.539E+00
RMM:  12    -0.654963827845E+03    0.31800E-01   -0.65028E-01 14994   0.141E+00    0.357E+00
RMM:  13    -0.654928454632E+03    0.35373E-01   -0.51773E-01 14937   0.134E+00    0.231E+00
RMM:  14    -0.654969177233E+03   -0.40723E-01   -0.27937E-01 15614   0.893E-01    0.270E+00
RMM:  15    -0.654977285514E+03   -0.81083E-02   -0.18345E-01 15108   0.693E-01    0.129E+00
RMM:  16    -0.655032748175E+03   -0.55463E-01   -0.25374E-01 14648   0.851E-01    0.171E+00
RMM:  17    -0.655025907903E+03    0.68403E-02   -0.11424E-01 14984   0.590E-01    0.138E+00
RMM:  18    -0.655016545353E+03    0.93626E-02   -0.70868E-02 15419   0.408E-01    0.412E-01
RMM:  19    -0.655017901048E+03   -0.13557E-02   -0.40580E-02 15256   0.297E-01    0.236E-01
RMM:  20    -0.655019895990E+03   -0.19949E-02   -0.26081E-02 15645   0.223E-01    0.304E-01
RMM:  21    -0.655020777278E+03   -0.88129E-03   -0.13789E-02 15562   0.172E-01    0.276E-01
RMM:  22    -0.655020951336E+03   -0.17406E-03   -0.80685E-03 15515   0.119E-01    0.208E-01
RMM:  23    -0.655020925070E+03    0.26266E-04   -0.75403E-03 14625   0.123E-01    0.949E-02
RMM:  24    -0.655021099430E+03   -0.17436E-03   -0.35378E-03 14609   0.959E-02    0.371E-02
RMM:  25    -0.655021261667E+03   -0.16224E-03   -0.21339E-03 13867   0.605E-02    0.386E-02
RMM:  26    -0.655021343683E+03   -0.82015E-04   -0.13110E-03 13443   0.506E-02    0.106E-02
RMM:  27    -0.655021411069E+03   -0.67386E-04   -0.83800E-04 12780   0.391E-02    0.205E-02
RMM:  28    -0.655021454109E+03   -0.43040E-04   -0.57652E-04 12374   0.322E-02    0.136E-02
RMM:  29    -0.655021481640E+03   -0.27531E-04   -0.37817E-04 11588   0.266E-02    0.855E-03
WARNING in EDDRMM: call to ZHEGV failed, returncode =   6  3      6
RMM:  30    -0.655021501460E+03   -0.19820E-04   -0.26352E-04 11179   0.229E-02    0.229E-03
WARNING in EDDRMM: call to ZHEGV failed, returncode =   8  4      6
RMM:  31    -0.655021515341E+03   -0.13881E-04   -0.17039E-04 10155   0.198E-02    0.331E-03
RMM:  32    -0.655021523730E+03   -0.83891E-05   -0.12019E-04  9660   0.179E-02    0.224E-03
RMM:  33    -0.655021530247E+03   -0.65169E-05   -0.82172E-05  9225   0.167E-02
   3 F= -.65502153E+03 E0= -.65493990E+03  d E =-.205160E+03
 curvature:  -0.17 expect dE=-0.896E+00 dE for cont linesearch -0.603E+00
 ZBRENT: interpolating
 opt :   0.7745  next Energy=  -655.381325 (dE=-0.206E+03)
 bond charge predicted
       N       E                     dE             d eps       ncg     rms          rms(c)
DAV:   1    -0.657873871319E+03   -0.28523E+01   -0.60845E+01  9720   0.276E+01    0.123E+01
RMM:   2    -0.667812163470E+03   -0.99383E+01   -0.30995E+01 11078   0.141E+01    0.387E+01
RMM:   3    -0.657084033908E+03    0.10728E+02   -0.62776E+00 11250   0.724E+00    0.119E+01
RMM:   4    -0.656300846312E+03    0.78319E+00   -0.18097E+00 12622   0.316E+00    0.707E+00
RMM:   5    -0.655831249758E+03    0.46960E+00   -0.88113E-01 12534   0.220E+00    0.425E+00
RMM:   6    -0.655829971865E+03    0.12779E-02   -0.51558E-01 11742   0.172E+00    0.496E+00
RMM:   7    -0.655631089127E+03    0.19888E+00   -0.25329E-01 12135   0.134E+00    0.138E+00
RMM:   8    -0.655632277927E+03   -0.11888E-02   -0.76314E-02 13607   0.704E-01    0.161E+00
RMM:   9    -0.655617213628E+03    0.15064E-01   -0.26088E-02 14360   0.361E-01    0.628E-01
RMM:  10    -0.655615771160E+03    0.14425E-02   -0.98732E-03 13850   0.219E-01    0.436E-01
RMM:  11    -0.655616500233E+03   -0.72907E-03   -0.49789E-03 14636   0.133E-01    0.428E-01
RMM:  12    -0.655616879617E+03   -0.37938E-03   -0.32757E-03 14379   0.978E-02    0.294E-01
RMM:  13    -0.655618284028E+03   -0.14044E-02   -0.31338E-03 14416   0.976E-02    0.294E-01
RMM:  14    -0.655618927384E+03   -0.64336E-03   -0.30864E-03 14116   0.945E-02    0.213E-01
RMM:  15    -0.655619436156E+03   -0.50877E-03   -0.32335E-03 14073   0.947E-02    0.862E-02
RMM:  16    -0.655619590098E+03   -0.15394E-03   -0.16987E-03 12792   0.633E-02    0.125E-01
RMM:  17    -0.655619573391E+03    0.16707E-04   -0.10165E-03 12435   0.497E-02    0.471E-02
RMM:  18    -0.655619607153E+03   -0.33762E-04   -0.55478E-04 12002   0.369E-02    0.328E-02
RMM:  19    -0.655619630878E+03   -0.23725E-04   -0.33260E-04 11676   0.286E-02    0.218E-02
RMM:  20    -0.655619645376E+03   -0.14498E-04   -0.20714E-04 11083   0.241E-02    0.117E-02
RMM:  21    -0.655619655062E+03   -0.96861E-05   -0.13580E-04 10769   0.203E-02    0.589E-03
RMM:  22    -0.655619659792E+03   -0.47295E-05   -0.76806E-05  9843   0.173E-02
   4 F= -.65561966E+03 E0= -.65554042E+03  d E =-.205758E+03
 curvature:  -0.10 expect dE=-0.230E+00 dE for cont linesearch -0.306E-01
 ZBRENT: interpolating
 opt :   0.7829  next Energy=  -655.662887 (dE=-0.206E+03)
 bond charge predicted
       N       E                     dE             d eps       ncg     rms          rms(c)
DAV:   1    -0.656041534289E+03   -0.42188E+00   -0.98729E+00 10440   0.112E+01    0.513E+00
RMM:   2    -0.657795442787E+03   -0.17539E+01   -0.46817E+00 11200   0.550E+00    0.159E+01
RMM:   3    -0.655894047553E+03    0.19014E+01   -0.11287E+00 11165   0.298E+00    0.465E+00
RMM:   4    -0.655781104524E+03    0.11294E+00   -0.29984E-01 12308   0.136E+00    0.306E+00
RMM:   5    -0.655717377754E+03    0.63727E-01   -0.14875E-01 12554   0.887E-01    0.209E+00
RMM:   6    -0.655699948512E+03    0.17429E-01   -0.82437E-02 11850   0.692E-01    0.179E+00
RMM:   7    -0.655674380185E+03    0.25568E-01   -0.42187E-02 12046   0.549E-01    0.553E-01
RMM:   8    -0.655675558452E+03   -0.11783E-02   -0.12551E-02 13663   0.287E-01    0.762E-01
RMM:   9    -0.655672250889E+03    0.33076E-02   -0.47298E-03 14606   0.151E-01    0.236E-01
RMM:  10    -0.655672080990E+03    0.16990E-03   -0.17198E-03 13713   0.924E-02    0.162E-01
RMM:  11    -0.655672203524E+03   -0.12253E-03   -0.88807E-04 13246   0.545E-02    0.161E-01
RMM:  12    -0.655672304060E+03   -0.10054E-03   -0.56128E-04 13012   0.422E-02    0.112E-01
RMM:  13    -0.655672554923E+03   -0.25086E-03   -0.53697E-04 12881   0.407E-02    0.984E-02
WARNING in EDDRMM: call to ZHEGV failed, returncode =   8  4      7
RMM:  14    -0.655672729062E+03   -0.17414E-03   -0.51419E-04 12649   0.412E-02    0.991E-02
RMM:  15    -0.655672840810E+03   -0.11175E-03   -0.59297E-04 12915   0.421E-02    0.234E-02
RMM:  16    -0.655672869236E+03   -0.28426E-04   -0.29670E-04 11509   0.311E-02    0.363E-02
RMM:  17    -0.655672877453E+03   -0.82167E-05   -0.18633E-04 11510   0.243E-02    0.220E-02
RMM:  18    -0.655672883358E+03   -0.59052E-05   -0.99793E-05 10237   0.194E-02
   5 F= -.65567288E+03 E0= -.65559459E+03  d E =-.205811E+03
 curvature:  -0.14 expect dE=-0.297E+00 dE for cont linesearch -0.683E-05
 trial: gam= 0.00678 g(F)=  0.210E+01 g(S)=  0.268E-02 ort =-0.126E+00 (trialstep = 0.957E+00)
 search vector abs. value=  0.211E+01
 bond charge predicted
       N       E                     dE             d eps       ncg     rms          rms(c)
DAV:   1    -0.653271199488E+03    0.24017E+01   -0.31804E+02  9744   0.609E+01    0.382E+00
RMM:   2    -0.657372956383E+03   -0.41018E+01   -0.41711E+01 14394   0.181E+01    0.627E+00
RMM:   3    -0.657200167254E+03    0.17279E+00   -0.32335E+00 13813   0.588E+00    0.479E+00
RMM:   4    -0.657081893990E+03    0.11827E+00   -0.81002E-01 14991   0.238E+00    0.289E+00
RMM:   5    -0.657026307459E+03    0.55587E-01   -0.29745E-01 14072   0.115E+00    0.170E+00
RMM:   6    -0.657030657979E+03   -0.43505E-02   -0.20082E-01 13953   0.901E-01    0.223E+00
RMM:   7    -0.657008560876E+03    0.22097E-01   -0.12962E-01 14227   0.735E-01    0.137E+00
RMM:   8    -0.656999761760E+03    0.87991E-02   -0.56086E-02 14424   0.574E-01    0.105E+00
RMM:   9    -0.656994609556E+03    0.51522E-02   -0.29312E-02 15114   0.318E-01    0.444E-01
RMM:  10    -0.656995113049E+03   -0.50349E-03   -0.18256E-02 14396   0.226E-01    0.254E-01
RMM:  11    -0.656995937395E+03   -0.82435E-03   -0.83586E-03 14613   0.161E-01    0.324E-01
RMM:  12    -0.656995747068E+03    0.19033E-03   -0.47583E-03 14536   0.115E-01    0.159E-01
RMM:  13    -0.656995897341E+03   -0.15027E-03   -0.32942E-03 14425   0.923E-02    0.886E-02
RMM:  14    -0.656996145462E+03   -0.24812E-03   -0.19928E-03 13863   0.765E-02    0.962E-02
RMM:  15    -0.656996212200E+03   -0.66738E-04   -0.10807E-03 13103   0.551E-02    0.805E-02
RMM:  16    -0.656996213267E+03   -0.10667E-05   -0.67254E-04 12760   0.428E-02    0.248E-02
RMM:  17    -0.656996251345E+03   -0.38078E-04   -0.41221E-04 12238   0.337E-02    0.433E-02
RMM:  18    -0.656996261995E+03   -0.10651E-04   -0.25871E-04 11829   0.283E-02    0.180E-02
RMM:  19    -0.656996267283E+03   -0.52880E-05   -0.13539E-04 10875   0.222E-02    0.918E-03
RMM:  20    -0.656996270503E+03   -0.32197E-05   -0.92644E-05 10400   0.185E-02
   6 F= -.65699627E+03 E0= -.65692076E+03  d E =-.132339E+01
 trial-energy change:   -1.323387  1 .order   -1.313997   -2.009392   -0.618601
 step:   1.3589(harm=  1.3820)  dis= 0.06928  next Energy=  -657.127054 (dE=-0.145E+01)
 bond charge predicted
       N       E                     dE             d eps       ncg     rms          rms(c)
DAV:   1    -0.656468078006E+03    0.52819E+00   -0.56352E+01  9744   0.257E+01    0.162E+00
RMM:   2    -0.657189488669E+03   -0.72141E+00   -0.73746E+00 14400   0.751E+00    0.257E+00
RMM:   3    -0.657159860542E+03    0.29628E-01   -0.56974E-01 13884   0.246E+00    0.209E+00
RMM:   4    -0.657138634915E+03    0.21226E-01   -0.14421E-01 15095   0.988E-01    0.120E+00
RMM:   5    -0.657128931387E+03    0.97035E-02   -0.52989E-02 14073   0.480E-01    0.669E-01
RMM:   6    -0.657130296586E+03   -0.13652E-02   -0.34552E-02 13881   0.368E-01    0.940E-01
RMM:   7    -0.657126677051E+03    0.36195E-02   -0.21796E-02 14172   0.301E-01    0.601E-01
RMM:   8    -0.657125062439E+03    0.16146E-02   -0.98986E-03 14454   0.236E-01    0.428E-01
RMM:   9    -0.657124175502E+03    0.88694E-03   -0.51799E-03 14596   0.134E-01    0.183E-01
RMM:  10    -0.657124336284E+03   -0.16078E-03   -0.31954E-03 14250   0.963E-02    0.136E-01
RMM:  11    -0.657124444877E+03   -0.10859E-03   -0.15061E-03 13264   0.693E-02    0.136E-01
RMM:  12    -0.657124407321E+03    0.37557E-04   -0.87768E-04 12841   0.509E-02    0.592E-02
RMM:  13    -0.657124454497E+03   -0.47177E-04   -0.58286E-04 12396   0.407E-02    0.440E-02
WARNING in EDDRMM: call to ZHEGV failed, returncode =   6  3     10
RMM:  14    -0.657124504861E+03   -0.50364E-04   -0.35666E-04 12221   0.355E-02    0.602E-02
RMM:  15    -0.657124502702E+03    0.21588E-05   -0.20013E-04 11655   0.277E-02    0.169E-02
RMM:  16    -0.657124509109E+03   -0.64065E-05   -0.12177E-04 11125   0.220E-02    0.754E-03
RMM:  17    -0.657124514012E+03   -0.49035E-05   -0.73343E-05 10181   0.180E-02
   7 F= -.65712451E+03 E0= -.65705116E+03  d E =-.145163E+01
 curvature:  -0.69 expect dE=-0.308E+00 dE for cont linesearch -0.703E-04
 trial: gam= 0.19879 g(F)=  0.310E+00 g(S)=  0.135E+00 ort =-0.146E-01 (trialstep = 0.104E+01)
 search vector abs. value=  0.522E+00
 bond charge predicted
       N       E                     dE             d eps       ncg     rms          rms(c)
DAV:   1    -0.656041851181E+03    0.10827E+01   -0.11649E+02  9504   0.484E+01    0.916E+00
RMM:   2    -0.662470034300E+03   -0.64282E+01   -0.34206E+01 12756   0.166E+01    0.191E+01
RMM:   3    -0.657672892275E+03    0.47971E+01   -0.54676E+00 12664   0.749E+00    0.469E+00
RMM:   4    -0.657839487606E+03   -0.16660E+00   -0.13942E+00 14494   0.290E+00    0.704E+00
RMM:   5    -0.657438596197E+03    0.40089E+00   -0.37941E-01 13770   0.154E+00    0.226E+00
RMM:   6    -0.657465883812E+03   -0.27288E-01   -0.23717E-01 13908   0.111E+00    0.354E+00
RMM:   7    -0.657391116710E+03    0.74767E-01   -0.14929E-01 13780   0.952E-01    0.163E+00
RMM:   8    -0.657397411885E+03   -0.62952E-02   -0.86528E-02 13935   0.651E-01    0.198E+00
RMM:   9    -0.657368902339E+03    0.28510E-01   -0.31658E-02 14275   0.420E-01    0.406E-01
RMM:  10    -0.657369286194E+03   -0.38385E-03   -0.13568E-02 14779   0.236E-01    0.496E-01
RMM:  11    -0.657368500070E+03    0.78612E-03   -0.68446E-03 15228   0.160E-01    0.282E-01
RMM:  12    -0.657368530721E+03   -0.30651E-04   -0.41627E-03 15013   0.115E-01    0.150E-01
RMM:  13    -0.657368941933E+03   -0.41121E-03   -0.22912E-03 14769   0.846E-02    0.192E-01
RMM:  14    -0.657368980658E+03   -0.38724E-04   -0.16039E-03 14168   0.690E-02    0.122E-01
RMM:  15    -0.657369179325E+03   -0.19867E-03   -0.17063E-03 14381   0.659E-02    0.720E-02
RMM:  16    -0.657369246764E+03   -0.67439E-04   -0.85187E-04 13500   0.535E-02    0.957E-02
RMM:  17    -0.657369203424E+03    0.43340E-04   -0.49485E-04 13001   0.377E-02    0.315E-02
RMM:  18    -0.657369206745E+03   -0.33217E-05   -0.33934E-04 12280   0.318E-02    0.184E-02
RMM:  19    -0.657369216637E+03   -0.98914E-05   -0.18616E-04 12105   0.253E-02    0.103E-02
WARNING in EDDRMM: call to ZHEGV failed, returncode =   6  3      9
RMM:  20    -0.657369220278E+03   -0.36416E-05   -0.81151E-05 10376   0.189E-02
   8 F= -.65736922E+03 E0= -.65730109E+03  d E =-.244706E+00
 trial-energy change:   -0.244706  1 .order   -0.242786   -0.457983   -0.027589
 step:   1.1017(harm=  1.1035)  dis= 0.03944  next Energy=  -657.370081 (dE=-0.246E+00)
 bond charge predicted
       N       E                     dE             d eps       ncg     rms          rms(c)
DAV:   1    -0.657365081400E+03    0.41352E-02   -0.44625E-01 10440   0.302E+00    0.555E-01
RMM:   2    -0.657391878496E+03   -0.26797E-01   -0.14670E-01 12213   0.108E+00    0.141E+00
RMM:   3    -0.657371947978E+03    0.19931E-01   -0.22139E-02 12342   0.492E-01    0.383E-01
RMM:   4    -0.657371939890E+03    0.80879E-05   -0.55566E-03 14512   0.179E-01    0.394E-01
RMM:   5    -0.657370599638E+03    0.13403E-02   -0.15076E-03 13405   0.978E-02    0.158E-01
RMM:   6    -0.657370633710E+03   -0.34071E-04   -0.91024E-04 13614   0.696E-02    0.201E-01
RMM:   7    -0.657370352607E+03    0.28110E-03   -0.65651E-04 13536   0.646E-02    0.856E-02
RMM:   8    -0.657370388460E+03   -0.35853E-04   -0.34116E-04 13083   0.423E-02    0.122E-01
RMM:   9    -0.657370281946E+03    0.10651E-03   -0.13311E-04 11949   0.280E-02    0.280E-02
RMM:  10    -0.657370282863E+03   -0.91666E-06   -0.53919E-05  9505   0.182E-02
   9 F= -.65737028E+03 E0= -.65730260E+03  d E =-.245769E+00
 curvature:  -0.65 expect dE=-0.374E+00 dE for cont linesearch -0.129E-05
 trial: gam= 1.28873 g(F)=  0.224E+00 g(S)=  0.349E+00 ort = 0.102E-02 (trialstep = 0.380E+00)
 search vector abs. value=  0.144E+01
 bond charge predicted
       N       E                     dE             d eps       ncg     rms          rms(c)
DAV:   1    -0.656548398410E+03    0.82188E+00   -0.42608E+01  9744   0.297E+01    0.207E+00
RMM:   2    -0.657713136141E+03   -0.11647E+01   -0.10999E+01 14285   0.878E+00    0.480E+00
RMM:   3    -0.657595056318E+03    0.11808E+00   -0.99493E-01 14372   0.281E+00    0.227E+00
RMM:   4    -0.657576683512E+03    0.18373E-01   -0.18899E-01 14827   0.106E+00    0.158E+00
RMM:   5    -0.657553731832E+03    0.22952E-01   -0.44791E-02 14007   0.509E-01    0.634E-01
RMM:   6    -0.657554422560E+03   -0.69073E-03   -0.26122E-02 14213   0.333E-01    0.857E-01
RMM:   7    -0.657550029680E+03    0.43929E-02   -0.18202E-02 14130   0.307E-01    0.508E-01
RMM:   8    -0.657548905437E+03    0.11242E-02   -0.10295E-02 14243   0.206E-01    0.450E-01
RMM:   9    -0.657548002298E+03    0.90314E-03   -0.39376E-03 14730   0.146E-01    0.240E-01
RMM:  10    -0.657547950026E+03    0.52273E-04   -0.26080E-03 14373   0.875E-02    0.178E-01
RMM:  11    -0.657547911540E+03    0.38486E-04   -0.12764E-03 13595   0.720E-02    0.131E-01
RMM:  12    -0.657547857373E+03    0.54167E-04   -0.71700E-04 13352   0.464E-02    0.547E-02
RMM:  13    -0.657547907710E+03   -0.50336E-04   -0.41727E-04 12534   0.378E-02    0.704E-02
RMM:  14    -0.657547905794E+03    0.19154E-05   -0.25793E-04 11944   0.287E-02    0.308E-02
RMM:  15    -0.657547934786E+03   -0.28992E-04   -0.16174E-04 11472   0.244E-02    0.199E-02
RMM:  16    -0.657547948879E+03   -0.14093E-04   -0.91928E-05 10731   0.207E-02    0.305E-02
RMM:  17    -0.657547948594E+03    0.28560E-06   -0.63441E-05 10380   0.178E-02
  10 F= -.65754795E+03 E0= -.65748760E+03  d E =-.177666E+00
 trial-energy change:   -0.177666  1 .order   -0.174795   -0.218340   -0.131250
 step:   0.7862(harm=  0.9525)  dis= 0.05241  next Energy=  -657.621636 (dE=-0.251E+00)
 bond charge predicted
       N       E                     dE             d eps       ncg     rms          rms(c)
DAV:   1    -0.656481713034E+03    0.10662E+01   -0.48716E+01  9744   0.319E+01    0.218E+00
RMM:   2    -0.657783774904E+03   -0.13021E+01   -0.12536E+01 14269   0.937E+00    0.472E+00
RMM:   3    -0.657673974953E+03    0.10980E+00   -0.11110E+00 14285   0.301E+00    0.236E+00
RMM:   4    -0.657652224930E+03    0.21750E-01   -0.21922E-01 14822   0.114E+00    0.157E+00
RMM:   5    -0.657629040541E+03    0.23184E-01   -0.50454E-02 14032   0.553E-01    0.640E-01
RMM:   6    -0.657628815037E+03    0.22550E-03   -0.31357E-02 14097   0.371E-01    0.807E-01
RMM:   7    -0.657625388870E+03    0.34262E-02   -0.19567E-02 14147   0.326E-01    0.543E-01
RMM:   8    -0.657622978861E+03    0.24100E-02   -0.10412E-02 14276   0.204E-01    0.215E-01
RMM:   9    -0.657623650840E+03   -0.67198E-03   -0.42204E-03 14601   0.146E-01    0.346E-01
RMM:  10    -0.657623044867E+03    0.60597E-03   -0.26156E-03 14601   0.879E-02    0.118E-01
RMM:  11    -0.657623161961E+03   -0.11709E-03   -0.13072E-03 13783   0.713E-02    0.138E-01
RMM:  12    -0.657623112496E+03    0.49465E-04   -0.72729E-04 13100   0.455E-02    0.586E-02
RMM:  13    -0.657623151350E+03   -0.38855E-04   -0.45888E-04 12617   0.371E-02    0.454E-02
RMM:  14    -0.657623183289E+03   -0.31939E-04   -0.26804E-04 12053   0.291E-02    0.454E-02
WARNING in EDDRMM: call to ZHEGV failed, returncode =   8  4     10
RMM:  15    -0.657623203664E+03   -0.20374E-04   -0.17289E-04 11531   0.250E-02    0.167E-02
WARNING in EDDRMM: call to ZHEGV failed, returncode =   6  3     11
RMM:  16    -0.657623216767E+03   -0.13103E-04   -0.10109E-04 10798   0.216E-02    0.246E-02
WARNING in EDDRMM: call to ZHEGV failed, returncode =   6  3      7
RMM:  17    -0.657623217957E+03   -0.11900E-05   -0.67805E-05 10370   0.182E-02
  11 F= -.65762322E+03 E0= -.65756796E+03  d E =-.252935E+00
 curvature:  -1.10 expect dE=-0.290E+00 dE for cont linesearch -0.577E-04
 trial: gam= 0.24292 g(F)=  0.232E+00 g(S)=  0.334E-01 ort = 0.872E-02 (trialstep = 0.461E+00)
 search vector abs. value=  0.354E+00
 bond charge predicted
       N       E                     dE             d eps       ncg     rms          rms(c)
DAV:   1    -0.657488516876E+03    0.13470E+00   -0.13846E+01  9744   0.159E+01    0.131E+00
RMM:   2    -0.657758794269E+03   -0.27028E+00   -0.28640E+00 14274   0.470E+00    0.172E+00
RMM:   3    -0.657739969265E+03    0.18825E-01   -0.25455E-01 14066   0.157E+00    0.121E+00
RMM:   4    -0.657737170963E+03    0.27983E-02   -0.53995E-02 14885   0.621E-01    0.114E+00
RMM:   5    -0.657726932578E+03    0.10238E-01   -0.19291E-02 14114   0.311E-01    0.407E-01
RMM:   6    -0.657728119492E+03   -0.11869E-02   -0.12066E-02 14172   0.252E-01    0.637E-01
RMM:   7    -0.657725559972E+03    0.25595E-02   -0.67940E-03 14240   0.182E-01    0.276E-01
WARNING in EDDRMM: call to ZHEGV failed, returncode =   6  3      9
RMM:   8    -0.657724962595E+03    0.59738E-03   -0.32411E-03 14181   0.114E-01    0.133E-01
RMM:   9    -0.657725070407E+03   -0.10781E-03   -0.14905E-03 13464   0.738E-02    0.145E-01
RMM:  10    -0.657724980732E+03    0.89675E-04   -0.81643E-04 12987   0.493E-02    0.367E-02
RMM:  11    -0.657725020176E+03   -0.39443E-04   -0.43624E-04 12101   0.354E-02    0.471E-02
RMM:  12    -0.657725032016E+03   -0.11840E-04   -0.26287E-04 11650   0.283E-02    0.237E-02
RMM:  13    -0.657725048421E+03   -0.16405E-04   -0.15829E-04 11036   0.224E-02    0.152E-02
RMM:  14    -0.657725059943E+03   -0.11522E-04   -0.10235E-04 10572   0.198E-02    0.197E-02
RMM:  15    -0.657725063429E+03   -0.34857E-05   -0.60814E-05  9598   0.163E-02
  12 F= -.65772506E+03 E0= -.65767089E+03  d E =-.101845E+00
 trial-energy change:   -0.101845  1 .order   -0.101619   -0.123163   -0.080075
 step:   1.2507(harm=  1.3182)  dis= 0.03788  next Energy=  -657.794744 (dE=-0.172E+00)
 bond charge predicted
       N       E                     dE             d eps       ncg     rms          rms(c)
DAV:   1    -0.657100277631E+03    0.62478E+00   -0.40573E+01  9744   0.272E+01    0.224E+00
RMM:   2    -0.657894587328E+03   -0.79431E+00   -0.84387E+00 14276   0.814E+00    0.289E+00
RMM:   3    -0.657835790049E+03    0.58797E-01   -0.74274E-01 14063   0.268E+00    0.200E+00
RMM:   4    -0.657825788681E+03    0.10001E-01   -0.16068E-01 14917   0.108E+00    0.183E+00
RMM:   5    -0.657799503363E+03    0.26285E-01   -0.56268E-02 14152   0.529E-01    0.691E-01
RMM:   6    -0.657800518216E+03   -0.10149E-02   -0.35224E-02 14155   0.434E-01    0.929E-01
RMM:   7    -0.657796250597E+03    0.42676E-02   -0.19467E-02 14302   0.302E-01    0.563E-01
RMM:   8    -0.657793835738E+03    0.24149E-02   -0.95560E-03 14277   0.194E-01    0.206E-01
WARNING in EDDRMM: call to ZHEGV failed, returncode =   8  4      6
RMM:   9    -0.657794149847E+03   -0.31411E-03   -0.43441E-03 14548   0.125E-01    0.228E-01
RMM:  10    -0.657793956842E+03    0.19300E-03   -0.24015E-03 14007   0.812E-02    0.759E-02
RMM:  11    -0.657794054588E+03   -0.97746E-04   -0.13185E-03 13034   0.584E-02    0.753E-02
WARNING in EDDRMM: call to ZHEGV failed, returncode =   6  3      6
RMM:  12    -0.657794092806E+03   -0.38218E-04   -0.78880E-04 12646   0.439E-02    0.348E-02
RMM:  13    -0.657794145866E+03   -0.53060E-04   -0.46840E-04 12041   0.353E-02    0.424E-02
RMM:  14    -0.657794165270E+03   -0.19404E-04   -0.30644E-04 11905   0.295E-02    0.235E-02
RMM:  15    -0.657794181531E+03   -0.16261E-04   -0.18838E-04 11251   0.235E-02    0.762E-03
RMM:  16    -0.657794190913E+03   -0.93827E-05   -0.11271E-04 10445   0.193E-02    0.548E-03
RMM:  17    -0.657794196721E+03   -0.58080E-05   -0.71743E-05  9758   0.167E-02
  13 F= -.65779420E+03 E0= -.65774012E+03  d E =-.170979E+00
 curvature:  -0.87 expect dE=-0.185E+00 dE for cont linesearch -0.749E-05
 trial: gam= 0.72814 g(F)=  0.105E+00 g(S)=  0.107E+00 ort =-0.175E-02 (trialstep = 0.552E+00)
 search vector abs. value=  0.398E+00
 bond charge predicted
       N       E                     dE             d eps       ncg     rms          rms(c)
DAV:   1    -0.657572368680E+03    0.22182E+00   -0.22997E+01  9792   0.206E+01    0.328E+00
RMM:   2    -0.658466934020E+03   -0.89457E+00   -0.61030E+00 13249   0.687E+00    0.699E+00
RMM:   3    -0.657917342119E+03    0.54959E+00   -0.76308E-01 12921   0.289E+00    0.214E+00
RMM:   4    -0.657918647247E+03   -0.13051E-02   -0.19853E-01 14441   0.110E+00    0.221E+00
RMM:   5    -0.657874021104E+03    0.44626E-01   -0.60462E-02 13706   0.641E-01    0.692E-01
RMM:   6    -0.657872172764E+03    0.18483E-02   -0.32327E-02 13896   0.449E-01    0.759E-01
RMM:   7    -0.657871306147E+03    0.86662E-03   -0.16754E-02 14274   0.339E-01    0.695E-01
WARNING in EDDRMM: call to ZHEGV failed, returncode =   6  3      9
RMM:   8    -0.657867518378E+03    0.37878E-02   -0.82498E-03 14148   0.192E-01    0.219E-01
RMM:   9    -0.657867645529E+03   -0.12715E-03   -0.32954E-03 14493   0.126E-01    0.240E-01
RMM:  10    -0.657867364734E+03    0.28079E-03   -0.17789E-03 14244   0.746E-02    0.842E-02
RMM:  11    -0.657867427108E+03   -0.62374E-04   -0.92549E-04 13388   0.552E-02    0.794E-02
RMM:  12    -0.657867463109E+03   -0.36002E-04   -0.50280E-04 12542   0.374E-02    0.693E-02
RMM:  13    -0.657867495824E+03   -0.32714E-04   -0.37114E-04 12563   0.350E-02    0.364E-02
RMM:  14    -0.657867519703E+03   -0.23879E-04   -0.28480E-04 12153   0.307E-02    0.285E-02
WARNING in EDDRMM: call to ZHEGV failed, returncode =   8  4      6
RMM:  15    -0.657867529654E+03   -0.99512E-05   -0.18291E-04 11883   0.272E-02    0.287E-02
WARNING in EDDRMM: call to ZHEGV failed, returncode =   8  4      6
WARNING in EDDRMM: call to ZHEGV failed, returncode =   6  3      6
RMM:  16    -0.657867529448E+03    0.20595E-06   -0.10446E-04 11132   0.208E-02    0.111E-02
WARNING in EDDRMM: call to ZHEGV failed, returncode =   8  4      6
RMM:  17    -0.657867532599E+03   -0.31509E-05   -0.52474E-05  9672   0.171E-02
  14 F= -.65786753E+03 E0= -.65781299E+03  d E =-.733359E-01
 trial-energy change:   -0.073336  1 .order   -0.073159   -0.116448   -0.029871
 step:   0.7419(harm=  0.7419)  dis= 0.02745  next Energy=  -657.872509 (dE=-0.783E-01)
 bond charge predicted
       N       E                     dE             d eps       ncg     rms          rms(c)
DAV:   1    -0.657837763002E+03    0.29766E-01   -0.27332E+00 10392   0.710E+00    0.112E+00
RMM:   2    -0.657946278444E+03   -0.10852E+00   -0.73858E-01 13086   0.238E+00    0.251E+00
RMM:   3    -0.657879459770E+03    0.66819E-01   -0.92234E-02 12858   0.101E+00    0.799E-01
RMM:   4    -0.657878554459E+03    0.90531E-03   -0.23690E-02 14416   0.376E-01    0.730E-01
RMM:   5    -0.657873524910E+03    0.50295E-02   -0.72517E-03 13705   0.223E-01    0.241E-01
RMM:   6    -0.657873459801E+03    0.65109E-04   -0.40308E-03 13911   0.158E-01    0.300E-01
RMM:   7    -0.657873122724E+03    0.33708E-03   -0.20699E-03 14189   0.119E-01    0.219E-01
WARNING in EDDRMM: call to ZHEGV failed, returncode =   6  3      9
RMM:   8    -0.657872769554E+03    0.35317E-03   -0.10091E-03 13983   0.665E-02    0.929E-02
RMM:   9    -0.657872754357E+03    0.15197E-04   -0.41987E-04 12991   0.454E-02    0.773E-02
RMM:  10    -0.657872724873E+03    0.29484E-04   -0.21924E-04 12226   0.283E-02    0.316E-02
RMM:  11    -0.657872732297E+03   -0.74239E-05   -0.12286E-04 11488   0.227E-02    0.343E-02
RMM:  12    -0.657872730289E+03    0.20075E-05   -0.60292E-05  9864   0.178E-02
  15 F= -.65787273E+03 E0= -.65781806E+03  d E =-.785336E-01
 curvature:  -0.70 expect dE=-0.693E-01 dE for cont linesearch -0.132E-05
 trial: gam= 0.41725 g(F)=  0.538E-01 g(S)=  0.453E-01 ort = 0.868E-03 (trialstep = 0.590E+00)
 search vector abs. value=  0.169E+00
 bond charge predicted
       N       E                     dE             d eps       ncg     rms          rms(c)
DAV:   1    -0.657755611307E+03    0.11712E+00   -0.10953E+01  9744   0.136E+01    0.156E+00
RMM:   2    -0.657993455059E+03   -0.23784E+00   -0.23003E+00 14168   0.428E+00    0.264E+00
RMM:   3    -0.657927810495E+03    0.65645E-01   -0.23821E-01 14271   0.150E+00    0.117E+00
RMM:   4    -0.657928740795E+03   -0.93030E-03   -0.61632E-02 14512   0.584E-01    0.128E+00
RMM:   5    -0.657914075753E+03    0.14665E-01   -0.20738E-02 13843   0.367E-01    0.414E-01
RMM:   6    -0.657913191065E+03    0.88469E-03   -0.12740E-02 14026   0.275E-01    0.407E-01
RMM:   7    -0.657913475600E+03   -0.28454E-03   -0.64859E-03 14263   0.198E-01    0.471E-01
RMM:   8    -0.657911874105E+03    0.16015E-02   -0.33611E-03 14146   0.115E-01    0.143E-01
RMM:   9    -0.657911886845E+03   -0.12740E-04   -0.13939E-03 13536   0.819E-02    0.120E-01
RMM:  10    -0.657911841153E+03    0.45691E-04   -0.76707E-04 12731   0.455E-02    0.436E-02
RMM:  11    -0.657911882310E+03   -0.41157E-04   -0.42834E-04 12339   0.368E-02    0.480E-02
RMM:  12    -0.657911895217E+03   -0.12907E-04   -0.22942E-04 11402   0.265E-02    0.294E-02
WARNING in EDDRMM: call to ZHEGV failed, returncode =   8  4      6
WARNING in EDDRMM: call to ZHEGV failed, returncode =   6  3      7
WARNING in EDDRMM: call to ZHEGV failed, returncode =   8  4      7
RMM:  13    -0.657911918126E+03   -0.22909E-04   -0.15968E-04 11316   0.232E-02    0.219E-02
WARNING in EDDRMM: call to ZHEGV failed, returncode =   6  3      6
RMM:  14    -0.657911930169E+03   -0.12042E-04   -0.93776E-05 10249   0.198E-02    0.225E-02
RMM:  15    -0.657911936348E+03   -0.61796E-05   -0.68305E-05 10285   0.172E-02
  16 F= -.65791194E+03 E0= -.65785829E+03  d E =-.392061E-01
 trial-energy change:   -0.039206  1 .order   -0.038881   -0.058648   -0.019114
 step:   0.8557(harm=  0.8747)  dis= 0.02076  next Energy=  -657.916278 (dE=-0.435E-01)
 bond charge predicted
       N       E                     dE             d eps       ncg     rms          rms(c)
DAV:   1    -0.657884175053E+03    0.27755E-01   -0.22317E+00 10176   0.613E+00    0.705E-01
RMM:   2    -0.657932036784E+03   -0.47862E-01   -0.46862E-01 14182   0.191E+00    0.115E+00
RMM:   3    -0.657919175925E+03    0.12861E-01   -0.47095E-02 14202   0.671E-01    0.510E-01
RMM:   4    -0.657919500269E+03   -0.32434E-03   -0.12655E-02 14545   0.260E-01    0.578E-01
RMM:   5    -0.657916595612E+03    0.29047E-02   -0.42129E-03 13826   0.164E-01    0.186E-01
RMM:   6    -0.657916422837E+03    0.17277E-03   -0.25926E-03 14049   0.122E-01    0.179E-01
RMM:   7    -0.657916501850E+03   -0.79013E-04   -0.13206E-03 14085   0.892E-02    0.211E-01
RMM:   8    -0.657916178901E+03    0.32295E-03   -0.70107E-04 13492   0.510E-02    0.567E-02
RMM:   9    -0.657916193651E+03   -0.14750E-04   -0.29777E-04 12483   0.379E-02    0.548E-02
RMM:  10    -0.657916186232E+03    0.74194E-05   -0.15435E-04 11196   0.225E-02    0.187E-02
RMM:  11    -0.657916197576E+03   -0.11345E-04   -0.10022E-04 11055   0.201E-02    0.177E-02
RMM:  12    -0.657916202667E+03   -0.50904E-05   -0.47193E-05  9438   0.158E-02
  17 F= -.65791620E+03 E0= -.65786306E+03  d E =-.434724E-01
 curvature:  -0.74 expect dE=-0.284E-01 dE for cont linesearch -0.158E-06
 trial: gam= 0.37151 g(F)=  0.271E-01 g(S)=  0.112E-01 ort = 0.190E-03 (trialstep = 0.643E+00)
 search vector abs. value=  0.618E-01
 bond charge predicted
       N       E                     dE             d eps       ncg     rms          rms(c)
DAV:   1    -0.657877451413E+03    0.38746E-01   -0.44624E+00  9744   0.770E+00    0.687E-01
RMM:   2    -0.657954011336E+03   -0.76560E-01   -0.70541E-01 14320   0.225E+00    0.138E+00
RMM:   3    -0.657937854593E+03    0.16157E-01   -0.63749E-02 14150   0.761E-01    0.537E-01
RMM:   4    -0.657937548809E+03    0.30578E-03   -0.16139E-02 14768   0.336E-01    0.499E-01
RMM:   5    -0.657935251790E+03    0.22970E-02   -0.57785E-03 14192   0.157E-01    0.182E-01
RMM:   6    -0.657935687940E+03   -0.43615E-03   -0.36006E-03 14143   0.124E-01    0.318E-01
RMM:   7    -0.657934937109E+03    0.75083E-03   -0.18926E-03 14101   0.898E-02    0.101E-01
RMM:   8    -0.657934901565E+03    0.35544E-04   -0.83622E-04 13351   0.572E-02    0.866E-02
RMM:   9    -0.657934891986E+03    0.95783E-05   -0.42637E-04 12325   0.371E-02    0.551E-02
RMM:  10    -0.657934881774E+03    0.10213E-04   -0.22289E-04 11693   0.271E-02    0.175E-02
RMM:  11    -0.657934889799E+03   -0.80250E-05   -0.11804E-04 10632   0.212E-02    0.223E-02
RMM:  12    -0.657934893251E+03   -0.34520E-05   -0.85222E-05 10353   0.180E-02
  18 F= -.65793489E+03 E0= -.65788190E+03  d E =-.186906E-01
 trial-energy change:   -0.018691  1 .order   -0.018491   -0.024694   -0.012288
 step:   1.1835(harm=  1.2796)  dis= 0.01459  next Energy=  -657.940179 (dE=-0.240E-01)
 bond charge predicted
       N       E                     dE             d eps       ncg     rms          rms(c)
DAV:   1    -0.657900241992E+03    0.34648E-01   -0.31582E+00  9792   0.647E+00    0.581E-01
RMM:   2    -0.657955020443E+03   -0.54778E-01   -0.50042E-01 14326   0.190E+00    0.119E+00
RMM:   3    -0.657943011174E+03    0.12009E-01   -0.45972E-02 14108   0.642E-01    0.451E-01
RMM:   4    -0.657942816481E+03    0.19469E-03   -0.11720E-02 14763   0.286E-01    0.418E-01
RMM:   5    -0.657941200569E+03    0.16159E-02   -0.42586E-03 14084   0.133E-01    0.151E-01
RMM:   6    -0.657941515636E+03   -0.31507E-03   -0.26485E-03 14144   0.106E-01    0.265E-01
RMM:   7    -0.657940996825E+03    0.51881E-03   -0.13887E-03 13812   0.762E-02    0.830E-02
RMM:   8    -0.657940975692E+03    0.21134E-04   -0.61879E-04 13060   0.488E-02    0.691E-02
RMM:   9    -0.657940975139E+03    0.55309E-06   -0.32194E-04 12179   0.323E-02    0.468E-02
WARNING in EDDRMM: call to ZHEGV failed, returncode =   6  3      8
RMM:  10    -0.657940968119E+03    0.70198E-05   -0.16777E-04 11346   0.246E-02    0.150E-02
RMM:  11    -0.657940974374E+03   -0.62556E-05   -0.92342E-05 10277   0.191E-02
  19 F= -.65794097E+03 E0= -.65788831E+03  d E =-.247717E-01
 curvature:  -1.01 expect dE=-0.139E-01 dE for cont linesearch -0.121E-03
 trial: gam= 0.25762 g(F)=  0.134E-01 g(S)=  0.346E-03 ort = 0.273E-02 (trialstep = 0.751E+00)
 search vector abs. value=  0.193E-01
 bond charge predicted
       N       E                     dE             d eps       ncg     rms          rms(c)
DAV:   1    -0.657918255852E+03    0.22712E-01   -0.19181E+00 10032   0.547E+00    0.338E-01
RMM:   2    -0.657952124651E+03   -0.33869E-01   -0.34354E-01 14592   0.154E+00    0.552E-01
RMM:   3    -0.657950262748E+03    0.18619E-02   -0.28034E-02 14193   0.501E-01    0.353E-01
RMM:   4    -0.657949623777E+03    0.63897E-03   -0.56937E-03 14651   0.220E-01    0.189E-01
RMM:   5    -0.657949524463E+03    0.99314E-04   -0.23066E-03 13313   0.878E-02    0.121E-01
RMM:   6    -0.657949515396E+03    0.90670E-05   -0.11527E-03 13260   0.686E-02    0.116E-01
RMM:   7    -0.657949465219E+03    0.50176E-04   -0.74820E-04 13230   0.518E-02    0.791E-02
RMM:   8    -0.657949432993E+03    0.32226E-04   -0.38788E-04 12988   0.452E-02    0.553E-02
WARNING in EDDRMM: call to ZHEGV failed, returncode =   6  3      9
RMM:   9    -0.657949428993E+03    0.40002E-05   -0.19800E-04 11934   0.277E-02    0.306E-02
RMM:  10    -0.657949429382E+03   -0.38987E-06   -0.10478E-04 11071   0.217E-02    0.126E-02
WARNING in EDDRMM: call to ZHEGV failed, returncode =   8  4     10
RMM:  11    -0.657949432116E+03   -0.27340E-05   -0.51853E-05  9718   0.163E-02
  20 F= -.65794943E+03 E0= -.65789693E+03  d E =-.845774E-02
 trial-energy change:   -0.008458  1 .order   -0.008392   -0.010868   -0.005915
 step:   1.5224(harm=  1.6478)  dis= 0.00973  next Energy=  -657.952542 (dE=-0.116E-01)
 bond charge predicted
       N       E                     dE             d eps       ncg     rms          rms(c)
DAV:   1    -0.657919995697E+03    0.29434E-01   -0.20252E+00  9888   0.562E+00    0.348E-01
RMM:   2    -0.657955807526E+03   -0.35812E-01   -0.36317E-01 14572   0.158E+00    0.570E-01
RMM:   3    -0.657953797358E+03    0.20102E-02   -0.30027E-02 14214   0.519E-01    0.362E-01
RMM:   4    -0.657953145204E+03    0.65215E-03   -0.61937E-03 14731   0.228E-01    0.195E-01
RMM:   5    -0.657953039860E+03    0.10534E-03   -0.25078E-03 13352   0.911E-02    0.124E-01
RMM:   6    -0.657953037299E+03    0.25606E-05   -0.12647E-03 13363   0.711E-02    0.120E-01
RMM:   7    -0.657952984402E+03    0.52897E-04   -0.80836E-04 13309   0.537E-02    0.814E-02
RMM:   8    -0.657952953392E+03    0.31010E-04   -0.42465E-04 13033   0.467E-02    0.581E-02
RMM:   9    -0.657952948293E+03    0.50986E-05   -0.21677E-04 12043   0.289E-02    0.313E-02
RMM:  10    -0.657952949489E+03   -0.11960E-05   -0.11517E-04 11210   0.223E-02    0.136E-02
RMM:  11    -0.657952952378E+03   -0.28892E-05   -0.57036E-05  9897   0.169E-02
  21 F= -.65795295E+03 E0= -.65790070E+03  d E =-.119780E-01
 curvature:  -1.08 expect dE=-0.601E-02 dE for cont linesearch -0.631E-04
 trial: gam= 0.39476 g(F)=  0.471E-02 g(S)=  0.876E-03 ort = 0.106E-02 (trialstep = 0.905E+00)
 search vector abs. value=  0.943E-02
 bond charge predicted
       N       E                     dE             d eps       ncg     rms          rms(c)
DAV:   1    -0.657938415014E+03    0.14534E-01   -0.13542E+00  9888   0.441E+00    0.401E-01
RMM:   2    -0.657960742066E+03   -0.22327E-01   -0.23106E-01 14388   0.130E+00    0.579E-01
RMM:   3    -0.657957626164E+03    0.31159E-02   -0.20116E-02 14048   0.440E-01    0.308E-01
RMM:   4    -0.657957575682E+03    0.50481E-04   -0.50447E-03 14845   0.176E-01    0.303E-01
RMM:   5    -0.657956842563E+03    0.73312E-03   -0.17579E-03 13848   0.952E-02    0.118E-01
RMM:   6    -0.657956886649E+03   -0.44086E-04   -0.10392E-03 13805   0.725E-02    0.151E-01
RMM:   7    -0.657956785778E+03    0.10087E-03   -0.60611E-04 13395   0.561E-02    0.943E-02
RMM:   8    -0.657956722485E+03    0.63293E-04   -0.31153E-04 12821   0.363E-02    0.450E-02
RMM:   9    -0.657956719871E+03    0.26147E-05   -0.14194E-04 11744   0.254E-02    0.260E-02
RMM:  10    -0.657956721864E+03   -0.19937E-05   -0.68097E-05 10229   0.185E-02
  22 F= -.65795672E+03 E0= -.65790465E+03  d E =-.376949E-02
 trial-energy change:   -0.003769  1 .order   -0.003767   -0.005438   -0.002096
 step:   1.4731(harm=  1.4731)  dis= 0.00636  next Energy=  -657.957377 (dE=-0.442E-02)
 bond charge predicted
       N       E                     dE             d eps       ncg     rms          rms(c)
DAV:   1    -0.657950112752E+03    0.66071E-02   -0.53277E-01 10416   0.276E+00    0.252E-01
RMM:   2    -0.657958998588E+03   -0.88858E-02   -0.91471E-02 14394   0.817E-01    0.369E-01
RMM:   3    -0.657957708198E+03    0.12904E-02   -0.79786E-03 14041   0.276E-01    0.192E-01
RMM:   4    -0.657957696033E+03    0.12165E-04   -0.20600E-03 14643   0.112E-01    0.189E-01
RMM:   5    -0.657957415946E+03    0.28009E-03   -0.73385E-04 12930   0.607E-02    0.729E-02
WARNING in EDDRMM: call to ZHEGV failed, returncode =   6  3     11
WARNING in EDDRMM: call to ZHEGV failed, returncode =   6  3      6
RMM:   6    -0.657957451531E+03   -0.35585E-04   -0.44477E-04 13106   0.466E-02    0.103E-01
RMM:   7    -0.657957399420E+03    0.52112E-04   -0.25719E-04 12593   0.376E-02    0.549E-02
RMM:   8    -0.657957379161E+03    0.20259E-04   -0.13813E-04 11823   0.238E-02    0.228E-02
RMM:   9    -0.657957381450E+03   -0.22891E-05   -0.63902E-05 10312   0.192E-02
  23 F= -.65795738E+03 E0= -.65790544E+03  d E =-.442907E-02
 curvature:  -1.16 expect dE=-0.511E-02 dE for cont linesearch -0.147E-06
 trial: gam= 0.87237 g(F)=  0.195E-02 g(S)=  0.247E-02 ort =-0.347E-04 (trialstep = 0.833E+00)
 search vector abs. value=  0.115E-01
 bond charge predicted
       N       E                     dE             d eps       ncg     rms          rms(c)
DAV:   1    -0.657943037090E+03    0.14342E-01   -0.14642E+00  9936   0.456E+00    0.682E-01
RMM:   2    -0.657985600274E+03   -0.42563E-01   -0.30329E-01 13338   0.154E+00    0.152E+00
RMM:   3    -0.657961630410E+03    0.23970E-01   -0.37360E-02 13229   0.620E-01    0.481E-01
RMM:   4    -0.657961332045E+03    0.29837E-03   -0.95390E-03 14639   0.233E-01    0.446E-01
RMM:   5    -0.657959442953E+03    0.18891E-02   -0.27431E-03 13805   0.136E-01    0.144E-01
RMM:   6    -0.657959470744E+03   -0.27791E-04   -0.14654E-03 13934   0.924E-02    0.197E-01
RMM:   7    -0.657959307919E+03    0.16282E-03   -0.75639E-04 13897   0.705E-02    0.132E-01
RMM:   8    -0.657959177395E+03    0.13052E-03   -0.38661E-04 13318   0.412E-02    0.535E-02
RMM:   9    -0.657959167357E+03    0.10038E-04   -0.15128E-04 12195   0.283E-02    0.410E-02
RMM:  10    -0.657959155955E+03    0.11403E-04   -0.77744E-05 10647   0.177E-02    0.159E-02
WARNING in EDDRMM: call to ZHEGV failed, returncode =   8  4      8
RMM:  11    -0.657959155223E+03    0.73155E-06   -0.43533E-05  8967   0.161E-02
  24 F= -.65795916E+03 E0= -.65790723E+03  d E =-.177377E-02
 trial-energy change:   -0.001774  1 .order   -0.001721   -0.003654    0.000213
 step:   0.7906(harm=  0.7872)  dis= 0.00367  next Energy=  -657.959161 (dE=-0.178E-02)
 bond charge predicted
       N       E                     dE             d eps       ncg     rms          rms(c)
DAV:   1    -0.657959117718E+03    0.38237E-04   -0.38498E-03 11232   0.234E-01    0.366E-02
RMM:   2    -0.657959245705E+03   -0.12799E-03   -0.85782E-04 12978   0.815E-02    0.905E-02
RMM:   3    -0.657959164964E+03    0.80741E-04   -0.11227E-04 10190   0.341E-02    0.256E-02
RMM:   4    -0.657959163065E+03    0.18991E-05   -0.28516E-05  6765   0.176E-02
  25 F= -.65795916E+03 E0= -.65790724E+03  d E =-.178162E-02
 curvature:  -1.03 expect dE=-0.342E-02 dE for cont linesearch -0.693E-06
 trial: gam= 0.77512 g(F)=  0.145E-02 g(S)=  0.187E-02 ort =-0.881E-04 (trialstep = 0.825E+00)
 search vector abs. value=  0.101E-01
 bond charge predicted
       N       E                     dE             d eps       ncg     rms          rms(c)
DAV:   1    -0.657942693694E+03    0.16471E-01   -0.12463E+00  9888   0.429E+00    0.415E-01
RMM:   2    -0.657965107935E+03   -0.22414E-01   -0.22697E-01 14326   0.129E+00    0.638E-01
RMM:   3    -0.657961233968E+03    0.38740E-02   -0.19501E-02 14124   0.431E-01    0.313E-01
RMM:   4    -0.657961168530E+03    0.65438E-04   -0.46380E-03 14802   0.163E-01    0.305E-01
RMM:   5    -0.657960389265E+03    0.77926E-03   -0.14829E-03 13812   0.916E-02    0.120E-01
RMM:   6    -0.657960375515E+03    0.13750E-04   -0.87898E-04 13784   0.680E-02    0.130E-01
RMM:   7    -0.657960327606E+03    0.47909E-04   -0.49447E-04 13326   0.536E-02    0.104E-01
RMM:   8    -0.657960247517E+03    0.80088E-04   -0.26709E-04 12828   0.340E-02    0.439E-02
RMM:   9    -0.657960245649E+03    0.18685E-05   -0.11815E-04 11818   0.245E-02    0.298E-02
RMM:  10    -0.657960245781E+03   -0.13234E-06   -0.56453E-05  9934   0.173E-02
  26 F= -.65796025E+03 E0= -.65790863E+03  d E =-.108272E-02
 trial-energy change:   -0.001083  1 .order   -0.001221   -0.002679    0.000237
 step:   0.7348(harm=  0.7576)  dis= 0.00336  next Energy=  -657.960259 (dE=-0.110E-02)
 bond charge predicted
       N       E                     dE             d eps       ncg     rms          rms(c)
DAV:   1    -0.657960063437E+03    0.18221E-03   -0.14845E-02 10416   0.466E-01    0.468E-02
RMM:   2    -0.657960345655E+03   -0.28222E-03   -0.27136E-03 14238   0.142E-01    0.828E-02
RMM:   3    -0.657960284753E+03    0.60903E-04   -0.23588E-04 11894   0.478E-02    0.345E-02
RMM:   4    -0.657960283286E+03    0.14661E-05   -0.50126E-05  7966   0.206E-02
  27 F= -.65796028E+03 E0= -.65790863E+03  d E =-.112022E-02
 curvature:  -1.04 expect dE=-0.139E-02 dE for cont linesearch -0.361E-08
 trial: gam= 0.42271 g(F)=  0.874E-03 g(S)=  0.463E-03 ort = 0.592E-05 (trialstep = 0.807E+00)
 search vector abs. value=  0.315E-02
 bond charge predicted
       N       E                     dE             d eps       ncg     rms          rms(c)
DAV:   1    -0.657955324174E+03    0.49606E-02   -0.36988E-01 10080   0.245E+00    0.198E-01
RMM:   2    -0.657962064094E+03   -0.67399E-02   -0.65123E-02 14358   0.687E-01    0.350E-01
RMM:   3    -0.657961078561E+03    0.98553E-03   -0.57085E-03 14051   0.225E-01    0.170E-01
RMM:   4    -0.657961056842E+03    0.21719E-04   -0.12523E-03 14323   0.920E-02    0.151E-01
RMM:   5    -0.657960856622E+03    0.20022E-03   -0.41690E-04 12713   0.480E-02    0.502E-02
RMM:   6    -0.657960882860E+03   -0.26238E-04   -0.24006E-04 12755   0.338E-02    0.831E-02
RMM:   7    -0.657960840290E+03    0.42571E-04   -0.13355E-04 12091   0.273E-02    0.369E-02
RMM:   8    -0.657960830588E+03    0.97014E-05   -0.76818E-05 10951   0.186E-02
  28 F= -.65796083E+03 E0= -.65790942E+03  d E =-.547302E-03
 trial-energy change:   -0.000547  1 .order   -0.000635   -0.001080   -0.000190
 step:   0.9791(harm=  0.9791)  dis= 0.00237  next Energy=  -657.960939 (dE=-0.656E-03)
 bond charge predicted
       N       E                     dE             d eps       ncg     rms          rms(c)
DAV:   1    -0.657960602020E+03    0.23827E-03   -0.16942E-02 10704   0.523E-01    0.430E-02
RMM:   2    -0.657960941900E+03   -0.33988E-03   -0.30798E-03 14104   0.148E-01    0.923E-02
RMM:   3    -0.657960868729E+03    0.73171E-04   -0.31258E-04 12892   0.524E-02    0.343E-02
RMM:   4    -0.657960870095E+03   -0.13665E-05   -0.77794E-05 11300   0.230E-02
  29 F= -.65796087E+03 E0= -.65790951E+03  d E =-.586809E-03
 curvature:  -1.15 expect dE=-0.594E-03 dE for cont linesearch -0.151E-05
 trial: gam= 0.15722 g(F)=  0.485E-03 g(S)=  0.312E-04 ort = 0.642E-04 (trialstep = 0.841E+00)
 search vector abs. value=  0.614E-03
 bond charge predicted
       N       E                     dE             d eps       ncg     rms          rms(c)
DAV:   1    -0.657960076068E+03    0.79266E-03   -0.75858E-02  9936   0.109E+00    0.899E-02
RMM:   2    -0.657961426244E+03   -0.13502E-02   -0.13422E-02 14363   0.322E-01    0.150E-01
RMM:   3    -0.657961242728E+03    0.18352E-03   -0.12644E-03 13911   0.107E-01    0.763E-02
RMM:   4    -0.657961234441E+03    0.82864E-05   -0.29253E-04 13279   0.455E-02    0.681E-02
WARNING in EDDRMM: call to ZHEGV failed, returncode =   8  4      9
RMM:   5    -0.657961194574E+03    0.39867E-04   -0.12077E-04 11756   0.284E-02    0.254E-02
RMM:   6    -0.657961200606E+03   -0.60319E-05   -0.69526E-05 11353   0.200E-02
  30 F= -.65796120E+03 E0= -.65790991E+03  d E =-.330511E-03
 trial-energy change:   -0.000331  1 .order   -0.000322   -0.000442   -0.000202
 step:   1.5493(harm=  1.5493)  dis= 0.00227  next Energy=  -657.961277 (dE=-0.407E-03)
 bond charge predicted
       N       E                     dE             d eps       ncg     rms          rms(c)
DAV:   1    -0.657960467680E+03    0.72689E-03   -0.53448E-02  9936   0.919E-01    0.778E-02
RMM:   2    -0.657961455023E+03   -0.98734E-03   -0.95065E-03 14306   0.268E-01    0.143E-01
RMM:   3    -0.657961288080E+03    0.16694E-03   -0.93969E-04 13707   0.931E-02    0.691E-02
WARNING in EDDRMM: call to ZHEGV failed, returncode =   8  4      7
RMM:   4    -0.657961289217E+03   -0.11374E-05   -0.23773E-04 13099   0.402E-02    0.633E-02
WARNING in EDDRMM: call to ZHEGV failed, returncode =   6  3      8
RMM:   5    -0.657961254477E+03    0.34740E-04   -0.99633E-05 11389   0.257E-02    0.197E-02
RMM:   6    -0.657961266695E+03   -0.12218E-04   -0.63253E-05 11102   0.188E-02    0.433E-02
RMM:   7    -0.657961253884E+03    0.12811E-04   -0.33663E-05  9229   0.142E-02    0.804E-03
RMM:   8    -0.657961254174E+03   -0.28978E-06   -0.79759E-06  6361   0.124E-02
  31 F= -.65796125E+03 E0= -.65791007E+03  d E =-.384079E-03
 curvature:  -0.90 expect dE=-0.425E-03 dE for cont linesearch -0.231E-05
 trial: gam= 1.01502 g(F)=  0.329E-03 g(S)=  0.142E-03 ort =-0.396E-04 (trialstep = 0.590E+00)
 search vector abs. value=  0.102E-02
 bond charge predicted
       N       E                     dE             d eps       ncg     rms          rms(c)
DAV:   1    -0.657960509316E+03    0.74457E-03   -0.63525E-02  9840   0.104E+00    0.964E-02
RMM:   2    -0.657961703959E+03   -0.11946E-02   -0.11677E-02 14224   0.301E-01    0.162E-01
RMM:   3    -0.657961487138E+03    0.21682E-03   -0.11683E-03 13913   0.104E-01    0.777E-02
RMM:   4    -0.657961484572E+03    0.25661E-05   -0.26631E-04 13324   0.416E-02    0.737E-02
RMM:   5    -0.657961433745E+03    0.50828E-04   -0.98386E-05 11785   0.272E-02    0.231E-02
RMM:   6    -0.657961438747E+03   -0.50020E-05   -0.57092E-05 11006   0.193E-02
  32 F= -.65796144E+03 E0= -.65791030E+03  d E =-.184573E-03
 trial-energy change:   -0.000185  1 .order   -0.000184   -0.000254   -0.000114
 step:   1.0673(harm=  1.0673)  dis= 0.00229  next Energy=  -657.961484 (dE=-0.230E-03)
 bond charge predicted
       N       E                     dE             d eps       ncg     rms          rms(c)
DAV:   1    -0.657960867006E+03    0.56674E-03   -0.41415E-02 10080   0.838E-01    0.814E-02
RMM:   2    -0.657961746895E+03   -0.87989E-03   -0.77394E-03 14188   0.244E-01    0.173E-01
RMM:   3    -0.657961505661E+03    0.24123E-03   -0.81550E-04 13678   0.862E-02    0.676E-02
WARNING in EDDRMM: call to ZHEGV failed, returncode =   8  4      7
RMM:   4    -0.657961503764E+03    0.18964E-05   -0.20076E-04 12886   0.366E-02    0.613E-02
RMM:   5    -0.657961467886E+03    0.35878E-04   -0.78112E-05 11244   0.238E-02    0.205E-02
RMM:   6    -0.657961481987E+03   -0.14101E-04   -0.50823E-05 10550   0.175E-02    0.457E-02
RMM:   7    -0.657961466356E+03    0.15632E-04   -0.26928E-05  7987   0.148E-02    0.605E-03
RMM:   8    -0.657961467375E+03   -0.10194E-05   -0.90081E-06  5995   0.134E-02
  33 F= -.65796147E+03 E0= -.65791038E+03  d E =-.213201E-03
 curvature:  -1.27 expect dE=-0.502E-03 dE for cont linesearch -0.143E-06
 trial: gam= 0.52887 g(F)=  0.207E-03 g(S)=  0.189E-03 ort =-0.107E-04 (trialstep = 0.685E+00)
 search vector abs. value=  0.671E-03
 bond charge predicted
       N       E                     dE             d eps       ncg     rms          rms(c)
DAV:   1    -0.657961198834E+03    0.26752E-03   -0.58884E-02 10296   0.101E+00    0.186E-01
RMM:   2    -0.657963589855E+03   -0.23910E-02   -0.15379E-02 11957   0.360E-01    0.408E-01
RMM:   3    -0.657961804868E+03    0.17850E-02   -0.22014E-03 12072   0.160E-01    0.128E-01
RMM:   4    -0.657961775296E+03    0.29572E-04   -0.59215E-04 13552   0.594E-02    0.118E-01
RMM:   5    -0.657961641488E+03    0.13381E-03   -0.20971E-04 12240   0.385E-02    0.425E-02
RMM:   6    -0.657961639847E+03    0.16409E-05   -0.11454E-04 11704   0.274E-02    0.556E-02
RMM:   7    -0.657961622865E+03    0.16983E-04   -0.57890E-05  8933   0.217E-02    0.341E-02
RMM:   8    -0.657961613778E+03    0.90865E-05   -0.24854E-05  6589   0.165E-02
  34 F= -.65796161E+03 E0= -.65791046E+03  d E =-.146403E-03
 trial-energy change:   -0.000146  1 .order   -0.000117   -0.000268    0.000034
 step:   0.6082(harm=  0.6082)  dis= 0.00094  next Energy=  -657.961586 (dE=-0.119E-03)
 bond charge predicted
       N       E                     dE             d eps       ncg     rms          rms(c)
DAV:   1    -0.657961606128E+03    0.16737E-04   -0.78798E-04 11160   0.116E-01    0.228E-02
RMM:   2    -0.657961643836E+03   -0.37708E-04   -0.22334E-04 10743   0.436E-02    0.565E-02
RMM:   3    -0.657961610850E+03    0.32986E-04   -0.30959E-05  6485   0.214E-02    0.153E-02
RMM:   4    -0.657961609775E+03    0.10748E-05   -0.88587E-06  5618   0.138E-02
  35 F= -.65796161E+03 E0= -.65791047E+03  d E =-.142400E-03
 curvature:  -0.52 expect dE=-0.134E-03 dE for cont linesearch -0.381E-06
 trial: gam= 0.75888 g(F)=  0.964E-04 g(S)=  0.160E-03 ort =-0.221E-04 (trialstep = 0.670E+00)
 search vector abs. value=  0.609E-03
 bond charge predicted
       N       E                     dE             d eps       ncg     rms          rms(c)
DAV:   1    -0.657960801015E+03    0.80983E-03   -0.51293E-02 10032   0.943E-01    0.723E-02
RMM:   2    -0.657961771450E+03   -0.97044E-03   -0.98050E-03 14161   0.266E-01    0.112E-01
RMM:   3    -0.657961698695E+03    0.72756E-04   -0.98054E-04 13632   0.929E-02    0.681E-02
RMM:   4    -0.657961688999E+03    0.96954E-05   -0.18805E-04 12861   0.360E-02    0.552E-02
RMM:   5    -0.657961663769E+03    0.25230E-04   -0.67728E-05 10698   0.226E-02    0.206E-02
RMM:   6    -0.657961666120E+03   -0.23504E-05   -0.38098E-05  9583   0.162E-02
  36 F= -.65796167E+03 E0= -.65791052E+03  d E =-.563444E-04
 trial-energy change:   -0.000056  1 .order   -0.000076   -0.000161    0.000009
 step:   0.6335(harm=  0.6335)  dis= 0.00118  next Energy=  -657.961686 (dE=-0.760E-04)
 bond charge predicted
       N       E                     dE             d eps       ncg     rms          rms(c)
DAV:   1    -0.657961659596E+03    0.41735E-05   -0.21491E-04 12096   0.605E-02    0.179E-02
RMM:   2    -0.657961710458E+03   -0.50862E-04   -0.10872E-04  8335   0.269E-02    0.777E-02
RMM:   3    -0.657961661732E+03    0.48726E-04   -0.22768E-05  6180   0.171E-02    0.866E-03
RMM:   4    -0.657961660953E+03    0.77893E-06   -0.40829E-06  4973   0.971E-03
  37 F= -.65796166E+03 E0= -.65791052E+03  d E =-.511778E-04
 curvature:  -0.80 expect dE=-0.743E-04 dE for cont linesearch -0.377E-06
 trial: gam= 0.11656 g(F)=  0.886E-04 g(S)=  0.371E-05 ort = 0.169E-04 (trialstep = 0.663E+00)
 search vector abs. value=  0.105E-03
 bond charge predicted
       N       E                     dE             d eps       ncg     rms          rms(c)
DAV:   1    -0.657961578835E+03    0.82897E-04   -0.82518E-03 10320   0.361E-01    0.383E-02
RMM:   2    -0.657961767431E+03   -0.18860E-03   -0.16132E-03 13923   0.112E-01    0.788E-02
RMM:   3    -0.657961705786E+03    0.61645E-04   -0.16294E-04 11899   0.423E-02    0.293E-02
RMM:   4    -0.657961704561E+03    0.12249E-05   -0.37975E-05  8503   0.177E-02
  38 F= -.65796170E+03 E0= -.65791056E+03  d E =-.436077E-04
 trial-energy change:   -0.000044  1 .order   -0.000044   -0.000062   -0.000025
 step:   1.1030(harm=  1.1030)  dis= 0.00069  next Energy=  -657.961713 (dE=-0.520E-04)
 reached required accuracy - stopping structural energy minimisation
