<?xml version="1.0" encoding="ISO-8859-1"?>
<modeling>
 <generator>
  <i name="program" type="string">vasp </i>
  <i name="version" type="string">5.4.4.18Apr17-6-g9f103f2a35  </i>
  <i name="subversion" type="string">(build Oct 18 2021 20:38:43) complex            parallel </i>
  <i name="platform" type="string">LinuxIFC </i>
  <i name="date" type="string">2024 05 30 </i>
  <i name="time" type="string">10:53:19 </i>
 </generator>
 <incar>
  <i type="string" name="SYSTEM">HECN</i>
  <i type="int" name="ISTART">     0</i>
  <i type="string" name="PREC">normal</i>
  <i type="string" name="ALGO">Fast</i>
  <i type="int" name="ICHARG">     2</i>
  <i type="int" name="NELM">    60</i>
  <i type="int" name="IBRION">     2</i>
  <i name="EDIFF">      0.00001000</i>
  <i name="EDIFFG">     -0.01000000</i>
  <i type="int" name="NSW">   100</i>
  <i type="int" name="ISIF">     3</i>
  <i name="ENCUT">    400.00000000</i>
  <i name="POTIM">      0.50000000</i>
  <i type="logical" name="LREAL"> F  </i>
  <i type="int" name="ISMEAR">     0</i>
  <i name="SIGMA">      0.10000000</i>
  <i type="logical" name="LWAVE"> F  </i>
  <i type="logical" name="LCHARG"> F  </i>
  <v type="int" name="KPOINT_BSE">    -1     0     0     0</v>
  <i type="int" name="NELM">    60</i>
 </incar>
 <structure name="primitive_cell" >
  <crystal>
   <varray name="basis" >
    <v>      11.23999977       0.00000000       0.00000000 </v>
    <v>       0.00000000      11.23999977       0.00000000 </v>
    <v>       0.00000000       0.00000000      11.23999977 </v>
   </varray>
   <i name="volume">   1420.03453724 </i>
   <varray name="rec_basis" >
    <v>       0.08896797       0.00000000       0.00000000 </v>
    <v>       0.00000000       0.08896797       0.00000000 </v>
    <v>       0.00000000       0.00000000       0.08896797 </v>
   </varray>
  </crystal>
  <varray name="positions" >
   <v>       0.00000000       0.00000000       0.00000000 </v>
   <v>      -0.24999996       0.00000000       0.00000000 </v>
   <v>       0.00000000       0.00000000      -0.24999996 </v>
   <v>       0.00000000      -0.24999996       0.00000000 </v>
   <v>       0.25000000       0.00000000       0.00000000 </v>
   <v>       0.00000000       0.25000000       0.00000000 </v>
   <v>       0.00000000       0.00000000       0.25000000 </v>
   <v>      -0.24999996      -0.24999996       0.00000000 </v>
   <v>       0.00000000      -0.24999996      -0.24999996 </v>
   <v>      -0.24999996       0.00000000      -0.24999996 </v>
   <v>       0.00000000       0.25000000      -0.24999996 </v>
   <v>      -0.24999996       0.00000000       0.25000000 </v>
   <v>      -0.24999996       0.25000000       0.00000000 </v>
   <v>       0.25000000      -0.24999996       0.00000000 </v>
   <v>       0.25000000       0.00000000      -0.24999996 </v>
   <v>       0.00000000      -0.24999996       0.25000000 </v>
   <v>       0.25000000       0.00000000       0.25000000 </v>
   <v>       0.00000000       0.25000000       0.25000000 </v>
   <v>       0.25000000       0.25000000       0.00000000 </v>
   <v>      -0.24999996      -0.24999996      -0.24999996 </v>
   <v>      -0.24999996       0.25000000      -0.24999996 </v>
   <v>       0.25000000      -0.24999996      -0.24999996 </v>
   <v>      -0.24999996      -0.24999996       0.25000000 </v>
   <v>      -0.24999996       0.25000000       0.25000000 </v>
   <v>       0.25000000      -0.24999996       0.25000000 </v>
   <v>       0.25000000       0.25000000      -0.24999996 </v>
   <v>       0.25000000       0.25000000       0.25000000 </v>
   <v>      -0.50000000       0.00000000       0.00000000 </v>
   <v>       0.00000000      -0.50000000       0.00000000 </v>
   <v>       0.00000000       0.00000000      -0.50000000 </v>
   <v>      -0.50000000      -0.24999996       0.00000000 </v>
   <v>      -0.24999996       0.00000000      -0.50000000 </v>
   <v>      -0.50000000       0.00000000      -0.24999996 </v>
   <v>      -0.24999996      -0.50000000       0.00000000 </v>
   <v>       0.00000000      -0.24999996      -0.50000000 </v>
   <v>       0.00000000      -0.50000000      -0.24999996 </v>
   <v>      -0.50000000       0.00000000       0.25000000 </v>
   <v>       0.00000000      -0.50000000       0.25000000 </v>
   <v>      -0.50000000       0.25000000       0.00000000 </v>
   <v>       0.25000000      -0.50000000       0.00000000 </v>
   <v>       0.25000000       0.00000000      -0.50000000 </v>
   <v>       0.00000000       0.25000000      -0.50000000 </v>
   <v>      -0.24999996      -0.24999996      -0.50000000 </v>
   <v>      -0.50000000      -0.24999996      -0.24999996 </v>
   <v>      -0.24999996      -0.50000000      -0.24999996 </v>
   <v>      -0.50000000       0.25000000      -0.24999996 </v>
   <v>      -0.24999996       0.25000000      -0.50000000 </v>
   <v>       0.25000000      -0.50000000      -0.24999996 </v>
   <v>       0.25000000      -0.24999996      -0.50000000 </v>
   <v>      -0.50000000      -0.24999996       0.25000000 </v>
   <v>      -0.24999996      -0.50000000       0.25000000 </v>
   <v>       0.25000000      -0.50000000       0.25000000 </v>
   <v>      -0.50000000       0.25000000       0.25000000 </v>
   <v>       0.25000000       0.25000000      -0.50000000 </v>
   <v>      -0.50000000      -0.50000000       0.00000000 </v>
   <v>       0.00000000      -0.50000000      -0.50000000 </v>
   <v>      -0.50000000       0.00000000      -0.50000000 </v>
   <v>      -0.24999996      -0.50000000      -0.50000000 </v>
   <v>      -0.50000000      -0.24999996      -0.50000000 </v>
   <v>      -0.50000000      -0.50000000      -0.24999996 </v>
   <v>      -0.50000000       0.25000000      -0.50000000 </v>
   <v>      -0.50000000      -0.50000000       0.25000000 </v>
   <v>       0.25000000      -0.50000000      -0.50000000 </v>
   <v>      -0.50000000      -0.50000000      -0.50000000 </v>
  </varray>
 </structure>
 <varray name="primitive_index" >
  <v type="int" >        1 </v>
  <v type="int" >       25 </v>
  <v type="int" >       29 </v>
  <v type="int" >       38 </v>
  <v type="int" >       22 </v>
  <v type="int" >       23 </v>
  <v type="int" >       34 </v>
  <v type="int" >        9 </v>
  <v type="int" >       12 </v>
  <v type="int" >       58 </v>
  <v type="int" >       10 </v>
  <v type="int" >       16 </v>
  <v type="int" >       17 </v>
  <v type="int" >       18 </v>
  <v type="int" >       56 </v>
  <v type="int" >       59 </v>
  <v type="int" >        2 </v>
  <v type="int" >        8 </v>
  <v type="int" >       14 </v>
  <v type="int" >       49 </v>
  <v type="int" >       30 </v>
  <v type="int" >       45 </v>
  <v type="int" >       39 </v>
  <v type="int" >       24 </v>
  <v type="int" >       36 </v>
  <v type="int" >       42 </v>
  <v type="int" >       21 </v>
  <v type="int" >       53 </v>
  <v type="int" >       54 </v>
  <v type="int" >       61 </v>
  <v type="int" >       28 </v>
  <v type="int" >       31 </v>
  <v type="int" >       33 </v>
  <v type="int" >       40 </v>
  <v type="int" >       47 </v>
  <v type="int" >       48 </v>
  <v type="int" >       26 </v>
  <v type="int" >       27 </v>
  <v type="int" >       35 </v>
  <v type="int" >       37 </v>
  <v type="int" >       43 </v>
  <v type="int" >       44 </v>
  <v type="int" >       64 </v>
  <v type="int" >        7 </v>
  <v type="int" >       63 </v>
  <v type="int" >        5 </v>
  <v type="int" >       11 </v>
  <v type="int" >       13 </v>
  <v type="int" >       20 </v>
  <v type="int" >       55 </v>
  <v type="int" >       60 </v>
  <v type="int" >        3 </v>
  <v type="int" >       15 </v>
  <v type="int" >       19 </v>
  <v type="int" >        4 </v>
  <v type="int" >        6 </v>
  <v type="int" >       57 </v>
  <v type="int" >       50 </v>
  <v type="int" >       51 </v>
  <v type="int" >       52 </v>
  <v type="int" >       32 </v>
  <v type="int" >       41 </v>
  <v type="int" >       46 </v>
  <v type="int" >       62 </v>
 </varray>
 <kpoints>
  <generation param="Gamma">
   <v type="int" name="divisions">       3        3        3 </v>
   <v name="usershift">      0.00000000       0.00000000       0.00000000 </v>
   <v name="genvec1">      0.33333333       0.00000000       0.00000000 </v>
   <v name="genvec2">      0.00000000       0.33333333       0.00000000 </v>
   <v name="genvec3">      0.00000000       0.00000000       0.33333333 </v>
   <v name="shift">      0.00000000       0.00000000       0.00000000 </v>
  </generation>
  <varray name="kpointlist" >
   <v>       0.00000000       0.00000000       0.00000000 </v>
   <v>       0.33333333       0.00000000       0.00000000 </v>
   <v>       0.00000000       0.33333333       0.00000000 </v>
   <v>       0.33333333       0.33333333       0.00000000 </v>
   <v>      -0.33333333       0.33333333       0.00000000 </v>
   <v>       0.00000000       0.00000000       0.33333333 </v>
   <v>       0.33333333       0.00000000       0.33333333 </v>
   <v>      -0.33333333       0.00000000       0.33333333 </v>
   <v>       0.00000000       0.33333333       0.33333333 </v>
   <v>       0.33333333       0.33333333       0.33333333 </v>
   <v>      -0.33333333       0.33333333       0.33333333 </v>
   <v>       0.00000000      -0.33333333       0.33333333 </v>
   <v>       0.33333333      -0.33333333       0.33333333 </v>
   <v>      -0.33333333      -0.33333333       0.33333333 </v>
  </varray>
  <varray name="weights" >
   <v>       0.03703704 </v>
   <v>       0.07407407 </v>
   <v>       0.07407407 </v>
   <v>       0.07407407 </v>
   <v>       0.07407407 </v>
   <v>       0.07407407 </v>
   <v>       0.07407407 </v>
   <v>       0.07407407 </v>
   <v>       0.07407407 </v>
   <v>       0.07407407 </v>
   <v>       0.07407407 </v>
   <v>       0.07407407 </v>
   <v>       0.07407407 </v>
   <v>       0.07407407 </v>
  </varray>
 </kpoints>
 <parameters>
  <separator name="general" >
   <i type="string" name="SYSTEM">HECN</i>
   <i type="logical" name="LCOMPAT"> F  </i>
  </separator>
  <separator name="electronic" >
   <i type="string" name="PREC">normal</i>
   <i name="ENMAX">    400.00000000</i>
   <i name="ENAUG">    644.87300000</i>
   <i name="EDIFF">      0.00001000</i>
   <i type="int" name="IALGO">    68</i>
   <i type="int" name="IWAVPR">    11</i>
   <i type="int" name="NBANDS">   336</i>
   <i name="NELECT">    532.00000000</i>
   <i type="int" name="TURBO">     0</i>
   <i type="int" name="IRESTART">     0</i>
   <i type="int" name="NREBOOT">     0</i>
   <i type="int" name="NMIN">     0</i>
   <i name="EREF">      0.00000000</i>
   <separator name="electronic smearing" >
    <i type="int" name="ISMEAR">     0</i>
    <i name="SIGMA">      0.10000000</i>
    <i name="KSPACING">      0.50000000</i>
    <i type="logical" name="KGAMMA"> T  </i>
   </separator>
   <separator name="electronic projectors" >
    <i type="logical" name="LREAL"> F  </i>
    <v name="ROPT">      0.00000000      0.00000000      0.00000000      0.00000000      0.00000000      0.00000000      0.00000000</v>
    <i type="int" name="LMAXPAW">  -100</i>
    <i type="int" name="LMAXMIX">     2</i>
    <i type="logical" name="NLSPLINE"> F  </i>
   </separator>
   <separator name="electronic startup" >
    <i type="int" name="ISTART">     0</i>
    <i type="int" name="ICHARG">     2</i>
    <i type="int" name="INIWAV">     1</i>
   </separator>
   <separator name="electronic spin" >
    <i type="int" name="ISPIN">     1</i>
    <i type="logical" name="LNONCOLLINEAR"> F  </i>
    <v name="MAGMOM">      1.00000000      1.00000000      1.00000000      1.00000000      1.00000000      1.00000000      1.00000000      1.00000000      1.00000000      1.00000000      1.00000000      1.00000000      1.00000000      1.00000000      1.00000000      1.00000000      1.00000000      1.00000000      1.00000000      1.00000000
      1.00000000      1.00000000      1.00000000      1.00000000      1.00000000      1.00000000      1.00000000      1.00000000      1.00000000      1.00000000      1.00000000      1.00000000      1.00000000      1.00000000      1.00000000      1.00000000      1.00000000      1.00000000      1.00000000      1.00000000
      1.00000000      1.00000000      1.00000000      1.00000000      1.00000000      1.00000000      1.00000000      1.00000000      1.00000000      1.00000000      1.00000000      1.00000000      1.00000000      1.00000000      1.00000000      1.00000000      1.00000000      1.00000000      1.00000000      1.00000000
      1.00000000      1.00000000      1.00000000      1.00000000</v>
    <i name="NUPDOWN">     -1.00000000</i>
    <i type="logical" name="LSORBIT"> F  </i>
    <v name="SAXIS">      0.00000000      0.00000000      1.00000000</v>
    <i type="logical" name="LSPIRAL"> F  </i>
    <v name="QSPIRAL">      0.00000000      0.00000000      0.00000000</v>
    <i type="logical" name="LZEROZ"> F  </i>
   </separator>
   <separator name="electronic exchange-correlation" >
    <i type="logical" name="LASPH"> F  </i>
    <i type="logical" name="LMETAGGA"> F  </i>
   </separator>
   <separator name="electronic convergence" >
    <i type="int" name="NELM">    60</i>
    <i type="int" name="NELMDL">    -5</i>
    <i type="int" name="NELMIN">     2</i>
    <i name="ENINI">    400.00000000</i>
    <separator name="electronic convergence detail" >
     <i type="logical" name="LDIAG"> T  </i>
     <i type="logical" name="LSUBROT"> F  </i>
     <i name="WEIMIN">      0.00100000</i>
     <i name="EBREAK">      0.00000001</i>
     <i name="DEPER">      0.30000000</i>
     <i type="int" name="NRMM">     4</i>
     <i name="TIME">      0.40000000</i>
    </separator>
   </separator>
   <separator name="electronic mixer" >
    <i name="AMIX">      0.40000000</i>
    <i name="BMIX">      1.00000000</i>
    <i name="AMIN">      0.10000000</i>
    <i name="AMIX_MAG">      1.60000000</i>
    <i name="BMIX_MAG">      1.00000000</i>
    <separator name="electronic mixer details" >
     <i type="int" name="IMIX">     4</i>
     <i type="logical" name="MIXFIRST"> F  </i>
     <i type="int" name="MAXMIX">   -45</i>
     <i name="WC">    100.00000000</i>
     <i type="int" name="INIMIX">     1</i>
     <i type="int" name="MIXPRE">     1</i>
     <i type="int" name="MREMOVE">     5</i>
    </separator>
   </separator>
   <separator name="electronic dipolcorrection" >
    <i type="logical" name="LDIPOL"> F  </i>
    <i type="logical" name="LMONO"> F  </i>
    <i type="int" name="IDIPOL">     0</i>
    <i name="EPSILON">      1.00000000</i>
    <v name="DIPOL">   -100.00000000   -100.00000000   -100.00000000</v>
    <i name="EFIELD">      0.00000000</i>
   </separator>
  </separator>
  <separator name="grids" >
   <i type="int" name="NGX">    56</i>
   <i type="int" name="NGY">    56</i>
   <i type="int" name="NGZ">    56</i>
   <i type="int" name="NGXF">   112</i>
   <i type="int" name="NGYF">   112</i>
   <i type="int" name="NGZF">   112</i>
   <i type="logical" name="ADDGRID"> F  </i>
  </separator>
  <separator name="ionic" >
   <i type="int" name="NSW">   100</i>
   <i type="int" name="IBRION">     2</i>
   <i type="int" name="MDALGO">     0</i>
   <i type="int" name="ISIF">     3</i>
   <i name="PSTRESS">      0.00000000</i>
   <i name="EDIFFG">     -0.01000000</i>
   <i type="int" name="NFREE">     1</i>
   <i name="POTIM">      0.50000000</i>
   <i name="SMASS">     -3.00000000</i>
   <i name="SCALEE">      1.00000000</i>
  </separator>
  <separator name="ionic md" >
   <i name="TEBEG">      0.00010000</i>
   <i name="TEEND">      0.00010000</i>
   <i type="int" name="NBLOCK">     1</i>
   <i type="int" name="KBLOCK">   100</i>
   <i type="int" name="NPACO">   256</i>
   <i name="APACO">     16.00000000</i>
  </separator>
  <separator name="symmetry" >
   <i type="int" name="ISYM">     2</i>
   <i name="SYMPREC">      0.00001000</i>
  </separator>
  <separator name="dos" >
   <i type="int" name="LORBIT">     0</i>
   <v name="RWIGS">     -1.00000000     -1.00000000     -1.00000000     -1.00000000     -1.00000000     -1.00000000     -1.00000000</v>
   <i type="int" name="NEDOS">   301</i>
   <i name="EMIN">     10.00000000</i>
   <i name="EMAX">    -10.00000000</i>
   <i name="EFERMI">      0.00000000</i>
  </separator>
  <separator name="writing" >
   <i type="int" name="NWRITE">     2</i>
   <i type="logical" name="LWAVE"> F  </i>
   <i type="logical" name="LDOWNSAMPLE"> F  </i>
   <i type="logical" name="LCHARG"> F  </i>
   <i type="logical" name="LPARD"> F  </i>
   <i type="logical" name="LVTOT"> F  </i>
   <i type="logical" name="LVHAR"> F  </i>
   <i type="logical" name="LELF"> F  </i>
   <i type="logical" name="LOPTICS"> F  </i>
   <v name="STM">      0.00000000      0.00000000      0.00000000      0.00000000      0.00000000      0.00000000      0.00000000</v>
  </separator>
  <separator name="performance" >
   <i type="int" name="NPAR">    24</i>
   <i type="int" name="NSIM">     4</i>
   <i type="int" name="NBLK">    -1</i>
   <i type="logical" name="LPLANE"> T  </i>
   <i type="logical" name="LSCALAPACK"> T  </i>
   <i type="logical" name="LSCAAWARE"> F  </i>
   <i type="logical" name="LSCALU"> F  </i>
   <i type="logical" name="LASYNC"> F  </i>
   <i type="logical" name="LORBITALREAL"> F  </i>
  </separator>
  <separator name="miscellaneous" >
   <i type="int" name="IDIOT">     3</i>
   <i type="int" name="ISPECIAL">     0</i>
   <i type="logical" name="LMUSIC"> F  </i>
   <v name="POMASS">     47.88000000    183.85000000     50.94100000     14.00100000     12.01100000     92.91000000    180.94800000</v>
   <v name="DARWINR">      0.00000000      0.00000000      0.00000000      0.00000000      0.00000000      0.00000000      0.00000000</v>
   <v name="DARWINV">      1.00000000      1.00000000      1.00000000      1.00000000      1.00000000      1.00000000      1.00000000</v>
   <i type="logical" name="LCORR"> T  </i>
  </separator>
  <i type="logical" name="GGA_COMPAT"> T  </i>
  <i type="logical" name="LBERRY"> F  </i>
  <i type="int" name="ICORELEVEL">     0</i>
  <i type="logical" name="LDAU"> F  </i>
  <i type="int" name="I_CONSTRAINED_M">     0</i>
  <separator name="electronic exchange-correlation" >
   <i type="string" name="GGA">--</i>
   <i type="int" name="VOSKOWN">     0</i>
   <i type="logical" name="LHFCALC"> F  </i>
   <i type="string" name="PRECFOCK"></i>
   <i type="logical" name="LSYMGRAD"> F  </i>
   <i type="logical" name="LHFONE"> F  </i>
   <i type="logical" name="LRHFCALC"> F  </i>
   <i type="logical" name="LTHOMAS"> F  </i>
   <i type="logical" name="LMODELHF"> F  </i>
   <i name="ENCUT4O">     -1.00000000</i>
   <i type="int" name="EXXOEP">     0</i>
   <i type="int" name="FOURORBIT">     0</i>
   <i name="AEXX">      0.00000000</i>
   <i name="HFALPHA">      0.00000000</i>
   <i name="MCALPHA">      0.00000000</i>
   <i name="ALDAX">      1.00000000</i>
   <i name="AGGAX">      1.00000000</i>
   <i name="ALDAC">      1.00000000</i>
   <i name="AGGAC">      1.00000000</i>
   <i type="int" name="NKREDX">     1</i>
   <i type="int" name="NKREDY">     1</i>
   <i type="int" name="NKREDZ">     1</i>
   <i type="logical" name="SHIFTRED"> F  </i>
   <i type="logical" name="ODDONLY"> F  </i>
   <i type="logical" name="EVENONLY"> F  </i>
   <i type="int" name="LMAXFOCK">     0</i>
   <i type="int" name="NMAXFOCKAE">     0</i>
   <i type="logical" name="LFOCKAEDFT"> F  </i>
   <i name="HFSCREEN">      0.00000000</i>
   <i name="HFSCREENC">      0.00000000</i>
   <i type="int" name="NBANDSGWLOW">     0</i>
  </separator>
  <separator name="vdW DFT" >
   <i type="logical" name="LUSE_VDW"> F  </i>
   <i name="Zab_VDW">     -0.84910000</i>
   <i name="PARAM1">      0.12340000</i>
   <i name="PARAM2">      1.00000000</i>
   <i name="PARAM3">      0.00000000</i>
  </separator>
  <separator name="model GW" >
   <i type="int" name="MODEL_GW">     0</i>
   <i name="MODEL_EPS0">     13.31282379</i>
   <i name="MODEL_ALPHA">      1.00000000</i>
  </separator>
  <separator name="linear response parameters" >
   <i type="logical" name="LEPSILON"> F  </i>
   <i type="logical" name="LRPA"> F  </i>
   <i type="logical" name="LNABLA"> F  </i>
   <i type="logical" name="LVEL"> F  </i>
   <i type="int" name="KINTER">     0</i>
   <i name="CSHIFT">      0.10000000</i>
   <i name="OMEGAMAX">     -1.00000000</i>
   <i name="DEG_THRESHOLD">      0.00200000</i>
   <i name="RTIME">     -0.10000000</i>
   <i name="WPLASMAI">      0.00000000</i>
   <v name="DFIELD">      0.00000000      0.00000000      0.00000000</v>
   <v name="WPLASMA">      0.00000000      0.00000000      0.00000000      0.00000000      0.00000000      0.00000000      0.00000000      0.00000000      0.00000000</v>
  </separator>
  <separator name="orbital magnetization" >
   <i type="logical" name="NUCIND"> F  </i>
   <v name="MAGPOS">      0.00000000      0.00000000      0.00000000</v>
   <i type="logical" name="LNICSALL"> T  </i>
   <i type="logical" name="ORBITALMAG"> F  </i>
   <i type="logical" name="LMAGBLOCH"> F  </i>
   <i type="logical" name="LCHIMAG"> F  </i>
   <i type="logical" name="LGAUGE"> T  </i>
   <i type="int" name="MAGATOM">     0</i>
   <v name="MAGDIPOL">      0.00000000      0.00000000      0.00000000</v>
   <v name="AVECCONST">      0.00000000      0.00000000      0.00000000</v>
  </separator>
  <separator name="response functions" >
   <i type="logical" name="LADDER"> F  </i>
   <i type="logical" name="LRPAFORCE"> F  </i>
   <i type="logical" name="LFXC"> F  </i>
   <i type="logical" name="LHARTREE"> T  </i>
   <i type="int" name="IBSE">     0</i>
   <v type="int" name="KPOINT">    -1     0     0     0</v>
   <i type="logical" name="LTCTE"> F  </i>
   <i type="logical" name="LTETE"> F  </i>
   <i type="logical" name="LTRIPLET"> F  </i>
   <i type="logical" name="LFXCEPS"> F  </i>
   <i type="logical" name="LFXHEG"> F  </i>
   <i type="int" name="NATURALO">     2</i>
   <i type="logical" name="L2ORDER"> F  </i>
   <i type="logical" name="LMP2LT"> F  </i>
   <i type="logical" name="LUSEW"> F  </i>
   <i name="ENCUTGW">     -2.00000000</i>
   <i name="ENCUTGWSOFT">     -2.00000000</i>
   <i name="ENCUTLF">     -1.00000000</i>
   <i type="int" name="LMAXMP2">    -1</i>
   <i name="SCISSOR">      0.00000000</i>
   <i type="int" name="NOMEGA">     0</i>
   <i type="int" name="NOMEGAR">     0</i>
   <i type="int" name="NBANDSGW">    -1</i>
   <i type="int" name="NBANDSO">    -1</i>
   <i type="int" name="NBANDSV">    -1</i>
   <i type="int" name="NELM">    60</i>
   <i type="int" name="NELMHF">     1</i>
   <i type="int" name="DIM">     3</i>
   <i type="int" name="ANTIRES">     0</i>
   <i name="OMEGAMAX">    -30.00000000</i>
   <i name="OMEGAMIN">    -30.00000000</i>
   <i name="OMEGATL">   -200.00000000</i>
   <i type="int" name="OMEGAGRID">   140</i>
   <i name="CSHIFT">     -0.10000000</i>
   <i type="logical" name="SELFENERGY"> F  </i>
   <i type="logical" name="LSPECTRAL"> F  </i>
   <i type="logical" name="LSPECTRALGW"> F  </i>
   <i type="logical" name="LSINGLES"> F  </i>
   <i type="logical" name="LFERMIGW"> F  </i>
   <i type="logical" name="ODDONLYGW"> F  </i>
   <i type="logical" name="EVENONLYGW"> F  </i>
   <i type="int" name="NKREDLFX">     1</i>
   <i type="int" name="NKREDLFY">     1</i>
   <i type="int" name="NKREDLFZ">     1</i>
   <i type="int" name="MAXMEM">  2800</i>
   <i type="int" name="TELESCOPE">     0</i>
   <i type="int" name="TAUPAR">     1</i>
   <i type="int" name="OMEGAPAR">    -1</i>
   <i name="LAMBDA">      1.00000000</i>
  </separator>
  <separator name="External order field" >
   <i name="OFIELD_KAPPA">      0.00000000</i>
   <v name="OFIELD_K">      0.00000000      0.00000000      0.00000000</v>
   <i name="OFIELD_Q6_NEAR">      0.00000000</i>
   <i name="OFIELD_Q6_FAR">      0.00000000</i>
   <i name="OFIELD_A">      0.00000000</i>
  </separator>
 </parameters>
 <atominfo>
  <atoms>      64 </atoms>
  <types>       7 </types>
  <array name="atoms" >
   <dimension dim="1">ion</dimension>
   <field type="string">element</field>
   <field type="int">atomtype</field>
   <set>
    <rc><c>Ti</c><c>   1</c></rc>
    <rc><c>Ti</c><c>   1</c></rc>
    <rc><c>Ti</c><c>   1</c></rc>
    <rc><c>Ti</c><c>   1</c></rc>
    <rc><c>Ti</c><c>   1</c></rc>
    <rc><c>Ti</c><c>   1</c></rc>
    <rc><c>Ti</c><c>   1</c></rc>
    <rc><c>W </c><c>   2</c></rc>
    <rc><c>W </c><c>   2</c></rc>
    <rc><c>W </c><c>   2</c></rc>
    <rc><c>W </c><c>   2</c></rc>
    <rc><c>W </c><c>   2</c></rc>
    <rc><c>W </c><c>   2</c></rc>
    <rc><c>V </c><c>   3</c></rc>
    <rc><c>V </c><c>   3</c></rc>
    <rc><c>V </c><c>   3</c></rc>
    <rc><c>V </c><c>   3</c></rc>
    <rc><c>V </c><c>   3</c></rc>
    <rc><c>V </c><c>   3</c></rc>
    <rc><c>V </c><c>   3</c></rc>
    <rc><c>N </c><c>   4</c></rc>
    <rc><c>N </c><c>   4</c></rc>
    <rc><c>N </c><c>   4</c></rc>
    <rc><c>N </c><c>   4</c></rc>
    <rc><c>N </c><c>   4</c></rc>
    <rc><c>N </c><c>   4</c></rc>
    <rc><c>N </c><c>   4</c></rc>
    <rc><c>N </c><c>   4</c></rc>
    <rc><c>N </c><c>   4</c></rc>
    <rc><c>N </c><c>   4</c></rc>
    <rc><c>N </c><c>   4</c></rc>
    <rc><c>N </c><c>   4</c></rc>
    <rc><c>N </c><c>   4</c></rc>
    <rc><c>C </c><c>   5</c></rc>
    <rc><c>C </c><c>   5</c></rc>
    <rc><c>C </c><c>   5</c></rc>
    <rc><c>C </c><c>   5</c></rc>
    <rc><c>C </c><c>   5</c></rc>
    <rc><c>C </c><c>   5</c></rc>
    <rc><c>C </c><c>   5</c></rc>
    <rc><c>C </c><c>   5</c></rc>
    <rc><c>C </c><c>   5</c></rc>
    <rc><c>C </c><c>   5</c></rc>
    <rc><c>C </c><c>   5</c></rc>
    <rc><c>C </c><c>   5</c></rc>
    <rc><c>C </c><c>   5</c></rc>
    <rc><c>C </c><c>   5</c></rc>
    <rc><c>C </c><c>   5</c></rc>
    <rc><c>C </c><c>   5</c></rc>
    <rc><c>C </c><c>   5</c></rc>
    <rc><c>C </c><c>   5</c></rc>
    <rc><c>C </c><c>   5</c></rc>
    <rc><c>Nb</c><c>   6</c></rc>
    <rc><c>Nb</c><c>   6</c></rc>
    <rc><c>Nb</c><c>   6</c></rc>
    <rc><c>Nb</c><c>   6</c></rc>
    <rc><c>Nb</c><c>   6</c></rc>
    <rc><c>Nb</c><c>   6</c></rc>
    <rc><c>Ta</c><c>   7</c></rc>
    <rc><c>Ta</c><c>   7</c></rc>
    <rc><c>Ta</c><c>   7</c></rc>
    <rc><c>Ta</c><c>   7</c></rc>
    <rc><c>Ta</c><c>   7</c></rc>
    <rc><c>Ta</c><c>   7</c></rc>
   </set>
  </array>
  <array name="atomtypes" >
   <dimension dim="1">type</dimension>
   <field type="int">atomspertype</field>
   <field type="string">element</field>
   <field>mass</field>
   <field>valence</field>
   <field type="string">pseudopotential</field>
   <set>
    <rc><c>   7</c><c>Ti</c><c>     47.88000000</c><c>     12.00000000</c><c> PAW_PBE Ti_sv 07Sep2000                </c></rc>
    <rc><c>   6</c><c>W </c><c>    183.85000000</c><c>     12.00000000</c><c> PAW_PBE W_pv 06Sep2000                 </c></rc>
    <rc><c>   7</c><c>V </c><c>     50.94100000</c><c>     13.00000000</c><c> PAW_PBE V_sv 07Sep2000                 </c></rc>
    <rc><c>  13</c><c>N </c><c>     14.00100000</c><c>      5.00000000</c><c> PAW_PBE N 08Apr2002                    </c></rc>
    <rc><c>  19</c><c>C </c><c>     12.01100000</c><c>      4.00000000</c><c> PAW_PBE C 08Apr2002                    </c></rc>
    <rc><c>   6</c><c>Nb</c><c>     92.91000000</c><c>     13.00000000</c><c> PAW_PBE Nb_sv 17Jan2003                </c></rc>
    <rc><c>   6</c><c>Ta</c><c>    180.94800000</c><c>     11.00000000</c><c> PAW_PBE Ta_pv 07Sep2000                </c></rc>
   </set>
  </array>
 </atominfo>
 <structure name="initialpos" >
  <crystal>
   <varray name="basis" >
    <v>      11.23999977       0.00000000       0.00000000 </v>
    <v>       0.00000000      11.23999977       0.00000000 </v>
    <v>       0.00000000       0.00000000      11.23999977 </v>
   </varray>
   <i name="volume">   1420.03453724 </i>
   <varray name="rec_basis" >
    <v>       0.08896797       0.00000000       0.00000000 </v>
    <v>       0.00000000       0.08896797       0.00000000 </v>
    <v>       0.00000000       0.00000000       0.08896797 </v>
   </varray>
  </crystal>
  <varray name="positions" >
   <v>       0.00000000       0.00000000       0.00000000 </v>
   <v>       0.25000000       0.00000000       0.25000000 </v>
   <v>       0.25000000       0.50000000       0.25000000 </v>
   <v>       0.50000000       0.50000000       0.00000000 </v>
   <v>       0.50000000       0.25000000       0.75000004 </v>
   <v>       0.00000000       0.50000000       0.50000000 </v>
   <v>       0.50000000       0.75000004       0.75000004 </v>
   <v>       0.00000000       0.25000000       0.25000000 </v>
   <v>       0.75000004       0.75000004       0.00000000 </v>
   <v>       0.00000000       0.25000000       0.75000004 </v>
   <v>       0.75000004       0.25000000       0.50000000 </v>
   <v>       0.00000000       0.75000004       0.75000004 </v>
   <v>       0.25000000       0.50000000       0.75000004 </v>
   <v>       0.25000000       0.25000000       0.00000000 </v>
   <v>       0.50000000       0.25000000       0.25000000 </v>
   <v>       0.75000004       0.00000000       0.25000000 </v>
   <v>       0.75000004       0.25000000       0.00000000 </v>
   <v>       0.25000000       0.75000004       0.00000000 </v>
   <v>       0.25000000       0.25000000       0.50000000 </v>
   <v>       0.25000000       0.75000004       0.50000000 </v>
   <v>       0.25000000       0.25000000       0.25000000 </v>
   <v>       0.25000000       0.00000000       0.00000000 </v>
   <v>       0.00000000       0.25000000       0.00000000 </v>
   <v>       0.75000004       0.25000000       0.25000000 </v>
   <v>       0.75000004       0.00000000       0.00000000 </v>
   <v>       0.50000000       0.00000000       0.25000000 </v>
   <v>       0.00000000       0.50000000       0.25000000 </v>
   <v>       0.50000000       0.75000004       0.00000000 </v>
   <v>       0.00000000       0.00000000       0.75000004 </v>
   <v>       0.75000004       0.25000000       0.75000004 </v>
   <v>       0.75000004       0.00000000       0.50000000 </v>
   <v>       0.50000000       0.25000000       0.50000000 </v>
   <v>       0.50000000       0.00000000       0.75000004 </v>
   <v>       0.00000000       0.00000000       0.25000000 </v>
   <v>       0.50000000       0.25000000       0.00000000 </v>
   <v>       0.25000000       0.75000004       0.25000000 </v>
   <v>       0.25000000       0.50000000       0.00000000 </v>
   <v>       0.00000000       0.75000004       0.00000000 </v>
   <v>       0.75000004       0.75000004       0.25000000 </v>
   <v>       0.75000004       0.50000000       0.00000000 </v>
   <v>       0.50000000       0.50000000       0.25000000 </v>
   <v>       0.25000000       0.25000000       0.75000004 </v>
   <v>       0.25000000       0.00000000       0.50000000 </v>
   <v>       0.00000000       0.25000000       0.50000000 </v>
   <v>       0.25000000       0.75000004       0.75000004 </v>
   <v>       0.25000000       0.50000000       0.50000000 </v>
   <v>       0.00000000       0.75000004       0.50000000 </v>
   <v>       0.00000000       0.50000000       0.75000004 </v>
   <v>       0.75000004       0.75000004       0.75000004 </v>
   <v>       0.75000004       0.50000000       0.50000000 </v>
   <v>       0.50000000       0.75000004       0.50000000 </v>
   <v>       0.50000000       0.50000000       0.75000004 </v>
   <v>       0.50000000       0.00000000       0.00000000 </v>
   <v>       0.00000000       0.50000000       0.00000000 </v>
   <v>       0.50000000       0.75000004       0.25000000 </v>
   <v>       0.25000000       0.00000000       0.75000004 </v>
   <v>       0.50000000       0.00000000       0.50000000 </v>
   <v>       0.75000004       0.00000000       0.75000004 </v>
   <v>       0.00000000       0.75000004       0.25000000 </v>
   <v>       0.75000004       0.50000000       0.25000000 </v>
   <v>       0.00000000       0.00000000       0.50000000 </v>
   <v>       0.50000000       0.50000000       0.50000000 </v>
   <v>       0.75000004       0.50000000       0.75000004 </v>
   <v>       0.75000004       0.75000004       0.50000000 </v>
  </varray>
 </structure>
 <calculation>
  <scstep>
   <time name="dav">   98.49   98.79</time>
   <time name="total">   98.54   98.85</time>
   <energy>
    <i name="alphaZ">   2170.96032927 </i>
    <i name="ewald"> -36509.19279989 </i>
    <i name="hartreedc"> -14183.93772794 </i>
    <i name="XCdc">   2039.30919636 </i>
    <i name="pawpsdc">  34413.45605999 </i>
    <i name="pawaedc"> -34132.90008695 </i>
    <i name="eentropy">     -0.11221143 </i>
    <i name="bandstr">  -2302.77303254 </i>
    <i name="atom">  54171.56976881 </i>
    <i name="e_fr_energy">   5666.37949567 </i>
    <i name="e_wo_entrp">   5666.49170710 </i>
    <i name="e_0_energy">   5666.43560139 </i>
   </energy>
  </scstep>
  <scstep>
   <time name="dav">   93.73   94.05</time>
   <time name="total">   93.73   94.05</time>
   <energy>
    <i name="e_fr_energy">    309.71001293 </i>
    <i name="e_wo_entrp">    310.04525728 </i>
    <i name="e_0_energy">    309.87763510 </i>
   </energy>
  </scstep>
  <scstep>
   <time name="dav">  138.16  138.59</time>
   <time name="total">  138.16  138.59</time>
   <energy>
    <i name="e_fr_energy">   -512.05160289 </i>
    <i name="e_wo_entrp">   -511.76535276 </i>
    <i name="e_0_energy">   -511.90847782 </i>
   </energy>
  </scstep>
  <scstep>
   <time name="dav">  134.53  135.65</time>
   <time name="total">  134.53  135.65</time>
   <energy>
    <i name="e_fr_energy">   -609.88243842 </i>
    <i name="e_wo_entrp">   -609.60394778 </i>
    <i name="e_0_energy">   -609.74319310 </i>
   </energy>
  </scstep>
  <scstep>
   <time name="dav">  161.76  162.19</time>
   <time name="total">  162.47  162.91</time>
   <energy>
    <i name="e_fr_energy">   -627.64795505 </i>
    <i name="e_wo_entrp">   -627.39142913 </i>
    <i name="e_0_energy">   -627.51969209 </i>
   </energy>
  </scstep>
  <scstep>
   <time name="diag">    3.28    3.29</time>
   <time name="diis">   89.44   89.77</time>
   <time name="orth">    0.79    0.80</time>
   <time name="total">   94.29   94.63</time>
   <energy>
    <i name="e_fr_energy">   -817.57270794 </i>
    <i name="e_wo_entrp">   -817.15153390 </i>
    <i name="e_0_energy">   -817.36212092 </i>
   </energy>
  </scstep>
  <scstep>
   <time name="diag">    3.29    3.30</time>
   <time name="diis">   98.55   98.89</time>
   <time name="orth">    0.79    0.79</time>
   <time name="total">  103.40  103.75</time>
   <energy>
    <i name="e_fr_energy">   -495.45270360 </i>
    <i name="e_wo_entrp">   -495.06110471 </i>
    <i name="e_0_energy">   -495.25690415 </i>
   </energy>
  </scstep>
  <scstep>
   <time name="diag">    3.29    3.30</time>
   <time name="diis">   93.38   93.67</time>
   <time name="orth">    0.79    0.81</time>
   <time name="total">   98.27   98.60</time>
   <energy>
    <i name="e_fr_energy">   -459.27093344 </i>
    <i name="e_wo_entrp">   -458.70306062 </i>
    <i name="e_0_energy">   -458.98699703 </i>
   </energy>
  </scstep>
  <scstep>
   <time name="diag">    3.30    3.31</time>
   <time name="diis">   98.59   99.00</time>
   <time name="orth">    0.79    0.79</time>
   <time name="total">  103.46  103.89</time>
   <energy>
    <i name="e_fr_energy">   -454.67794112 </i>
    <i name="e_wo_entrp">   -454.22775957 </i>
    <i name="e_0_energy">   -454.45285035 </i>
   </energy>
  </scstep>
  <scstep>
   <time name="diag">    3.31    3.31</time>
   <time name="diis">  100.74  100.96</time>
   <time name="orth">    0.81    0.81</time>
   <time name="total">  105.71  105.94</time>
   <energy>
    <i name="e_fr_energy">   -452.58841560 </i>
    <i name="e_wo_entrp">   -452.06386282 </i>
    <i name="e_0_energy">   -452.32613921 </i>
   </energy>
  </scstep>
  <scstep>
   <time name="diag">    3.26    3.27</time>
   <time name="diis">   97.56   98.02</time>
   <time name="orth">    0.79    0.79</time>
   <time name="total">  102.40  102.87</time>
   <energy>
    <i name="e_fr_energy">   -455.90537507 </i>
    <i name="e_wo_entrp">   -455.44152724 </i>
    <i name="e_0_energy">   -455.67345116 </i>
   </energy>
  </scstep>
  <scstep>
   <time name="diag">    3.30    3.35</time>
   <time name="diis">   94.14   94.43</time>
   <time name="orth">    0.80    0.80</time>
   <time name="total">   99.03   99.38</time>
   <energy>
    <i name="e_fr_energy">   -455.85055483 </i>
    <i name="e_wo_entrp">   -455.28526918 </i>
    <i name="e_0_energy">   -455.56791201 </i>
   </energy>
  </scstep>
  <scstep>
   <time name="diag">    3.31    3.32</time>
   <time name="diis">   97.32   97.63</time>
   <time name="orth">    0.79    0.79</time>
   <time name="total">  102.21  102.54</time>
   <energy>
    <i name="e_fr_energy">   -456.44073414 </i>
    <i name="e_wo_entrp">   -455.85907559 </i>
    <i name="e_0_energy">   -456.14990487 </i>
   </energy>
  </scstep>
  <scstep>
   <time name="diag">    3.28    3.28</time>
   <time name="diis">   96.14   96.66</time>
   <time name="orth">    0.79    0.79</time>
   <time name="total">  101.02  101.54</time>
   <energy>
    <i name="e_fr_energy">   -451.43257308 </i>
    <i name="e_wo_entrp">   -450.80035560 </i>
    <i name="e_0_energy">   -451.11646434 </i>
   </energy>
  </scstep>
  <scstep>
   <time name="diag">    3.31    3.31</time>
   <time name="diis">   93.76   94.16</time>
   <time name="orth">    0.81    0.81</time>
   <time name="total">   98.71   99.12</time>
   <energy>
    <i name="e_fr_energy">   -452.24189081 </i>
    <i name="e_wo_entrp">   -451.65010419 </i>
    <i name="e_0_energy">   -451.94599750 </i>
   </energy>
  </scstep>
  <scstep>
   <time name="diag">    3.31    3.32</time>
   <time name="diis">   93.33   93.91</time>
   <time name="orth">    0.79    0.79</time>
   <time name="total">   98.27   98.87</time>
   <energy>
    <i name="e_fr_energy">   -450.30136687 </i>
    <i name="e_wo_entrp">   -449.69140187 </i>
    <i name="e_0_energy">   -449.99638437 </i>
   </energy>
  </scstep>
  <scstep>
   <time name="diag">    3.30    3.30</time>
   <time name="diis">   96.63   97.13</time>
   <time name="orth">    0.80    0.80</time>
   <time name="total">  101.56  102.07</time>
   <energy>
    <i name="e_fr_energy">   -450.67086359 </i>
    <i name="e_wo_entrp">   -450.06720339 </i>
    <i name="e_0_energy">   -450.36903349 </i>
   </energy>
  </scstep>
  <scstep>
   <time name="diag">    3.29    3.30</time>
   <time name="diis">   95.75   95.99</time>
   <time name="orth">    0.79    0.79</time>
   <time name="total">  100.67  100.93</time>
   <energy>
    <i name="e_fr_energy">   -449.98539044 </i>
    <i name="e_wo_entrp">   -449.37727729 </i>
    <i name="e_0_energy">   -449.68133386 </i>
   </energy>
  </scstep>
  <scstep>
   <time name="diag">    3.34    3.36</time>
   <time name="diis">   96.40   96.75</time>
   <time name="orth">    0.79    0.79</time>
   <time name="total">  101.36  101.74</time>
   <energy>
    <i name="e_fr_energy">   -450.38637441 </i>
    <i name="e_wo_entrp">   -449.74821446 </i>
    <i name="e_0_energy">   -450.06729444 </i>
   </energy>
  </scstep>
  <scstep>
   <time name="diag">    3.29    3.30</time>
   <time name="diis">   96.63   96.85</time>
   <time name="orth">    0.79    0.79</time>
   <time name="total">  101.55  101.78</time>
   <energy>
    <i name="e_fr_energy">   -449.71695440 </i>
    <i name="e_wo_entrp">   -449.10697231 </i>
    <i name="e_0_energy">   -449.41196335 </i>
   </energy>
  </scstep>
  <scstep>
   <time name="diag">    3.30    3.31</time>
   <time name="diis">   99.17   99.46</time>
   <time name="orth">    0.79    0.79</time>
   <time name="total">  104.11  104.41</time>
   <energy>
    <i name="e_fr_energy">   -449.79108706 </i>
    <i name="e_wo_entrp">   -449.19162744 </i>
    <i name="e_0_energy">   -449.49135725 </i>
   </energy>
  </scstep>
  <scstep>
   <time name="diag">    3.27    3.28</time>
   <time name="diis">   99.60   99.97</time>
   <time name="orth">    0.79    0.79</time>
   <time name="total">  104.50  104.89</time>
   <energy>
    <i name="e_fr_energy">   -449.75127576 </i>
    <i name="e_wo_entrp">   -449.12904736 </i>
    <i name="e_0_energy">   -449.44016156 </i>
   </energy>
  </scstep>
  <scstep>
   <time name="diag">    3.31    3.33</time>
   <time name="diis">   99.03   99.40</time>
   <time name="orth">    0.79    0.79</time>
   <time name="total">  103.98  104.37</time>
   <energy>
    <i name="e_fr_energy">   -449.74964187 </i>
    <i name="e_wo_entrp">   -449.11201835 </i>
    <i name="e_0_energy">   -449.43083011 </i>
   </energy>
  </scstep>
  <scstep>
   <time name="diag">    3.30    3.30</time>
   <time name="diis">   99.32   99.75</time>
   <time name="orth">    0.80    0.80</time>
   <time name="total">  104.26  104.70</time>
   <energy>
    <i name="e_fr_energy">   -449.75032994 </i>
    <i name="e_wo_entrp">   -449.12371669 </i>
    <i name="e_0_energy">   -449.43702332 </i>
   </energy>
  </scstep>
  <scstep>
   <time name="diag">    3.27    3.29</time>
   <time name="diis">   98.88   99.20</time>
   <time name="orth">    0.80    0.80</time>
   <time name="total">  103.79  104.15</time>
   <energy>
    <i name="e_fr_energy">   -449.76601680 </i>
    <i name="e_wo_entrp">   -449.13979053 </i>
    <i name="e_0_energy">   -449.45290367 </i>
   </energy>
  </scstep>
  <scstep>
   <time name="diag">    3.28    3.28</time>
   <time name="diis">   97.91   98.29</time>
   <time name="orth">    0.79    0.80</time>
   <time name="total">  102.83  103.21</time>
   <energy>
    <i name="e_fr_energy">   -449.77795364 </i>
    <i name="e_wo_entrp">   -449.14291882 </i>
    <i name="e_0_energy">   -449.46043623 </i>
   </energy>
  </scstep>
  <scstep>
   <time name="diag">    3.29    3.29</time>
   <time name="diis">   97.86   98.18</time>
   <time name="orth">    0.78    0.78</time>
   <time name="total">  102.77  103.09</time>
   <energy>
    <i name="e_fr_energy">   -449.78795352 </i>
    <i name="e_wo_entrp">   -449.15002907 </i>
    <i name="e_0_energy">   -449.46899129 </i>
   </energy>
  </scstep>
  <scstep>
   <time name="diag">    3.30    3.30</time>
   <time name="diis">   94.84   95.24</time>
   <time name="orth">    0.79    0.79</time>
   <time name="total">   99.77  100.18</time>
   <energy>
    <i name="e_fr_energy">   -449.79833940 </i>
    <i name="e_wo_entrp">   -449.16054937 </i>
    <i name="e_0_energy">   -449.47944438 </i>
   </energy>
  </scstep>
  <scstep>
   <time name="diag">    3.29    3.29</time>
   <time name="diis">   93.18   93.35</time>
   <time name="orth">    0.79    0.79</time>
   <time name="total">   98.10   98.28</time>
   <energy>
    <i name="e_fr_energy">   -449.80703716 </i>
    <i name="e_wo_entrp">   -449.16825243 </i>
    <i name="e_0_energy">   -449.48764479 </i>
   </energy>
  </scstep>
  <scstep>
   <time name="diag">    3.29    3.30</time>
   <time name="diis">   89.65   89.94</time>
   <time name="orth">    0.80    0.80</time>
   <time name="total">   94.58   94.88</time>
   <energy>
    <i name="e_fr_energy">   -449.81492098 </i>
    <i name="e_wo_entrp">   -449.17498654 </i>
    <i name="e_0_energy">   -449.49495376 </i>
   </energy>
  </scstep>
  <scstep>
   <time name="diag">    3.28    3.29</time>
   <time name="diis">   89.26   89.43</time>
   <time name="orth">    0.82    0.82</time>
   <time name="total">   94.20   94.38</time>
   <energy>
    <i name="e_fr_energy">   -449.82143663 </i>
    <i name="e_wo_entrp">   -449.18031478 </i>
    <i name="e_0_energy">   -449.50087570 </i>
   </energy>
  </scstep>
  <scstep>
   <time name="diag">    3.32    3.32</time>
   <time name="diis">   85.19   85.44</time>
   <time name="orth">    0.79    0.79</time>
   <time name="total">   90.14   90.40</time>
   <energy>
    <i name="e_fr_energy">   -449.82687365 </i>
    <i name="e_wo_entrp">   -449.18541995 </i>
    <i name="e_0_energy">   -449.50614680 </i>
   </energy>
  </scstep>
  <scstep>
   <time name="diag">    3.29    3.31</time>
   <time name="diis">   88.01   88.28</time>
   <time name="orth">    0.79    0.80</time>
   <time name="total">   92.94   93.23</time>
   <energy>
    <i name="e_fr_energy">   -449.83164352 </i>
    <i name="e_wo_entrp">   -449.18927550 </i>
    <i name="e_0_energy">   -449.51045951 </i>
   </energy>
  </scstep>
  <scstep>
   <time name="diag">    3.29    3.30</time>
   <time name="diis">   88.37   88.70</time>
   <time name="orth">    0.79    0.79</time>
   <time name="total">   93.31   93.65</time>
   <energy>
    <i name="e_fr_energy">   -449.83576619 </i>
    <i name="e_wo_entrp">   -449.19292659 </i>
    <i name="e_0_energy">   -449.51434639 </i>
   </energy>
  </scstep>
  <scstep>
   <time name="diag">    3.29    3.30</time>
   <time name="diis">   83.30   83.60</time>
   <time name="orth">    0.79    0.79</time>
   <time name="total">   88.24   88.56</time>
   <energy>
    <i name="e_fr_energy">   -449.83928551 </i>
    <i name="e_wo_entrp">   -449.19540292 </i>
    <i name="e_0_energy">   -449.51734422 </i>
   </energy>
  </scstep>
  <scstep>
   <time name="diag">    3.29    3.31</time>
   <time name="diis">   80.00   80.30</time>
   <time name="orth">    0.80    0.80</time>
   <time name="total">   84.93   85.25</time>
   <energy>
    <i name="e_fr_energy">   -449.84227085 </i>
    <i name="e_wo_entrp">   -449.19765683 </i>
    <i name="e_0_energy">   -449.51996384 </i>
   </energy>
  </scstep>
  <scstep>
   <time name="diag">    3.29    3.31</time>
   <time name="diis">   80.14   80.37</time>
   <time name="orth">    0.79    0.79</time>
   <time name="total">   85.07   85.33</time>
   <energy>
    <i name="e_fr_energy">   -449.84487274 </i>
    <i name="e_wo_entrp">   -449.19956071 </i>
    <i name="e_0_energy">   -449.52221672 </i>
   </energy>
  </scstep>
  <scstep>
   <time name="diag">    3.30    3.31</time>
   <time name="diis">   78.28   78.63</time>
   <time name="orth">    0.78    0.78</time>
   <time name="total">   83.20   83.57</time>
   <energy>
    <i name="e_fr_energy">   -449.84711659 </i>
    <i name="e_wo_entrp">   -449.20104817 </i>
    <i name="e_0_energy">   -449.52408238 </i>
   </energy>
  </scstep>
  <scstep>
   <time name="diag">    3.29    3.29</time>
   <time name="diis">   78.77   78.89</time>
   <time name="orth">    0.81    0.81</time>
   <time name="total">   83.70   83.83</time>
   <energy>
    <i name="e_fr_energy">   -449.84906366 </i>
    <i name="e_wo_entrp">   -449.20242811 </i>
    <i name="e_0_energy">   -449.52574588 </i>
   </energy>
  </scstep>
  <scstep>
   <time name="diag">    3.30    3.30</time>
   <time name="diis">   72.25   73.40</time>
   <time name="orth">    0.80    0.80</time>
   <time name="total">   77.18   78.34</time>
   <energy>
    <i name="e_fr_energy">   -449.85074929 </i>
    <i name="e_wo_entrp">   -449.20349321 </i>
    <i name="e_0_energy">   -449.52712125 </i>
   </energy>
  </scstep>
  <scstep>
   <time name="diag">    3.29    3.29</time>
   <time name="diis">   70.84   70.96</time>
   <time name="orth">    0.82    0.82</time>
   <time name="total">   75.80   75.93</time>
   <energy>
    <i name="e_fr_energy">   -449.85221641 </i>
    <i name="e_wo_entrp">   -449.20443885 </i>
    <i name="e_0_energy">   -449.52832763 </i>
   </energy>
  </scstep>
  <scstep>
   <time name="diag">    3.29    3.29</time>
   <time name="diis">   69.81   70.02</time>
   <time name="orth">    0.80    0.81</time>
   <time name="total">   74.73   74.96</time>
   <energy>
    <i name="e_fr_energy">   -449.85348453 </i>
    <i name="e_wo_entrp">   -449.20540622 </i>
    <i name="e_0_energy">   -449.52944537 </i>
   </energy>
  </scstep>
  <scstep>
   <time name="diag">    3.26    3.27</time>
   <time name="diis">   69.06   69.21</time>
   <time name="orth">    0.79    0.79</time>
   <time name="total">   73.95   74.11</time>
   <energy>
    <i name="e_fr_energy">   -449.85459081 </i>
    <i name="e_wo_entrp">   -449.20614949 </i>
    <i name="e_0_energy">   -449.53037015 </i>
   </energy>
  </scstep>
  <scstep>
   <time name="diag">    3.27    3.27</time>
   <time name="diis">   66.33   66.56</time>
   <time name="orth">    0.79    0.79</time>
   <time name="total">   71.24   71.47</time>
   <energy>
    <i name="e_fr_energy">   -449.85555150 </i>
    <i name="e_wo_entrp">   -449.20674771 </i>
    <i name="e_0_energy">   -449.53114961 </i>
   </energy>
  </scstep>
  <scstep>
   <time name="diag">    3.31    3.33</time>
   <time name="diis">   57.39   57.59</time>
   <time name="orth">    0.79    0.79</time>
   <time name="total">   62.36   62.58</time>
   <energy>
    <i name="e_fr_energy">   -449.85641169 </i>
    <i name="e_wo_entrp">   -449.20746825 </i>
    <i name="e_0_energy">   -449.53193997 </i>
   </energy>
  </scstep>
  <scstep>
   <time name="diag">    3.28    3.32</time>
   <time name="diis">   61.46   61.59</time>
   <time name="orth">    0.79    0.79</time>
   <time name="total">   66.40   66.58</time>
   <energy>
    <i name="e_fr_energy">   -449.85713864 </i>
    <i name="e_wo_entrp">   -449.20789859 </i>
    <i name="e_0_energy">   -449.53251861 </i>
   </energy>
  </scstep>
  <scstep>
   <time name="diag">    3.28    3.28</time>
   <time name="diis">   59.25   59.43</time>
   <time name="orth">    0.79    0.79</time>
   <time name="total">   64.15   64.35</time>
   <energy>
    <i name="e_fr_energy">   -449.85777692 </i>
    <i name="e_wo_entrp">   -449.20825722 </i>
    <i name="e_0_energy">   -449.53301707 </i>
   </energy>
  </scstep>
  <scstep>
   <time name="diag">    3.29    3.30</time>
   <time name="diis">   67.37   67.60</time>
   <time name="orth">    0.79    0.79</time>
   <time name="total">   72.29   72.54</time>
   <energy>
    <i name="e_fr_energy">   -449.85832088 </i>
    <i name="e_wo_entrp">   -449.20843634 </i>
    <i name="e_0_energy">   -449.53337861 </i>
   </energy>
  </scstep>
  <scstep>
   <time name="diag">    3.28    3.28</time>
   <time name="diis">   59.18   59.29</time>
   <time name="orth">    0.79    0.79</time>
   <time name="total">   64.11   64.22</time>
   <energy>
    <i name="e_fr_energy">   -449.85881543 </i>
    <i name="e_wo_entrp">   -449.20872706 </i>
    <i name="e_0_energy">   -449.53377124 </i>
   </energy>
  </scstep>
  <scstep>
   <time name="diag">    3.29    3.30</time>
   <time name="diis">   73.71   74.09</time>
   <time name="orth">    0.80    0.82</time>
   <time name="total">   78.65   79.05</time>
   <energy>
    <i name="e_fr_energy">   -449.85922318 </i>
    <i name="e_wo_entrp">   -449.20884965 </i>
    <i name="e_0_energy">   -449.53403642 </i>
   </energy>
  </scstep>
  <scstep>
   <time name="diag">    3.28    3.28</time>
   <time name="diis">   72.12   72.41</time>
   <time name="orth">    0.80    0.81</time>
   <time name="total">   77.05   77.35</time>
   <energy>
    <i name="e_fr_energy">   -449.85959412 </i>
    <i name="e_wo_entrp">   -449.20894810 </i>
    <i name="e_0_energy">   -449.53427111 </i>
   </energy>
  </scstep>
  <scstep>
   <time name="diag">    3.27    3.28</time>
   <time name="diis">   63.47   63.59</time>
   <time name="orth">    0.81    0.81</time>
   <time name="total">   68.40   68.54</time>
   <energy>
    <i name="e_fr_energy">   -449.85991993 </i>
    <i name="e_wo_entrp">   -449.20908648 </i>
    <i name="e_0_energy">   -449.53450321 </i>
   </energy>
  </scstep>
  <scstep>
   <time name="diag">    3.29    3.29</time>
   <time name="diis">   56.17   56.26</time>
   <time name="orth">    0.79    0.79</time>
   <time name="total">   61.10   61.19</time>
   <energy>
    <i name="e_fr_energy">   -449.86021007 </i>
    <i name="e_wo_entrp">   -449.20921096 </i>
    <i name="e_0_energy">   -449.53471051 </i>
   </energy>
  </scstep>
  <scstep>
   <time name="diag">    3.32    3.32</time>
   <time name="diis">   57.23   57.32</time>
   <time name="orth">    0.79    0.79</time>
   <time name="total">   62.20   62.30</time>
   <energy>
    <i name="e_fr_energy">   -449.86046411 </i>
    <i name="e_wo_entrp">   -449.20931004 </i>
    <i name="e_0_energy">   -449.53488708 </i>
   </energy>
  </scstep>
  <scstep>
   <time name="diag">    3.29    3.29</time>
   <time name="diis">   54.96   55.14</time>
   <time name="orth">    0.79    0.79</time>
   <time name="total">   59.88   60.06</time>
   <energy>
    <i name="e_fr_energy">   -449.86068218 </i>
    <i name="e_wo_entrp">   -449.20935986 </i>
    <i name="e_0_energy">   -449.53502102 </i>
   </energy>
  </scstep>
  <scstep>
   <time name="diag">    3.28    3.29</time>
   <time name="diis">   54.59   54.76</time>
   <time name="orth">    0.78    0.78</time>
   <time name="total">   59.50   59.69</time>
   <energy>
    <i name="e_fr_energy">   -449.86087287 </i>
    <i name="e_wo_entrp">   -449.20940532 </i>
    <i name="e_0_energy">   -449.53513910 </i>
   </energy>
  </scstep>
  <scstep>
   <time name="diag">    3.27    3.28</time>
   <time name="diis">   55.23   55.38</time>
   <time name="orth">    0.79    0.79</time>
   <time name="total">   60.16   60.31</time>
   <energy>
    <i name="e_fr_energy">   -449.86104646 </i>
    <i name="e_wo_entrp">   -449.20947342 </i>
    <i name="e_0_energy">   -449.53525994 </i>
   </energy>
  </scstep>
  <scstep>
   <time name="diag">    3.27    3.27</time>
   <time name="diis">   54.70   54.80</time>
   <time name="orth">    0.79    0.79</time>
   <time name="total">   59.59   59.71</time>
   <energy>
    <i name="e_fr_energy">   -449.86119877 </i>
    <i name="e_wo_entrp">   -449.20954171 </i>
    <i name="e_0_energy">   -449.53537024 </i>
   </energy>
  </scstep>
  <scstep>
   <time name="diag">    3.27    3.27</time>
   <time name="diis">   53.84   53.99</time>
   <time name="orth">    0.79    0.79</time>
   <time name="total">   58.76   58.90</time>
   <energy>
    <i name="e_fr_energy">   -449.86133147 </i>
    <i name="e_wo_entrp">   -449.20958242 </i>
    <i name="e_0_energy">   -449.53545695 </i>
   </energy>
  </scstep>
  <scstep>
   <time name="diag">    3.31    3.32</time>
   <time name="diis">   54.41   54.49</time>
   <time name="orth">    0.79    0.79</time>
   <time name="total">   58.57   58.65</time>
   <energy>
    <i name="alphaZ">   2170.96032927 </i>
    <i name="ewald"> -36509.19279989 </i>
    <i name="hartreedc"> -13194.73731333 </i>
    <i name="XCdc">   2005.73173222 </i>
    <i name="pawpsdc">  32060.80266116 </i>
    <i name="pawaedc"> -31850.52493917 </i>
    <i name="eentropy">     -0.65185192 </i>
    <i name="bandstr">  -9303.81903235 </i>
    <i name="atom">  54171.56976881 </i>
    <i name="e_fr_energy">   -449.86144521 </i>
    <i name="e_wo_entrp">   -449.20959329 </i>
    <i name="e_0_energy">   -449.53551925 </i>
   </energy>
  </scstep>
  <structure>
   <crystal>
    <varray name="basis" >
     <v>      11.23999977       0.00000000       0.00000000 </v>
     <v>       0.00000000      11.23999977       0.00000000 </v>
     <v>       0.00000000       0.00000000      11.23999977 </v>
    </varray>
    <i name="volume">   1420.03453724 </i>
    <varray name="rec_basis" >
     <v>       0.08896797       0.00000000       0.00000000 </v>
     <v>       0.00000000       0.08896797       0.00000000 </v>
     <v>       0.00000000       0.00000000       0.08896797 </v>
    </varray>
   </crystal>
   <varray name="positions" >
    <v>       0.00000000       0.00000000       0.00000000 </v>
    <v>       0.25000000       0.00000000       0.25000000 </v>
    <v>       0.25000000       0.50000000       0.25000000 </v>
    <v>       0.50000000       0.50000000       0.00000000 </v>
    <v>       0.50000000       0.25000000       0.75000004 </v>
    <v>       0.00000000       0.50000000       0.50000000 </v>
    <v>       0.50000000       0.75000004       0.75000004 </v>
    <v>       0.00000000       0.25000000       0.25000000 </v>
    <v>       0.75000004       0.75000004       0.00000000 </v>
    <v>       0.00000000       0.25000000       0.75000004 </v>
    <v>       0.75000004       0.25000000       0.50000000 </v>
    <v>       0.00000000       0.75000004       0.75000004 </v>
    <v>       0.25000000       0.50000000       0.75000004 </v>
    <v>       0.25000000       0.25000000       0.00000000 </v>
    <v>       0.50000000       0.25000000       0.25000000 </v>
    <v>       0.75000004       0.00000000       0.25000000 </v>
    <v>       0.75000004       0.25000000       0.00000000 </v>
    <v>       0.25000000       0.75000004       0.00000000 </v>
    <v>       0.25000000       0.25000000       0.50000000 </v>
    <v>       0.25000000       0.75000004       0.50000000 </v>
    <v>       0.25000000       0.25000000       0.25000000 </v>
    <v>       0.25000000       0.00000000       0.00000000 </v>
    <v>       0.00000000       0.25000000       0.00000000 </v>
    <v>       0.75000004       0.25000000       0.25000000 </v>
    <v>       0.75000004       0.00000000       0.00000000 </v>
    <v>       0.50000000       0.00000000       0.25000000 </v>
    <v>       0.00000000       0.50000000       0.25000000 </v>
    <v>       0.50000000       0.75000004       0.00000000 </v>
    <v>       0.00000000       0.00000000       0.75000004 </v>
    <v>       0.75000004       0.25000000       0.75000004 </v>
    <v>       0.75000004       0.00000000       0.50000000 </v>
    <v>       0.50000000       0.25000000       0.50000000 </v>
    <v>       0.50000000       0.00000000       0.75000004 </v>
    <v>       0.00000000       0.00000000       0.25000000 </v>
    <v>       0.50000000       0.25000000       0.00000000 </v>
    <v>       0.25000000       0.75000004       0.25000000 </v>
    <v>       0.25000000       0.50000000       0.00000000 </v>
    <v>       0.00000000       0.75000004       0.00000000 </v>
    <v>       0.75000004       0.75000004       0.25000000 </v>
    <v>       0.75000004       0.50000000       0.00000000 </v>
    <v>       0.50000000       0.50000000       0.25000000 </v>
    <v>       0.25000000       0.25000000       0.75000004 </v>
    <v>       0.25000000       0.00000000       0.50000000 </v>
    <v>       0.00000000       0.25000000       0.50000000 </v>
    <v>       0.25000000       0.75000004       0.75000004 </v>
    <v>       0.25000000       0.50000000       0.50000000 </v>
    <v>       0.00000000       0.75000004       0.50000000 </v>
    <v>       0.00000000       0.50000000       0.75000004 </v>
    <v>       0.75000004       0.75000004       0.75000004 </v>
    <v>       0.75000004       0.50000000       0.50000000 </v>
    <v>       0.50000000       0.75000004       0.50000000 </v>
    <v>       0.50000000       0.50000000       0.75000004 </v>
    <v>       0.50000000       0.00000000       0.00000000 </v>
    <v>       0.00000000       0.50000000       0.00000000 </v>
    <v>       0.50000000       0.75000004       0.25000000 </v>
    <v>       0.25000000       0.00000000       0.75000004 </v>
    <v>       0.50000000       0.00000000       0.50000000 </v>
    <v>       0.75000004       0.00000000       0.75000004 </v>
    <v>       0.00000000       0.75000004       0.25000000 </v>
    <v>       0.75000004       0.50000000       0.25000000 </v>
    <v>       0.00000000       0.00000000       0.50000000 </v>
    <v>       0.50000000       0.50000000       0.50000000 </v>
    <v>       0.75000004       0.50000000       0.75000004 </v>
    <v>       0.75000004       0.75000004       0.50000000 </v>
   </varray>
  </structure>
  <varray name="forces" >
   <v>      -0.03793051      -0.18045431       0.24911917 </v>
   <v>      -0.16154768      -0.12857577       0.22781029 </v>
   <v>       0.30283396       0.14003564      -0.01821422 </v>
   <v>      -0.02162496      -0.29421739       0.01421649 </v>
   <v>      -0.27060728       0.18376965       0.25131395 </v>
   <v>       0.07786593      -0.08808110       0.30263687 </v>
   <v>      -0.05167422      -0.17480715      -0.22690372 </v>
   <v>      -0.00045908      -0.67633104       0.52217571 </v>
   <v>       0.51787503      -0.42884002      -0.01876198 </v>
   <v>       0.52288422       0.47047262      -0.55265174 </v>
   <v>       0.55722048       0.49100970      -0.02513406 </v>
   <v>       0.02373134      -0.45942339       0.05826759 </v>
   <v>      -0.01453854       0.02959709       0.05452588 </v>
   <v>       0.23249633       0.27796131      -0.27839577 </v>
   <v>      -0.00519596       0.24431889      -0.32532695 </v>
   <v>       0.25040170      -0.30180035      -0.04099128 </v>
   <v>      -0.25703617       0.28986749       0.01549356 </v>
   <v>      -0.37191414      -0.30610756      -0.02100743 </v>
   <v>      -0.35881247       0.00533795       0.28573725 </v>
   <v>      -0.02009397       0.00453819       0.03729575 </v>
   <v>      -0.57653295      -0.02211264      -0.02360318 </v>
   <v>       0.30479607       0.01776260      -0.23823274 </v>
   <v>      -0.01062607       0.23492482       0.02721604 </v>
   <v>       0.50014189       0.61205130       0.51503210 </v>
   <v>      -0.29390998      -0.38974949      -0.41790695 </v>
   <v>      -0.12295482      -0.35552093      -0.03400648 </v>
   <v>      -0.49369445       0.17952865      -0.25481824 </v>
   <v>       0.42802322       0.32406783       0.21374301 </v>
   <v>      -0.04129380       0.02289461      -0.42895211 </v>
   <v>       0.23793301       0.17127811      -0.45377249 </v>
   <v>       0.26155548      -0.15744299       0.35093459 </v>
   <v>       0.46533180       0.23161776       0.14917657 </v>
   <v>       0.04072593       0.02502748       0.03074761 </v>
   <v>       0.02514649      -0.01748094       0.53387479 </v>
   <v>       0.01722099      -0.46141277      -0.05252082 </v>
   <v>      -0.22871100       0.00597556      -0.02906160 </v>
   <v>      -0.37794263      -0.01758897      -0.44464579 </v>
   <v>      -0.51616768      -0.28008512       0.07039697 </v>
   <v>       0.18907298      -0.55433079       0.07202564 </v>
   <v>       0.32003962       0.48026380       0.05219770 </v>
   <v>       0.60036232       0.34102488       0.54033228 </v>
   <v>      -0.55947607       0.11746366       0.01758428 </v>
   <v>      -0.24856317       0.03058291       0.32252042 </v>
   <v>      -0.57124759      -0.52298546      -0.00964816 </v>
   <v>      -0.45035048      -0.11943659       0.02004199 </v>
   <v>       0.54942613      -0.03214510       0.43872929 </v>
   <v>      -0.57359612       0.53464294      -0.07718104 </v>
   <v>      -0.08941348      -0.03749132       0.31561325 </v>
   <v>       0.37110284      -0.16813431      -0.07363368 </v>
   <v>      -0.45865312       0.02145359      -0.04344311 </v>
   <v>       0.58823800      -0.19475019      -0.27761262 </v>
   <v>       0.12813901      -0.03351597      -0.53751375 </v>
   <v>       0.07677147       0.49113384       0.05532436 </v>
   <v>       0.05061341       0.23112730      -0.44263332 </v>
   <v>       0.01358666      -0.23393084       0.29269598 </v>
   <v>      -0.00899959      -0.02091329      -0.35108049 </v>
   <v>      -0.45766863      -0.37145660      -0.05418717 </v>
   <v>       0.04733195      -0.39944344       0.08082864 </v>
   <v>       0.05116257       0.53184136      -0.04454129 </v>
   <v>      -0.42611436       0.25579708      -0.09129186 </v>
   <v>       0.45034805       0.11535915      -0.28796586 </v>
   <v>      -0.11246644       0.31305319      -0.02953185 </v>
   <v>      -0.03708001       0.37923182       0.08338087 </v>
   <v>       0.02451855      -0.37644693       0.00418287 </v>
  </varray>
  <varray name="stress" >
   <v>    -429.44738139       0.25915151       0.16509998 </v>
   <v>       0.25915173    -429.39724539       0.24564024 </v>
   <v>       0.16509998       0.24564068    -429.50424170 </v>
  </varray>
  <energy>
   <i name="e_fr_energy">   -449.86144521 </i>
   <i name="e_wo_entrp">   -449.53551925 </i>
   <i name="e_0_energy">     -0.65185192 </i>
  </energy>
  <time name="totalsc"> 5529.30 5548.95</time>
 </calculation>
 <calculation>
  <scstep>
   <time name="dav">   98.70   98.99</time>
   <time name="total">   99.43   99.72</time>
   <energy>
    <i name="alphaZ">   5987.23428237 </i>
    <i name="ewald"> -51238.07423158 </i>
    <i name="hartreedc"> -18459.94854061 </i>
    <i name="XCdc">   2840.09168972 </i>
    <i name="pawpsdc">  32060.82012577 </i>
    <i name="pawaedc"> -31850.54162700 </i>
    <i name="eentropy">     -0.03843449 </i>
    <i name="bandstr">   1852.21468629 </i>
    <i name="atom">  54171.56976881 </i>
    <i name="e_fr_energy">  -4636.67228072 </i>
    <i name="e_wo_entrp">  -4636.63384623 </i>
    <i name="e_0_energy">  -4636.65306348 </i>
   </energy>
  </scstep>
  <scstep>
   <time name="diag">    3.29    3.32</time>
   <time name="diis">   98.33   98.63</time>
   <time name="orth">    0.79    0.79</time>
   <time name="total">  103.17  103.49</time>
   <energy>
    <i name="e_fr_energy">  -1455.85204911 </i>
    <i name="e_wo_entrp">  -1455.78195347 </i>
    <i name="e_0_energy">  -1455.81700129 </i>
   </energy>
  </scstep>
  <scstep>
   <time name="diag">    3.30    3.31</time>
   <time name="diis">   71.32   71.61</time>
   <time name="orth">    0.79    0.80</time>
   <time name="total">   76.17   76.48</time>
   <energy>
    <i name="e_fr_energy">   -580.83403274 </i>
    <i name="e_wo_entrp">   -580.72815224 </i>
    <i name="e_0_energy">   -580.78109249 </i>
   </energy>
  </scstep>
  <scstep>
   <time name="diag">    3.32    3.32</time>
   <time name="diis">   94.45   94.66</time>
   <time name="orth">    0.79    0.79</time>
   <time name="total">   99.31   99.53</time>
   <energy>
    <i name="e_fr_energy">   -670.66389322 </i>
    <i name="e_wo_entrp">   -670.55680317 </i>
    <i name="e_0_energy">   -670.61034820 </i>
   </energy>
  </scstep>
  <scstep>
   <time name="diag">    3.32    3.32</time>
   <time name="diis">  103.72  103.97</time>
   <time name="orth">    0.79    0.79</time>
   <time name="total">  108.57  108.82</time>
   <energy>
    <i name="e_fr_energy">   -614.75728896 </i>
    <i name="e_wo_entrp">   -614.69217349 </i>
    <i name="e_0_energy">   -614.72473123 </i>
   </energy>
  </scstep>
  <scstep>
   <time name="diag">    3.29    3.30</time>
   <time name="diis">  106.25  106.74</time>
   <time name="orth">    0.79    0.80</time>
   <time name="total">  111.08  111.59</time>
   <energy>
    <i name="e_fr_energy">   -598.69282458 </i>
    <i name="e_wo_entrp">   -598.56835492 </i>
    <i name="e_0_energy">   -598.63058975 </i>
   </energy>
  </scstep>
  <scstep>
   <time name="diag">    3.31    3.33</time>
   <time name="diis">  108.59  108.92</time>
   <time name="orth">    0.80    0.80</time>
   <time name="total">  113.44  113.79</time>
   <energy>
    <i name="e_fr_energy">   -606.24382360 </i>
    <i name="e_wo_entrp">   -606.12643764 </i>
    <i name="e_0_energy">   -606.18513062 </i>
   </energy>
  </scstep>
  <scstep>
   <time name="diag">    3.37    3.39</time>
   <time name="diis">  111.27  111.65</time>
   <time name="orth">    0.80    0.80</time>
   <time name="total">  116.18  116.58</time>
   <energy>
    <i name="e_fr_energy">   -603.88894024 </i>
    <i name="e_wo_entrp">   -603.76646442 </i>
    <i name="e_0_energy">   -603.82770233 </i>
   </energy>
  </scstep>
  <scstep>
   <time name="diag">    3.29    3.30</time>
   <time name="diis">  107.78  108.05</time>
   <time name="orth">    0.81    0.81</time>
   <time name="total">  112.64  112.92</time>
   <energy>
    <i name="e_fr_energy">   -603.13515134 </i>
    <i name="e_wo_entrp">   -603.02531464 </i>
    <i name="e_0_energy">   -603.08023299 </i>
   </energy>
  </scstep>
  <scstep>
   <time name="diag">    3.27    3.27</time>
   <time name="diis">  113.56  113.77</time>
   <time name="orth">    0.79    0.80</time>
   <time name="total">  118.36  118.58</time>
   <energy>
    <i name="e_fr_energy">   -604.60209498 </i>
    <i name="e_wo_entrp">   -604.49960712 </i>
    <i name="e_0_energy">   -604.55085105 </i>
   </energy>
  </scstep>
  <scstep>
   <time name="diag">    3.30    3.30</time>
   <time name="diis">  111.81  112.07</time>
   <time name="orth">    0.81    0.81</time>
   <time name="total">  116.67  116.94</time>
   <energy>
    <i name="e_fr_energy">   -605.06590091 </i>
    <i name="e_wo_entrp">   -604.94881415 </i>
    <i name="e_0_energy">   -605.00735753 </i>
   </energy>
  </scstep>
  <scstep>
   <time name="diag">    3.30    3.31</time>
   <time name="diis">  113.37  113.55</time>
   <time name="orth">    0.79    0.79</time>
   <time name="total">  118.20  118.39</time>
   <energy>
    <i name="e_fr_energy">   -605.71219166 </i>
    <i name="e_wo_entrp">   -605.60324690 </i>
    <i name="e_0_energy">   -605.65771928 </i>
   </energy>
  </scstep>
  <scstep>
   <time name="diag">    3.29    3.29</time>
   <time name="diis">  112.69  113.19</time>
   <time name="orth">    0.79    0.79</time>
   <time name="total">  117.51  118.01</time>
   <energy>
    <i name="e_fr_energy">   -606.12942165 </i>
    <i name="e_wo_entrp">   -606.01144622 </i>
    <i name="e_0_energy">   -606.07043394 </i>
   </energy>
  </scstep>
  <scstep>
   <time name="diag">    3.31    3.31</time>
   <time name="diis">  113.17  113.39</time>
   <time name="orth">    0.79    0.79</time>
   <time name="total">  118.02  118.23</time>
   <energy>
    <i name="e_fr_energy">   -606.44876671 </i>
    <i name="e_wo_entrp">   -606.33666825 </i>
    <i name="e_0_energy">   -606.39271748 </i>
   </energy>
  </scstep>
  <scstep>
   <time name="diag">    3.29    3.30</time>
   <time name="diis">  111.72  112.04</time>
   <time name="orth">    0.80    0.80</time>
   <time name="total">  116.57  116.90</time>
   <energy>
    <i name="e_fr_energy">   -606.40548728 </i>
    <i name="e_wo_entrp">   -606.28973878 </i>
    <i name="e_0_energy">   -606.34761303 </i>
   </energy>
  </scstep>
  <scstep>
   <time name="diag">    3.31    3.31</time>
   <time name="diis">  113.24  113.76</time>
   <time name="orth">    0.79    0.79</time>
   <time name="total">  118.08  118.61</time>
   <energy>
    <i name="e_fr_energy">   -606.43726697 </i>
    <i name="e_wo_entrp">   -606.32088592 </i>
    <i name="e_0_energy">   -606.37907644 </i>
   </energy>
  </scstep>
  <scstep>
   <time name="diag">    3.26    3.26</time>
   <time name="diis">  114.98  115.29</time>
   <time name="orth">    0.79    0.79</time>
   <time name="total">  119.77  120.08</time>
   <energy>
    <i name="e_fr_energy">   -606.45575293 </i>
    <i name="e_wo_entrp">   -606.34023102 </i>
    <i name="e_0_energy">   -606.39799197 </i>
   </energy>
  </scstep>
  <scstep>
   <time name="diag">    3.29    3.29</time>
   <time name="diis">  117.44  117.72</time>
   <time name="orth">    0.79    0.79</time>
   <time name="total">  122.26  122.55</time>
   <energy>
    <i name="e_fr_energy">   -606.46634543 </i>
    <i name="e_wo_entrp">   -606.35044359 </i>
    <i name="e_0_energy">   -606.40839451 </i>
   </energy>
  </scstep>
  <scstep>
   <time name="diag">    3.27    3.28</time>
   <time name="diis">  113.57  114.90</time>
   <time name="orth">    0.79    0.79</time>
   <time name="total">  118.39  119.72</time>
   <energy>
    <i name="e_fr_energy">   -606.47402371 </i>
    <i name="e_wo_entrp">   -606.35842110 </i>
    <i name="e_0_energy">   -606.41622240 </i>
   </energy>
  </scstep>
  <scstep>
   <time name="diag">    3.27    3.28</time>
   <time name="diis">  116.81  117.10</time>
   <time name="orth">    0.79    0.80</time>
   <time name="total">  121.62  121.92</time>
   <energy>
    <i name="e_fr_energy">   -606.47885427 </i>
    <i name="e_wo_entrp">   -606.36285502 </i>
    <i name="e_0_energy">   -606.42085464 </i>
   </energy>
  </scstep>
  <scstep>
   <time name="diag">    3.29    3.30</time>
   <time name="diis">  114.21  114.74</time>
   <time name="orth">    0.79    0.79</time>
   <time name="total">  119.04  119.58</time>
   <energy>
    <i name="e_fr_energy">   -606.48192951 </i>
    <i name="e_wo_entrp">   -606.36607388 </i>
    <i name="e_0_energy">   -606.42400169 </i>
   </energy>
  </scstep>
  <scstep>
   <time name="diag">    3.29    3.29</time>
   <time name="diis">  114.64  114.86</time>
   <time name="orth">    0.78    0.78</time>
   <time name="total">  119.46  119.68</time>
   <energy>
    <i name="e_fr_energy">   -606.48337283 </i>
    <i name="e_wo_entrp">   -606.36755690 </i>
    <i name="e_0_energy">   -606.42546487 </i>
   </energy>
  </scstep>
  <scstep>
   <time name="diag">    3.29    3.29</time>
   <time name="diis">  112.31  112.70</time>
   <time name="orth">    0.79    0.79</time>
   <time name="total">  117.14  117.53</time>
   <energy>
    <i name="e_fr_energy">   -606.48450890 </i>
    <i name="e_wo_entrp">   -606.36863570 </i>
    <i name="e_0_energy">   -606.42657230 </i>
   </energy>
  </scstep>
  <scstep>
   <time name="diag">    3.29    3.29</time>
   <time name="diis">  112.39  112.82</time>
   <time name="orth">    0.79    0.79</time>
   <time name="total">  117.20  117.65</time>
   <energy>
    <i name="e_fr_energy">   -606.48517658 </i>
    <i name="e_wo_entrp">   -606.36933195 </i>
    <i name="e_0_energy">   -606.42725426 </i>
   </energy>
  </scstep>
  <scstep>
   <time name="diag">    3.28    3.28</time>
   <time name="diis">  110.95  111.34</time>
   <time name="orth">    0.79    0.79</time>
   <time name="total">  115.77  116.16</time>
   <energy>
    <i name="e_fr_energy">   -606.48562884 </i>
    <i name="e_wo_entrp">   -606.36976318 </i>
    <i name="e_0_energy">   -606.42769601 </i>
   </energy>
  </scstep>
  <scstep>
   <time name="diag">    3.29    3.30</time>
   <time name="diis">  111.61  111.99</time>
   <time name="orth">    0.79    0.79</time>
   <time name="total">  116.44  116.82</time>
   <energy>
    <i name="e_fr_energy">   -606.48590968 </i>
    <i name="e_wo_entrp">   -606.37004449 </i>
    <i name="e_0_energy">   -606.42797708 </i>
   </energy>
  </scstep>
  <scstep>
   <time name="diag">    3.28    3.28</time>
   <time name="diis">  108.73  109.07</time>
   <time name="orth">    0.79    0.79</time>
   <time name="total">  113.54  113.88</time>
   <energy>
    <i name="e_fr_energy">   -606.48610481 </i>
    <i name="e_wo_entrp">   -606.37023099 </i>
    <i name="e_0_energy">   -606.42816790 </i>
   </energy>
  </scstep>
  <scstep>
   <time name="diag">    3.27    3.28</time>
   <time name="diis">  108.10  108.39</time>
   <time name="orth">    0.80    0.80</time>
   <time name="total">  112.93  113.22</time>
   <energy>
    <i name="e_fr_energy">   -606.48622658 </i>
    <i name="e_wo_entrp">   -606.37035127 </i>
    <i name="e_0_energy">   -606.42828893 </i>
   </energy>
  </scstep>
  <scstep>
   <time name="diag">    3.30    3.30</time>
   <time name="diis">  103.43  103.69</time>
   <time name="orth">    0.79    0.79</time>
   <time name="total">  108.29  108.55</time>
   <energy>
    <i name="e_fr_energy">   -606.48631055 </i>
    <i name="e_wo_entrp">   -606.37043423 </i>
    <i name="e_0_energy">   -606.42837239 </i>
   </energy>
  </scstep>
  <scstep>
   <time name="diag">    3.32    3.32</time>
   <time name="diis">   99.74   99.94</time>
   <time name="orth">    0.79    0.79</time>
   <time name="total">  104.61  104.81</time>
   <energy>
    <i name="e_fr_energy">   -606.48636427 </i>
    <i name="e_wo_entrp">   -606.37049033 </i>
    <i name="e_0_energy">   -606.42842730 </i>
   </energy>
  </scstep>
  <scstep>
   <time name="diag">    3.29    3.30</time>
   <time name="diis">   92.32   92.57</time>
   <time name="orth">    0.80    0.80</time>
   <time name="total">   97.16   97.42</time>
   <energy>
    <i name="e_fr_energy">   -606.48640081 </i>
    <i name="e_wo_entrp">   -606.37052683 </i>
    <i name="e_0_energy">   -606.42846382 </i>
   </energy>
  </scstep>
  <scstep>
   <time name="diag">    3.30    3.30</time>
   <time name="diis">   88.30   88.43</time>
   <time name="orth">    0.80    0.80</time>
   <time name="total">   93.14   93.28</time>
   <energy>
    <i name="e_fr_energy">   -606.48642515 </i>
    <i name="e_wo_entrp">   -606.37055008 </i>
    <i name="e_0_energy">   -606.42848761 </i>
   </energy>
  </scstep>
  <scstep>
   <time name="diag">    3.30    3.30</time>
   <time name="diis">   82.78   82.96</time>
   <time name="orth">    0.79    0.79</time>
   <time name="total">   87.63   87.82</time>
   <energy>
    <i name="e_fr_energy">   -606.48644232 </i>
    <i name="e_wo_entrp">   -606.37056747 </i>
    <i name="e_0_energy">   -606.42850489 </i>
   </energy>
  </scstep>
  <scstep>
   <time name="diag">    3.27    3.27</time>
   <time name="diis">   76.77   76.91</time>
   <time name="orth">    0.79    0.80</time>
   <time name="total">   81.58   81.73</time>
   <energy>
    <i name="e_fr_energy">   -606.48645353 </i>
    <i name="e_wo_entrp">   -606.37057867 </i>
    <i name="e_0_energy">   -606.42851610 </i>
   </energy>
  </scstep>
  <scstep>
   <time name="diag">    3.31    3.33</time>
   <time name="diis">   72.42   72.66</time>
   <time name="orth">    0.79    0.79</time>
   <time name="total">   76.58   76.85</time>
   <energy>
    <i name="alphaZ">   5987.23428237 </i>
    <i name="ewald"> -51238.07423158 </i>
    <i name="hartreedc">  -7304.31449501 </i>
    <i name="XCdc">   2229.88933143 </i>
    <i name="pawpsdc">  38877.56685389 </i>
    <i name="pawaedc"> -38638.26807197 </i>
    <i name="eentropy">     -0.11587489 </i>
    <i name="bandstr">  -4691.97402423 </i>
    <i name="atom">  54171.56976881 </i>
    <i name="e_fr_energy">   -606.48646118 </i>
    <i name="e_wo_entrp">   -606.37058629 </i>
    <i name="e_0_energy">   -606.42852373 </i>
   </energy>
  </scstep>
  <structure>
   <crystal>
    <varray name="basis" >
     <v>       8.01510309       0.00194608       0.00123980 </v>
     <v>       0.00194608       8.01547958       0.00184461 </v>
     <v>       0.00123980       0.00184462       8.01467611 </v>
    </varray>
    <i name="volume">    514.90195659 </i>
    <varray name="rec_basis" >
     <v>       0.12476447      -0.00003029      -0.00001929 </v>
     <v>      -0.00003029       0.12475861      -0.00002871 </v>
     <v>      -0.00001929      -0.00002871       0.12477112 </v>
    </varray>
   </crystal>
   <varray name="positions" >
    <v>      -0.00016280      -0.00077452       0.00106923 </v>
    <v>       0.24930663      -0.00055185       0.25097777 </v>
    <v>       0.25129978       0.50060104       0.24992182 </v>
    <v>       0.49990718       0.49873720       0.00006102 </v>
    <v>       0.49883854       0.25078875       0.75107869 </v>
    <v>       0.00033420       0.49962195       0.50129893 </v>
    <v>       0.49977821       0.74924976       0.74902616 </v>
    <v>      -0.00000197       0.24709715       0.25224120 </v>
    <v>       0.75222279       0.74815944      -0.00008053 </v>
    <v>       0.00224425       0.25201929       0.74762803 </v>
    <v>       0.75239166       0.25210744       0.49989212 </v>
    <v>       0.00010186       0.74802817       0.75025013 </v>
    <v>       0.24993760       0.50012703       0.75023407 </v>
    <v>       0.25099789       0.25119302      -0.00119489 </v>
    <v>       0.49997770       0.25104863       0.24860368 </v>
    <v>       0.75107478      -0.00129534       0.24982406 </v>
    <v>       0.74889683       0.25124413       0.00006650 </v>
    <v>       0.24840373       0.74868621      -0.00009016 </v>
    <v>       0.24845996       0.25002291       0.50122640 </v>
    <v>       0.24991376       0.75001952       0.50016008 </v>
    <v>       0.24752549       0.24990509       0.24989869 </v>
    <v>       0.25130820       0.00007624      -0.00102251 </v>
    <v>      -0.00004561       0.25100831       0.00011681 </v>
    <v>       0.75214668       0.25262696       0.25221054 </v>
    <v>       0.74873857      -0.00167282      -0.00179368 </v>
    <v>       0.49947227      -0.00152591       0.24985404 </v>
[...]
      </set>
     </set>
    </set>
   </array>
  </eigenvalues>
  <separator name="orbital magnetization" >
   <v name="MAGDIPOLOUT">      0.00000000      0.00000000      0.00000000</v>
  </separator>
  <dos>
   <i name="efermi">      9.37758028 </i>
   <total>
    <array>
     <dimension dim="1">gridpoints</dimension>
     <dimension dim="2">spin</dimension>
     <field>energy</field>
     <field>total</field>
     <field>integrated</field>
     <set>
      <set comment="spin 1">
       <r>   -59.0997     0.0000     0.0000 </r>
       <r>   -58.8507     0.0000     0.0000 </r>
       <r>   -58.6016     0.0000     0.0000 </r>
       <r>   -58.3526     0.0000     0.0000 </r>
       <r>   -58.1035     0.0000     0.0000 </r>
       <r>   -57.8545     0.0000     0.0000 </r>
       <r>   -57.6054     0.0000     0.0000 </r>
       <r>   -57.3564     0.0000     0.0000 </r>
       <r>   -57.1073     0.0000     0.0000 </r>
       <r>   -56.8583     0.0000     0.0000 </r>
       <r>   -56.6092     0.0000     0.0000 </r>
       <r>   -56.3602     0.0000     0.0000 </r>
       <r>   -56.1111     0.0000     0.0000 </r>
       <r>   -55.8621     0.1139     0.0284 </r>
       <r>   -55.6130    21.6801     5.4279 </r>
       <r>   -55.3639    33.5426    13.7817 </r>
       <r>   -55.1149     0.8765    14.0000 </r>
       <r>   -54.8658     0.0000    14.0000 </r>
       <r>   -54.6168     0.0000    14.0000 </r>
       <r>   -54.3677     0.0000    14.0000 </r>
       <r>   -54.1187     0.0000    14.0000 </r>
       <r>   -53.8696     0.0000    14.0000 </r>
       <r>   -53.6206     0.0000    14.0000 </r>
       <r>   -53.3715     0.0000    14.0000 </r>
       <r>   -53.1225     0.0000    14.0000 </r>
       <r>   -52.8734     0.0000    14.0000 </r>
       <r>   -52.6244     0.0000    14.0000 </r>
       <r>   -52.3753     0.0000    14.0000 </r>
       <r>   -52.1263     0.0000    14.0000 </r>
       <r>   -51.8772     0.0000    14.0000 </r>
       <r>   -51.6282     0.0000    14.0000 </r>
       <r>   -51.3791     0.0000    14.0000 </r>
       <r>   -51.1301     0.0000    14.0000 </r>
       <r>   -50.8810     0.0000    14.0000 </r>
       <r>   -50.6320     0.0000    14.0000 </r>
       <r>   -50.3829     0.0000    14.0000 </r>
       <r>   -50.1338     0.0000    14.0000 </r>
       <r>   -49.8848     0.0000    14.0000 </r>
       <r>   -49.6357     0.0000    14.0000 </r>
       <r>   -49.3867     0.0000    14.0000 </r>
       <r>   -49.1376     0.0000    14.0000 </r>
       <r>   -48.8886     0.0000    14.0000 </r>
       <r>   -48.6395     0.0014    14.0003 </r>
       <r>   -48.3905     3.8356    14.9556 </r>
       <r>   -48.1414    12.6392    18.1034 </r>
       <r>   -47.8924    33.2551    26.3857 </r>
       <r>   -47.6433     6.4743    27.9981 </r>
       <r>   -47.3943     0.0075    28.0000 </r>
       <r>   -47.1452     0.0001    28.0000 </r>
       <r>   -46.8962     1.8780    28.4677 </r>
       <r>   -46.6471    13.1018    31.7308 </r>
       <r>   -46.3981    23.7809    37.6535 </r>
       <r>   -46.1490     9.0449    39.9061 </r>
       <r>   -45.9000     0.3769    40.0000 </r>
       <r>   -45.6509     0.0000    40.0000 </r>
       <r>   -45.4019     0.0000    40.0000 </r>
       <r>   -45.1528     0.0000    40.0000 </r>
       <r>   -44.9038     0.0000    40.0000 </r>
       <r>   -44.6547     0.0000    40.0000 </r>
       <r>   -44.4056     0.0000    40.0000 </r>
       <r>   -44.1566     0.0000    40.0000 </r>
       <r>   -43.9075     0.0000    40.0000 </r>
       <r>   -43.6585     0.0000    40.0000 </r>
       <r>   -43.4094     0.0000    40.0000 </r>
       <r>   -43.1604     0.0000    40.0000 </r>
       <r>   -42.9113     0.0000    40.0000 </r>
       <r>   -42.6623     0.0000    40.0000 </r>
       <r>   -42.4132     0.0000    40.0000 </r>
       <r>   -42.1642     0.0000    40.0000 </r>
       <r>   -41.9151     0.0000    40.0000 </r>
       <r>   -41.6661     0.0000    40.0000 </r>
       <r>   -41.4170     0.0000    40.0000 </r>
       <r>   -41.1680     0.0000    40.0000 </r>
       <r>   -40.9189     0.0000    40.0000 </r>
       <r>   -40.6699     0.0000    40.0000 </r>
       <r>   -40.4208     0.0000    40.0000 </r>
       <r>   -40.1718     0.0000    40.0000 </r>
       <r>   -39.9227     0.0000    40.0000 </r>
       <r>   -39.6737     0.0000    40.0000 </r>
       <r>   -39.4246     0.0000    40.0000 </r>
       <r>   -39.1755     0.0000    40.0000 </r>
       <r>   -38.9265     0.0000    40.0000 </r>
       <r>   -38.6774     0.0000    40.0000 </r>
       <r>   -38.4284     0.0000    40.0000 </r>
       <r>   -38.1793     0.0000    40.0000 </r>
       <r>   -37.9303     0.0000    40.0000 </r>
       <r>   -37.6812     0.0000    40.0000 </r>
       <r>   -37.4322     0.0000    40.0000 </r>
       <r>   -37.1831     0.0000    40.0000 </r>
       <r>   -36.9341     0.0000    40.0000 </r>
       <r>   -36.6850     0.0000    40.0000 </r>
       <r>   -36.4360     0.0000    40.0000 </r>
       <r>   -36.1869     0.0000    40.0000 </r>
       <r>   -35.9379     0.0000    40.0000 </r>
       <r>   -35.6888     0.0000    40.0000 </r>
       <r>   -35.4398     0.0000    40.0000 </r>
       <r>   -35.1907     0.0000    40.0000 </r>
       <r>   -34.9417     0.0000    40.0000 </r>
       <r>   -34.6926     0.0000    40.0000 </r>
       <r>   -34.4436     0.0000    40.0000 </r>
       <r>   -34.1945     0.0000    40.0000 </r>
       <r>   -33.9455     0.0000    40.0000 </r>
       <r>   -33.6964     0.0000    40.0000 </r>
       <r>   -33.4473     0.0000    40.0000 </r>
       <r>   -33.1983     0.0000    40.0000 </r>
       <r>   -32.9492     0.0000    40.0000 </r>
       <r>   -32.7002     0.0000    40.0000 </r>
       <r>   -32.4511     0.0000    40.0000 </r>
       <r>   -32.2021     0.0000    40.0000 </r>
       <r>   -31.9530     0.0000    40.0000 </r>
       <r>   -31.7040     0.0000    40.0000 </r>
       <r>   -31.4549     0.0000    40.0000 </r>
       <r>   -31.2059     0.0000    40.0000 </r>
       <r>   -30.9568     0.0000    40.0000 </r>
       <r>   -30.7078     0.0000    40.0000 </r>
       <r>   -30.4587     0.0228    40.0057 </r>
       <r>   -30.2097    14.4370    43.6013 </r>
       <r>   -29.9606    78.4425    63.1375 </r>
       <r>   -29.7116    65.2764    79.3948 </r>
       <r>   -29.4625   107.2648   106.1093 </r>
       <r>   -29.2135    47.6193   117.9690 </r>
       <r>   -28.9644     0.1245   118.0000 </r>
       <r>   -28.7154     0.0000   118.0000 </r>
       <r>   -28.4663     0.0000   118.0000 </r>
       <r>   -28.2173     0.0000   118.0000 </r>
       <r>   -27.9682     0.0000   118.0000 </r>
       <r>   -27.7191     0.0000   118.0000 </r>
       <r>   -27.4701     0.0000   118.0000 </r>
       <r>   -27.2210     0.0000   118.0000 </r>
       <r>   -26.9720     0.0000   118.0000 </r>
       <r>   -26.7229     0.0000   118.0000 </r>
       <r>   -26.4739     0.0000   118.0000 </r>
       <r>   -26.2248     0.2531   118.0630 </r>
       <r>   -25.9758    33.1776   126.3260 </r>
       <r>   -25.7267    76.9890   145.5003 </r>
       <r>   -25.4777    33.9050   153.9444 </r>
       <r>   -25.2286     0.2233   154.0000 </r>
       <r>   -24.9796     0.1041   154.0259 </r>
       <r>   -24.7305    16.7452   158.1964 </r>
       <r>   -24.4815    56.8867   172.3641 </r>
       <r>   -24.2324    81.4574   192.6513 </r>
       <r>   -23.9834    13.4214   195.9939 </r>
       <r>   -23.7343     0.0245   196.0000 </r>
       <r>   -23.4853     0.0000   196.0000 </r>
       <r>   -23.2362     0.8996   196.2240 </r>
       <r>   -22.9872    19.5001   201.0806 </r>
       <r>   -22.7381    46.1799   212.5818 </r>
       <r>   -22.4890    53.7340   225.9644 </r>
       <r>   -22.2400    23.7722   231.8849 </r>
       <r>   -21.9909     0.4621   232.0000 </r>
       <r>   -21.7419     0.0000   232.0000 </r>
       <r>   -21.4928     0.0000   232.0000 </r>
       <r>   -21.2438     0.0000   232.0000 </r>
       <r>   -20.9947     0.0000   232.0000 </r>
       <r>   -20.7457     0.0000   232.0000 </r>
       <r>   -20.4966     0.0000   232.0000 </r>
       <r>   -20.2476     0.0000   232.0000 </r>
       <r>   -19.9985     0.0000   232.0000 </r>
       <r>   -19.7495     0.0000   232.0000 </r>
       <r>   -19.5004     0.0000   232.0000 </r>
       <r>   -19.2514     0.0000   232.0000 </r>
       <r>   -19.0023     0.0000   232.0000 </r>
       <r>   -18.7533     0.0000   232.0000 </r>
       <r>   -18.5042     0.0000   232.0000 </r>
       <r>   -18.2552     0.0000   232.0000 </r>
       <r>   -18.0061     0.0000   232.0000 </r>
       <r>   -17.7571     0.0000   232.0000 </r>
       <r>   -17.5080     0.0000   232.0000 </r>
       <r>   -17.2590     0.0000   232.0000 </r>
       <r>   -17.0099     0.0000   232.0000 </r>
       <r>   -16.7608     0.0000   232.0000 </r>
       <r>   -16.5118     0.0000   232.0000 </r>
       <r>   -16.2627     0.0000   232.0000 </r>
       <r>   -16.0137     0.0000   232.0000 </r>
       <r>   -15.7646     0.0000   232.0000 </r>
       <r>   -15.5156     0.0000   232.0000 </r>
       <r>   -15.2665     0.0000   232.0000 </r>
       <r>   -15.0175     0.0000   232.0000 </r>
       <r>   -14.7684     0.0000   232.0000 </r>
       <r>   -14.5194     0.0000   232.0000 </r>
       <r>   -14.2703     0.0000   232.0000 </r>
       <r>   -14.0213     0.0000   232.0000 </r>
       <r>   -13.7722     0.0000   232.0000 </r>
       <r>   -13.5232     0.0000   232.0000 </r>
       <r>   -13.2741     0.0000   232.0000 </r>
       <r>   -13.0251     0.0000   232.0000 </r>
       <r>   -12.7760     0.0000   232.0000 </r>
       <r>   -12.5270     0.0000   232.0000 </r>
       <r>   -12.2779     0.0000   232.0000 </r>
       <r>   -12.0289     0.0000   232.0000 </r>
       <r>   -11.7798     0.0000   232.0000 </r>
       <r>   -11.5307     0.0000   232.0000 </r>
       <r>   -11.2817     0.0000   232.0000 </r>
       <r>   -11.0326     0.0000   232.0000 </r>
       <r>   -10.7836     0.0000   232.0000 </r>
       <r>   -10.5345     0.0000   232.0000 </r>
       <r>   -10.2855     0.0000   232.0000 </r>
       <r>   -10.0364     0.0000   232.0000 </r>
       <r>    -9.7874     0.0000   232.0000 </r>
       <r>    -9.5383     0.0000   232.0000 </r>
       <r>    -9.2893     0.0000   232.0000 </r>
       <r>    -9.0402     0.0000   232.0000 </r>
       <r>    -8.7912     0.0000   232.0000 </r>
       <r>    -8.5421     0.0000   232.0000 </r>
       <r>    -8.2931     0.0000   232.0000 </r>
       <r>    -8.0440     0.0000   232.0000 </r>
       <r>    -7.7950     0.0000   232.0000 </r>
       <r>    -7.5459     0.0079   232.0020 </r>
       <r>    -7.2969     2.7651   232.6906 </r>
       <r>    -7.0478     5.3489   234.0228 </r>
       <r>    -6.7988     6.1880   235.5639 </r>
       <r>    -6.5497     8.3374   237.6404 </r>
       <r>    -6.3007    11.5930   240.5276 </r>
       <r>    -6.0516    18.1181   245.0400 </r>
       <r>    -5.8025    21.0901   250.2925 </r>
       <r>    -5.5535    24.5223   256.3998 </r>
       <r>    -5.3044     6.4135   257.9971 </r>
       <r>    -5.0554     0.0115   258.0000 </r>
       <r>    -4.8063     0.0000   258.0000 </r>
       <r>    -4.5573     0.0000   258.0000 </r>
       <r>    -4.3082     0.0001   258.0000 </r>
       <r>    -4.0592     0.5444   258.1356 </r>
       <r>    -3.8101     6.2925   259.7027 </r>
       <r>    -3.5611     1.7501   260.1386 </r>
       <r>    -3.3120     8.6886   262.3025 </r>
       <r>    -3.0630    10.1685   264.8350 </r>
       <r>    -2.8139    12.6169   267.9773 </r>
       <r>    -2.5649    18.8126   272.6626 </r>
       <r>    -2.3158    18.4462   277.2567 </r>
       <r>    -2.0668    22.3778   282.8299 </r>
       <r>    -1.8177    20.3015   287.8860 </r>
       <r>    -1.5687    19.1281   292.6499 </r>
       <r>    -1.3196    10.9953   295.3883 </r>
       <r>    -1.0706     2.4491   295.9983 </r>
       <r>    -0.8215     0.0069   296.0000 </r>
       <r>    -0.5724     0.0000   296.0000 </r>
       <r>    -0.3234     0.0000   296.0000 </r>
       <r>    -0.0743     0.0000   296.0000 </r>
       <r>     0.1747     0.0000   296.0000 </r>
       <r>     0.4238     0.0000   296.0000 </r>
       <r>     0.6728     0.0140   296.0035 </r>
       <r>     0.9219     0.6517   296.1658 </r>
       <r>     1.1709     2.6473   296.8251 </r>
       <r>     1.4200     8.3410   298.9025 </r>
       <r>     1.6690     9.6793   301.3131 </r>
       <r>     1.9181    14.4370   304.9087 </r>
       <r>     2.1671    19.6746   309.8087 </r>
       <r>     2.4162    25.6146   316.1881 </r>
       <r>     2.6652    28.0882   323.1835 </r>
       <r>     2.9143    23.7492   329.0983 </r>
       <r>     3.1633    33.6926   337.4895 </r>
       <r>     3.4124    34.1440   345.9932 </r>
       <r>     3.6614    39.0041   355.7072 </r>
       <r>     3.9105    44.9663   366.9062 </r>
       <r>     4.1595    58.1732   381.3944 </r>
       <r>     4.4086    62.1474   396.8723 </r>
       <r>     4.6576    64.0970   412.8358 </r>
       <r>     4.9067    56.3628   426.8731 </r>
       <r>     5.1558    55.6037   440.7213 </r>
       <r>     5.4048    45.1166   451.9577 </r>
       <r>     5.6539    35.6845   460.8450 </r>
       <r>     5.9029    34.2185   469.3672 </r>
       <r>     6.1520    24.3949   475.4428 </r>
       <r>     6.4010    19.7312   480.3569 </r>
       <r>     6.6501    18.1733   484.8830 </r>
       <r>     6.8991     9.8642   487.3397 </r>
       <r>     7.1482     5.4270   488.6913 </r>
       <r>     7.3972    14.3442   492.2638 </r>
       <r>     7.6463    16.7316   496.4308 </r>
       <r>     7.8953    16.8448   500.6260 </r>
       <r>     8.1444    16.7928   504.8083 </r>
       <r>     8.3934    17.0077   509.0441 </r>
       <r>     8.6425    17.8566   513.4913 </r>
       <r>     8.8915    26.2809   520.0367 </r>
       <r>     9.1406    26.3829   526.6074 </r>
       <r>     9.3896    22.6374   532.2453 </r>
       <r>     9.6387    25.1844   538.5175 </r>
       <r>     9.8877    40.0625   548.4952 </r>
       <r>    10.1368    47.5261   560.3317 </r>
       <r>    10.3859    51.2835   573.1039 </r>
       <r>    10.6349    51.6451   585.9663 </r>
       <r>    10.8840    56.6334   600.0709 </r>
       <r>    11.1330    63.7429   615.9462 </r>
       <r>    11.3821    62.9390   631.6213 </r>
       <r>    11.6311    60.3731   646.6574 </r>
       <r>    11.8802    56.6889   660.7759 </r>
       <r>    12.1292    38.3162   670.3186 </r>
       <r>    12.3783     6.7233   671.9931 </r>
       <r>    12.6273     0.0277   672.0000 </r>
       <r>    12.8764     0.0000   672.0000 </r>
       <r>    13.1254     0.0000   672.0000 </r>
       <r>    13.3745     0.0000   672.0000 </r>
       <r>    13.6235     0.0000   672.0000 </r>
       <r>    13.8726     0.0000   672.0000 </r>
       <r>    14.1216     0.0000   672.0000 </r>
       <r>    14.3707     0.0000   672.0000 </r>
       <r>    14.6197     0.0000   672.0000 </r>
       <r>    14.8688     0.0000   672.0000 </r>
       <r>    15.1178     0.0000   672.0000 </r>
       <r>    15.3669     0.0000   672.0000 </r>
       <r>    15.6159     0.0000   672.0000 </r>
      </set>
     </set>
    </array>
   </total>
  </dos>
 </calculation>
 <structure name="finalpos" >
  <crystal>
   <varray name="basis" >
    <v>       8.74424851      -0.00798125       0.02642933 </v>
    <v>      -0.00796063       8.70079745       0.00890050 </v>
    <v>       0.02644750       0.00881786       8.72920571 </v>
   </varray>
   <i name="volume">    664.12753583 </i>
   <varray name="rec_basis" >
    <v>       0.11436203       0.00010499      -0.00034660 </v>
    <v>       0.00010526       0.11493221      -0.00011642 </v>
    <v>      -0.00034636      -0.00011751       0.11455913 </v>
   </varray>
  </crystal>
  <varray name="positions" >
   <v>       0.00677952       0.00870440       0.00733210 </v>
   <v>       0.24719237       0.00717112       0.25192006 </v>
   <v>       0.25364045       0.49403565       0.24906057 </v>
   <v>       0.49727624       0.50061303       0.00009675 </v>
   <v>       0.49445429       0.24680708       0.75527877 </v>
   <v>       0.00705810       0.49973926       0.50058333 </v>
   <v>       0.49585416       0.75308211       0.74705477 </v>
   <v>      -0.01151197       0.23731273       0.25879266 </v>
   <v>       0.76813166       0.74441422      -0.00275540 </v>
   <v>       0.01865725       0.26266262       0.74569173 </v>
   <v>       0.76454543       0.25923947       0.48545181 </v>
   <v>       0.00264963       0.73521285       0.75236266 </v>
   <v>       0.25377785       0.49937743       0.75354617 </v>
   <v>       0.26857439       0.26048227      -0.00603804 </v>
   <v>       0.49128354       0.26083552       0.23293532 </v>
   <v>       0.76500606      -0.00084160       0.22952563 </v>
   <v>       0.72236870       0.25080809       0.01570858 </v>
   <v>       0.23402750       0.73498664       0.00477849 </v>
   <v>       0.24094665       0.24516492       0.51821502 </v>
   <v>       0.25718918       0.75573470       0.49281662 </v>
   <v>       0.24578069       0.24949276       0.24720780 </v>
   <v>       0.24943358       0.00453590       0.00370656 </v>
   <v>       0.00022105       0.24605184       0.00086135 </v>
   <v>       0.73635867       0.23955236       0.24486537 </v>
   <v>       0.75597721       0.00470145       0.00593331 </v>
   <v>       0.50009203       0.00808307       0.25027015 </v>
   <v>       0.00016598       0.49632026       0.25240222 </v>
   <v>       0.49960503       0.75151297      -0.00395103 </v>
   <v>      -0.00212722       0.00309872       0.75431129 </v>
   <v>       0.75257651       0.24688282       0.74421540 </v>
   <v>       0.75120318       0.00275686       0.50265363 </v>
   <v>       0.50404745       0.24980511       0.50042681 </v>
   <v>       0.50098053       0.00068526       0.74913839 </v>
   <v>       0.00144319      -0.00059890       0.24899322 </v>
   <v>       0.49600423       0.25709676      -0.00148403 </v>
   <v>       0.24978621       0.75034645       0.24780371 </v>
   <v>       0.25247520       0.49936100       0.00307872 </v>
   <v>       0.00734909       0.75398644      -0.00000665 </v>
   <v>       0.75045607       0.75463826       0.24716809 </v>
   <v>       0.74579646       0.49405120      -0.00066707 </v>
   <v>       0.49483844       0.49547881       0.24677037 </v>
   <v>       0.25606266       0.25027905       0.75567125 </v>
   <v>       0.24918576       0.00206046       0.49529256 </v>
   <v>       0.00879212       0.25415746       0.50201798 </v>
   <v>       0.25023594       0.74742659       0.75168981 </v>
   <v>       0.24851604       0.49821267       0.50008384 </v>
   <v>       0.00471086       0.74895038       0.50366065 </v>
   <v>       0.00061242       0.49860062       0.74499835 </v>
   <v>       0.74697416       0.74923226       0.75150504 </v>
   <v>       0.75277891       0.49859564       0.49812744 </v>
   <v>       0.49492161       0.74879997       0.50300185 </v>
   <v>       0.49785558       0.49924632       0.75149831 </v>
   <v>       0.49666072       0.00644706       0.00525867 </v>
   <v>       0.00161609       0.49752166      -0.00260115 </v>
   <v>       0.49385269       0.74551314       0.25118369 </v>
   <v>       0.25581891      -0.00198747       0.74616631 </v>
   <v>       0.49125821      -0.00209845       0.49332587 </v>
   <v>       0.74388948      -0.00441565       0.76600864 </v>
   <v>       0.00523948       0.75705607       0.25155615 </v>
   <v>       0.74339900       0.49716439       0.24781180 </v>
   <v>       0.00631519       0.00230568       0.49798325 </v>
   <v>       0.49278346       0.49894235       0.49892482 </v>
   <v>       0.74292080       0.49861242       0.75059726 </v>
   <v>       0.74523597       0.74599615       0.50018307 </v>
  </varray>
 </structure>
</modeling>
