HECN                                    
           1
    11.240000    0.000000    0.000000
     0.000000   11.240000    0.000000
     0.000000    0.000000   11.240000
   Ti   W    V    N    C    Nb   Ta
   7   6   7  13  19   6   6
Direct configuration=     1
   0.00000000  0.00000000  0.00000000
   0.25000000  0.00000000  0.25000000
   0.25000000  0.50000000  0.25000000
   0.50000000  0.50000000  0.00000000
   0.50000000  0.25000000  0.75000004
   0.00000000  0.50000000  0.50000000
   0.50000000  0.75000004  0.75000004
   0.00000000  0.25000000  0.25000000
   0.75000004  0.75000004  0.00000000
   0.00000000  0.25000000  0.75000004
   0.75000004  0.25000000  0.50000000
   0.00000000  0.75000004  0.75000004
   0.25000000  0.50000000  0.75000004
   0.25000000  0.25000000  0.00000000
   0.50000000  0.25000000  0.25000000
   0.75000004  0.00000000  0.25000000
   0.75000004  0.25000000  0.00000000
   0.25000000  0.75000004  0.00000000
   0.25000000  0.25000000  0.50000000
   0.25000000  0.75000004  0.50000000
   0.25000000  0.25000000  0.25000000
   0.25000000  0.00000000  0.00000000
   0.00000000  0.25000000  0.00000000
   0.75000004  0.25000000  0.25000000
   0.75000004  0.00000000  0.00000000
   0.50000000  0.00000000  0.25000000
   0.00000000  0.50000000  0.25000000
   0.50000000  0.75000004  0.00000000
   0.00000000  0.00000000  0.75000004
   0.75000004  0.25000000  0.75000004
   0.75000004  0.00000000  0.50000000
   0.50000000  0.25000000  0.50000000
   0.50000000  0.00000000  0.75000004
   0.00000000  0.00000000  0.25000000
   0.50000000  0.25000000  0.00000000
   0.25000000  0.75000004  0.25000000
   0.25000000  0.50000000  0.00000000
   0.00000000  0.75000004  0.00000000
   0.75000004  0.75000004  0.25000000
   0.75000004  0.50000000  0.00000000
   0.50000000  0.50000000  0.25000000
   0.25000000  0.25000000  0.75000004
   0.25000000  0.00000000  0.50000000
   0.00000000  0.25000000  0.50000000
   0.25000000  0.75000004  0.75000004
   0.25000000  0.50000000  0.50000000
   0.00000000  0.75000004  0.50000000
   0.00000000  0.50000000  0.75000004
   0.75000004  0.75000004  0.75000004
   0.75000004  0.50000000  0.50000000
   0.50000000  0.75000004  0.50000000
   0.50000000  0.50000000  0.75000004
   0.50000000  0.00000000  0.00000000
   0.00000000  0.50000000  0.00000000
   0.50000000  0.75000004  0.25000000
   0.25000000  0.00000000  0.75000004
   0.50000000  0.00000000  0.50000000
   0.75000004  0.00000000  0.75000004
   0.00000000  0.75000004  0.25000000
   0.75000004  0.50000000  0.25000000
   0.00000000  0.00000000  0.50000000
   0.50000000  0.50000000  0.50000000
   0.75000004  0.50000000  0.75000004
   0.75000004  0.75000004  0.50000000
HECN                                    
           1
     8.015103    0.001946    0.001240
     0.001946    8.015480    0.001845
     0.001240    0.001845    8.014676
   Ti   W    V    N    C    Nb   Ta
   7   6   7  13  19   6   6
Direct configuration=     2
  -0.00016280 -0.00077452  0.00106923
   0.24930663 -0.00055185  0.25097777
   0.25129978  0.50060104  0.24992182
   0.49990718  0.49873720  0.00006102
   0.49883854  0.25078875  0.75107869
   0.00033420  0.49962195  0.50129893
   0.49977821  0.74924976  0.74902616
  -0.00000197  0.24709715  0.25224120
   0.75222279  0.74815944 -0.00008053
   0.00224425  0.25201929  0.74762803
   0.75239166  0.25210744  0.49989212
   0.00010186  0.74802817  0.75025013
   0.24993760  0.50012703  0.75023407
   0.25099789  0.25119302 -0.00119489
   0.49997770  0.25104863  0.24860368
   0.75107478 -0.00129534  0.24982406
   0.74889683  0.25124413  0.00006650
   0.24840373  0.74868621 -0.00009016
   0.24845996  0.25002291  0.50122640
   0.24991376  0.75001952  0.50016008
   0.24752549  0.24990509  0.24989869
   0.25130820  0.00007624 -0.00102251
  -0.00004561  0.25100831  0.00011681
   0.75214668  0.25262696  0.25221054
   0.74873857 -0.00167282 -0.00179368
   0.49947227 -0.00152591  0.24985404
  -0.00211896  0.50077055  0.24890631
   0.50183710  0.75139096  0.00091740
  -0.00017724  0.00009826  0.74815896
   0.75102126  0.25073513  0.74805243
   0.75112265 -0.00067575  0.50150623
   0.50199723  0.25099412  0.50064027
   0.50017480  0.00010742  0.75013201
   0.00010793 -0.00007503  0.25229142
   0.50007391  0.24801959 -0.00022542
   0.24901836  0.75002569  0.24987527
   0.24837785  0.49992451 -0.00190844
  -0.00221542  0.74879790  0.00030215
   0.75081155  0.74762083  0.25030914
   0.75137367  0.50206132  0.00022404
   0.50257679  0.50146370  0.25231913
   0.24759870  0.25050416  0.75007551
   0.24893315  0.00013126  0.50138427
  -0.00245182  0.24775532  0.49995859
   0.24806707  0.74948741  0.75008606
   0.25235817  0.49986203  0.50188305
  -0.00246190  0.75229476  0.49966874
  -0.00038377  0.49983909  0.75135467
   0.75159283  0.74927840  0.74968400
   0.74803148  0.50009208  0.49981354
   0.50252475  0.74916416  0.49880847
   0.50054998  0.49985615  0.74769301
   0.50032951  0.00210797  0.00023745
   0.00021724  0.50099201 -0.00189980
   0.50005831  0.74899600  0.25125627
   0.24996137 -0.00008976  0.74849319
   0.49803566 -0.00159431  0.49976743
   0.75020319 -0.00171443  0.75034696
   0.00021959  0.75228273  0.24980883
   0.74817114  0.50109789  0.24960817
   0.00193292  0.00049513  0.49876404
   0.49951729  0.50134364  0.49987325
   0.74984089  0.50162768  0.75035792
   0.75010528  0.74838431  0.50001795
HECN                                    
           1
     8.809976    0.001466    0.000934
     0.001466    8.810260    0.001390
     0.000934    0.001390    8.809654
   Ti   W    V    N    C    Nb   Ta
   7   6   7  13  19   6   6
Direct configuration=     3
  -0.00010654 -0.00050675  0.00069956
   0.24954630 -0.00036109  0.25063971
   0.25085055  0.50039340  0.24994896
   0.49993916  0.49917367  0.00003982
   0.49924012  0.25051612  0.75070584
   0.00021872  0.49975275  0.50084992
   0.49985476  0.74950899  0.74936273
  -0.00000141  0.24810066  0.25146626
   0.75145433  0.74879580 -0.00005272
   0.00146856  0.25132135  0.74844825
   0.75156516  0.25137922  0.49992971
   0.00006650  0.74870975  0.75016353
   0.24995919  0.50008314  0.75015318
   0.25065300  0.25078066 -0.00078170
   0.49998542  0.25068607  0.24908643
   0.75070318 -0.00084755  0.24988483
   0.74927827  0.25081402  0.00004355
   0.24895537  0.74914018 -0.00005919
   0.24899234  0.25001496  0.50080239
   0.24994358  0.75001279  0.50010474
   0.24838080  0.24993768  0.24993357
   0.25085597  0.00004992 -0.00066898
  -0.00002975  0.25065981  0.00007651
   0.75140503  0.25171934  0.25144675
   0.74917436 -0.00109489 -0.00117386
   0.49965455 -0.00099856  0.24990435
  -0.00138653  0.50050395  0.24928431
   0.50120227  0.75091043  0.00060049
  -0.00011606  0.00006414  0.74879536
   0.75066823  0.25048098  0.74872577
   0.75073464 -0.00044197  0.50098558
   0.50130700  0.25065073  0.50041914
   0.50011439  0.00007032  0.75008641
   0.00007074 -0.00004891  0.25149934
   0.50004819  0.24870408 -0.00014765
   0.24935766  0.75001673  0.24991833
   0.24893844  0.49995031 -0.00124884
  -0.00144974  0.74921324  0.00019749
   0.75053087  0.74844326  0.25020213
   0.75089906  0.50134899  0.00014683
   0.50168636  0.50095819  0.25151773
   0.24842876  0.25032971  0.75004934
   0.24930200  0.00008591  0.50090572
  -0.00160454  0.24853095  0.49997259
   0.24873515  0.74966444  0.75005618
   0.25154315  0.49991007  0.50123225
  -0.00161077  0.75150139  0.49978329
  -0.00025106  0.49989478  0.75088638
   0.75104221  0.74952793  0.74979328
   0.74871191  0.50006007  0.49987790
   0.50165193  0.74945319  0.49922042
   0.50035974  0.49990573  0.74849050
   0.50021580  0.00137943  0.00015556
   0.00014213  0.50064900 -0.00124301
   0.50003814  0.74934314  0.25082194
   0.24997464 -0.00005886  0.74901405
   0.49871449 -0.00104344  0.49984759
   0.75013285 -0.00112182  0.75022692
   0.00014387  0.75149376  0.24987510
   0.74880337  0.50071824  0.24974360
   0.00126478  0.00032406  0.49919141
   0.49968424  0.50087918  0.49991714
   0.74989606  0.50106511  0.75023433
   0.75006877  0.74894278  0.50001162
HECN                                    
           1
     8.742365    0.001507    0.000960
     0.001507    8.742656    0.001429
     0.000960    0.001429    8.742034
   Ti   W    V    N    C    Nb   Ta
   7   6   7  13  19   6   6
Direct configuration=     4
  -0.00011089 -0.00052747  0.00072816
   0.24952775 -0.00037586  0.25066586
   0.25088532  0.50040947  0.24994687
   0.49993669  0.49913989  0.00004146
   0.49920905  0.25053721  0.75073469
   0.00022766  0.49974263  0.50088466
   0.49984883  0.74948893  0.74933668
  -0.00000146  0.24802301  0.25152622
   0.75151380  0.74874656 -0.00005487
   0.00152859  0.25137536  0.74838478
   0.75162913  0.25143558  0.49992681
   0.00006923  0.74865701  0.75017023
   0.24995752  0.50008654  0.75015944
   0.25067969  0.25081257 -0.00081367
   0.49998482  0.25071413  0.24904907
   0.75073193 -0.00088220  0.24988013
   0.74924875  0.25084731  0.00004533
   0.24891267  0.74910504 -0.00006159
   0.24895115  0.25001557  0.50083520
   0.24994127  0.75001331  0.50010902
   0.24831461  0.24993515  0.24993087
   0.25089096  0.00005195 -0.00069634
  -0.00003098  0.25068678  0.00007963
   0.75146243  0.25178959  0.25150586
   0.74914063 -0.00113962 -0.00122183
   0.49964044 -0.00103937  0.24990045
  -0.00144321  0.50052458  0.24925506
   0.50125140  0.75094763  0.00062502
  -0.00012080  0.00006678  0.74874612
   0.75069555  0.25050064  0.74867367
   0.75076467 -0.00046006  0.50102587
   0.50136042  0.25067731  0.50043625
   0.50011907  0.00007319  0.75008994
   0.00007362 -0.00005092  0.25156064
   0.50005017  0.24865111 -0.00015368
   0.24933140  0.75001742  0.24991500
   0.24889506  0.49994831 -0.00129989
  -0.00150899  0.74918110  0.00020558
   0.75055259  0.74837962  0.25021041
   0.75093579  0.50140411  0.00015281
   0.50175527  0.50099732  0.25157975
   0.24836453  0.25034320  0.75005136
   0.24927346  0.00008942  0.50094276
  -0.00167011  0.24847092  0.49997150
   0.24868345  0.74965074  0.75005849
   0.25160622  0.49990636  0.50128261
  -0.00167663  0.75156278  0.49977443
  -0.00026133  0.49989047  0.75092262
   0.75108481  0.74950863  0.74978482
   0.74865926  0.50006255  0.49987291
   0.50171947  0.74943083  0.49918854
   0.50037446  0.49990189  0.74842879
   0.50022461  0.00143581  0.00016190
   0.00014794  0.50067554 -0.00129383
   0.50003970  0.74931628  0.25085554
   0.24997361 -0.00006125  0.74897375
   0.49866196 -0.00108608  0.49984138
   0.75013829 -0.00116768  0.75023620
   0.00014974  0.75155481  0.24986998
   0.74875445  0.50074761  0.24973312
   0.00131648  0.00033730  0.49915835
   0.49967133  0.50091512  0.49991375
   0.74989179  0.50110865  0.75024390
   0.75007159  0.74889956  0.50001211
HECN                                    
           1
     8.715243    0.001524    0.000971
     0.001524    8.715538    0.001444
     0.000971    0.001444    8.714909
   Ti   W    V    N    C    Nb   Ta
   7   6   7  13  19   6   6
Direct configuration=     5
  -0.00011265 -0.00053584  0.00073973
   0.24952026 -0.00038182  0.25067644
   0.25089937  0.50041597  0.24994602
   0.49993569  0.49912624  0.00004212
   0.49919649  0.25054574  0.75074635
   0.00023127  0.49973854  0.50089871
   0.49984644  0.74948082  0.74932615
  -0.00000148  0.24799161  0.25155046
   0.75153783  0.74872665 -0.00005574
   0.00155285  0.25139720  0.74835913
   0.75165498  0.25145837  0.49992563
   0.00007033  0.74863569  0.75017294
   0.24995685  0.50008791  0.75016197
   0.25069048  0.25082547 -0.00082660
   0.49998458  0.25072547  0.24903397
   0.75074355 -0.00089621  0.24987823
   0.74923682  0.25086076  0.00004605
   0.24889542  0.74909084 -0.00006256
   0.24893449  0.25001582  0.50084846
   0.24994034  0.75001352  0.50011075
   0.24828785  0.24993413  0.24992978
   0.25090511  0.00005278 -0.00070739
  -0.00003147  0.25069768  0.00008089
   0.75148563  0.25181798  0.25152976
   0.74912700 -0.00115770 -0.00124122
   0.49963473 -0.00105587  0.24989887
  -0.00146612  0.50053291  0.24924323
   0.50127126  0.75096266  0.00063493
  -0.00012271  0.00006784  0.74872621
   0.75070659  0.25050859  0.74865261
   0.75077681 -0.00046737  0.50104215
   0.50138201  0.25068805  0.50044317
   0.50012096  0.00007435  0.75009137
   0.00007479 -0.00005174  0.25158541
   0.50005098  0.24862970 -0.00015611
   0.24932079  0.75001770  0.24991365
   0.24887752  0.49994750 -0.00132052
  -0.00153295  0.74916810  0.00020886
   0.75056136  0.74835389  0.25021376
   0.75095064  0.50142640  0.00015523
   0.50178313  0.50101314  0.25160483
   0.24833856  0.25034866  0.75005218
   0.24926192  0.00009084  0.50095773
  -0.00169662  0.24844666  0.49997106
   0.24866255  0.74964520  0.75005943
   0.25163172  0.49990486  0.50130297
  -0.00170325  0.75158759  0.49977085
  -0.00026548  0.49988873  0.75093727
   0.75110204  0.74950082  0.74978140
   0.74863797  0.50006355  0.49987090
   0.50174677  0.74942179  0.49917565
   0.50038041  0.49990034  0.74840384
   0.50022816  0.00145860  0.00016446
   0.00015029  0.50068627 -0.00131438
   0.50004033  0.74930542  0.25086913
   0.24997319 -0.00006222  0.74895745
   0.49864072 -0.00110331  0.49983887
   0.75014049 -0.00118622  0.75023996
   0.00015211  0.75157949  0.24986791
   0.74873467  0.50075949  0.24972889
   0.00133738  0.00034265  0.49914498
   0.49966611  0.50092965  0.49991238
   0.74989007  0.50112625  0.75024776
   0.75007273  0.74888209  0.50001231
HECN                                    
           1
     8.705212   -0.001454   -0.000365
    -0.001453    8.697913   -0.000326
    -0.000364   -0.000324    8.690185
   Ti   W    V    N    C    Nb   Ta
   7   6   7  13  19   6   6
Direct configuration=     6
   0.00038695  0.00027815  0.00315220
   0.24908882  0.00072188  0.25086275
   0.25343912  0.49935051  0.24962872
   0.49855394  0.49585891  0.00066434
   0.49638835  0.25056082  0.75412979
   0.00259893  0.49818646  0.50174690
   0.49827228  0.74980932  0.74869735
   0.00310934  0.24110770  0.25390193
   0.75481220  0.74672500  0.00014951
   0.00649916  0.25423063  0.74561170
   0.75402646  0.25412242  0.49823255
   0.00156607  0.74599994  0.75160623
   0.25204856  0.49977699  0.75088615
   0.25456958  0.25311448 -0.00253207
   0.49772290  0.25195780  0.24465779
   0.75244241 -0.00219307  0.24814924
   0.74536377  0.25262795  0.00104920
   0.24539547  0.74649062  0.00067726
   0.24620018  0.24950593  0.50261353
   0.25034574  0.75071064  0.49933517
   0.24992601  0.25002669  0.24970245
   0.24819702  0.00022037  0.00346314
   0.00044325  0.24679973  0.00063862
   0.74867910  0.24780164  0.24890777
   0.75237896  0.00211477  0.00332631
   0.49984964  0.00346888  0.24952548
   0.00192643  0.49984667  0.25257457
   0.49813091  0.74801544 -0.00329099
   0.00023729  0.00019611  0.75236719
   0.74735008  0.25086213  0.75148197
   0.75123744 -0.00006373  0.49633957
   0.49854617  0.25101392  0.50022594
   0.49982450  0.00038488  0.75040340
  -0.00112224  0.00208118  0.24728530
   0.49971910  0.25172941  0.00144196
   0.24962050  0.74981102  0.24973948
   0.25243532  0.49983313  0.00088039
   0.00275358  0.75296150 -0.00113771
   0.75015789  0.75343143  0.24869524
   0.74693881  0.49800700  0.00035487
   0.49773231  0.49584949  0.24760717
   0.24994445  0.25206461  0.75019118
   0.24949365  0.00010932  0.49677525
   0.00256020  0.25289771  0.49980825
   0.25120977  0.74773061  0.75010616
   0.24768900  0.49975429  0.49929602
   0.00389282  0.74810523  0.50114688
   0.00143786  0.49984818  0.74669735
   0.74773285  0.74990490  0.75125442
   0.75277007  0.49810576  0.49965693
   0.49636391  0.74953834  0.50306363
   0.49857459  0.49958173  0.75236082
   0.49939739  0.00685309  0.00165744
   0.00230762  0.49998670 -0.00222111
   0.49725312  0.74901898  0.25079806
   0.25149595  0.00016478  0.74895945
   0.49422648 -0.00122114  0.49872124
   0.74860297 -0.00183956  0.75328476
   0.00363602  0.75610004  0.24917829
   0.74582191  0.49928518  0.24771720
   0.00547674  0.00192440  0.49675703
   0.49574728  0.50002825  0.49904785
   0.74705453  0.50062212  0.75225814
   0.74951917  0.74810236  0.49973310
HECN                                    
           1
     8.700993   -0.002707   -0.000927
    -0.002705    8.690500   -0.001070
    -0.000925   -0.001068    8.679787
   Ti   W    V    N    C    Nb   Ta
   7   6   7  13  19   6   6
Direct configuration=     7
   0.00059759  0.00062147  0.00416983
   0.24890733  0.00118697  0.25094140
   0.25450834  0.49890184  0.24949496
   0.49797171  0.49448180  0.00092640
   0.49520617  0.25056706  0.75555666
   0.00359570  0.49753278  0.50210466
   0.49760947  0.74994748  0.74843206
   0.00441835  0.23820725  0.25489333
   0.75619064  0.74588193  0.00023612
   0.00858210  0.25542521  0.74445347
   0.75502527  0.25524533  0.49751883
   0.00219559  0.74488949  0.75221062
   0.25292931  0.49964632  0.75119169
   0.25620315  0.25407956 -0.00325095
   0.49677048  0.25247644  0.24281198
   0.75315744 -0.00273951  0.24742000
   0.74373329  0.25337223  0.00147221
   0.24392145  0.74539437  0.00098884
   0.24504890  0.24929081  0.50335777
   0.25051649  0.75100442  0.49900814
   0.25061578  0.25006591  0.24960668
   0.24705704  0.00029097  0.00522201
   0.00064261  0.24515712  0.00087355
   0.74749662  0.24610839  0.24780135
   0.75374901  0.00349475  0.00525328
   0.49994076  0.00537575  0.24936839
   0.00335503  0.49955824  0.25397981
   0.49680795  0.74677260 -0.00494731
   0.00038913  0.00025053  0.75390291
   0.74593701  0.25101089  0.75267513
   0.75143115  0.00010604  0.49435620
   0.49735213  0.25115083  0.50013416
   0.49969973  0.00051574  0.75053501
  -0.00162624  0.00297952  0.24547172
   0.49957990  0.25303581  0.00211623
   0.24974666  0.74972395  0.24966601
   0.25393351  0.49978564  0.00180890
   0.00455893  0.75456066 -0.00170505
   0.74998864  0.75557108  0.24805517
   0.74524910  0.49656540  0.00043852
   0.49602565  0.49367244  0.24592036
   0.25062089  0.25278800  0.75025006
   0.24959096  0.00011679  0.49501119
   0.00435322  0.25477413  0.49974024
   0.25228204  0.74692412  0.75012587
   0.24602871  0.49969009  0.49844927
   0.00624871  0.74663858  0.50172732
   0.00215480  0.49983097  0.74490916
   0.74631437  0.75007484  0.75187552
   0.75450965  0.49728126  0.49956678
   0.49409765  0.74958702  0.50470314
   0.49781443  0.49944754  0.75402964
   0.49904845  0.00912650  0.00228755
   0.00321583  0.49969211 -0.00260347
   0.49607948  0.74889785  0.25076788
   0.25213716  0.00026067  0.74896041
   0.49236772 -0.00127153  0.49824955
   0.74795568 -0.00211486  0.75456883
   0.00510357  0.75800558  0.24888803
   0.74459511  0.49866328  0.24686841
   0.00721974  0.00259139  0.49575026
   0.49409703  0.49964774  0.49868288
   0.74586064  0.50040943  0.75310584
   0.74928595  0.74777365  0.49961523
HECN                                    
           1
     8.729490   -0.000241    0.006812
    -0.000233    8.748034    0.002015
     0.006799    0.002014    8.732591
   Ti   W    V    N    C    Nb   Ta
   7   6   7  13  19   6   6
Direct configuration=     8
   0.00094389  0.00212518  0.00497501
   0.24867557  0.00223673  0.25010581
   0.25456858  0.49794316  0.24903382
   0.49642481  0.49365386  0.00124412
   0.49369437  0.25063411  0.75779857
   0.00528660  0.49857213  0.50142809
   0.49623083  0.74987153  0.74825455
   0.00526518  0.23727986  0.25563998
   0.76045680  0.74481302 -0.00016568
   0.01166724  0.25861468  0.74356085
   0.75774403  0.25624843  0.49565658
   0.00254906  0.74145385  0.75253281
   0.25398327  0.49959385  0.75213485
   0.25965230  0.25573022 -0.00454487
   0.49442348  0.25373653  0.23833833
   0.75503741 -0.00299739  0.24474458
   0.73913194  0.25411005  0.00325326
   0.24064757  0.74241430  0.00176253
   0.24333663  0.24843652  0.50584116
   0.25230624  0.75176866  0.49772098
   0.25084034  0.24992652  0.24953323
   0.24733318  0.00117514  0.00562832
   0.00094277  0.24478423  0.00098377
   0.74677241  0.24476804  0.24735108
   0.75402408  0.00482030  0.00666436
   0.50011096  0.00741708  0.24983362
   0.00296540  0.49872226  0.25326015
   0.49660239  0.74771092 -0.00547549
  -0.00040607  0.00090110  0.75414868
   0.74492259  0.25010214  0.75282349
   0.75152476  0.00053543  0.49384862
   0.49737332  0.25087545  0.50031859
   0.49995375  0.00133134  0.75047246
  -0.00115127  0.00037250  0.24607372
   0.49910703  0.25463362  0.00228783
   0.25067521  0.74962603  0.24926707
   0.25358090  0.49961136  0.00241812
   0.00583627  0.75433616 -0.00134749
   0.74995253  0.75560479  0.24792678
   0.74580170  0.49593819  0.00075867
   0.49583946  0.49323901  0.24647236
   0.25155559  0.25214229  0.75032242
   0.24983299  0.00037582  0.49504747
   0.00568335  0.25416214  0.49965323
   0.25224591  0.74737513  0.75046053
   0.24660023  0.49937171  0.49833676
   0.00650001  0.74781807  0.50214528
   0.00143022  0.49993227  0.74521093
   0.74581603  0.75004961  0.75181671
   0.75316531  0.49839209  0.49924660
   0.49348426  0.74923949  0.50461599
   0.49764085  0.49900068  0.75320772
   0.49930466  0.00975403  0.00385584
   0.00371685  0.50007805 -0.00345594
   0.49457681  0.74773913  0.25147650
   0.25254955 -0.00014328  0.74872039
   0.49067117 -0.00264066  0.49720225
   0.74727252 -0.00229700  0.75683283
   0.00511597  0.75924509  0.24875680
   0.74359947  0.49850331  0.24726404
   0.00773142  0.00276667  0.49555436
   0.49387553  0.50015979  0.49880466
   0.74435401  0.50010631  0.75285490
   0.74865044  0.74619902  0.49950712
HECN                                    
           1
     8.731266   -0.000087    0.007295
    -0.000079    8.751620    0.002207
     0.007280    0.002206    8.735883
   Ti   W    V    N    C    Nb   Ta
   7   6   7  13  19   6   6
Direct configuration=     9
   0.00096533  0.00221827  0.00502484
   0.24866120  0.00230175  0.25005404
   0.25457237  0.49788380  0.24900527
   0.49632871  0.49360261  0.00126391
   0.49360032  0.25063824  0.75793755
   0.00539167  0.49863648  0.50138606
   0.49614520  0.74986686  0.74824363
   0.00531777  0.23722241  0.25568621
   0.76072188  0.74474676 -0.00019079
   0.01185890  0.25881214  0.74350531
   0.75791302  0.25631053  0.49554103
   0.00257107  0.74124110  0.75255282
   0.25404869  0.49959056  0.75219322
   0.25986663  0.25583239 -0.00462525
   0.49427789  0.25381470  0.23806128
   0.75515435 -0.00301333  0.24457874
   0.73884597  0.25415578  0.00336384
   0.24044419  0.74222981  0.00181070
   0.24323013  0.24838360  0.50599512
   0.25241749  0.75181598  0.49764113
   0.25085429  0.24991789  0.24952867
   0.24735029  0.00122987  0.00565345
   0.00096141  0.24476113  0.00099059
   0.74672747  0.24468507  0.24732326
   0.75404107  0.00490234  0.00675174
   0.50012147  0.00754347  0.24986239
   0.00294125  0.49867052  0.25321561
   0.49658964  0.74776904 -0.00550822
  -0.00045550  0.00094139  0.75416394
   0.74485958  0.25004588  0.75283276
   0.75153059  0.00056202  0.49381716
   0.49737463  0.25085840  0.50033002
   0.49996952  0.00138184  0.75046855
  -0.00112175  0.00021106  0.24611105
   0.49907761  0.25473256  0.00229845
   0.25073292  0.74961996  0.24924230
   0.25355896  0.49960056  0.00245588
   0.00591561  0.75432223 -0.00132540
   0.74995029  0.75560688  0.24791883
   0.74583602  0.49589934  0.00077849
   0.49582787  0.49321217  0.24650658
   0.25161367  0.25210229  0.75032687
   0.24984802  0.00039185  0.49504970
   0.00576600  0.25412422  0.49964778
   0.25224364  0.74740305  0.75048125
   0.24663574  0.49935199  0.49832977
   0.00651558  0.74789109  0.50217113
   0.00138518  0.49993855  0.74522967
   0.74578508  0.75004806  0.75181309
   0.75308179  0.49846090  0.49922682
   0.49344616  0.74921799  0.50461063
   0.49763012  0.49897303  0.75315682
   0.49932048  0.00979284  0.00395298
   0.00374801  0.50010196 -0.00350878
   0.49448343  0.74766739  0.25152051
   0.25257519 -0.00016830  0.74870551
   0.49056585 -0.00272539  0.49713748
   0.74722996 -0.00230831  0.75697313
   0.00511673  0.75932184  0.24874864
   0.74353760  0.49849341  0.24728861
   0.00776321  0.00277752  0.49554219
   0.49386175  0.50019150  0.49881220
   0.74426043  0.50008758  0.75283945
   0.74861099  0.74610153  0.49950050
HECN                                    
           1
     8.721028    0.000505    0.012402
     0.000513    8.743354    0.005045
     0.012388    0.005040    8.728418
   Ti   W    V    N    C    Nb   Ta
   7   6   7  13  19   6   6
Direct configuration=    10
   0.00119965  0.00333849  0.00558887
   0.24845233  0.00295596  0.24967057
   0.25443221  0.49727091  0.24871719
   0.49558298  0.49369679  0.00138080
   0.49282949  0.25051376  0.75924471
   0.00621151  0.49935874  0.50091643
   0.49539158  0.75000211  0.74806776
   0.00529825  0.23643188  0.25611610
   0.76362272  0.74403229 -0.00062009
   0.01381590  0.26110369  0.74302898
   0.75993319  0.25733337  0.49388358
   0.00267541  0.73883977  0.75262816
   0.25435587  0.49954535  0.75280529
   0.26228433  0.25695007 -0.00542385
   0.49282889  0.25479990  0.23505657
   0.75657116 -0.00324698  0.24247826
   0.73548325  0.25454726  0.00500573
   0.23824962  0.74008550  0.00237429
   0.24200755  0.24764862  0.50792490
   0.25375541  0.75244768  0.49660712
   0.25075986  0.24977291  0.24943020
   0.24784595  0.00192526  0.00543445
   0.00113192  0.24491975  0.00094176
   0.74640223  0.24417536  0.24744330
   0.75400813  0.00540438  0.00716872
   0.50024113  0.00847049  0.25029567
   0.00233604  0.49802290  0.25251515
   0.49685677  0.74883307 -0.00535905
  -0.00112385  0.00148542  0.75396964
   0.74460159  0.24934391  0.75245254
   0.75151495  0.00092100  0.49409609
   0.49794715  0.25056429  0.50058541
   0.50016897  0.00187061  0.75036588
  -0.00063873 -0.00091402  0.24690709
   0.49869691  0.25541146  0.00202720
   0.25096109  0.74958786  0.24889897
   0.25303753  0.49945027  0.00261435
   0.00644659  0.75395557 -0.00108277
   0.74991351  0.75515063  0.24781584
   0.74639749  0.49593583  0.00088587
   0.49595046  0.49340207  0.24713536
   0.25203427  0.25168405  0.75045222
   0.24980221  0.00057158  0.49536646
   0.00631885  0.25367764  0.49981879
   0.25180685  0.74768237  0.75075352
   0.24735381  0.49914492  0.49858679
   0.00616452  0.74891936  0.50238701
   0.00088021  0.49990730  0.74545774
   0.74583126  0.75004590  0.75175211
   0.75215574  0.49899901  0.49908629
   0.49361498  0.74894800  0.50427835
   0.49762893  0.49873049  0.75246868
   0.49952405  0.00981807  0.00481265
   0.00392439  0.50026643 -0.00381483
   0.49393296  0.74694996  0.25196477
   0.25290073 -0.00049679  0.74843351
   0.48984622 -0.00373389  0.49645484
   0.74668005 -0.00268060  0.75867999
   0.00503856  0.75945566  0.24895421
   0.74317905  0.49837068  0.24766744
   0.00788459  0.00267603  0.49552645
   0.49376239  0.50056991  0.49891028
   0.74334118  0.49988699  0.75248903
   0.74795787  0.74526337  0.49952129
HECN                                    
           1
     8.710079    0.001139    0.017863
     0.001147    8.734514    0.008081
     0.017849    0.008070    8.720435
   Ti   W    V    N    C    Nb   Ta
   7   6   7  13  19   6   6
Direct configuration=    11
   0.00145007  0.00453733  0.00619199
   0.24822891  0.00365635  0.24926006
   0.25428238  0.49661499  0.24840917
   0.49478451  0.49379762  0.00150634
   0.49200342  0.25038013  0.76064426
   0.00708948  0.50013193  0.50041303
   0.49458485  0.75014700  0.74787996
   0.00527715  0.23558558  0.25657649
   0.76672871  0.74326749 -0.00108114
   0.01591122  0.26355652  0.74251716
   0.76209697  0.25842862  0.49210804
   0.00278726  0.73626943  0.75270956
   0.25468436  0.49949673  0.75346020
   0.26487317  0.25814650 -0.00628046
   0.49127939  0.25585558  0.23184127
   0.75808935 -0.00349644  0.24022937
   0.73188202  0.25496596  0.00676498
   0.23589990  0.73779026  0.00297962
   0.24069749  0.24686135  0.50999131
   0.25518840  0.75312409  0.49549940
   0.25065884  0.24961776  0.24932492
   0.24837669  0.00266962  0.00519951
   0.00131449  0.24508953  0.00088934
   0.74605399  0.24362977  0.24757215
   0.75397256  0.00594161  0.00761486
   0.50036890  0.00946259  0.25075900
   0.00168858  0.49733000  0.25176607
   0.49714261  0.74997191 -0.00519993
  -0.00183932  0.00206785  0.75376192
   0.74432567  0.24859269  0.75204600
   0.75149799  0.00130515  0.49439452
   0.49855996  0.25024937  0.50085848
   0.50038253  0.00239379  0.75025570
  -0.00012203 -0.00211857  0.24775916
   0.49828944  0.25613825  0.00173690
   0.25120559  0.74955361  0.24853138
   0.25247920  0.49928939  0.00278434
   0.00701493  0.75356298 -0.00082329
   0.74987423  0.75466231  0.24770580
   0.74699854  0.49597481  0.00100043
   0.49608130  0.49360511  0.24780820
   0.25248453  0.25123631  0.75058627
   0.24975295  0.00076384  0.49570545
   0.00691066  0.25319954  0.50000163
   0.25133901  0.74798127  0.75104511
   0.24812243  0.49892313  0.49886150
   0.00578845  0.75001994  0.50261792
   0.00033944  0.49987380  0.74570216
   0.74588075  0.75004361  0.75168682
   0.75116435  0.49957510  0.49893629
   0.49379596  0.74865913  0.50392271
   0.49762810  0.49847113  0.75173227
   0.49974147  0.00984475  0.00573261
   0.00411341  0.50044257 -0.00414254
   0.49334339  0.74618193  0.25244084
   0.25324945 -0.00084832  0.74814232
   0.48907628 -0.00481308  0.49572503
   0.74609026 -0.00307964  0.76050726
   0.00495474  0.75959883  0.24917422
   0.74279495  0.49823920  0.24807316
   0.00801455  0.00256740  0.49550956
   0.49365592  0.50097493  0.49901518
   0.74235726  0.49967248  0.75211464
   0.74725868  0.74436627  0.49954424
HECN                                    
           1
     8.721015   -0.001298    0.017966
    -0.001297    8.720443    0.009502
     0.017993    0.009480    8.710597
   Ti   W    V    N    C    Nb   Ta
   7   6   7  13  19   6   6
Direct configuration=    12
   0.00168195  0.00536059  0.00653394
   0.24811838  0.00379886  0.24955949
   0.25408286  0.49635591  0.24836400