   2   2   0   0
  0.1388154E+02  0.3028000E-09  0.3028000E-09  0.3028000E-09  0.5000000E-15
  1.000000000000000E-004
  CAR 
 HECN                                    
     38.86195604    -35.57931941  301      5.83139835      1.00000000
    -35.579  0.0000E+00  0.0000E+00
    -35.331  0.0000E+00  0.0000E+00
    -35.083  0.0000E+00  0.0000E+00
    -34.835  0.0000E+00  0.0000E+00
    -34.587  0.0000E+00  0.0000E+00
    -34.339  0.0000E+00  0.0000E+00
    -34.090  0.0000E+00  0.0000E+00
    -33.842  0.0000E+00  0.0000E+00
    -33.594  0.0000E+00  0.0000E+00
    -33.346  0.0000E+00  0.0000E+00
    -33.098  0.0000E+00  0.0000E+00
    -32.850  0.0000E+00  0.0000E+00
    -32.602  0.1673E-09  0.4151E-10
    -32.354  0.4592E-03  0.1140E-03
    -32.105  0.5250E-01  0.1314E-01
    -31.857  0.1306E+00  0.4556E-01
    -31.609  0.1257E+00  0.7674E-01
    -31.361  0.1614E+00  0.1168E+00
    -31.113  0.1295E-01  0.1200E+00
    -30.865  0.8664E-06  0.1200E+00
    -30.617  0.5548E-15  0.1200E+00
    -30.368  0.0000E+00  0.1200E+00
    -30.120  0.0000E+00  0.1200E+00
    -29.872  0.0000E+00  0.1200E+00
    -29.624  0.0000E+00  0.1200E+00
    -29.376  0.0000E+00  0.1200E+00
    -29.128  0.0000E+00  0.1200E+00
    -28.880  0.0000E+00  0.1200E+00
    -28.631  0.0000E+00  0.1200E+00
    -28.383  0.0000E+00  0.1200E+00
    -28.135  0.0000E+00  0.1200E+00
    -27.887  0.0000E+00  0.1200E+00
    -27.639  0.0000E+00  0.1200E+00
    -27.391  0.0000E+00  0.1200E+00
    -27.143  0.0000E+00  0.1200E+00
    -26.895  0.0000E+00  0.1200E+00
    -26.646  0.0000E+00  0.1200E+00
    -26.398  0.0000E+00  0.1200E+00
    -26.150  0.0000E+00  0.1200E+00
    -25.902  0.0000E+00  0.1200E+00
    -25.654  0.0000E+00  0.1200E+00
    -25.406  0.0000E+00  0.1200E+00
    -25.158  0.0000E+00  0.1200E+00
    -24.909  0.0000E+00  0.1200E+00
    -24.661  0.0000E+00  0.1200E+00
    -24.413  0.0000E+00  0.1200E+00
    -24.165  0.0000E+00  0.1200E+00
    -23.917  0.0000E+00  0.1200E+00
    -23.669  0.0000E+00  0.1200E+00
    -23.421  0.0000E+00  0.1200E+00
    -23.172  0.0000E+00  0.1200E+00
    -22.924  0.0000E+00  0.1200E+00
    -22.676  0.0000E+00  0.1200E+00
    -22.428  0.0000E+00  0.1200E+00
    -22.180  0.0000E+00  0.1200E+00
    -21.932  0.0000E+00  0.1200E+00
    -21.684  0.0000E+00  0.1200E+00
    -21.435  0.0000E+00  0.1200E+00
    -21.187  0.0000E+00  0.1200E+00
    -20.939  0.0000E+00  0.1200E+00
    -20.691  0.0000E+00  0.1200E+00
    -20.443  0.0000E+00  0.1200E+00
    -20.195  0.0000E+00  0.1200E+00
    -19.947  0.0000E+00  0.1200E+00
    -19.699  0.0000E+00  0.1200E+00
    -19.450  0.0000E+00  0.1200E+00
    -19.202  0.0000E+00  0.1200E+00
    -18.954  0.0000E+00  0.1200E+00
    -18.706  0.0000E+00  0.1200E+00
    -18.458  0.0000E+00  0.1200E+00
    -18.210  0.0000E+00  0.1200E+00
    -17.962  0.0000E+00  0.1200E+00
    -17.713  0.0000E+00  0.1200E+00
    -17.465  0.0000E+00  0.1200E+00
    -17.217  0.0000E+00  0.1200E+00
    -16.969  0.0000E+00  0.1200E+00
    -16.721  0.0000E+00  0.1200E+00
    -16.473  0.0000E+00  0.1200E+00
    -16.225  0.0000E+00  0.1200E+00
    -15.976  0.0000E+00  0.1200E+00
    -15.728  0.0000E+00  0.1200E+00
    -15.480  0.0000E+00  0.1200E+00
    -15.232  0.0000E+00  0.1200E+00
    -14.984  0.0000E+00  0.1200E+00
    -14.736  0.0000E+00  0.1200E+00
    -14.488  0.0000E+00  0.1200E+00
    -14.239  0.0000E+00  0.1200E+00
    -13.991  0.0000E+00  0.1200E+00
    -13.743  0.0000E+00  0.1200E+00
    -13.495  0.0000E+00  0.1200E+00
    -13.247  0.0000E+00  0.1200E+00
    -12.999  0.0000E+00  0.1200E+00
    -12.751  0.0000E+00  0.1200E+00
    -12.503  0.0000E+00  0.1200E+00
    -12.254  0.0000E+00  0.1200E+00
    -12.006  0.0000E+00  0.1200E+00
    -11.758  0.0000E+00  0.1200E+00
    -11.510  0.0000E+00  0.1200E+00
    -11.262  0.0000E+00  0.1200E+00
    -11.014  0.0000E+00  0.1200E+00
    -10.766  0.0000E+00  0.1200E+00
    -10.517  0.0000E+00  0.1200E+00
    -10.269  0.0000E+00  0.1200E+00
    -10.021  0.0000E+00  0.1200E+00
     -9.773  0.0000E+00  0.1200E+00
     -9.525  0.0000E+00  0.1200E+00
     -9.277  0.0000E+00  0.1200E+00
     -9.029  0.0000E+00  0.1200E+00
     -8.780  0.0000E+00  0.1200E+00
     -8.532  0.0000E+00  0.1200E+00
     -8.284  0.0000E+00  0.1200E+00
     -8.036  0.0000E+00  0.1200E+00
     -7.788  0.0000E+00  0.1200E+00
     -7.540  0.0000E+00  0.1200E+00
     -7.292  0.0000E+00  0.1200E+00
     -7.043  0.0000E+00  0.1200E+00
     -6.795  0.0000E+00  0.1200E+00
     -6.547  0.0000E+00  0.1200E+00
     -6.299  0.0000E+00  0.1200E+00
     -6.051  0.0000E+00  0.1200E+00
     -5.803  0.0000E+00  0.1200E+00
     -5.555  0.0000E+00  0.1200E+00
     -5.307  0.0000E+00  0.1200E+00
     -5.058  0.0000E+00  0.1200E+00
     -4.810  0.0000E+00  0.1200E+00
     -4.562  0.0000E+00  0.1200E+00
     -4.314  0.0000E+00  0.1200E+00
     -4.066  0.0000E+00  0.1200E+00
     -3.818  0.0000E+00  0.1200E+00
     -3.570  0.0000E+00  0.1200E+00
     -3.321  0.0000E+00  0.1200E+00
     -3.073  0.0000E+00  0.1200E+00
     -2.825  0.0000E+00  0.1200E+00
     -2.577  0.0000E+00  0.1200E+00
     -2.329  0.0000E+00  0.1200E+00
     -2.081  0.0000E+00  0.1200E+00
     -1.833  0.0000E+00  0.1200E+00
     -1.584  0.0000E+00  0.1200E+00
     -1.336  0.1359E-16  0.1200E+00
     -1.088  0.3308E-07  0.1200E+00
     -0.840  0.6921E-03  0.1202E+00
     -0.592  0.2285E-02  0.1207E+00
     -0.344  0.8202E-05  0.1207E+00
     -0.096  0.4873E-12  0.1207E+00
      0.152  0.0000E+00  0.1207E+00
      0.401  0.0000E+00  0.1207E+00
      0.649  0.4474E-16  0.1207E+00
      0.897  0.1402E-06  0.1207E+00
      1.145  0.3743E-02  0.1217E+00
      1.393  0.1411E-01  0.1252E+00
      1.641  0.6225E-04  0.1252E+00
      1.889  0.1526E-07  0.1252E+00
      2.138  0.2819E-02  0.1259E+00
      2.386  0.3236E-01  0.1339E+00
      2.634  0.9639E-03  0.1342E+00
      2.882  0.5480E-02  0.1355E+00
      3.130  0.3915E-02  0.1365E+00
      3.378  0.3430E-01  0.1450E+00
      3.626  0.1568E-01  0.1489E+00
      3.875  0.2701E-01  0.1556E+00
      4.123  0.3106E-01  0.1633E+00
      4.371  0.8028E-02  0.1653E+00
      4.619  0.4248E-01  0.1758E+00
      4.867  0.6258E-01  0.1914E+00
      5.115  0.3886E-01  0.2010E+00
      5.363  0.3048E-01  0.2086E+00
      5.612  0.2810E-01  0.2155E+00
      5.860  0.2359E-01  0.2214E+00
      6.108  0.4027E-01  0.2314E+00
      6.356  0.1708E-01  0.2356E+00
      6.604  0.1607E-01  0.2396E+00
      6.852  0.1566E-01  0.2435E+00
      7.100  0.4084E-02  0.2445E+00
      7.348  0.4346E-01  0.2553E+00
      7.597  0.2791E-01  0.2622E+00
      7.845  0.1436E-01  0.2658E+00
      8.093  0.2919E-01  0.2730E+00
      8.341  0.1200E+00  0.3028E+00
      8.589  0.6041E-01  0.3178E+00
      8.837  0.2081E-01  0.3230E+00
      9.085  0.2749E-04  0.3230E+00
      9.334  0.6818E-02  0.3247E+00
      9.582  0.2295E-01  0.3304E+00
      9.830  0.1499E-01  0.3341E+00
     10.078  0.3638E-05  0.3341E+00
     10.326  0.1051E-13  0.3341E+00
     10.574  0.1139E-05  0.3341E+00
     10.822  0.8965E-02  0.3363E+00
     11.071  0.4251E-01  0.3468E+00
     11.319  0.2608E-01  0.3533E+00
     11.567  0.5493E-04  0.3533E+00
     11.815  0.1753E-11  0.3533E+00
     12.063  0.0000E+00  0.3533E+00
     12.311  0.0000E+00  0.3533E+00
     12.559  0.0000E+00  0.3533E+00
     12.808  0.0000E+00  0.3533E+00
     13.056  0.0000E+00  0.3533E+00
     13.304  0.0000E+00  0.3533E+00
     13.552  0.0000E+00  0.3533E+00
     13.800  0.0000E+00  0.3533E+00
     14.048  0.1458E-13  0.3533E+00
     14.296  0.5379E-05  0.3533E+00
     14.544  0.2047E-01  0.3584E+00
     14.793  0.2727E-01  0.3652E+00
     15.041  0.2078E-04  0.3652E+00
     15.289  0.2376E-07  0.3652E+00
     15.537  0.3307E-02  0.3660E+00
     15.785  0.3219E-01  0.3740E+00
     16.033  0.8675E-02  0.3761E+00
     16.281  0.6036E-03  0.3763E+00
     16.530  0.1963E-03  0.3763E+00
     16.778  0.2050E-01  0.3814E+00
     17.026  0.3187E-02  0.3822E+00
     17.274  0.4596E-07  0.3822E+00
     17.522  0.0000E+00  0.3822E+00
     17.770  0.0000E+00  0.3822E+00
     18.018  0.0000E+00  0.3822E+00
     18.267  0.0000E+00  0.3822E+00
     18.515  0.1057E-13  0.3822E+00
     18.763  0.3961E-05  0.3822E+00
     19.011  0.1529E-01  0.3860E+00
     19.259  0.2062E-01  0.3911E+00
     19.507  0.3533E-01  0.3999E+00
     19.755  0.1245E-01  0.4030E+00
     20.003  0.2748E-01  0.4098E+00
     20.252  0.8246E-02  0.4119E+00
     20.500  0.3874E-06  0.4119E+00
     20.748  0.6194E-05  0.4119E+00
     20.996  0.1230E-01  0.4149E+00
     21.244  0.1157E-01  0.4178E+00
     21.492  0.4644E-05  0.4178E+00
     21.740  0.2270E-08  0.4178E+00
     21.989  0.1361E-02  0.4181E+00
     22.237  0.3353E-01  0.4264E+00
     22.485  0.4303E-01  0.4371E+00
     22.733  0.1757E-01  0.4415E+00
     22.981  0.1677E-03  0.4415E+00
     23.229  0.2834E-01  0.4485E+00
     23.477  0.7969E-02  0.4505E+00
     23.726  0.1820E-01  0.4550E+00
     23.974  0.1676E-01  0.4592E+00
     24.222  0.3109E-03  0.4593E+00
     24.470  0.1826E-01  0.4638E+00
     24.718  0.5559E-02  0.4652E+00
     24.966  0.2681E-06  0.4652E+00
     25.214  0.1114E-15  0.4652E+00
     25.463  0.0000E+00  0.4652E+00
     25.711  0.5423E-08  0.4652E+00
     25.959  0.1914E-02  0.4657E+00
     26.207  0.3287E-01  0.4738E+00
     26.455  0.1038E-02  0.4741E+00
     26.703  0.5307E-02  0.4754E+00
     26.951  0.2122E-01  0.4807E+00
     27.199  0.3549E-03  0.4807E+00
     27.448  0.3059E-02  0.4815E+00
     27.696  0.3269E-01  0.4896E+00
     27.944  0.3040E-02  0.4904E+00
     28.192  0.4544E-02  0.4915E+00
     28.440  0.3096E-01  0.4992E+00
     28.688  0.3205E-03  0.4993E+00
     28.936  0.7482E-10  0.4993E+00
     29.185  0.0000E+00  0.4993E+00
     29.433  0.2844E-09  0.4993E+00
     29.681  0.5758E-03  0.4994E+00
     29.929  0.3217E-01  0.5074E+00
     30.177  0.3076E-02  0.5081E+00
     30.425  0.1941E-07  0.5081E+00
     30.673  0.1901E-08  0.5081E+00
     30.922  0.1506E-02  0.5085E+00
     31.170  0.4390E-01  0.5194E+00
     31.418  0.2361E-02  0.5200E+00
     31.666  0.6227E-04  0.5200E+00
     31.914  0.2578E-01  0.5264E+00
     32.162  0.1447E-01  0.5300E+00
     32.410  0.2063E-01  0.5351E+00
     32.659  0.3308E-01  0.5433E+00
     32.907  0.2394E-02  0.5439E+00
     33.155  0.5040E-02  0.5452E+00
     33.403  0.4049E-04  0.5452E+00
     33.651  0.3797E-03  0.5453E+00
     33.899  0.3135E-01  0.5531E+00
     34.147  0.4089E-02  0.5541E+00
     34.395  0.4351E-07  0.5541E+00
     34.644  0.0000E+00  0.5541E+00
     34.892  0.1326E-17  0.5541E+00
     35.140  0.2039E-07  0.5541E+00
     35.388  0.2411E-02  0.5547E+00
     35.636  0.2117E-01  0.5599E+00
     35.884  0.3050E-03  0.5600E+00
     36.132  0.1115E-09  0.5600E+00
     36.381  0.0000E+00  0.5600E+00
     36.629  0.0000E+00  0.5600E+00
     36.877  0.0000E+00  0.5600E+00
     37.125  0.0000E+00  0.5600E+00
     37.373  0.0000E+00  0.5600E+00
     37.621  0.0000E+00  0.5600E+00
     37.869  0.0000E+00  0.5600E+00
     38.118  0.0000E+00  0.5600E+00
     38.366  0.0000E+00  0.5600E+00
     38.614  0.0000E+00  0.5600E+00
     38.862  0.0000E+00  0.5600E+00
