 vasp.6.4.3 19Mar24 (build Sep 18 2024 11:30:23) complex                        
  
 executed on             LinuxIFC date 2026.07.07  16:47:35
 running   28 mpi-ranks, on    1 nodes
 distrk:  each k-point on   28 cores,    1 groups
 distr:  one band on NCORE=   1 cores,   28 groups


--------------------------------------------------------------------------------------------------------


 INCAR:
   SYSTEM = HECN
   ISTART = 0
   ICHARG = 2
   PREC = Normal
   LREAL = .F.
   IBRION = 2
   ISIF = 3
   NSW = 100
   POTIM = 0.5
   EDIFFG = -0.01
   ENCUT = 400
   NELM = 60
   EDIFF = 1E-5
   LCHARG = .F.
   LWAVE = .F.
   ISMEAR = 0
   SIGMA = 0.1
   ALGO = Fast

 POTCAR:   PAW_PBE V_pv 07Sep2000                 
 -----------------------------------------------------------------------------
|                                                                             |
|           W    W    AA    RRRRR   N    N  II  N    N   GGGG   !!!           |
|           W    W   A  A   R    R  NN   N  II  NN   N  G    G  !!!           |
|           W    W  A    A  R    R  N N  N  II  N N  N  G       !!!           |
|           W WW W  AAAAAA  RRRRR   N  N N  II  N  N N  G  GGG   !            |
|           WW  WW  A    A  R   R   N   NN  II  N   NN  G    G                |
|           W    W  A    A  R    R  N    N  II  N    N   GGGG   !!!           |
|                                                                             |
|     For optimal performance we recommend to set                             |
|       NCORE = 2 up to number-of-cores-per-socket                            |
|     NCORE specifies how many cores store one orbital (NPAR=cpu/NCORE).      |
|     This setting can greatly improve the performance of VASP for DFT.       |
|     The default, NCORE=1 might be grossly inefficient on modern             |
|     multi-core architectures or massively parallel machines. Do your        |
|     own testing! More info at https://www.vasp.at/wiki/index.php/NCORE      |
|     Unfortunately you need to use the default for GW and RPA                |
|     calculations (for HF NCORE is supported but not extensively tested      |
|     yet).                                                                   |
|                                                                             |
 -----------------------------------------------------------------------------

 POTCAR:   PAW_PBE V_pv 07Sep2000                 
   VRHFIN =V: p6 d4 s1                                                                              
   LEXCH  = PE                                                                                      
   EATOM  =  1321.3402 eV,   97.1158 Ry                                                             
                                                                                                    
   TITEL  = PAW_PBE V_pv 07Sep2000                                                                  
   LULTRA =        F    use ultrasoft PP ?                                                          
   IUNSCR =        1    unscreen: 0-lin 1-nonlin 2-no                                               
   RPACOR =    1.700    partial core radius                                                         
   POMASS =   50.941; ZVAL   =   11.000    mass and valenz                                          
   RCORE  =    2.300    outmost cutoff radius                                                       
   RWIGS  =    2.300; RWIGS  =    1.217    wigner-seitz radius (au A)                               
   ENMAX  =  263.675; ENMIN  =  197.756 eV                                                          
   RCLOC  =    1.779    cutoff for local pot                                                        
   LCOR   =        T    correct aug charges                                                         
   LPAW   =        T    paw PP                                                                      
   EAUG   =  598.473                                                                                
   DEXC   =    -.006                                                                                
   RMAX   =    2.839    core radius for proj-oper                                                   
   RAUG   =    1.300    factor for augmentation sphere                                              
   RDEP   =    2.430    radius for radial grids                                                     
   RDEPT  =    1.700    core radius for aug-charge                                                  
   QCUT   =   -4.402; QGAM   =    8.804    optimization parameters                                  
                                                                                                    
   Description                                                                                      
     l     E      TYP  RCUT    TYP  RCUT                                                            
     1   .000     23  2.000                                                                         
     1   .400     23  2.000                                                                         
     2   .000     23  2.300                                                                         
     2   .000     23  2.300                                                                         
     0   .000     23  2.300                                                                         
     0  2.000     23  2.300                                                                         
     3   .000      7   .000                                                                         
  local pseudopotential read in
  partial core-charges read in
  atomic valenz-charges read in
  non local Contribution for L=           1  read in
    real space projection operators read in
  non local Contribution for L=           1  read in
    real space projection operators read in
  non local Contribution for L=           2  read in
    real space projection operators read in
  non local Contribution for L=           2  read in
    real space projection operators read in
  non local Contribution for L=           0  read in
    real space projection operators read in
  non local Contribution for L=           0  read in
    real space projection operators read in
    PAW grid and wavefunctions read in
 
   number of l-projection  operators is LMAX  =           6
   number of lm-projection operators is LMMAX =          18
 
 PAW_PBE V_pv 07Sep2000                 :
 energy of atom  1       EATOM=-1321.3402
 kinetic energy error for atom=    0.0272 (will be added to EATOM!!)
 
 
 POSCAR: V
  positions in direct lattice
  No initial velocities read in


 exchange-correlation table for PE
   RHO(1)=    0.500       N(1)  =     2000
   RHO(2)=  100.500       N(2)  =     4000
 


--------------------------------------------------------------------------------------------------------


 ion  position               nearest neighbor table
   1  0.000  0.000  0.000-   2 2.62   2 2.62   2 2.62   2 2.62   2 2.62   2 2.62   2 2.62   2 2.62

   2  0.500  0.500  0.500-   1 2.62   1 2.62   1 2.62   1 2.62   1 2.62   1 2.62   1 2.62   1 2.62

 
  LATTYP: Found a simple cubic cell.
 ALAT       =     3.0280001163
  
  Lattice vectors:
  
 A1 = (   3.0280001163,   0.0000000000,   0.0000000000)
 A2 = (   0.0000000000,   3.0280001163,   0.0000000000)
 A3 = (   0.0000000000,   0.0000000000,   3.0280001163)


Analysis of symmetry for initial positions (statically):
=====================================================================
 Subroutine PRICEL returns following result:
 
  LATTYP: Found a body centered cubic cell.
 ALAT       =     3.0280001163
  
  Lattice vectors:
  
 A1 = (   1.5140000581,   1.5140000582,  -1.5140000581)
 A2 = (  -1.5140000581,   1.5140000581,   1.5140000581)
 A3 = (   1.5140000581,  -1.5140000581,   1.5140000582)
 
   2 primitive cells build up your supercell.
 

 Routine SETGRP: Setting up the symmetry group for a 
 simple cubic supercell.


 Subroutine GETGRP returns: Found 48 space group operations
 (whereof 48 operations were pure point group operations)
 out of a pool of 48 trial point group operations.


The static configuration has the point symmetry O_h .


Analysis of symmetry for dynamics (positions and initial velocities):
=====================================================================
 Subroutine PRICEL returns following result:
 
  LATTYP: Found a body centered cubic cell.
 ALAT       =     3.0280001163
  
  Lattice vectors:
  
 A1 = (   1.5140000581,   1.5140000582,  -1.5140000581)
 A2 = (  -1.5140000581,   1.5140000581,   1.5140000581)
 A3 = (   1.5140000581,  -1.5140000581,   1.5140000582)
 
   2 primitive cells build up your supercell.
 

 Routine SETGRP: Setting up the symmetry group for a 
 simple cubic supercell.


 Subroutine GETGRP returns: Found 48 space group operations
 (whereof 48 operations were pure point group operations)
 out of a pool of 48 trial point group operations.


The dynamic configuration has the point symmetry O_h .


 Subroutine INISYM returns: Found 48 space group operations
 (whereof 48 operations are pure point group operations),
 and found     2 'primitive' translations


----------------------------------------------------------------------------------------

                                     Primitive cell                                     

  volume of cell :      13.8815

  direct lattice vectors                    reciprocal lattice vectors
     1.514000058  1.514000058 -1.514000058     0.330250978  0.330250978  0.000000000
    -1.514000058  1.514000058  1.514000058    -0.000000000  0.330250978  0.330250978
     1.514000058 -1.514000058  1.514000058     0.330250978  0.000000000  0.330250978

  length of vectors
     2.622325023  2.622325023  2.622325023     0.467045412  0.467045412  0.467045412

  position of ions in fractional coordinates (direct lattice)
     0.000000000  0.000000000  0.000000000

  ion indices of the primitive-cell ions
   primitive index   ion index
                 1           1

----------------------------------------------------------------------------------------

 
 
 KPOINTS: HECN                                    

Automatic generation of k-mesh.
 Grid dimensions read from file:
 generate k-points for:    3    3    3

 Generating k-lattice:

  Cartesian coordinates                     Fractional coordinates (reciprocal lattice)
     0.110083659  0.000000000  0.000000000     0.333333333  0.000000000  0.000000000
     0.000000000  0.110083659  0.000000000     0.000000000  0.333333333  0.000000000
     0.000000000  0.000000000  0.110083659     0.000000000  0.000000000  0.333333333

  Length of vectors
     0.110083659  0.110083659  0.110083659

  Shift w.r.t. Gamma in fractional coordinates (k-lattice)
     0.000000000  0.000000000  0.000000000

 
 Subroutine IBZKPT returns following result:
 ===========================================
 
 Found      4 irreducible k-points:
 
 Following reciprocal coordinates:
            Coordinates               Weight
  0.000000  0.000000  0.000000      1.000000
  0.333333  0.000000  0.000000      6.000000
  0.333333  0.333333  0.000000     12.000000
  0.333333  0.333333  0.333333      8.000000
 
 Following cartesian coordinates:
            Coordinates               Weight
  0.000000  0.000000  0.000000      1.000000
  0.110084  0.000000  0.000000      6.000000
  0.110084  0.110084  0.000000     12.000000
  0.110084  0.110084  0.110084      8.000000
 


--------------------------------------------------------------------------------------------------------




 Dimension of arrays:
   k-points           NKPTS =      4   k-points in BZ     NKDIM =      4   number of bands    NBANDS=     28
   number of dos      NEDOS =    301   number of ions     NIONS =      2
   non local maximal  LDIM  =      6   non local SUM 2l+1 LMDIM =     18
   total plane-waves  NPLWV =   4096
   max r-space proj   IRMAX =      1   max aug-charges    IRDMAX=   4350
   dimension x,y,z NGX =    16 NGY =   16 NGZ =   16
   dimension x,y,z NGXF=    32 NGYF=   32 NGZF=   32
   support grid    NGXF=    32 NGYF=   32 NGZF=   32
   ions per type =               2
   NGX,Y,Z   is equivalent  to a cutoff of   8.78,  8.78,  8.78 a.u.
   NGXF,Y,Z  is equivalent  to a cutoff of  17.57, 17.57, 17.57 a.u.

 SYSTEM =  HECN                                    
 POSCAR =  V                                       

 Startparameter for this run:
   NWRITE =      2    write-flag & timer
   PREC   = normal    normal or accurate (medium, high low for compatibility)
   ISTART =      0    job   : 0-new  1-cont  2-samecut
   ICHARG =      2    charge: 1-file 2-atom 10-const
   ISPIN  =      1    spin polarized calculation?
   LNONCOLLINEAR =      F non collinear calculations
   LSORBIT =      F    spin-orbit coupling
   INIWAV =      1    electr: 0-lowe 1-rand  2-diag
   LASPH  =      F    aspherical Exc in radial PAW
 Electronic Relaxation 1
   ENCUT  =  400.0 eV  29.40 Ry    5.42 a.u.   4.94  4.94  4.94*2*pi/ulx,y,z
   ENINI  =  400.0     initial cutoff
   ENAUG  =  598.5 eV  augmentation charge cutoff
   NELM   =     60;   NELMIN=  2; NELMDL= -5     # of ELM steps 
   EDIFF  = 0.1E-04   stopping-criterion for ELM
   LREAL  =      F    real-space projection
   NLSPLINE    = F    spline interpolate recip. space projectors
   LCOMPAT=      F    compatible to vasp.4.4
   GGA_COMPAT  = T    GGA compatible to vasp.4.4-vasp.4.6
   LMAXPAW     = -100 max onsite density
   LMAXMIX     =    2 max onsite mixed and CHGCAR
   VOSKOWN=      0    Vosko Wilk Nusair interpolation
   ROPT   =    0.00000
 Ionic relaxation
   EDIFFG = -.1E-01   stopping-criterion for IOM
   NSW    =    100    number of steps for IOM
   NBLOCK =      1;   KBLOCK =    100    inner block; outer block 
   IBRION =      2    ionic relax: 0-MD 1-quasi-New 2-CG
   NFREE  =      1    steps in history (QN), initial steepest desc. (CG)
   ISIF   =      3    stress and relaxation
   IWAVPR =     11    prediction:  0-non 1-charg 2-wave 3-comb
   ISYM   =      2    0-nonsym 1-usesym 2-fastsym
   LCORR  =      T    Harris-Foulkes like correction to forces

   POTIM  = 0.5000    time-step for ionic-motion
   TEIN   =    0.0    initial temperature
   TEBEG  =    0.0;   TEEND  =   0.0 temperature during run
   SMASS  =  -3.00    Nose mass-parameter (am)
   estimated Nose-frequenzy (Omega)   =  0.10E-29 period in steps = 0.13E+47 mass=  -0.210E-27a.u.
   SCALEE = 1.0000    scale energy and forces
   NPACO  =    256;   APACO  = 10.0  distance and # of slots for P.C.
   PSTRESS=    0.0 pullay stress

  Mass of Ions in am
   POMASS =  50.94
  Ionic Valenz
   ZVAL   =  11.00
  Atomic Wigner-Seitz radii
   RWIGS  =  -1.00
  virtual crystal weights 
   VCA    =   1.00
   NELECT =      22.0000    total number of electrons
   NUPDOWN=      -1.0000    fix difference up-down

 DOS related values:
   EMIN   =  10.00;   EMAX   =-10.00  energy-range for DOS
   EFERMI =   0.00;   METHOD = LEGACY      
   ISMEAR =     0;   SIGMA  =   0.10  broadening in eV -4-tet -1-fermi 0-gaus

 Electronic relaxation 2 (details)
   IALGO  =     68    algorithm
   LDIAG  =      T    sub-space diagonalisation (order eigenvalues)
   LSUBROT=      F    optimize rotation matrix (better conditioning)
   TURBO    =      0    0=normal 1=particle mesh
   IRESTART =      0    0=no restart 2=restart with 2 vectors
   NREBOOT  =      0    no. of reboots
   NMIN     =      0    reboot dimension
   EREF     =   0.00    reference energy to select bands
   IMIX   =      4    mixing-type and parameters
     AMIX     =   0.40;   BMIX     =  1.00
     AMIX_MAG =   1.60;   BMIX_MAG =  1.00
     AMIN     =   0.10
     WC   =   100.;   INIMIX=   1;  MIXPRE=   1;  MAXMIX= -45

 Intra band minimization:
   WEIMIN = 0.0010     energy-eigenvalue tresh-hold
   EBREAK =  0.89E-07  absolut break condition
   DEPER  =   0.30     relativ break condition  

   TIME   =   0.40     timestep for ELM

  volume/ion in A,a.u.               =      13.88        93.68
  Fermi-wavevector in a.u.,A,eV,Ry     =   1.514932  2.862807 31.225633  2.295019
  Thomas-Fermi vector in A             =   2.624524
 
 Write flags
   LWAVE        =      F    write WAVECAR
   LDOWNSAMPLE  =      F    k-point downsampling of WAVECAR
   LCHARG       =      F    write CHGCAR
   LVTOT        =      F    write LOCPOT, total local potential
   LVHAR        =      F    write LOCPOT, Hartree potential only
   WRT_POTENTIAL= false  ! write potential to hdf5 file
   LELF         =      F    write electronic localiz. function (ELF)
   LORBIT       =      0    0 simple, 1 ext, 2 COOP (PROOUT), +10 PAW based schemes


 Dipole corrections
   LMONO      =      F    monopole corrections only (constant potential shift)
   LDIPOL     =      F    correct potential (dipole corrections)
   IDIPOL     =      0    1-x, 2-y, 3-z, 4-all directions 
   EPSILON    =  1.0000000 bulk dielectric constant
   LVACPOTAV  =      F  vacuum potentials using an averaging scheme for the charge density
   VACPOTFLAT =  0.1000000 required flatness to determine vacuum potential
 Exchange correlation treatment:
   GGA     = PE    functional components
   XC_C    = 1    coefficients multiplying the functional components
   LIBXC   =     F    Libxc                    
   VOSKOWN =     0    Vosko Wilk Nusair interpolation
   LHFCALC =     F    Hartree Fock is set to
   LHFONE  =     F    Hartree Fock one center treatment
   AEXX    =    0.0000 exact exchange contribution

 Parameters of functionals:
   PE:
     No parameter
 
 Van der Waals corrections
   IVDW    =     0    specifies the selected vdW correction

 Linear response parameters
   LEPSILON=     F    determine dielectric tensor
   LRPA    =     F    only Hartree local field effects (RPA)
   LNABLA  =     F    use nabla operator in PAW spheres
   LVEL    =     F    velocity operator in full k-point grid
   CSHIFT  =0.1000    complex shift for real part using Kramers Kronig
   OMEGAMAX=  -1.0    maximum frequency
   DEG_THRESHOLD= 0.2000000E-02 threshold for treating states as degnerate
   RTIME   =   -0.100 relaxation time in fs
  (WPLASMAI=    0.000 imaginary part of plasma frequency in eV, 0.658/RTIME)
   DFIELD  = 0.0000000 0.0000000 0.0000000 field for delta impulse in time
 
  Optional k-point grid parameters
   LKPOINTS_OPT  =     F    use optional k-point grid
   KPOINTS_OPT_MODE=     1    mode for optional k-point grid
 
 Orbital magnetization related:
   ORBITALMAG=     F  switch on orbital magnetization
   LCHIMAG   =     F  perturbation theory with respect to B field
   DQ        =  0.001000  dq finite difference perturbation B field
   LLRAUG    =     F  two centre corrections for induced B field
   LBONE     =     F  B-component reconstruction in AE one-centre
   LVGVCALC  =     T  calculate vGv susceptibility
   LVGVAPPL  =     F  apply vGv susceptibility instead of pGv for G=0

 Random number generation:
   RANDOM_GENERATOR = DEFAULT
   PCG_SEED         = not used


--------------------------------------------------------------------------------------------------------


 conjugate gradient relaxation of ions
 charge density and potential will be updated during run
 non-spin polarized calculation
 RMM-DIIS sequential band-by-band and
  variant of blocked Davidson during initial phase
 perform sub-space diagonalisation
    before iterative eigenvector-optimisation
 modified Broyden-mixing scheme, WC =      100.0
 initial mixing is a Kerker type mixing with AMIX =  0.4000 and BMIX =      1.0000
 Hartree-type preconditioning will be used
 using additional bands           17
 reciprocal scheme for non local part
 use partial core corrections
 calculate Harris-corrections to forces 
   (improved forces if not selfconsistent)
 use gradient corrections 
 use of overlap-Matrix (Vanderbilt PP)
 Gauss-broadening in eV      SIGMA  =   0.10


--------------------------------------------------------------------------------------------------------


  energy-cutoff  :      400.00
  volume of cell :       27.76
      direct lattice vectors                 reciprocal lattice vectors
     3.028000116  0.000000000  0.000000000     0.330250978  0.000000000  0.000000000
     0.000000000  3.028000116  0.000000000     0.000000000  0.330250978  0.000000000
     0.000000000  0.000000000  3.028000116     0.000000000  0.000000000  0.330250978

  length of vectors
     3.028000116  3.028000116  3.028000116     0.330250978  0.330250978  0.330250978


 
 k-points in units of 2pi/SCALE and weight: HECN                                    
   0.00000000  0.00000000  0.00000000       0.037
   0.11008366  0.00000000  0.00000000       0.222
   0.11008366  0.11008366  0.00000000       0.444
   0.11008366  0.11008366  0.11008366       0.296
 
 k-points in reciprocal lattice and weights: HECN                                    
   0.00000000  0.00000000  0.00000000       0.037
   0.33333333  0.00000000  0.00000000       0.222
   0.33333333  0.33333333  0.00000000       0.444
   0.33333333  0.33333333  0.33333333       0.296
 
 position of ions in fractional coordinates (direct lattice) 
   0.00000000  0.00000000  0.00000000
   0.50000000  0.50000000  0.50000000
 
 position of ions in cartesian coordinates  (Angst):
   0.00000000  0.00000000  0.00000000
   1.51400006  1.51400006  1.51400006
 


--------------------------------------------------------------------------------------------------------


 k-point     1 :   0.0000 0.0000 0.0000  plane waves:     485
 k-point     2 :   0.3333 0.0000 0.0000  plane waves:     506
 k-point     3 :   0.3333 0.3333 0.0000  plane waves:     503
 k-point     4 :   0.3333 0.3333 0.3333  plane waves:     507

 maximum and minimum number of plane-waves per node :       507      485

 maximum number of plane-waves:       507
 maximum index in each direction: 
   IXMAX=    4   IYMAX=    4   IZMAX=    4
   IXMIN=   -5   IYMIN=   -5   IZMIN=   -5


 serial   3D FFT for wavefunctions
 parallel 3D FFT for charge:
    minimum data exchange during FFTs selected (reduces bandwidth)


 total amount of memory used by VASP MPI-rank0    30747. kBytes
=======================================================================

   base      :      30000. kBytes
   nonl-proj :        323. kBytes
   fftplans  :         86. kBytes
   grid      :        270. kBytes
   one-center:         31. kBytes
   wavefun   :         37. kBytes
 
     INWAV:  cpu time      0.0000: real time      0.0001
 Broyden mixing: mesh for mixing (old mesh)
   NGX =  9   NGY =  9   NGZ =  9
  (NGX  = 32   NGY  = 32   NGZ  = 32)
  gives a total of    729 points

 initial charge density was supplied:
 charge density of overlapping atoms calculated
 number of electron      22.0000000 magnetization 
 keeping initial charge density in first step


--------------------------------------------------------------------------------------------------------


 Maximum index for augmentation-charges          554 (set IRDMAX)


--------------------------------------------------------------------------------------------------------


 First call to EWALD:  gamma=   0.585
 Maximum number of real-space cells 3x 3x 3
 Maximum number of reciprocal cells 3x 3x 3

    FEWALD:  cpu time      0.0012: real time      0.0016


--------------------------------------- Ionic step        1  -------------------------------------------




--------------------------------------- Iteration      1(   1)  ---------------------------------------


    POTLOK:  cpu time      0.0059: real time      0.0148
    SETDIJ:  cpu time      0.0022: real time      0.0044
     EDDAV:  cpu time      0.0362: real time      0.0462
       DOS:  cpu time      0.0012: real time      0.0044
    --------------------------------------------
      LOOP:  cpu time      0.0456: real time      0.0698

 eigenvalue-minimisations  :   224
 total energy-change (2. order) : 0.3256715E+02  (-0.1367529E+04)
 number of electron      22.0000000 magnetization 
 augmentation part       22.0000000 magnetization 

 Free energy of the ion-electron system (eV)
  ---------------------------------------------------
  alpha Z        PSCENC =       198.39734250
  Ewald energy   TEWEN  =     -2094.09063206
  -Hartree energ DENC   =      -577.61827947
  -exchange      EXHF   =         0.00000000
  -V(xc)+E(xc)   XCENC  =        56.39264893
  PAW double counting   =      1925.01027843    -1876.68261432
  entropy T*S    EENTRO =        -0.00000412
  eigenvalues    EBANDS =      -241.46749881
  atomic energy  EATOM  =      2642.62590440
  Solvation  Ediel_sol  =         0.00000000
  ---------------------------------------------------
  free energy    TOTEN  =        32.56714549 eV

  energy without entropy =       32.56714961  energy(sigma->0) =       32.56714755


--------------------------------------------------------------------------------------------------------




--------------------------------------- Iteration      1(   2)  ---------------------------------------


     EDDAV:  cpu time      0.0481: real time      0.3832
       DOS:  cpu time      0.0003: real time      0.0003
    --------------------------------------------
      LOOP:  cpu time      0.0484: real time      0.3834

 eigenvalue-minimisations  :   280
 total energy-change (2. order) :-0.5367182E+02  (-0.5328516E+02)
 number of electron      22.0000000 magnetization 
 augmentation part       22.0000000 magnetization 

 Free energy of the ion-electron system (eV)
  ---------------------------------------------------
  alpha Z        PSCENC =       198.39734250
  Ewald energy   TEWEN  =     -2094.09063206
  -Hartree energ DENC   =      -577.61827947
  -exchange      EXHF   =         0.00000000
  -V(xc)+E(xc)   XCENC  =        56.39264893
  PAW double counting   =      1925.01027843    -1876.68261432
  entropy T*S    EENTRO =        -0.02507609
  eigenvalues    EBANDS =      -295.11424496
  atomic energy  EATOM  =      2642.62590440
  Solvation  Ediel_sol  =         0.00000000
  ---------------------------------------------------
  free energy    TOTEN  =       -21.10467264 eV

  energy without entropy =      -21.07959654  energy(sigma->0) =      -21.09213459


--------------------------------------------------------------------------------------------------------




--------------------------------------- Iteration      1(   3)  ---------------------------------------


     EDDAV:  cpu time      0.0393: real time      0.0401
       DOS:  cpu time      0.0003: real time      0.0003
    --------------------------------------------
      LOOP:  cpu time      0.0396: real time      0.0404

 eigenvalue-minimisations  :   308
 total energy-change (2. order) :-0.1214828E+00  (-0.1214828E+00)
 number of electron      22.0000000 magnetization 
 augmentation part       22.0000000 magnetization 

 Free energy of the ion-electron system (eV)
  ---------------------------------------------------
  alpha Z        PSCENC =       198.39734250
  Ewald energy   TEWEN  =     -2094.09063206
  -Hartree energ DENC   =      -577.61827947
  -exchange      EXHF   =         0.00000000
  -V(xc)+E(xc)   XCENC  =        56.39264893
  PAW double counting   =      1925.01027843    -1876.68261432
  entropy T*S    EENTRO =        -0.02507634
  eigenvalues    EBANDS =      -295.23572748
  atomic energy  EATOM  =      2642.62590440
  Solvation  Ediel_sol  =         0.00000000
  ---------------------------------------------------
  free energy    TOTEN  =       -21.22615540 eV

  energy without entropy =      -21.20107906  energy(sigma->0) =      -21.21361723


--------------------------------------------------------------------------------------------------------




--------------------------------------- Iteration      1(   4)  ---------------------------------------


     EDDAV:  cpu time      0.0398: real time      0.0404
       DOS:  cpu time      0.0003: real time      0.0003
    --------------------------------------------
      LOOP:  cpu time      0.0401: real time      0.0407

 eigenvalue-minimisations  :   308
 total energy-change (2. order) :-0.3244855E-04  (-0.3244842E-04)
 number of electron      22.0000000 magnetization 
 augmentation part       22.0000000 magnetization 

 Free energy of the ion-electron system (eV)
  ---------------------------------------------------
  alpha Z        PSCENC =       198.39734250
  Ewald energy   TEWEN  =     -2094.09063206
  -Hartree energ DENC   =      -577.61827947
  -exchange      EXHF   =         0.00000000
  -V(xc)+E(xc)   XCENC  =        56.39264893
  PAW double counting   =      1925.01027843    -1876.68261432
  entropy T*S    EENTRO =        -0.02507634
  eigenvalues    EBANDS =      -295.23575993
  atomic energy  EATOM  =      2642.62590440
  Solvation  Ediel_sol  =         0.00000000
  ---------------------------------------------------
  free energy    TOTEN  =       -21.22618785 eV

  energy without entropy =      -21.20111151  energy(sigma->0) =      -21.21364968


--------------------------------------------------------------------------------------------------------




--------------------------------------- Iteration      1(   5)  ---------------------------------------


     EDDAV:  cpu time      0.0455: real time      0.0460
       DOS:  cpu time      0.0004: real time      0.0004
    CHARGE:  cpu time      0.0018: real time      0.0069
    MIXING:  cpu time      0.0012: real time      0.0063
    --------------------------------------------
      LOOP:  cpu time      0.0489: real time      0.0595

 eigenvalue-minimisations  :   336
 total energy-change (2. order) :-0.1607305E-07  (-0.1606899E-07)
 number of electron      21.9999856 magnetization 
 augmentation part        8.4404409 magnetization 

 Broyden mixing:
  rms(total) = 0.11248E+01    rms(broyden)= 0.11240E+01
  rms(prec ) = 0.33984E+01
  weight for this iteration     100.00

 Free energy of the ion-electron system (eV)
  ---------------------------------------------------
  alpha Z        PSCENC =       198.39734250
  Ewald energy   TEWEN  =     -2094.09063206
  -Hartree energ DENC   =      -577.61827947
  -exchange      EXHF   =         0.00000000
  -V(xc)+E(xc)   XCENC  =        56.39264893
  PAW double counting   =      1925.01027843    -1876.68261432
  entropy T*S    EENTRO =        -0.02507634
  eigenvalues    EBANDS =      -295.23575994
  atomic energy  EATOM  =      2642.62590440
  Solvation  Ediel_sol  =         0.00000000
  ---------------------------------------------------
  free energy    TOTEN  =       -21.22618786 eV

  energy without entropy =      -21.20111153  energy(sigma->0) =      -21.21364970


--------------------------------------------------------------------------------------------------------




--------------------------------------- Iteration      1(   6)  ---------------------------------------


    POTLOK:  cpu time      0.0019: real time      0.0021
    SETDIJ:  cpu time      0.0012: real time      0.0012
    EDDIAG:  cpu time      0.0139: real time      0.0195
  RMM-DIIS:  cpu time      0.0017: real time      0.0042
    ORTHCH:  cpu time      0.0011: real time      0.0011
       DOS:  cpu time      0.0003: real time      0.0003
    CHARGE:  cpu time      0.0013: real time      0.0014
    MIXING:  cpu time      0.0004: real time      0.0013
    --------------------------------------------
      LOOP:  cpu time      0.0217: real time      0.0311

 eigenvalue-minimisations  :   224
 total energy-change (2. order) : 0.3039735E+01  (-0.3169110E+00)
 number of electron      21.9999847 magnetization 
 augmentation part        9.2870528 magnetization 

 Broyden mixing:
  rms(total) = 0.16603E+00    rms(broyden)= 0.16358E+00
  rms(prec ) = 0.39225E+00
  weight for this iteration     100.00

 eigenvalues of (default mixing * dielectric matrix)
  average eigenvalue GAMMA=   1.0157
  1.0157

 Free energy of the ion-electron system (eV)
  ---------------------------------------------------
  alpha Z        PSCENC =       198.39734250
  Ewald energy   TEWEN  =     -2094.09063206
  -Hartree energ DENC   =      -521.01420682
  -exchange      EXHF   =         0.00000000
  -V(xc)+E(xc)   XCENC  =        53.86061195
  PAW double counting   =      1860.99034217    -1818.55901326
  entropy T*S    EENTRO =        -0.02507977
  eigenvalues    EBANDS =      -340.37172200
  atomic energy  EATOM  =      2642.62590440
  Solvation  Ediel_sol  =         0.00000000
  ---------------------------------------------------
  free energy    TOTEN  =       -18.18645290 eV

  energy without entropy =      -18.16137313  energy(sigma->0) =      -18.17391301


--------------------------------------------------------------------------------------------------------




--------------------------------------- Iteration      1(   7)  ---------------------------------------


    POTLOK:  cpu time      0.0020: real time      0.0020
    SETDIJ:  cpu time      0.0013: real time      0.0013
    EDDIAG:  cpu time      0.0082: real time      0.0082
  RMM-DIIS:  cpu time      0.0009: real time      0.0009
    ORTHCH:  cpu time      0.0009: real time      0.0009
       DOS:  cpu time      0.0003: real time      0.0003
    CHARGE:  cpu time      0.0012: real time      0.0012
    MIXING:  cpu time      0.0002: real time      0.0002
    --------------------------------------------
      LOOP:  cpu time      0.0149: real time      0.0149

 eigenvalue-minimisations  :   224
 total energy-change (2. order) : 0.2622259E-01  (-0.1286845E-01)
 number of electron      21.9999846 magnetization 
 augmentation part        9.3009400 magnetization 

 Broyden mixing:
  rms(total) = 0.98790E-01    rms(broyden)= 0.98624E-01
  rms(prec ) = 0.22830E+00
  weight for this iteration     100.00

 eigenvalues of (default mixing * dielectric matrix)
  average eigenvalue GAMMA=   1.8369
  1.0112  2.6627

 Free energy of the ion-electron system (eV)
  ---------------------------------------------------
  alpha Z        PSCENC =       198.39734250
  Ewald energy   TEWEN  =     -2094.09063206
  -Hartree energ DENC   =      -517.49812081
  -exchange      EXHF   =         0.00000000
  -V(xc)+E(xc)   XCENC  =        53.73830065
  PAW double counting   =      1884.33759661    -1843.14962115
  entropy T*S    EENTRO =        -0.02507807
  eigenvalues    EBANDS =      -342.49592239
  atomic energy  EATOM  =      2642.62590440
  Solvation  Ediel_sol  =         0.00000000
  ---------------------------------------------------
  free energy    TOTEN  =       -18.16023032 eV

  energy without entropy =      -18.13515225  energy(sigma->0) =      -18.14769128


--------------------------------------------------------------------------------------------------------




--------------------------------------- Iteration      1(   8)  ---------------------------------------


    POTLOK:  cpu time      0.0018: real time      0.0018
    SETDIJ:  cpu time      0.0011: real time      0.0011
    EDDIAG:  cpu time      0.0075: real time      0.0075
  RMM-DIIS:  cpu time      0.0009: real time      0.0009
    ORTHCH:  cpu time      0.0010: real time      0.0010
       DOS:  cpu time      0.0003: real time      0.0003
    CHARGE:  cpu time      0.0011: real time      0.0011
    MIXING:  cpu time      0.0002: real time      0.0002
    --------------------------------------------
      LOOP:  cpu time      0.0138: real time      0.0138

 eigenvalue-minimisations  :   224
 total energy-change (2. order) : 0.1161880E-01  (-0.1643650E-02)
 number of electron      21.9999845 magnetization 
 augmentation part        9.3448406 magnetization 

 Broyden mixing:
  rms(total) = 0.32765E-01    rms(broyden)= 0.32742E-01
  rms(prec ) = 0.95396E-01
  weight for this iteration     100.00

 eigenvalues of (default mixing * dielectric matrix)
  average eigenvalue GAMMA=   1.5810
  2.5490  0.9260  1.2680

 Free energy of the ion-electron system (eV)
  ---------------------------------------------------
  alpha Z        PSCENC =       198.39734250
  Ewald energy   TEWEN  =     -2094.09063206
  -Hartree energ DENC   =      -513.06749968
  -exchange      EXHF   =         0.00000000
  -V(xc)+E(xc)   XCENC  =        53.60602590
  PAW double counting   =      1922.54386833    -1883.14765877
  entropy T*S    EENTRO =        -0.02519908
  eigenvalues    EBANDS =      -344.99076305
  atomic energy  EATOM  =      2642.62590440
  Solvation  Ediel_sol  =         0.00000000
  ---------------------------------------------------
  free energy    TOTEN  =       -18.14861151 eV

  energy without entropy =      -18.12341243  energy(sigma->0) =      -18.13601197


--------------------------------------------------------------------------------------------------------




--------------------------------------- Iteration      1(   9)  ---------------------------------------


    POTLOK:  cpu time      0.0027: real time      0.0030
    SETDIJ:  cpu time      0.0011: real time      0.0011
    EDDIAG:  cpu time      0.0077: real time      0.0077
  RMM-DIIS:  cpu time      0.0010: real time      0.0010
    ORTHCH:  cpu time      0.0009: real time      0.0009
       DOS:  cpu time      0.0003: real time      0.0003
    CHARGE:  cpu time      0.0012: real time      0.0012
    MIXING:  cpu time      0.0002: real time      0.0002
    --------------------------------------------
      LOOP:  cpu time      0.0150: real time      0.0154

 eigenvalue-minimisations  :   225
 total energy-change (2. order) : 0.1922613E-02  (-0.4102632E-03)
 number of electron      21.9999846 magnetization 
 augmentation part        9.3174947 magnetization 

 Broyden mixing:
  rms(total) = 0.31390E-02    rms(broyden)= 0.31127E-02
  rms(prec ) = 0.75450E-02
  weight for this iteration     100.00

 eigenvalues of (default mixing * dielectric matrix)
  average eigenvalue GAMMA=   1.3638
  2.5708  1.2394  0.9393  0.7056

 Free energy of the ion-electron system (eV)
  ---------------------------------------------------
  alpha Z        PSCENC =       198.39734250
  Ewald energy   TEWEN  =     -2094.09063206
  -Hartree energ DENC   =      -514.84527211
  -exchange      EXHF   =         0.00000000
  -V(xc)+E(xc)   XCENC  =        53.68352272
  PAW double counting   =      1924.52282637    -1884.82337871
  entropy T*S    EENTRO =        -0.02510731
  eigenvalues    EBANDS =      -343.59189471
  atomic energy  EATOM  =      2642.62590440
  Solvation  Ediel_sol  =         0.00000000
  ---------------------------------------------------
  free energy    TOTEN  =       -18.14668890 eV

  energy without entropy =      -18.12158159  energy(sigma->0) =      -18.13413525


--------------------------------------------------------------------------------------------------------




--------------------------------------- Iteration      1(  10)  ---------------------------------------


    POTLOK:  cpu time      0.0018: real time      0.0019
    SETDIJ:  cpu time      0.0011: real time      0.0011
    EDDIAG:  cpu time      0.0073: real time      0.0073
  RMM-DIIS:  cpu time      0.0009: real time      0.0009
    ORTHCH:  cpu time      0.0010: real time      0.0010
       DOS:  cpu time      0.0002: real time      0.0002
    CHARGE:  cpu time      0.0012: real time      0.0012
    MIXING:  cpu time      0.0002: real time      0.0002
    --------------------------------------------
      LOOP:  cpu time      0.0137: real time      0.0138

 eigenvalue-minimisations  :   215
 total energy-change (2. order) :-0.3006022E-04  (-0.4696713E-04)
 number of electron      21.9999846 magnetization 
 augmentation part        9.3205773 magnetization 

 Broyden mixing:
  rms(total) = 0.16873E-02    rms(broyden)= 0.16857E-02
  rms(prec ) = 0.30501E-02
  weight for this iteration     100.00

 eigenvalues of (default mixing * dielectric matrix)
  average eigenvalue GAMMA=   1.8076
  3.2563  2.7097  1.1134  1.1134  0.8451

 Free energy of the ion-electron system (eV)
  ---------------------------------------------------
  alpha Z        PSCENC =       198.39734250
  Ewald energy   TEWEN  =     -2094.09063206
  -Hartree energ DENC   =      -514.77246343
  -exchange      EXHF   =         0.00000000
  -V(xc)+E(xc)   XCENC  =        53.68018299
  PAW double counting   =      1924.61755224    -1884.89307306
  entropy T*S    EENTRO =        -0.02511016
  eigenvalues    EBANDS =      -343.68642238
  atomic energy  EATOM  =      2642.62590440
  Solvation  Ediel_sol  =         0.00000000
  ---------------------------------------------------
  free energy    TOTEN  =       -18.14671896 eV

  energy without entropy =      -18.12160880  energy(sigma->0) =      -18.13416388


--------------------------------------------------------------------------------------------------------




--------------------------------------- Iteration      1(  11)  ---------------------------------------


    POTLOK:  cpu time      0.0018: real time      0.0018
    SETDIJ:  cpu time      0.0011: real time      0.0011
    EDDIAG:  cpu time      0.0071: real time      0.0073
  RMM-DIIS:  cpu time      0.0009: real time      0.0009
    ORTHCH:  cpu time      0.0009: real time      0.0009
       DOS:  cpu time      0.0003: real time      0.0003
    --------------------------------------------
      LOOP:  cpu time      0.0121: real time      0.0122

 eigenvalue-minimisations  :   213
 total energy-change (2. order) :-0.8955380E-05  (-0.8846131E-05)
 number of electron      21.9999846 magnetization 
 augmentation part        9.3205773 magnetization 

 Free energy of the ion-electron system (eV)
  ---------------------------------------------------
  alpha Z        PSCENC =       198.39734250
  Ewald energy   TEWEN  =     -2094.09063206
  -Hartree energ DENC   =      -515.08842091
  -exchange      EXHF   =         0.00000000
  -V(xc)+E(xc)   XCENC  =        53.69361241
  PAW double counting   =      1926.23874385    -1886.34073238
  entropy T*S    EENTRO =        -0.02510491
  eigenvalues    EBANDS =      -343.55744082
  atomic energy  EATOM  =      2642.62590440
  Solvation  Ediel_sol  =         0.00000000
  ---------------------------------------------------
  free energy    TOTEN  =       -18.14672792 eV

  energy without entropy =      -18.12162301  energy(sigma->0) =      -18.13417546


--------------------------------------------------------------------------------------------------------




 average (electrostatic) potential at core
  the test charge radii are     0.9339
  (the norm of the test charge is              1.0000)
       1 -46.8175       2 -46.8175
 
 
 
 E-fermi :   5.6577     XC(G=0): -12.6656     alpha+bet :-14.3831

 val. band max:        5.2799057973   @ k =   0.3333   0.3333   0.0000
 cond. band min:       5.6576880657   @ k =   0.3333   0.3333   0.0000
 fundamental gap:      0.3777822684
 Fermi energy:         5.6576661506

 k-point     1 :       0.0000    0.0000    0.0000
  band No.  band energies     occupation 
      1     -32.1556      2.00000
      2     -32.1556      2.00000
      3     -32.1556      2.00000
      4     -31.5978      2.00000
      5     -31.5978      2.00000
      6     -31.5978      2.00000
      7      -0.9060      2.00000
      8       2.6773      2.00000
      9       2.6773      2.00000
     10       5.8987      0.00065
     11       5.8987      0.00065
     12       5.8987      0.00065
     13       7.8183      0.00000
     14       7.8183      0.00000
     15       9.0462      0.00000
     16       9.0462      0.00000
     17       9.0462      0.00000
     18      15.5888      0.00000
     19      15.5888      0.00000
     20      15.5888      0.00000
     21      21.9648      0.00000
     22      21.9648      0.00000
     23      26.3810      0.00000
     24      26.3810      0.00000
     25      26.3810      0.00000
     26      26.7827      0.00000
     27      32.5120      0.00000
     28      32.5120      0.00000

 k-point     2 :       0.3333    0.0000    0.0000
  band No.  band energies     occupation 
      1     -32.1316      2.00000
      2     -32.0102      2.00000
      3     -32.0102      2.00000
      4     -31.8560      2.00000
      5     -31.7311      2.00000
      6     -31.7311      2.00000
      7       1.0566      2.00000
      8       3.3354      2.00000
      9       3.7942      2.00000
     10       5.9358      0.00008
     11       5.9358      0.00008
     12       6.3529      0.00000
     13       6.6237      0.00000
     14       7.1822      0.00000
     15       7.1822      0.00000
     16       8.1932      0.00000
     17       8.3351      0.00000
     18      10.6592      0.00000
     19      19.5455      0.00000
     20      19.5455      0.00000
     21      22.1340      0.00000
     22      23.1967      0.00000
     23      23.4536      0.00000
     24      25.6381      0.00000
     25      25.6381      0.00000
     26      26.3748      0.00000
     27      33.2777      0.00000
     28      33.2777      0.00000

 k-point     3 :       0.3333    0.3333    0.0000
  band No.  band energies     occupation 
      1     -32.3480      2.00000
      2     -32.2156      2.00000
      3     -31.9310      2.00000
      4     -31.7913      2.00000
      5     -31.7456      2.00000
      6     -31.6027      2.00000
      7       2.1097      2.00000
      8       3.1181      2.00000
      9       4.7691      2.00000
     10       4.9904      2.00000
     11       5.2799      2.00000
     12       5.6577      0.99975
     13       7.0900      0.00000
     14       7.6632      0.00000
     15       8.0210      0.00000
     16       8.3562      0.00000
     17       9.3223      0.00000
     18      10.8258      0.00000
     19      15.2527      0.00000
     20      18.6275      0.00000
     21      21.6823      0.00000
     22      22.0347      0.00000
     23      22.8351      0.00000
     24      27.0803      0.00000
     25      27.8284      0.00000
     26      29.4020      0.00000
     27      31.3242      0.00000
     28      32.0221      0.00000

 k-point     4 :       0.3333    0.3333    0.3333
  band No.  band energies     occupation 
      1     -32.2388      2.00000
      2     -32.1561      2.00000
      3     -32.1561      2.00000
      4     -31.7833      2.00000
      5     -31.7833      2.00000
      6     -31.6994      2.00000
      7       3.6507      2.00000
      8       3.9748      2.00000
      9       4.4167      2.00000
     10       4.4167      2.00000
     11       4.6132      2.00000
     12       4.6132      2.00000
     13       8.0174      0.00000
     14       8.0174      0.00000
     15       8.0637      0.00000
     16       8.0637      0.00000
     17      10.5723      0.00000
     18      14.2220      0.00000
     19      14.2220      0.00000
     20      16.3087      0.00000
     21      19.0911      0.00000
     22      19.0911      0.00000
     23      20.5329      0.00000
     24      23.9734      0.00000
     25      30.6158      0.00000
     26      30.6158      0.00000
     27      31.8221      0.00000
     28      36.2157      0.00000


--------------------------------------------------------------------------------------------------------


 soft charge-density along one line, spin component           1
         0         1         2         3         4         5         6         7         8         9
 total charge-density along one line
 
 pseudopotential strength for first ion, spin component:           1
-39.040   0.000  -0.000  11.981  -0.000   0.000  -0.000  -0.000
  0.000 -39.040   0.000  -0.000  11.981  -0.000  -0.000   0.000
 -0.000   0.000 -39.040   0.000  -0.000  11.981   0.000  -0.000
 11.981  -0.000   0.000   2.755   0.000  -0.000   0.000   0.000
 -0.000  11.981  -0.000   0.000   2.755   0.000   0.000  -0.000
  0.000  -0.000  11.981  -0.000   0.000   2.755  -0.000   0.000
 -0.000  -0.000   0.000   0.000   0.000  -0.000  -5.510   0.000
 -0.000   0.000  -0.000   0.000  -0.000   0.000   0.000  -5.510
 -0.000  -0.000   0.000   0.000   0.000  -0.000   0.000   0.000
 -0.000  -0.000   0.000   0.000   0.000  -0.000   0.000  -0.000
 -0.000   0.000  -0.000   0.000  -0.000   0.000  -0.000  -0.000
 -0.000  -0.000   0.000   0.000   0.000  -0.000   0.395   0.000
 -0.000   0.000  -0.000   0.000  -0.000   0.000   0.000   0.395
 -0.000  -0.000   0.000   0.000   0.000   0.000   0.000   0.000
 -0.000  -0.000   0.000   0.000   0.000  -0.000   0.000  -0.000
 -0.000   0.000   0.000   0.000  -0.000   0.000  -0.000  -0.000
 -0.000   0.000   0.000   0.000  -0.000  -0.000   0.000  -0.000
  0.000  -0.000  -0.000  -0.000   0.000   0.000  -0.000   0.000
 total augmentation occupancy for first ion, spin component:           1
  1.980   0.000   0.000  -0.034  -0.000   0.000   0.000   0.000   0.000   0.000  -0.000   0.000  -0.000   0.000   0.000   0.000
  0.000   1.980   0.000   0.000  -0.034   0.000   0.000   0.000   0.000   0.000   0.000  -0.000  -0.000   0.000   0.000  -0.000
  0.000   0.000   1.980   0.000  -0.000  -0.034   0.000   0.000   0.000   0.000   0.000   0.000   0.000   0.000  -0.000   0.000
 -0.034   0.000   0.000   0.140   0.000   0.000   0.000   0.000  -0.000  -0.000  -0.000   0.000   0.000   0.000  -0.000  -0.000
 -0.000  -0.034   0.000   0.000   0.140   0.000   0.000   0.000   0.000   0.000  -0.000   0.000   0.000   0.000   0.000  -0.000
  0.000   0.000  -0.034   0.000   0.000   0.140   0.000   0.000   0.000   0.000   0.000   0.000  -0.000  -0.000   0.000  -0.000
  0.000   0.000   0.000   0.000  -0.000   0.000   0.825   0.000  -0.000  -0.000  -0.000  -0.302   0.000   0.000  -0.000  -0.000
  0.000   0.000   0.000   0.000   0.000   0.000   0.000   0.825  -0.000  -0.000   0.000   0.000  -0.302  -0.000   0.000   0.000
  0.000   0.000  -0.000  -0.000   0.000  -0.000  -0.000   0.000   0.645   0.000  -0.000   0.000   0.000  -0.308   0.000  -0.000
 -0.000   0.000   0.000  -0.000   0.000   0.000  -0.000  -0.000  -0.000   0.825   0.000  -0.000   0.000  -0.000  -0.302   0.000
  0.000   0.000   0.000   0.000   0.000  -0.000   0.000   0.000   0.000   0.000   0.645  -0.000  -0.000  -0.000   0.000  -0.308
 -0.000   0.000  -0.000   0.000   0.000   0.000  -0.302   0.000  -0.000   0.000   0.000   0.146  -0.000   0.000   0.000  -0.000
  0.000   0.000  -0.000   0.000   0.000   0.000  -0.000  -0.302  -0.000  -0.000  -0.000   0.000   0.146   0.000   0.000   0.000
 -0.000   0.000  -0.000   0.000   0.000   0.000   0.000   0.000  -0.308   0.000  -0.000   0.000   0.000   0.180   0.000   0.000
 -0.000  -0.000   0.000   0.000   0.000   0.000  -0.000   0.000   0.000  -0.302   0.000   0.000   0.000  -0.000   0.146  -0.000
  0.000   0.000   0.000   0.000   0.000  -0.000   0.000   0.000  -0.000  -0.000  -0.308   0.000   0.000   0.000   0.000   0.180
  0.000  -0.000  -0.000   0.000   0.000   0.000   0.000   0.000  -0.000   0.000   0.000   0.000   0.000   0.000   0.000   0.000
  0.000   0.000   0.000   0.000  -0.000   0.000   0.000   0.000  -0.000  -0.000   0.000   0.000   0.000  -0.000   0.000  -0.000


------------------------ aborting loop because EDIFF is reached ----------------------------------------


    CHARGE:  cpu time      0.0013: real time      0.0014
    FORLOC:  cpu time      0.0004: real time      0.0013
    FORNL :  cpu time      0.0011: real time      0.0036
    STRESS:  cpu time      0.0054: real time      0.0086
    FORCOR:  cpu time      0.0015: real time      0.0042
    FORHAR:  cpu time      0.0003: real time      0.0006
    MIXING:  cpu time      0.0004: real time      0.0004
    OFIELD:  cpu time      0.0001: real time      0.0005

  FORCE on cell =-STRESS in cart. coord.  units (eV):
  Direction    XX          YY          ZZ          XY          YZ          ZX
  --------------------------------------------------------------------------------------
  Alpha Z   198.39734   198.39734   198.39734
  Ewald    -698.03016  -698.03016  -698.03016    -0.00000    -0.00000    -0.00000
  Hartree   171.51672   171.51672   171.51672    -0.00000    -0.00000    -0.00000
  E(xc)    -119.99797  -119.99797  -119.99797     0.00000     0.00000     0.00000
  Local     225.99931   225.99931   225.99931     0.00000     0.00000    -0.00000
  n-local  -146.66872  -145.72838  -140.98184     1.43876     0.16949     0.16956
  augment    71.05694    71.05694    71.05694    -0.00000     0.00000     0.00000
  Kinetic   292.10988   290.90635   301.16827     1.07641    -0.63176    -0.63185
  Fock        0.00000     0.00000     0.00000     0.00000     0.00000     0.00000
  -------------------------------------------------------------------------------------
  Total      -0.78929    -0.78929    -0.78929    -0.00000    -0.00000    -0.00000
  in kB     -45.54908   -45.54908   -45.54908    -0.00000    -0.00000    -0.00000
  external pressure =      -45.55 kB  Pullay stress =        0.00 kB


 VOLUME and BASIS-vectors are now :
 -----------------------------------------------------------------------------
  energy-cutoff  :      400.00
  volume of cell :       27.76
      direct lattice vectors                 reciprocal lattice vectors
     3.028000116  0.000000000  0.000000000     0.330250978  0.000000000  0.000000000
     0.000000000  3.028000116  0.000000000     0.000000000  0.330250978  0.000000000
     0.000000000  0.000000000  3.028000116     0.000000000  0.000000000  0.330250978

  length of vectors
     3.028000116  3.028000116  3.028000116     0.330250978  0.330250978  0.330250978


 FORCES acting on ions
    electron-ion (+dipol)            ewald-force                    non-local-force                 convergence-correction
 -----------------------------------------------------------------------------------------------
   0.807E-15 0.401E-16 0.151E-13   -.931E-14 -.136E-14 -.537E-14   0.826E-24 0.950E-24 -.138E-23   0.536E-14 0.327E-14 -.218E-13
   0.135E-12 0.159E-11 0.370E-12   0.115E-13 0.338E-14 0.196E-14   0.257E-23 -.601E-24 0.166E-23   -.914E-14 -.111E-13 -.156E-13
 -----------------------------------------------------------------------------------------------
   0.136E-12 0.159E-11 0.386E-12   0.218E-14 0.202E-14 -.341E-14   0.339E-23 0.349E-24 0.281E-24   -.378E-14 -.781E-14 -.374E-13
 
 
 POSITION                                       TOTAL-FORCE (eV/Angst)
 -----------------------------------------------------------------------------------
      0.00000      0.00000      0.00000         0.000000     -0.000000      0.000000
      1.51400      1.51400      1.51400        -0.000000      0.000000     -0.000000
 -----------------------------------------------------------------------------------
    total drift:                                0.000000      0.000000      0.000000


--------------------------------------------------------------------------------------------------------



  FREE ENERGIE OF THE ION-ELECTRON SYSTEM (eV)
  ---------------------------------------------------
  free  energy   TOTEN  =       -18.14672792 eV

  energy  without entropy=      -18.12162301  energy(sigma->0) =      -18.13417546
 


--------------------------------------------------------------------------------------------------------


    POTLOK:  cpu time      0.0042: real time      0.0043


--------------------------------------------------------------------------------------------------------




--------------------------------------------------------------------------------------------------------


    WAVPRE:  cpu time      0.0030: real time      0.0089
    FEWALD:  cpu time      0.0001: real time      0.0005
    GENKIN:  cpu time      0.0002: real time      0.0002
    ORTHCH:  cpu time      0.0012: real time      0.0012
     LOOP+:  cpu time      0.3385: real time      0.7415


--------------------------------------- Ionic step        2  -------------------------------------------




--------------------------------------- Iteration      2(   1)  ---------------------------------------


    POTLOK:  cpu time      0.0020: real time      0.0021
    SETDIJ:  cpu time      0.0019: real time      0.0019
     EDDAV:  cpu time      0.0233: real time      0.0236
       DOS:  cpu time      0.0003: real time      0.0003
    CHARGE:  cpu time      0.0013: real time      0.0013
    MIXING:  cpu time      0.0001: real time      0.0001
    --------------------------------------------
      LOOP:  cpu time      0.0289: real time      0.0294

 eigenvalue-minimisations  :   224
 total energy-change (2. order) :-0.9703608E+00  (-0.2569025E+01)
 number of electron      22.0000145 magnetization 
 augmentation part        8.8167560 magnetization 

 Broyden mixing:
  rms(total) = 0.72489E+00    rms(broyden)= 0.72411E+00
  rms(prec ) = 0.18559E+01
  weight for this iteration     100.00

 Free energy of the ion-electron system (eV)
  ---------------------------------------------------
  alpha Z        PSCENC =       210.17461490
  Ewald energy   TEWEN  =     -2134.73323024
  -Hartree energ DENC   =      -524.90777884
  -exchange      EXHF   =         0.00000000
  -V(xc)+E(xc)   XCENC  =        55.46666206
  PAW double counting   =      1925.95196084    -1886.08779267
  entropy T*S    EENTRO =        -0.03675172
  eigenvalues    EBANDS =      -307.57066844
  atomic energy  EATOM  =      2642.62590440
  Solvation  Ediel_sol  =         0.00000000
  ---------------------------------------------------
  free energy    TOTEN  =       -19.11707971 eV

  energy without entropy =      -19.08032799  energy(sigma->0) =      -19.09870385


--------------------------------------------------------------------------------------------------------




--------------------------------------- Iteration      2(   2)  ---------------------------------------


    POTLOK:  cpu time      0.0019: real time      0.0021
    SETDIJ:  cpu time      0.0012: real time      0.0012
    EDDIAG:  cpu time      0.0077: real time      0.0077
  RMM-DIIS:  cpu time      0.0010: real time      0.0010
    ORTHCH:  cpu time      0.0009: real time      0.0009
       DOS:  cpu time      0.0005: real time      0.0005
    CHARGE:  cpu time      0.0012: real time      0.0012
    MIXING:  cpu time      0.0002: real time      0.0002
    --------------------------------------------
      LOOP:  cpu time      0.0146: real time      0.0148

 eigenvalue-minimisations  :   224
 total energy-change (2. order) : 0.9990427E+00  (-0.1051270E+00)
 number of electron      22.0000154 magnetization 
 augmentation part        9.3038782 magnetization 

 Broyden mixing:
  rms(total) = 0.11649E+00    rms(broyden)= 0.11642E+00
  rms(prec ) = 0.21312E+00
  weight for this iteration     100.00

 eigenvalues of (default mixing * dielectric matrix)
  average eigenvalue GAMMA=   1.0952
  1.0952

 Free energy of the ion-electron system (eV)
  ---------------------------------------------------
  alpha Z        PSCENC =       210.17461490
  Ewald energy   TEWEN  =     -2134.73323024
  -Hartree energ DENC   =      -496.33350073
  -exchange      EXHF   =         0.00000000
  -V(xc)+E(xc)   XCENC  =        54.13545669
  PAW double counting   =      1902.94804345    -1864.43431282
  entropy T*S    EENTRO =        -0.02510901
  eigenvalues    EBANDS =      -332.47590367
  atomic energy  EATOM  =      2642.62590440
  Solvation  Ediel_sol  =         0.00000000
  ---------------------------------------------------
  free energy    TOTEN  =       -18.11803705 eV

  energy without entropy =      -18.09292804  energy(sigma->0) =      -18.10548254


--------------------------------------------------------------------------------------------------------




--------------------------------------- Iteration      2(   3)  ---------------------------------------


    POTLOK:  cpu time      0.0018: real time      0.0018
    SETDIJ:  cpu time      0.0011: real time      0.0011
    EDDIAG:  cpu time      0.0070: real time      0.0072
  RMM-DIIS:  cpu time      0.0009: real time      0.0009
    ORTHCH:  cpu time      0.0012: real time      0.0012
       DOS:  cpu time      0.0003: real time      0.0003
    CHARGE:  cpu time      0.0012: real time      0.0012
    MIXING:  cpu time      0.0002: real time      0.0002
    --------------------------------------------
      LOOP:  cpu time      0.0137: real time      0.0138

 eigenvalue-minimisations  :   224
 total energy-change (2. order) :-0.5192031E-02  (-0.5367172E-02)
 number of electron      22.0000154 magnetization 
 augmentation part        9.3196043 magnetization 

 Broyden mixing:
  rms(total) = 0.62023E-01    rms(broyden)= 0.62019E-01
  rms(prec ) = 0.11801E+00
  weight for this iteration     100.00

 eigenvalues of (default mixing * dielectric matrix)
  average eigenvalue GAMMA=   1.6763
  1.0264  2.3263

 Free energy of the ion-electron system (eV)
  ---------------------------------------------------
  alpha Z        PSCENC =       210.17461490
  Ewald energy   TEWEN  =     -2134.73323024
  -Hartree energ DENC   =      -496.01240127
  -exchange      EXHF   =         0.00000000
  -V(xc)+E(xc)   XCENC  =        54.10217069
  PAW double counting   =      1921.47433940    -1882.56838546
  entropy T*S    EENTRO =        -0.02524369
  eigenvalues    EBANDS =      -333.16099780
  atomic energy  EATOM  =      2642.62590440
  Solvation  Ediel_sol  =         0.00000000
  ---------------------------------------------------
  free energy    TOTEN  =       -18.12322908 eV

  energy without entropy =      -18.09798538  energy(sigma->0) =      -18.11060723


--------------------------------------------------------------------------------------------------------




--------------------------------------- Iteration      2(   4)  ---------------------------------------


    POTLOK:  cpu time      0.0018: real time      0.0018
    SETDIJ:  cpu time      0.0011: real time      0.0011
    EDDIAG:  cpu time      0.0071: real time      0.0074
  RMM-DIIS:  cpu time      0.0009: real time      0.0009
    ORTHCH:  cpu time      0.0009: real time      0.0009
       DOS:  cpu time      0.0002: real time      0.0002
    CHARGE:  cpu time      0.0012: real time      0.0012
    MIXING:  cpu time      0.0002: real time      0.0002
    --------------------------------------------
      LOOP:  cpu time      0.0136: real time      0.0138

 eigenvalue-minimisations  :   224
 total energy-change (2. order) :-0.3683474E-02  (-0.1300350E-02)
 number of electron      22.0000155 magnetization 
 augmentation part        9.3388679 magnetization 

 Broyden mixing:
  rms(total) = 0.14691E-01    rms(broyden)= 0.14683E-01
  rms(prec ) = 0.44538E-01
  weight for this iteration     100.00

 eigenvalues of (default mixing * dielectric matrix)
  average eigenvalue GAMMA=   1.6432
  2.6167  0.9583  1.3546

 Free energy of the ion-electron system (eV)
  ---------------------------------------------------
  alpha Z        PSCENC =       210.17461490
  Ewald energy   TEWEN  =     -2134.73323024
  -Hartree energ DENC   =      -496.58642316
  -exchange      EXHF   =         0.00000000
  -V(xc)+E(xc)   XCENC  =        54.10492366
  PAW double counting   =      1948.36597400    -1908.84789255
  entropy T*S    EENTRO =        -0.02560545
  eigenvalues    EBANDS =      -333.20517811
  atomic energy  EATOM  =      2642.62590440
  Solvation  Ediel_sol  =         0.00000000
  ---------------------------------------------------
  free energy    TOTEN  =       -18.12691255 eV

  energy without entropy =      -18.10130710  energy(sigma->0) =      -18.11410983


--------------------------------------------------------------------------------------------------------




--------------------------------------- Iteration      2(   5)  ---------------------------------------


    POTLOK:  cpu time      0.0018: real time      0.0020
    SETDIJ:  cpu time      0.0010: real time      0.0011
    EDDIAG:  cpu time      0.0071: real time      0.0071
  RMM-DIIS:  cpu time      0.0009: real time      0.0009
    ORTHCH:  cpu time      0.0009: real time      0.0009
       DOS:  cpu time      0.0002: real time      0.0002
    CHARGE:  cpu time      0.0012: real time      0.0012
    MIXING:  cpu time      0.0002: real time      0.0002
    --------------------------------------------
      LOOP:  cpu time      0.0133: real time      0.0136

 eigenvalue-minimisations  :   224
 total energy-change (2. order) : 0.3729369E-04  (-0.2418084E-03)
 number of electron      22.0000155 magnetization 
 augmentation part        9.3259937 magnetization 

 Broyden mixing:
  rms(total) = 0.36443E-02    rms(broyden)= 0.36417E-02
  rms(prec ) = 0.10063E-01
  weight for this iteration     100.00

 eigenvalues of (default mixing * dielectric matrix)
  average eigenvalue GAMMA=   1.7637
  2.4721  2.4721  0.9119  1.1984

 Free energy of the ion-electron system (eV)
  ---------------------------------------------------
  alpha Z        PSCENC =       210.17461490
  Ewald energy   TEWEN  =     -2134.73323024
  -Hartree energ DENC   =      -497.61625427
  -exchange      EXHF   =         0.00000000
  -V(xc)+E(xc)   XCENC  =        54.14944922
  PAW double counting   =      1953.02344640    -1913.28920664
  entropy T*S    EENTRO =        -0.02539555
  eigenvalues    EBANDS =      -332.43620346
  atomic energy  EATOM  =      2642.62590440
  Solvation  Ediel_sol  =         0.00000000
  ---------------------------------------------------
  free energy    TOTEN  =       -18.12687526 eV

  energy without entropy =      -18.10147971  energy(sigma->0) =      -18.11417748


--------------------------------------------------------------------------------------------------------




--------------------------------------- Iteration      2(   6)  ---------------------------------------


    POTLOK:  cpu time      0.0022: real time      0.0024
    SETDIJ:  cpu time      0.0011: real time      0.0011
    EDDIAG:  cpu time      0.0071: real time      0.0071
  RMM-DIIS:  cpu time      0.0010: real time      0.0010
    ORTHCH:  cpu time      0.0009: real time      0.0009
       DOS:  cpu time      0.0002: real time      0.0002
    CHARGE:  cpu time      0.0012: real time      0.0012
    MIXING:  cpu time      0.0002: real time      0.0002
    --------------------------------------------
      LOOP:  cpu time      0.0140: real time      0.0141

 eigenvalue-minimisations  :   222
 total energy-change (2. order) : 0.1098959E-04  (-0.5000044E-04)
 number of electron      22.0000155 magnetization 
 augmentation part        9.3302519 magnetization 

 Broyden mixing:
  rms(total) = 0.15898E-02    rms(broyden)= 0.15869E-02
  rms(prec ) = 0.42966E-02
  weight for this iteration     100.00

 eigenvalues of (default mixing * dielectric matrix)
  average eigenvalue GAMMA=   1.6730
  2.6049  2.6049  0.8912  1.1319  1.1319

 Free energy of the ion-electron system (eV)
  ---------------------------------------------------
  alpha Z        PSCENC =       210.17461490
  Ewald energy   TEWEN  =     -2134.73323024
  -Hartree energ DENC   =      -497.43615989
  -exchange      EXHF   =         0.00000000
  -V(xc)+E(xc)   XCENC  =        54.14129269
  PAW double counting   =      1952.30911142    -1912.53635402
  entropy T*S    EENTRO =        -0.02543705
  eigenvalues    EBANDS =      -332.64660648
  atomic energy  EATOM  =      2642.62590440
  Solvation  Ediel_sol  =         0.00000000
  ---------------------------------------------------
  free energy    TOTEN  =       -18.12686427 eV

  energy without entropy =      -18.10142722  energy(sigma->0) =      -18.11414574


--------------------------------------------------------------------------------------------------------




--------------------------------------- Iteration      2(   7)  ---------------------------------------


    POTLOK:  cpu time      0.0018: real time      0.0018
    SETDIJ:  cpu time      0.0011: real time      0.0011
    EDDIAG:  cpu time      0.0078: real time      0.0078
  RMM-DIIS:  cpu time      0.0015: real time      0.0015
    ORTHCH:  cpu time      0.0010: real time      0.0010
       DOS:  cpu time      0.0002: real time      0.0002
    CHARGE:  cpu time      0.0012: real time      0.0012
    MIXING:  cpu time      0.0002: real time      0.0002
    --------------------------------------------
      LOOP:  cpu time      0.0148: real time      0.0148

 eigenvalue-minimisations  :   184
 total energy-change (2. order) :-0.9322388E-05  (-0.1338211E-04)
 number of electron      22.0000155 magnetization 
 augmentation part        9.3285722 magnetization 

 Broyden mixing:
  rms(total) = 0.76550E-03    rms(broyden)= 0.76427E-03
  rms(prec ) = 0.21626E-02
  weight for this iteration     100.00

 eigenvalues of (default mixing * dielectric matrix)
  average eigenvalue GAMMA=   1.7290
  3.0570  2.6091  1.7240  0.8464  0.9912  1.1464

 Free energy of the ion-electron system (eV)
  ---------------------------------------------------
  alpha Z        PSCENC =       210.17461490
  Ewald energy   TEWEN  =     -2134.73323024
  -Hartree energ DENC   =      -497.53468138
  -exchange      EXHF   =         0.00000000
  -V(xc)+E(xc)   XCENC  =        54.14566687
  PAW double counting   =      1952.54438051    -1912.74472294
  entropy T*S    EENTRO =        -0.02541419
  eigenvalues    EBANDS =      -332.57939150
  atomic energy  EATOM  =      2642.62590440
  Solvation  Ediel_sol  =         0.00000000
  ---------------------------------------------------
  free energy    TOTEN  =       -18.12687359 eV

  energy without entropy =      -18.10145940  energy(sigma->0) =      -18.11416649


--------------------------------------------------------------------------------------------------------




--------------------------------------- Iteration      2(   8)  ---------------------------------------


    POTLOK:  cpu time      0.0018: real time      0.0019
    SETDIJ:  cpu time      0.0011: real time      0.0011
    EDDIAG:  cpu time      0.0076: real time      0.0076
  RMM-DIIS:  cpu time      0.0008: real time      0.0008
    ORTHCH:  cpu time      0.0009: real time      0.0009
       DOS:  cpu time      0.0002: real time      0.0002
    --------------------------------------------
      LOOP:  cpu time      0.0125: real time      0.0127

 eigenvalue-minimisations  :   144
 total energy-change (2. order) :-0.2617493E-05  (-0.2670380E-05)
 number of electron      22.0000155 magnetization 
 augmentation part        9.3285722 magnetization 

 Free energy of the ion-electron system (eV)
  ---------------------------------------------------
  alpha Z        PSCENC =       210.17461490
  Ewald energy   TEWEN  =     -2134.73323024
  -Hartree energ DENC   =      -497.49176093
  -exchange      EXHF   =         0.00000000
  -V(xc)+E(xc)   XCENC  =        54.14367392
  PAW double counting   =      1952.55467559    -1912.76061461
  entropy T*S    EENTRO =        -0.02542357
  eigenvalues    EBANDS =      -332.61471565
  atomic energy  EATOM  =      2642.62590440
  Solvation  Ediel_sol  =         0.00000000
  ---------------------------------------------------
  free energy    TOTEN  =       -18.12687621 eV

  energy without entropy =      -18.10145263  energy(sigma->0) =      -18.11416442


--------------------------------------------------------------------------------------------------------




 average (electrostatic) potential at core
  the test charge radii are     0.9339
  (the norm of the test charge is              1.0000)
       1 -46.2105       2 -46.2105
 
 
 
 E-fermi :   6.2071     XC(G=0): -12.9767     alpha+bet :-15.2369

 val. band max:        5.7236235897   @ k =   0.3333   0.3333   0.0000
 cond. band min:       6.2074021361   @ k =   0.3333   0.3333   0.0000
 fundamental gap:      0.4837785464
 Fermi energy:         6.2070888902

 k-point     1 :       0.0000    0.0000    0.0000
  band No.  band energies     occupation 
      1     -31.6247      2.00000
      2     -31.6247      2.00000
      3     -31.6247      2.00000
      4     -30.9618      2.00000
      5     -30.9618      2.00000
      6     -30.9618      2.00000
      7      -0.5355      2.00000
      8       2.9019      2.00000
      9       2.9019      2.00000
     10       6.3924      0.00877
     11       6.3924      0.00877
     12       6.3924      0.00877
     13       8.4557      0.00000
     14       8.4557      0.00000
     15       9.7993      0.00000
     16       9.7993      0.00000
     17       9.7993      0.00000
     18      16.6393      0.00000
     19      16.6393      0.00000
     20      16.6393      0.00000
     21      23.2445      0.00000
     22      23.2445      0.00000
     23      27.3997      0.00000
     24      27.3997      0.00000
     25      27.3997      0.00000
     26      28.6248      0.00000
     27      33.9534      0.00000
     28      33.9534      0.00000

 k-point     2 :       0.3333    0.0000    0.0000
  band No.  band energies     occupation 
      1     -31.6011      2.00000
      2     -31.4520      2.00000
      3     -31.4520      2.00000
      4     -31.2741      2.00000
      5     -31.1202      2.00000
      6     -31.1202      2.00000
      7       1.5141      2.00000
      8       3.7034      2.00000
      9       4.0929      2.00000
     10       6.4338      0.00134
     11       6.4338      0.00134
     12       6.8501      0.00000
     13       7.1724      0.00000
     14       7.7850      0.00000
     15       7.7850      0.00000
     16       8.8702      0.00000
     17       9.0314      0.00000
     18      11.5654      0.00000
     19      20.8068      0.00000
     20      20.8068      0.00000
     21      23.3698      0.00000
     22      24.4578      0.00000
     23      24.5799      0.00000
     24      26.9782      0.00000
     25      26.9782      0.00000
     26      27.6914      0.00000
     27      34.9355      0.00000
     28      34.9355      0.00000

 k-point     3 :       0.3333    0.3333    0.0000
  band No.  band energies     occupation 
      1     -31.8599      2.00000
      2     -31.7035      2.00000
      3     -31.3572      2.00000
      4     -31.1910      2.00000
      5     -31.1391      2.00000
      6     -30.9684      2.00000
      7       2.5091      2.00000
      8       3.4370      2.00000
      9       5.1683      2.00000
     10       5.4620      2.00000
     11       5.7236      2.00000
     12       6.2074      0.99647
     13       7.6763      0.00000
     14       8.2974      0.00000
     15       8.6807      0.00000
     16       9.0527      0.00000
     17      10.1005      0.00000
     18      11.7161      0.00000
     19      16.4349      0.00000
     20      19.8611      0.00000
     21      23.0216      0.00000
     22      23.1553      0.00000
     23      23.8658      0.00000
     24      28.6858      0.00000
     25      29.2024      0.00000
     26      30.7273      0.00000
     27      33.0196      0.00000
     28      33.6123      0.00000

 k-point     4 :       0.3333    0.3333    0.3333
  band No.  band energies     occupation 
      1     -31.7303      2.00000
      2     -31.6311      2.00000
      3     -31.6311      2.00000
      4     -31.1850      2.00000
      5     -31.1850      2.00000
      6     -31.0832      2.00000
      7       4.1564      2.00000
      8       4.3387      2.00000
      9       4.8074      2.00000
     10       4.8074      2.00000
     11       5.0570      2.00000
     12       5.0570      2.00000
     13       8.6801      0.00000
     14       8.6801      0.00000
     15       8.7339      0.00000
     16       8.7339      0.00000
     17      11.4500      0.00000
     18      15.2715      0.00000
     19      15.2715      0.00000
     20      17.5222      0.00000
     21      20.2413      0.00000
     22      20.2413      0.00000
     23      21.9606      0.00000
     24      25.3511      0.00000
     25      31.9610      0.00000
     26      31.9610      0.00000
     27      33.0550      0.00000
     28      37.8052      0.00000


--------------------------------------------------------------------------------------------------------


 soft charge-density along one line, spin component           1
         0         1         2         3         4         5         6         7         8         9
 total charge-density along one line
 
 pseudopotential strength for first ion, spin component:           1
-38.728  -0.000   0.000  11.755   0.000  -0.000  -0.000   0.000
 -0.000 -38.728   0.000   0.000  11.755  -0.000  -0.000   0.000
  0.000   0.000 -38.728  -0.000  -0.000  11.755   0.000  -0.000
 11.755   0.000  -0.000   2.881  -0.000   0.000   0.000  -0.000
  0.000  11.755  -0.000  -0.000   2.881   0.000   0.000  -0.000
 -0.000  -0.000  11.755   0.000   0.000   2.881  -0.000   0.000
 -0.000  -0.000   0.000   0.000   0.000  -0.000  -5.244   0.000
  0.000   0.000  -0.000  -0.000  -0.000   0.000   0.000  -5.244
 -0.000   0.000  -0.000   0.000  -0.000  -0.000  -0.000  -0.000
 -0.000  -0.000   0.000   0.000   0.000  -0.000  -0.000   0.000
 -0.000   0.000  -0.000   0.000  -0.000   0.000  -0.000   0.000
 -0.000  -0.000   0.000   0.000   0.000  -0.000   0.436   0.000
  0.000   0.000  -0.000  -0.000  -0.000   0.000   0.000   0.436
 -0.000   0.000  -0.000   0.000  -0.000  -0.000  -0.000  -0.000
 -0.000  -0.000   0.000   0.000   0.000  -0.000  -0.000   0.000
 -0.000   0.000  -0.000   0.000  -0.000   0.000  -0.000   0.000
 -0.000  -0.000   0.000   0.000   0.000  -0.000  -0.000   0.000
  0.000   0.000  -0.000  -0.000  -0.000   0.000   0.000  -0.000
 total augmentation occupancy for first ion, spin component:           1
  1.981  -0.000  -0.000  -0.031   0.000  -0.000   0.000   0.000   0.000   0.000   0.000   0.000   0.000   0.000   0.000  -0.000
 -0.000   1.981  -0.000   0.000  -0.031  -0.000   0.000   0.000   0.000   0.000   0.000  -0.000   0.000   0.000   0.000   0.000
 -0.000  -0.000   1.981   0.000   0.000  -0.031   0.000   0.000  -0.000   0.000   0.000   0.000   0.000   0.000   0.000   0.000
 -0.031   0.000   0.000   0.152  -0.000  -0.000   0.000   0.000   0.000  -0.000  -0.000   0.000   0.000  -0.000   0.000   0.000
  0.000  -0.031   0.000  -0.000   0.152  -0.000   0.000   0.000   0.000   0.000   0.000   0.000   0.000  -0.000   0.000   0.000
  0.000  -0.000  -0.031  -0.000  -0.000   0.152   0.000   0.000  -0.000   0.000  -0.000   0.000   0.000   0.000   0.000  -0.000
  0.000  -0.000   0.000   0.000   0.000   0.000   0.838  -0.000   0.000  -0.000  -0.000  -0.352  -0.000   0.000   0.000  -0.000
  0.000   0.000  -0.000   0.000   0.000   0.000  -0.000   0.838  -0.000  -0.000  -0.000   0.000  -0.352  -0.000  -0.000  -0.000
 -0.000   0.000  -0.000   0.000   0.000   0.000   0.000  -0.000   0.663   0.000  -0.000  -0.000  -0.000  -0.355   0.000   0.000
  0.000   0.000   0.000  -0.000   0.000   0.000  -0.000  -0.000  -0.000   0.838   0.000  -0.000  -0.000   0.000  -0.352   0.000
  0.000   0.000   0.000  -0.000   0.000   0.000   0.000  -0.000   0.000  -0.000   0.663  -0.000  -0.000   0.000   0.000  -0.355
  0.000   0.000   0.000   0.000   0.000   0.000  -0.352  -0.000  -0.000  -0.000   0.000   0.187  -0.000   0.000  -0.000  -0.000
  0.000   0.000   0.000   0.000   0.000  -0.000   0.000  -0.352   0.000   0.000  -0.000  -0.000   0.187   0.000   0.000  -0.000
 -0.000  -0.000  -0.000  -0.000   0.000  -0.000  -0.000  -0.000  -0.355   0.000   0.000  -0.000   0.000   0.229  -0.000   0.000
 -0.000   0.000   0.000   0.000   0.000   0.000   0.000  -0.000   0.000  -0.352   0.000  -0.000   0.000  -0.000   0.187   0.000
  0.000   0.000   0.000  -0.000   0.000  -0.000  -0.000  -0.000   0.000   0.000  -0.355  -0.000  -0.000  -0.000   0.000   0.229
  0.000  -0.000  -0.000   0.000   0.000   0.000   0.000  -0.000  -0.000  -0.000   0.000   0.000  -0.000   0.000   0.000   0.000
  0.000   0.000   0.000   0.000   0.000  -0.000  -0.000  -0.000   0.000   0.000  -0.000  -0.000  -0.000  -0.000  -0.000   0.000


------------------------ aborting loop because EDIFF is reached ----------------------------------------


    CHARGE:  cpu time      0.0012: real time      0.0012
    FORLOC:  cpu time      0.0000: real time      0.0000
    FORNL :  cpu time      0.0008: real time      0.0008
    STRESS:  cpu time      0.0049: real time      0.0049
[...]




--------------------------------------- Iteration      3(   5)  ---------------------------------------


    POTLOK:  cpu time      0.0018: real time      0.0019
    SETDIJ:  cpu time      0.0011: real time      0.0011
    EDDIAG:  cpu time      0.0075: real time      0.0075
  RMM-DIIS:  cpu time      0.0010: real time      0.0010
    ORTHCH:  cpu time      0.0010: real time      0.0010
       DOS:  cpu time      0.0003: real time      0.0003
    CHARGE:  cpu time      0.0012: real time      0.0012
    MIXING:  cpu time      0.0002: real time      0.0002
    --------------------------------------------
      LOOP:  cpu time      0.0140: real time      0.0141

 eigenvalue-minimisations  :   224
 total energy-change (2. order) :-0.1161607E-03  (-0.1129494E-03)
 number of electron      21.9999979 magnetization 
 augmentation part        9.3219666 magnetization 

 Broyden mixing:
  rms(total) = 0.26032E-02    rms(broyden)= 0.25916E-02
  rms(prec ) = 0.63181E-02
  weight for this iteration     100.00

 eigenvalues of (default mixing * dielectric matrix)
  average eigenvalue GAMMA=   1.8265
  0.8747  0.9871  2.7222  2.7222

 Free energy of the ion-electron system (eV)
  ---------------------------------------------------
  alpha Z        PSCENC =       202.20562076
  Ewald energy   TEWEN  =     -2107.40463872
  -Hartree energ DENC   =      -509.23047414
  -exchange      EXHF   =         0.00000000
  -V(xc)+E(xc)   XCENC  =        53.83749714
  PAW double counting   =      1934.43351034    -1894.53575397
  entropy T*S    EENTRO =        -0.02514006
  eigenvalues    EBANDS =      -340.05918572
  atomic energy  EATOM  =      2642.62590440
  Solvation  Ediel_sol  =         0.00000000
  ---------------------------------------------------
  free energy    TOTEN  =       -18.15265997 eV

  energy without entropy =      -18.12751990  energy(sigma->0) =      -18.14008993


--------------------------------------------------------------------------------------------------------




--------------------------------------- Iteration      3(   6)  ---------------------------------------


    POTLOK:  cpu time      0.0019: real time      0.0020
    SETDIJ:  cpu time      0.0015: real time      0.0015
    EDDIAG:  cpu time      0.0070: real time      0.0070
  RMM-DIIS:  cpu time      0.0008: real time      0.0008
    ORTHCH:  cpu time      0.0012: real time      0.0012
       DOS:  cpu time      0.0002: real time      0.0002
    CHARGE:  cpu time      0.0012: real time      0.0012
    MIXING:  cpu time      0.0002: real time      0.0002
    --------------------------------------------
      LOOP:  cpu time      0.0140: real time      0.0141

 eigenvalue-minimisations  :   204
 total energy-change (2. order) :-0.1391504E-04  (-0.1168297E-04)
 number of electron      21.9999979 magnetization 
 augmentation part        9.3253636 magnetization 

 Broyden mixing:
  rms(total) = 0.27929E-02    rms(broyden)= 0.27921E-02
  rms(prec ) = 0.70053E-02
  weight for this iteration     100.00

 eigenvalues of (default mixing * dielectric matrix)
  average eigenvalue GAMMA=   1.5962
  2.7183  2.4396  0.9169  0.9169  0.9891

 Free energy of the ion-electron system (eV)
  ---------------------------------------------------
  alpha Z        PSCENC =       202.20562076
  Ewald energy   TEWEN  =     -2107.40463872
  -Hartree energ DENC   =      -509.01233903
  -exchange      EXHF   =         0.00000000
  -V(xc)+E(xc)   XCENC  =        53.82752203
  PAW double counting   =      1934.61025260    -1894.78925412
  entropy T*S    EENTRO =        -0.02515315
  eigenvalues    EBANDS =      -340.19058864
  atomic energy  EATOM  =      2642.62590440
  Solvation  Ediel_sol  =         0.00000000
  ---------------------------------------------------
  free energy    TOTEN  =       -18.15267388 eV

  energy without entropy =      -18.12752073  energy(sigma->0) =      -18.14009730


--------------------------------------------------------------------------------------------------------




--------------------------------------- Iteration      3(   7)  ---------------------------------------


    POTLOK:  cpu time      0.0018: real time      0.0020
    SETDIJ:  cpu time      0.0011: real time      0.0011
    EDDIAG:  cpu time      0.0070: real time      0.0072
  RMM-DIIS:  cpu time      0.0008: real time      0.0008
    ORTHCH:  cpu time      0.0009: real time      0.0009
       DOS:  cpu time      0.0002: real time      0.0002
    --------------------------------------------
      LOOP:  cpu time      0.0120: real time      0.0123

 eigenvalue-minimisations  :   146
 total energy-change (2. order) : 0.9954864E-05  (-0.3900219E-05)
 number of electron      21.9999979 magnetization 
 augmentation part        9.3253636 magnetization 

 Free energy of the ion-electron system (eV)
  ---------------------------------------------------
  alpha Z        PSCENC =       202.20562076
  Ewald energy   TEWEN  =     -2107.40463872
  -Hartree energ DENC   =      -509.08186152
  -exchange      EXHF   =         0.00000000
  -V(xc)+E(xc)   XCENC  =        53.83104665
  PAW double counting   =      1934.35985128    -1894.53667635
  entropy T*S    EENTRO =        -0.02514737
  eigenvalues    EBANDS =      -340.12676306
  atomic energy  EATOM  =      2642.62590440
  Solvation  Ediel_sol  =         0.00000000
  ---------------------------------------------------
  free energy    TOTEN  =       -18.15266393 eV

  energy without entropy =      -18.12751656  energy(sigma->0) =      -18.14009024


--------------------------------------------------------------------------------------------------------




 average (electrostatic) potential at core
  the test charge radii are     0.9339
  (the norm of the test charge is              1.0000)
       1 -46.6303       2 -46.6303
 
 
 
 E-fermi :   5.8314     XC(G=0): -12.7684     alpha+bet :-14.6591

 val. band max:        5.4194475827   @ k =   0.3333   0.3333   0.0000
 cond. band min:       5.8314550120   @ k =   0.3333   0.3333   0.0000
 fundamental gap:      0.4120074292
 Fermi energy:         5.8313983499

 k-point     1 :       0.0000    0.0000    0.0000
  band No.  band energies     occupation 
      1     -31.9901      2.00000
      2     -31.9901      2.00000
      3     -31.9901      2.00000
      4     -31.3996      2.00000
      5     -31.3996      2.00000
      6     -31.3996      2.00000
      7      -0.7882      2.00000
      8       2.7482      2.00000
      9       2.7482      2.00000
     10       6.0537      0.00166
     11       6.0537      0.00166
     12       6.0537      0.00166
     13       8.0191      0.00000
     14       8.0191      0.00000
     15       9.2832      0.00000
     16       9.2832      0.00000
     17       9.2832      0.00000
     18      15.9276      0.00000
     19      15.9276      0.00000
     20      15.9276      0.00000
     21      22.3753      0.00000
     22      22.3753      0.00000
     23      26.7140      0.00000
     24      26.7140      0.00000
     25      26.7140      0.00000
     26      27.3790      0.00000
     27      32.9802      0.00000
     28      32.9802      0.00000

 k-point     2 :       0.3333    0.0000    0.0000
  band No.  band energies     occupation 
      1     -31.9661      2.00000
      2     -31.8362      2.00000
      3     -31.8362      2.00000
      4     -31.6745      2.00000
      5     -31.5407      2.00000
      6     -31.5407      2.00000
      7       1.2023      2.00000
      8       3.4522      2.00000
      9       3.8886      2.00000
     10       6.0924      0.00022
     11       6.0924      0.00022
     12       6.5100      0.00000
     13       6.7962      0.00000
     14       7.3721      0.00000
     15       7.3721      0.00000
     16       8.4063      0.00000
     17       8.5544      0.00000
     18      10.9481      0.00000
     19      19.9513      0.00000
     20      19.9513      0.00000
     21      22.5310      0.00000
     22      23.6063      0.00000
     23      23.8178      0.00000
     24      26.0728      0.00000
     25      26.0728      0.00000
     26      26.8042      0.00000
     27      33.8140      0.00000
     28      33.8140      0.00000

 k-point     3 :       0.3333    0.3333    0.0000
  band No.  band energies     occupation 
      1     -32.1956      2.00000
      2     -32.0557      2.00000
      3     -31.7522      2.00000
      4     -31.6042      2.00000
      5     -31.5565      2.00000
      6     -31.4051      2.00000
      7       2.2376      2.00000
      8       3.2190      2.00000
      9       4.8945      2.00000
     10       5.1400      2.00000
     11       5.4194      2.00000
     12       5.8315      0.99936
     13       7.2748      0.00000
     14       7.8628      0.00000
     15       8.2287      0.00000
     16       8.5754      0.00000
     17       9.5672      0.00000
     18      11.1093      0.00000
     19      15.6308      0.00000
     20      19.0240      0.00000
     21      22.1141      0.00000
     22      22.3981      0.00000
     23      23.1711      0.00000
     24      27.5987      0.00000
     25      28.2727      0.00000
     26      29.8324      0.00000
     27      31.8726      0.00000
     28      32.5363      0.00000

 k-point     4 :       0.3333    0.3333    0.3333
  band No.  band energies     occupation 
      1     -32.0801      2.00000
      2     -31.9922      2.00000
      3     -31.9922      2.00000
      4     -31.5968      2.00000
      5     -31.5968      2.00000
      6     -31.5074      2.00000
      7       3.8116      2.00000
      8       4.0894      2.00000
      9       4.5396      2.00000
     10       4.5396      2.00000
     11       4.7535      2.00000
     12       4.7535      2.00000
     13       8.2260      0.00000
     14       8.2260      0.00000
     15       8.2747      0.00000
     16       8.2747      0.00000
     17      10.8502      0.00000
     18      14.5572      0.00000
     19      14.5572      0.00000
     20      16.6992      0.00000
     21      19.4614      0.00000
     22      19.4614      0.00000
     23      20.9933      0.00000
     24      24.4184      0.00000
     25      31.0530      0.00000
     26      31.0530      0.00000
     27      32.2248      0.00000
     28      35.4783      0.00000


--------------------------------------------------------------------------------------------------------


 soft charge-density along one line, spin component           1
         0         1         2         3         4         5         6         7         8         9
 total charge-density along one line
 
 pseudopotential strength for first ion, spin component:           1
-38.943  -0.000  -0.000  11.911   0.000   0.000  -0.000   0.000
 -0.000 -38.943   0.000   0.000  11.911  -0.000   0.000   0.000
 -0.000   0.000 -38.943   0.000  -0.000  11.911   0.000   0.000
 11.911   0.000   0.000   2.794  -0.000  -0.000   0.000  -0.000
  0.000  11.911  -0.000  -0.000   2.794   0.000  -0.000  -0.000
  0.000  -0.000  11.911  -0.000   0.000   2.794  -0.000  -0.000
 -0.000   0.000   0.000   0.000  -0.000  -0.000  -5.427  -0.000
  0.000   0.000   0.000  -0.000  -0.000  -0.000  -0.000  -5.427
 -0.000   0.000   0.000   0.000  -0.000  -0.000   0.000  -0.000
  0.000  -0.000   0.000  -0.000   0.000  -0.000  -0.000  -0.000
 -0.000  -0.000  -0.000   0.000   0.000   0.000   0.000   0.000
 -0.000   0.000   0.000   0.000  -0.000  -0.000   0.408  -0.000
  0.000   0.000   0.000  -0.000  -0.000  -0.000  -0.000   0.408
 -0.000   0.000   0.000   0.000  -0.000  -0.000   0.000  -0.000
  0.000  -0.000   0.000  -0.000   0.000  -0.000  -0.000  -0.000
 -0.000  -0.000   0.000   0.000   0.000  -0.000   0.000   0.000
 -0.000  -0.000   0.000   0.000   0.000   0.000   0.000   0.000
  0.000   0.000  -0.000  -0.000  -0.000   0.000  -0.000  -0.000
 total augmentation occupancy for first ion, spin component:           1
  1.980  -0.000  -0.000  -0.033  -0.000   0.000   0.000   0.000  -0.000  -0.000   0.000   0.000  -0.000  -0.000   0.000  -0.000
 -0.000   1.980  -0.000  -0.000  -0.033   0.000  -0.000   0.000   0.000   0.000   0.000   0.000   0.000   0.000  -0.000   0.000
 -0.000  -0.000   1.980  -0.000  -0.000  -0.033   0.000  -0.000  -0.000   0.000   0.000  -0.000  -0.000  -0.000   0.000   0.000
 -0.033   0.000  -0.000   0.144   0.000  -0.000   0.000   0.000   0.000   0.000  -0.000   0.000   0.000  -0.000   0.000   0.000
 -0.000  -0.033  -0.000   0.000   0.144  -0.000  -0.000   0.000   0.000   0.000  -0.000   0.000   0.000  -0.000   0.000   0.000
  0.000   0.000  -0.033  -0.000  -0.000   0.144   0.000   0.000   0.000   0.000   0.000   0.000  -0.000  -0.000   0.000   0.000
  0.000  -0.000   0.000   0.000  -0.000   0.000   0.829  -0.000  -0.000  -0.000  -0.000  -0.317  -0.000  -0.000  -0.000   0.000
  0.000   0.000  -0.000   0.000   0.000   0.000  -0.000   0.829   0.000   0.000  -0.000   0.000  -0.317   0.000  -0.000  -0.000
  0.000   0.000  -0.000  -0.000   0.000   0.000  -0.000  -0.000   0.651   0.000   0.000   0.000  -0.000  -0.322   0.000  -0.000
 -0.000   0.000   0.000   0.000   0.000   0.000  -0.000   0.000   0.000   0.829   0.000   0.000   0.000   0.000  -0.317  -0.000
  0.000   0.000   0.000  -0.000  -0.000   0.000  -0.000  -0.000   0.000   0.000   0.651  -0.000  -0.000  -0.000   0.000  -0.322
  0.000   0.000   0.000   0.000  -0.000   0.000  -0.317  -0.000   0.000  -0.000   0.000   0.158  -0.000   0.000  -0.000  -0.000
  0.000   0.000  -0.000   0.000   0.000   0.000   0.000  -0.317  -0.000   0.000   0.000   0.000   0.158   0.000   0.000  -0.000
  0.000   0.000   0.000   0.000  -0.000   0.000   0.000  -0.000  -0.322   0.000  -0.000  -0.000  -0.000   0.195   0.000   0.000
  0.000   0.000   0.000   0.000   0.000   0.000   0.000  -0.000  -0.000  -0.317   0.000   0.000   0.000  -0.000   0.158   0.000
  0.000   0.000   0.000  -0.000  -0.000  -0.000  -0.000  -0.000  -0.000  -0.000  -0.322  -0.000   0.000   0.000  -0.000   0.195
 -0.000  -0.000  -0.000   0.000   0.000   0.000   0.000  -0.000  -0.000   0.000  -0.000   0.000   0.000   0.000  -0.000   0.000
  0.000  -0.000   0.000  -0.000   0.000   0.000  -0.000  -0.000   0.000   0.000   0.000  -0.000   0.000  -0.000  -0.000   0.000


------------------------ aborting loop because EDIFF is reached ----------------------------------------


    CHARGE:  cpu time      0.0012: real time      0.0012
    FORLOC:  cpu time      0.0000: real time      0.0000
    FORNL :  cpu time      0.0008: real time      0.0008
    STRESS:  cpu time      0.0048: real time      0.0048
    FORCOR:  cpu time      0.0010: real time      0.0010
    FORHAR:  cpu time      0.0002: real time      0.0002
    MIXING:  cpu time      0.0002: real time      0.0002
    OFIELD:  cpu time      0.0000: real time      0.0000

  FORCE on cell =-STRESS in cart. coord.  units (eV):
  Direction    XX          YY          ZZ          XY          YZ          ZX
  --------------------------------------------------------------------------------------
  Alpha Z   202.20562   202.20562   202.20562
  Ewald    -702.46816  -702.46816  -702.46816    -0.00000     0.00000     0.00000
  Hartree   169.71148   169.71148   169.71148    -0.00000    -0.00000    -0.00000
  E(xc)    -120.13351  -120.13351  -120.13351     0.00000    -0.00000     0.00000
  Local     228.78438   228.78438   228.78438     0.00000     0.00000    -0.00000
  n-local  -146.75430  -145.79213  -140.90306     1.42196     0.15376     0.15375
  augment    71.07343    71.07343    71.07343    -0.00000    -0.00000     0.00000
  Kinetic   292.62493   291.39073   301.95374     1.19284    -0.61932    -0.61932
  Fock        0.00000     0.00000     0.00000     0.00000     0.00000     0.00000
  -------------------------------------------------------------------------------------
  Total       0.01321     0.01321     0.01321    -0.00000    -0.00000     0.00000
  in kB       0.77672     0.77672     0.77672    -0.00000    -0.00000     0.00000
  external pressure =        0.78 kB  Pullay stress =        0.00 kB


 VOLUME and BASIS-vectors are now :
 -----------------------------------------------------------------------------
  energy-cutoff  :      400.00
  volume of cell :       27.24
      direct lattice vectors                 reciprocal lattice vectors
     3.008870039 -0.000000000 -0.000000000     0.332350679  0.000000000  0.000000000
    -0.000000000  3.008870039 -0.000000000     0.000000000  0.332350679  0.000000000
    -0.000000000 -0.000000000  3.008870039     0.000000000  0.000000000  0.332350679

  length of vectors
     3.008870039  3.008870039  3.008870039     0.332350679  0.332350679  0.332350679


 FORCES acting on ions
    electron-ion (+dipol)            ewald-force                    non-local-force                 convergence-correction
 -----------------------------------------------------------------------------------------------
   -.208E-14 -.170E-15 0.119E-13   0.243E-14 -.788E-14 -.559E-14   0.590E-25 0.400E-25 0.632E-25   -.227E-14 -.223E-14 -.634E-14
   0.133E-12 0.159E-11 0.371E-12   -.107E-14 0.989E-14 0.494E-14   -.131E-24 -.639E-24 0.286E-24   0.354E-13 -.145E-15 0.107E-15
 -----------------------------------------------------------------------------------------------
   0.131E-12 0.159E-11 0.383E-12   0.136E-14 0.200E-14 -.655E-15   -.717E-25 -.599E-24 0.349E-24   0.332E-13 -.237E-14 -.623E-14
 
 
 POSITION                                       TOTAL-FORCE (eV/Angst)
 -----------------------------------------------------------------------------------
      0.00000     -0.00000      0.00000         0.000000     -0.000000      0.000000
      1.50444      1.50444      1.50444        -0.000000      0.000000     -0.000000
 -----------------------------------------------------------------------------------
    total drift:                                0.000000      0.000000      0.000000


--------------------------------------------------------------------------------------------------------



  FREE ENERGIE OF THE ION-ELECTRON SYSTEM (eV)
  ---------------------------------------------------
  free  energy   TOTEN  =       -18.15266393 eV

  energy  without entropy=      -18.12751656  energy(sigma->0) =      -18.14009024
 
 d Force =-0.7347749E-61[-0.122E-60,-0.248E-61]  d Energy = 0.2578772E-01-0.258E-01
 d Force = 0.4770344E-45[ 0.143E-45, 0.811E-45]  d Ewald  =-0.2732859E+02 0.273E+02


--------------------------------------------------------------------------------------------------------


    POTLOK:  cpu time      0.0037: real time      0.0037


--------------------------------------------------------------------------------------------------------




--------------------------------------------------------------------------------------------------------


  
 reached required accuracy - stopping structural energy minimisation
     LOOP+:  cpu time      0.1389: real time      0.1416
    4ORBIT:  cpu time      0.0000: real time      0.0000

 total amount of memory used by VASP MPI-rank0    30747. kBytes
=======================================================================

   base      :      30000. kBytes
   nonl-proj :        323. kBytes
   fftplans  :         86. kBytes
   grid      :        270. kBytes
   one-center:         31. kBytes
   wavefun   :         37. kBytes
 
  
  
 General timing and accounting informations for this job:
 ========================================================
  
                  Total CPU time used (sec):        1.383
                            User time (sec):        1.167
                          System time (sec):        0.215
                         Elapsed time (sec):        2.755
  
                   Maximum memory used (kb):       62808.
                   Average memory used (kb):          N/A
  
                          Minor page faults:        13542
                          Major page faults:            3
                 Voluntary context switches:         1111
