<?xml version="1.0" encoding="ISO-8859-1"?>
<modeling>
 <generator>
  <i name="program" type="string">vasp </i>
  <i name="version" type="string">6.4.3  </i>
  <i name="subversion" type="string">19Mar24 (build Sep 18 2024 11:30:23) complex                          parallel </i>
  <i name="platform" type="string">LinuxIFC </i>
  <i name="date" type="string">2026 07 07 </i>
  <i name="time" type="string">16:47:35 </i>
 </generator>
 <incar>
  <i type="string" name="SYSTEM">HECN</i>
  <i type="int" name="ISTART">     0</i>
  <i type="string" name="PREC">Normal</i>
  <i type="string" name="ALGO">Fast</i>
  <i type="int" name="ICHARG">     2</i>
  <i type="int" name="NELM">    60</i>
  <i type="int" name="IBRION">     2</i>
  <i name="EDIFF">      0.00001000</i>
  <i name="EDIFFG">     -0.01000000</i>
  <i type="int" name="NSW">   100</i>
  <i type="int" name="ISIF">     3</i>
  <i name="ENCUT">    400.00000000</i>
  <i name="POTIM">      0.50000000</i>
  <i type="logical" name="LREAL"> F  </i>
  <i type="int" name="ISMEAR">     0</i>
  <i name="SIGMA">      0.10000000</i>
  <i type="logical" name="LWAVE"> F  </i>
  <i type="logical" name="LCHARG"> F  </i>
 </incar>
 <primitive_cell>
  <structure name="primitive_cell" >
   <crystal>
    <varray name="basis" >
     <v>       1.51400006       1.51400006      -1.51400006 </v>
     <v>      -1.51400006       1.51400006       1.51400006 </v>
     <v>       1.51400006      -1.51400006       1.51400006 </v>
    </varray>
    <i name="volume">     13.88154058 </i>
    <varray name="rec_basis" >
     <v>       0.33025098       0.33025098       0.00000000 </v>
     <v>      -0.00000000       0.33025098       0.33025098 </v>
     <v>       0.33025098       0.00000000       0.33025098 </v>
    </varray>
   </crystal>
   <varray name="positions" >
    <v>       0.00000000       0.00000000       0.00000000 </v>
   </varray>
  </structure>
  <varray name="primitive_index" >
   <v type="int" >        1 </v>
  </varray>
 </primitive_cell>
 <kpoints>
  <generation param="Gamma">
   <v type="int" name="divisions">       3        3        3 </v>
   <v name="usershift">      0.00000000       0.00000000       0.00000000 </v>
   <v name="genvec1">      0.33333333       0.00000000       0.00000000 </v>
   <v name="genvec2">      0.00000000       0.33333333       0.00000000 </v>
   <v name="genvec3">      0.00000000       0.00000000       0.33333333 </v>
   <v name="shift">      0.00000000       0.00000000       0.00000000 </v>
  </generation>
  <varray name="kpointlist" >
   <v>       0.00000000       0.00000000       0.00000000 </v>
   <v>       0.33333333       0.00000000       0.00000000 </v>
   <v>       0.33333333       0.33333333       0.00000000 </v>
   <v>       0.33333333       0.33333333       0.33333333 </v>
  </varray>
  <varray name="weights" >
   <v>       0.03703704 </v>
   <v>       0.22222222 </v>
   <v>       0.44444444 </v>
   <v>       0.29629630 </v>
  </varray>
 </kpoints>
 <parameters>
  <separator name="general" >
   <i type="string" name="SYSTEM">HECN</i>
   <i type="logical" name="LCOMPAT"> F  </i>
  </separator>
  <separator name="electronic" >
   <i type="string" name="PREC">normal</i>
   <i name="ENMAX">    400.00000000</i>
   <i name="ENAUG">    598.47300000</i>
   <i name="EDIFF">      0.00001000</i>
   <i type="int" name="IALGO">    68</i>
   <i type="int" name="IWAVPR">    11</i>
   <i type="int" name="NBANDS">    28</i>
   <i type="int" name="NBANDSLOW">    -1</i>
   <i type="int" name="NBANDSHIGH">    -1</i>
   <i name="NELECT">     22.00000000</i>
   <i type="int" name="TURBO">     0</i>
   <i type="int" name="IRESTART">     0</i>
   <i type="int" name="NREBOOT">     0</i>
   <i type="int" name="NMIN">     0</i>
   <i name="EREF">      0.00000000</i>
   <separator name="electronic smearing" >
    <i type="int" name="ISMEAR">     0</i>
    <i name="SIGMA">      0.10000000</i>
    <i name="KSPACING">      0.50000000</i>
    <i type="logical" name="KGAMMA"> T  </i>
    <i type="logical" name="KBLOWUP"> T  </i>
   </separator>
   <separator name="electronic projectors" >
    <i type="logical" name="LREAL"> F  </i>
    <v name="ROPT">      0.00000000</v>
    <i type="int" name="LMAXPAW">  -100</i>
    <i type="int" name="LMAXMIX">     2</i>
    <i type="logical" name="NLSPLINE"> F  </i>
   </separator>
   <separator name="electronic startup" >
    <i type="int" name="ISTART">     0</i>
    <i type="int" name="ICHARG">     2</i>
    <i type="int" name="INIWAV">     1</i>
   </separator>
   <separator name="electronic spin" >
    <i type="int" name="ISPIN">     1</i>
    <i type="logical" name="LNONCOLLINEAR"> F  </i>
    <v name="MAGMOM">      1.00000000      1.00000000</v>
    <i name="NUPDOWN">     -1.00000000</i>
    <i type="logical" name="LSORBIT"> F  </i>
    <v name="SAXIS">      0.00000000      0.00000000      1.00000000</v>
    <i type="logical" name="LSPIRAL"> F  </i>
    <v name="QSPIRAL">      0.00000000      0.00000000      0.00000000</v>
    <i type="logical" name="LZEROZ"> F  </i>
   </separator>
   <separator name="electronic exchange-correlation" >
    <i type="logical" name="LASPH"> F  </i>
   </separator>
   <separator name="electronic convergence" >
    <i type="int" name="NELM">    60</i>
    <i type="int" name="NELMDL">    -5</i>
    <i type="int" name="NELMIN">     2</i>
    <i name="ENINI">    400.00000000</i>
    <separator name="electronic convergence detail" >
     <i type="logical" name="LDIAG"> T  </i>
     <i type="logical" name="LSUBROT"> F  </i>
     <i name="WEIMIN">      0.00100000</i>
     <i name="EBREAK">      0.00000009</i>
     <i name="DEPER">      0.30000000</i>
     <i type="int" name="NRMM">     4</i>
     <i name="TIME">      0.40000000</i>
    </separator>
   </separator>
   <separator name="electronic mixer" >
    <i name="AMIX">      0.40000000</i>
    <i name="BMIX">      1.00000000</i>
    <i name="AMIN">      0.10000000</i>
    <i name="AMIX_MAG">      1.60000000</i>
    <i name="BMIX_MAG">      1.00000000</i>
    <separator name="electronic mixer details" >
     <i type="int" name="IMIX">     4</i>
     <i type="logical" name="MIXFIRST"> F  </i>
     <i type="int" name="MAXMIX">   -45</i>
     <i name="WC">    100.00000000</i>
     <i type="int" name="INIMIX">     1</i>
     <i type="int" name="MIXPRE">     1</i>
     <i type="int" name="MREMOVE">     5</i>
    </separator>
   </separator>
   <separator name="electronic dipolcorrection" >
    <i type="logical" name="LDIPOL"> F  </i>
    <i type="logical" name="LMONO"> F  </i>
    <i type="int" name="IDIPOL">     0</i>
    <i name="EPSILON">      1.00000000</i>
    <v name="DIPOL">   -100.00000000   -100.00000000   -100.00000000</v>
    <i name="EFIELD">      0.00000000</i>
    <i type="logical" name="LVACPOTAV"> F  </i>
   </separator>
  </separator>
  <separator name="grids" >
   <i type="int" name="NGX">    16</i>
   <i type="int" name="NGY">    16</i>
   <i type="int" name="NGZ">    16</i>
   <i type="int" name="NGXF">    32</i>
   <i type="int" name="NGYF">    32</i>
   <i type="int" name="NGZF">    32</i>
   <i type="logical" name="ADDGRID"> F  </i>
  </separator>
  <separator name="ionic" >
   <i type="int" name="NSW">   100</i>
   <i type="int" name="IBRION">     2</i>
   <i type="int" name="MDALGO">     0</i>
   <i type="int" name="ISIF">     3</i>
   <i name="PSTRESS">      0.00000000</i>
   <i name="EDIFFG">     -0.01000000</i>
   <i type="int" name="NFREE">     1</i>
   <i name="POTIM">      0.50000000</i>
   <i name="SMASS">     -3.00000000</i>
   <i name="SCALEE">      1.00000000</i>
  </separator>
  <separator name="ionic md" >
   <i name="TEBEG">      0.00010000</i>
   <i name="TEEND">      0.00010000</i>
   <i type="int" name="NBLOCK">     1</i>
   <i type="int" name="KBLOCK">   100</i>
   <i type="int" name="NPACO">   256</i>
   <i name="APACO">     10.00000000</i>
  </separator>
  <separator name="symmetry" >
   <i type="int" name="ISYM">     2</i>
   <i name="SYMPREC">      0.00001000</i>
  </separator>
  <separator name="dos" >
   <i type="int" name="LORBIT">     0</i>
   <v name="RWIGS">     -1.00000000</v>
   <i type="int" name="NEDOS">   301</i>
   <i name="EMIN">     10.00000000</i>
   <i name="EMAX">    -10.00000000</i>
   <i name="EFERMI">      0.00000000</i>
  </separator>
  <separator name="writing" >
   <i type="int" name="NWRITE">     2</i>
   <i type="logical" name="LWAVE"> F  </i>
   <i type="logical" name="LDOWNSAMPLE"> F  </i>
   <i type="logical" name="LCHARG"> F  </i>
   <i type="logical" name="LPARD"> F  </i>
   <i type="logical" name="LVTOT"> F  </i>
   <i type="logical" name="LVHAR"> F  </i>
   <i type="logical" name="LELF"> F  </i>
   <i type="logical" name="LOPTICS"> F  </i>
   <v name="STM">      0.00000000      0.00000000      0.00000000      0.00000000      0.00000000      0.00000000      0.00000000</v>
  </separator>
  <separator name="performance" >
   <i type="int" name="NPAR">    28</i>
   <i type="int" name="NSIM">     4</i>
   <i type="int" name="NBLK">    -1</i>
   <i type="logical" name="LPLANE"> T  </i>
   <i type="logical" name="LSCALAPACK"> T  </i>
   <i type="logical" name="LSCAAWARE"> T  </i>
   <i type="logical" name="LSCALU"> F  </i>
   <i type="logical" name="LASYNC"> F  </i>
   <i type="logical" name="LORBITALREAL"> F  </i>
  </separator>
  <separator name="miscellaneous" >
   <i type="int" name="IDIOT">     3</i>
   <i type="int" name="PHON_NSTRUCT">    -1</i>
   <i type="logical" name="LMUSIC"> F  </i>
   <v name="POMASS">     50.94100000</v>
   <v name="DARWINR">      0.00000000</v>
   <v name="DARWINV">      1.00000000</v>
   <i type="logical" name="LCORR"> T  </i>
  </separator>
  <i type="logical" name="GGA_COMPAT"> T  </i>
  <i type="logical" name="LBERRY"> F  </i>
  <i type="int" name="ICORELEVEL">     0</i>
  <i type="logical" name="LDAU"> F  </i>
  <i type="int" name="I_CONSTRAINED_M">     0</i>
  <separator name="electronic exchange-correlation" >
   <i type="string" name="GGA    ">PE</i>
   <i type="string" name="XC_C">1</i>
   <i type="int" name="VOSKOWN">     0</i>
   <i type="logical" name="LHFCALC"> F  </i>
   <i type="string" name="PRECFOCK"></i>
   <i type="logical" name="LSYMGRAD"> F  </i>
   <i type="logical" name="LHFONE"> F  </i>
   <i type="logical" name="LRHFCALC"> F  </i>
   <i type="logical" name="LTHOMAS"> F  </i>
   <i type="logical" name="LMODELHF"> F  </i>
   <i type="logical" name="LFOCKACE"> F  </i>
   <i name="ENCUT4O">     -1.00000000</i>
   <i type="int" name="EXXOEP">     0</i>
   <i type="int" name="FOURORBIT">     0</i>
   <i name="AEXX">      0.00000000</i>
   <i name="HFALPHA">      0.00000000</i>
   <i name="MCALPHA">      0.00000000</i>
   <i name="ALDAX">      1.00000000</i>
   <i name="AGGAX">      1.00000000</i>
   <i name="AMGGAX">      1.00000000</i>
   <i name="ALDAC">      1.00000000</i>
   <i name="AGGAC">      1.00000000</i>
   <i name="AMGGAC">      1.00000000</i>
   <i type="int" name="NKREDX">     1</i>
   <i type="int" name="NKREDY">     1</i>
   <i type="int" name="NKREDZ">     1</i>
   <i type="logical" name="SHIFTRED"> F  </i>
   <i type="logical" name="ODDONLY"> F  </i>
   <i type="logical" name="EVENONLY"> F  </i>
   <i type="int" name="LMAXFOCK">     0</i>
   <i type="int" name="NMAXFOCKAE">     0</i>
   <i type="logical" name="LFOCKAEDFT"> F  </i>
   <i name="HFSCREEN">      0.00000000</i>
   <i name="HFSCREENC">      0.00000000</i>
   <i type="int" name="NBANDSGWLOW">     0</i>
  </separator>
  <separator name="vdW DFT" >
   <i type="logical" name="LUSE_VDW"> F  </i>
   <i type="int" name="IVDW_NL">    -1</i>
   <i type="logical" name="LSPIN_VDW"> F  </i>
   <i name="ZAB_VDW">     -0.84910000</i>
   <i name="GAMMA_VDW">      1.39626340</i>
   <i name="ALPHA_VDW">      0.00000000</i>
   <i name="PARAM1">      0.12340000</i>
   <i name="PARAM2">      1.00000000</i>
   <i name="BPARAM">      6.30000000</i>
   <i name="CPARAM">      0.00930000</i>
  </separator>
  <separator name="model GW" >
   <i type="int" name="MODEL_GW">     0</i>
   <i name="MODEL_EPS0">      8.32892435</i>
   <i name="MODEL_ALPHA">      1.00000000</i>
  </separator>
  <separator name="linear response parameters" >
   <i type="logical" name="LEPSILON"> F  </i>
   <i type="logical" name="LRPA"> F  </i>
   <i type="logical" name="LNABLA"> F  </i>
   <i type="logical" name="LVEL"> F  </i>
   <i name="CSHIFT">      0.10000000</i>
   <i name="OMEGAMAX">     -1.00000000</i>
   <i name="DEG_THRESHOLD">      0.00200000</i>
   <i name="RTIME">     -0.10000000</i>
   <i name="WPLASMAI">      0.00000000</i>
   <v name="DFIELD">      0.00000000      0.00000000      0.00000000</v>
   <v name="WPLASMA">      0.00000000      0.00000000      0.00000000      0.00000000      0.00000000      0.00000000      0.00000000      0.00000000      0.00000000</v>
  </separator>
  <separator name="orbital magnetization" >
   <i type="logical" name="NUCIND"> F  </i>
   <v name="MAGPOS">      0.00000000      0.00000000      0.00000000</v>
   <i type="logical" name="LNICSALL"> T  </i>
   <i type="logical" name="ORBITALMAG"> F  </i>
   <i type="logical" name="LMAGBLOCH"> F  </i>
   <i type="logical" name="LCHIMAG"> F  </i>
   <i type="logical" name="LGAUGE"> T  </i>
   <i type="int" name="MAGATOM">     0</i>
   <v name="MAGDIPOL">      0.00000000      0.00000000      0.00000000</v>
   <v name="AVECCONST">      0.00000000      0.00000000      0.00000000</v>
  </separator>
  <separator name="response functions" >
   <i type="logical" name="LALL_IN_ONE"> F  </i>
   <i type="int" name="IALL_IN_ONE">    -1</i>
   <i type="int" name="NBANDS_WAVE">    -1</i>
   <i type="logical" name="LFINITE_TEMPERATURE"> F  </i>
   <i type="logical" name="LADDER"> F  </i>
   <i type="logical" name="LRPAFORCE"> F  </i>
   <i type="logical" name="LFXC"> F  </i>
   <i type="logical" name="LHARTREE"> T  </i>
   <i type="int" name="IBSE">     0</i>
   <v type="int" name="KPOINT">    -1     0     0     0</v>
   <i type="logical" name="LTCTC"> F  </i>
   <i type="logical" name="LTCTE"> F  </i>
   <i type="logical" name="LTETE"> F  </i>
   <i type="logical" name="LTRIPLET"> F  </i>
   <i type="logical" name="LFXCEPS"> F  </i>
   <i type="logical" name="LFXHEG"> F  </i>
   <i type="int" name="NATURALO">     2</i>
   <i type="logical" name="LHOLEGF"> F  </i>
   <i type="logical" name="L2ORDER"> F  </i>
   <i type="logical" name="LDMP1"> F  </i>
   <i type="logical" name="LMP2LT"> F  </i>
   <i type="logical" name="LSMP2LT"> F  </i>
   <i type="logical" name="LGWLF"> F  </i>
   <i name="ENCUTGW">     -1.60000002</i>
   <i name="ENCUTGWSOFT">     -1.60000002</i>
   <i name="ENCUTLF">     -1.00000000</i>
   <i type="logical" name="ESF_SPLINES"> F  </i>
   <i name="ESF_CONV">      0.01000000</i>
   <i type="int" name="ESF_NINTER">    15</i>
   <i type="int" name="LMAXMP2">    -1</i>
   <i name="SCISSOR">      0.00000000</i>
   <i type="int" name="NOMEGA">     0</i>
   <i type="int" name="NOMEGAR">     0</i>
   <i type="int" name="NBANDSGW">    -1</i>
   <i type="int" name="NBANDSO">    -1</i>
   <i type="int" name="NBANDSV">    -1</i>
   <i type="int" name="NELMGW">     1</i>
   <i type="int" name="NELMHF">     1</i>
   <i type="int" name="DIM">     3</i>
   <i type="int" name="IESPILON">     4</i>
   <i type="int" name="ANTIRES">     0</i>
   <i name="OMEGAMAX">    -30.00000000</i>
   <i name="OMEGAMIN">    -30.00000000</i>
   <i name="OMEGATL">   -200.00000000</i>
   <i type="int" name="OMEGAGRID">     0</i>
   <i name="CSHIFT">     -0.10000000</i>
   <i type="logical" name="LSELFENERGY"> F  </i>
   <i type="logical" name="LSPECTRAL"> F  </i>
   <i type="logical" name="LSPECTRALGW"> F  </i>
   <i type="logical" name="LSINGLES"> F  </i>
   <i type="logical" name="LFERMIGW"> F  </i>
   <i type="logical" name="ODDONLYGW"> F  </i>
   <i type="logical" name="EVENONLYGW"> F  </i>
   <i type="int" name="NKREDLFX">     1</i>
   <i type="int" name="NKREDLFY">     1</i>
   <i type="int" name="NKREDLFZ">     1</i>
   <i type="int" name="MAXMEM">  2800</i>
   <i type="int" name="TELESCOPE">     0</i>
   <i type="int" name="NTAUPAR">    -1</i>
   <i type="int" name="NOMEGAPAR">    -1</i>
   <i name="DAMP_NEWTON">      0.80000001</i>
   <i name="LAMBDA">      1.00000000</i>
  </separator>
  <separator name="External order field" >
   <i name="OFIELD_KAPPA">      0.00000000</i>
   <v name="OFIELD_K">      0.00000000      0.00000000      0.00000000</v>
   <i name="OFIELD_Q6_NEAR">      0.00000000</i>
   <i name="OFIELD_Q6_FAR">      0.00000000</i>
   <i name="OFIELD_A">      0.00000000</i>
  </separator>
  <separator name="optional k-points parameters" >
   <i type="int" name="KPOINTS_OPT_MODE">     1</i>
   <i type="logical" name="LKPOINTS_OPT"> F  </i>
  </separator>
  <separator name="solvation model" >
   <i type="logical" name="LSOL"> F  </i>
  </separator>
 </parameters>
 <atominfo>
  <atoms>       2 </atoms>
  <types>       1 </types>
  <array name="atoms" >
   <dimension dim="1">ion</dimension>
   <field type="string">element</field>
   <field type="int">atomtype</field>
   <set>
    <rc><c>V </c><c>   1</c></rc>
    <rc><c>V </c><c>   1</c></rc>
   </set>
  </array>
  <array name="atomtypes" >
   <dimension dim="1">type</dimension>
   <field type="int">atomspertype</field>
   <field type="string">element</field>
   <field>mass</field>
   <field>valence</field>
   <field type="string">pseudopotential</field>
   <set>
    <rc><c>   2</c><c>V </c><c>     50.94100000</c><c>     11.00000000</c><c> PAW_PBE V_pv 07Sep2000                 </c></rc>
   </set>
  </array>
 </atominfo>
 <structure name="initialpos" >
  <crystal>
   <varray name="basis" >
    <v>       3.02800012       0.00000000       0.00000000 </v>
    <v>       0.00000000       3.02800012       0.00000000 </v>
    <v>       0.00000000       0.00000000       3.02800012 </v>
   </varray>
   <i name="volume">     27.76308115 </i>
   <varray name="rec_basis" >
    <v>       0.33025098       0.00000000       0.00000000 </v>
    <v>       0.00000000       0.33025098       0.00000000 </v>
    <v>       0.00000000       0.00000000       0.33025098 </v>
   </varray>
  </crystal>
  <varray name="positions" >
   <v>       0.00000000       0.00000000       0.00000000 </v>
   <v>       0.50000000       0.50000000       0.50000000 </v>
  </varray>
 </structure>
 <calculation>
  <scstep>
   <time name="dav">    0.04    0.05</time>
   <time name="total">    0.05    0.07</time>
   <energy>
    <i name="alphaZ">    198.39734250 </i>
    <i name="ewald">  -2094.09063206 </i>
    <i name="hartreedc">   -577.61827947 </i>
    <i name="XCdc">     56.39264893 </i>
    <i name="pawpsdc">   1925.01027843 </i>
    <i name="pawaedc">  -1876.68261432 </i>
    <i name="eentropy">     -0.00000412 </i>
    <i name="bandstr">   -241.46749881 </i>
    <i name="atom">   2642.62590440 </i>
    <i name="e_fr_energy">     32.56714549 </i>
    <i name="e_wo_entrp">     32.56714961 </i>
    <i name="e_0_energy">     32.56714755 </i>
   </energy>
  </scstep>
  <scstep>
   <time name="dav">    0.05    0.38</time>
   <time name="total">    0.05    0.38</time>
   <energy>
    <i name="e_fr_energy">    -21.10467264 </i>
    <i name="e_wo_entrp">    -21.07959654 </i>
    <i name="e_0_energy">    -21.09213459 </i>
   </energy>
  </scstep>
  <scstep>
   <time name="dav">    0.04    0.04</time>
   <time name="total">    0.04    0.04</time>
   <energy>
    <i name="e_fr_energy">    -21.22615540 </i>
    <i name="e_wo_entrp">    -21.20107906 </i>
    <i name="e_0_energy">    -21.21361723 </i>
   </energy>
  </scstep>
  <scstep>
   <time name="dav">    0.04    0.04</time>
   <time name="total">    0.04    0.04</time>
   <energy>
    <i name="e_fr_energy">    -21.22618785 </i>
    <i name="e_wo_entrp">    -21.20111151 </i>
    <i name="e_0_energy">    -21.21364968 </i>
   </energy>
  </scstep>
  <scstep>
   <time name="dav">    0.05    0.05</time>
   <time name="total">    0.05    0.06</time>
   <energy>
    <i name="e_fr_energy">    -21.22618786 </i>
    <i name="e_wo_entrp">    -21.20111153 </i>
    <i name="e_0_energy">    -21.21364970 </i>
   </energy>
  </scstep>
  <scstep>
   <time name="diag">    0.01    0.02</time>
   <time name="diis">    0.00    0.00</time>
   <time name="orth">    0.00    0.00</time>
   <time name="total">    0.02    0.03</time>
   <energy>
    <i name="e_fr_energy">    -18.18645290 </i>
    <i name="e_wo_entrp">    -18.16137313 </i>
    <i name="e_0_energy">    -18.17391301 </i>
   </energy>
  </scstep>
  <scstep>
   <time name="diag">    0.01    0.01</time>
   <time name="diis">    0.00    0.00</time>
   <time name="orth">    0.00    0.00</time>
   <time name="total">    0.01    0.01</time>
   <energy>
    <i name="e_fr_energy">    -18.16023032 </i>
    <i name="e_wo_entrp">    -18.13515225 </i>
    <i name="e_0_energy">    -18.14769128 </i>
   </energy>
  </scstep>
  <scstep>
   <time name="diag">    0.01    0.01</time>
   <time name="diis">    0.00    0.00</time>
   <time name="orth">    0.00    0.00</time>
   <time name="total">    0.01    0.01</time>
   <energy>
    <i name="e_fr_energy">    -18.14861151 </i>
    <i name="e_wo_entrp">    -18.12341243 </i>
    <i name="e_0_energy">    -18.13601197 </i>
   </energy>
  </scstep>
  <scstep>
   <time name="diag">    0.01    0.01</time>
   <time name="diis">    0.00    0.00</time>
   <time name="orth">    0.00    0.00</time>
   <time name="total">    0.01    0.02</time>
   <energy>
    <i name="e_fr_energy">    -18.14668890 </i>
    <i name="e_wo_entrp">    -18.12158159 </i>
    <i name="e_0_energy">    -18.13413525 </i>
   </energy>
  </scstep>
  <scstep>
   <time name="diag">    0.01    0.01</time>
   <time name="diis">    0.00    0.00</time>
   <time name="orth">    0.00    0.00</time>
   <time name="total">    0.01    0.01</time>
   <energy>
    <i name="e_fr_energy">    -18.14671896 </i>
    <i name="e_wo_entrp">    -18.12160880 </i>
    <i name="e_0_energy">    -18.13416388 </i>
   </energy>
  </scstep>
  <scstep>
   <time name="diag">    0.01    0.01</time>
   <time name="diis">    0.00    0.00</time>
   <time name="orth">    0.00    0.00</time>
   <time name="total">    0.01    0.01</time>
   <energy>
    <i name="alphaZ">    198.39734250 </i>
    <i name="ewald">  -2094.09063206 </i>
    <i name="hartreedc">   -515.08842091 </i>
    <i name="XCdc">     53.69361241 </i>
    <i name="pawpsdc">   1926.23874385 </i>
    <i name="pawaedc">  -1886.34073238 </i>
    <i name="eentropy">     -0.02510491 </i>
    <i name="bandstr">   -343.55744082 </i>
    <i name="atom">   2642.62590440 </i>
    <i name="e_fr_energy">    -18.14672792 </i>
    <i name="e_wo_entrp">    -18.12162301 </i>
    <i name="e_0_energy">    -18.13417546 </i>
   </energy>
  </scstep>
  <structure>
   <crystal>
    <varray name="basis" >
     <v>       3.02800012       0.00000000       0.00000000 </v>
     <v>       0.00000000       3.02800012       0.00000000 </v>
     <v>       0.00000000       0.00000000       3.02800012 </v>
    </varray>
    <i name="volume">     27.76308115 </i>
    <varray name="rec_basis" >
     <v>       0.33025098       0.00000000       0.00000000 </v>
     <v>       0.00000000       0.33025098       0.00000000 </v>
     <v>       0.00000000       0.00000000       0.33025098 </v>
    </varray>
   </crystal>
   <varray name="positions" >
    <v>       0.00000000       0.00000000       0.00000000 </v>
    <v>       0.50000000       0.50000000       0.50000000 </v>
   </varray>
  </structure>
  <varray name="forces" >
   <v>       0.00000000      -0.00000000       0.00000000 </v>
   <v>      -0.00000000       0.00000000      -0.00000000 </v>
  </varray>
  <varray name="stress" >
   <v>     -45.54907646      -0.00000000      -0.00000000 </v>
   <v>      -0.00000000     -45.54907646      -0.00000000 </v>
   <v>      -0.00000000      -0.00000000     -45.54907646 </v>
  </varray>
  <energy>
   <i name="e_fr_energy">    -18.14672792 </i>
   <i name="e_wo_entrp">    -18.12162301 </i>
   <i name="e_0_energy">    -18.13417546 </i>
  </energy>
  <time name="totalsc">    0.34    0.74</time>
 </calculation>
 <calculation>
  <scstep>
   <time name="dav">    0.02    0.02</time>
   <time name="total">    0.03    0.03</time>
   <energy>
    <i name="alphaZ">    210.17461490 </i>
    <i name="ewald">  -2134.73323024 </i>
    <i name="hartreedc">   -524.90777884 </i>
    <i name="XCdc">     55.46666206 </i>
    <i name="pawpsdc">   1925.95196084 </i>
    <i name="pawaedc">  -1886.08779267 </i>
    <i name="eentropy">     -0.03675172 </i>
    <i name="bandstr">   -307.57066844 </i>
    <i name="atom">   2642.62590440 </i>
    <i name="e_fr_energy">    -19.11707971 </i>
    <i name="e_wo_entrp">    -19.08032799 </i>
    <i name="e_0_energy">    -19.09870385 </i>
   </energy>
  </scstep>
  <scstep>
   <time name="diag">    0.01    0.01</time>
   <time name="diis">    0.00    0.00</time>
   <time name="orth">    0.00    0.00</time>
   <time name="total">    0.01    0.01</time>
   <energy>
    <i name="e_fr_energy">    -18.11803705 </i>
    <i name="e_wo_entrp">    -18.09292804 </i>
    <i name="e_0_energy">    -18.10548254 </i>
   </energy>
  </scstep>
  <scstep>
   <time name="diag">    0.01    0.01</time>
   <time name="diis">    0.00    0.00</time>
   <time name="orth">    0.00    0.00</time>
   <time name="total">    0.01    0.01</time>
   <energy>
    <i name="e_fr_energy">    -18.12322908 </i>
    <i name="e_wo_entrp">    -18.09798538 </i>
    <i name="e_0_energy">    -18.11060723 </i>
   </energy>
  </scstep>
  <scstep>
   <time name="diag">    0.01    0.01</time>
   <time name="diis">    0.00    0.00</time>
   <time name="orth">    0.00    0.00</time>
   <time name="total">    0.01    0.01</time>
   <energy>
    <i name="e_fr_energy">    -18.12691255 </i>
    <i name="e_wo_entrp">    -18.10130710 </i>
    <i name="e_0_energy">    -18.11410983 </i>
   </energy>
  </scstep>
  <scstep>
   <time name="diag">    0.01    0.01</time>
   <time name="diis">    0.00    0.00</time>
   <time name="orth">    0.00    0.00</time>
   <time name="total">    0.01    0.01</time>
   <energy>
    <i name="e_fr_energy">    -18.12687526 </i>
    <i name="e_wo_entrp">    -18.10147971 </i>
    <i name="e_0_energy">    -18.11417748 </i>
   </energy>
  </scstep>
  <scstep>
   <time name="diag">    0.01    0.01</time>
   <time name="diis">    0.00    0.00</time>
   <time name="orth">    0.00    0.00</time>
   <time name="total">    0.01    0.01</time>
   <energy>
    <i name="e_fr_energy">    -18.12686427 </i>
    <i name="e_wo_entrp">    -18.10142722 </i>
    <i name="e_0_energy">    -18.11414574 </i>
   </energy>
  </scstep>
  <scstep>
   <time name="diag">    0.01    0.01</time>
   <time name="diis">    0.00    0.00</time>
   <time name="orth">    0.00    0.00</time>
   <time name="total">    0.01    0.01</time>
   <energy>
    <i name="e_fr_energy">    -18.12687359 </i>
    <i name="e_wo_entrp">    -18.10145940 </i>
    <i name="e_0_energy">    -18.11416649 </i>
   </energy>
  </scstep>
  <scstep>
   <time name="diag">    0.01    0.01</time>
   <time name="diis">    0.00    0.00</time>
   <time name="orth">    0.00    0.00</time>
   <time name="total">    0.01    0.01</time>
   <energy>
    <i name="alphaZ">    210.17461490 </i>
    <i name="ewald">  -2134.73323024 </i>
    <i name="hartreedc">   -497.49176093 </i>
    <i name="XCdc">     54.14367392 </i>
    <i name="pawpsdc">   1952.55467559 </i>
    <i name="pawaedc">  -1912.76061461 </i>
    <i name="eentropy">     -0.02542357 </i>
    <i name="bandstr">   -332.61471565 </i>
    <i name="atom">   2642.62590440 </i>
    <i name="e_fr_energy">    -18.12687621 </i>
    <i name="e_wo_entrp">    -18.10145263 </i>
    <i name="e_0_energy">    -18.11416442 </i>
   </energy>
  </scstep>
  <structure>
   <crystal>
    <varray name="basis" >
     <v>       2.97035086      -0.00000000      -0.00000000 </v>
     <v>      -0.00000000       2.97035086      -0.00000000 </v>
     <v>      -0.00000000      -0.00000000       2.97035086 </v>
    </varray>
    <i name="volume">     26.20735869 </i>
    <varray name="rec_basis" >
     <v>       0.33666057       0.00000000       0.00000000 </v>
     <v>       0.00000000       0.33666057       0.00000000 </v>
     <v>       0.00000000       0.00000000       0.33666057 </v>
    </varray>
   </crystal>
   <varray name="positions" >
    <v>       0.00000000       1.00000000       0.00000000 </v>
    <v>       0.50000000       0.50000000       0.50000000 </v>
   </varray>
  </structure>
  <varray name="forces" >
   <v>       0.00000000      -0.00000000       0.00000000 </v>
   <v>      -0.00000000       0.00000000      -0.00000000 </v>
  </varray>
  <varray name="stress" >
   <v>      84.36887843       0.00000000      -0.00000000 </v>
   <v>      -0.00000000      84.36887843       0.00000000 </v>
   <v>      -0.00000000       0.00000000      84.36887843 </v>
  </varray>
  <energy>
   <i name="e_fr_energy">    -18.12687621 </i>
   <i name="e_wo_entrp">    -18.10145263 </i>
   <i name="e_0_energy">    -18.11416442 </i>
  </energy>
  <time name="totalsc">    0.15    0.15</time>
 </calculation>
 <calculation>
  <scstep>
   <time name="dav">    0.03    0.04</time>
   <time name="total">    0.04    0.04</time>
   <energy>
    <i name="alphaZ">    202.20562076 </i>
    <i name="ewald">  -2107.40463872 </i>
    <i name="hartreedc">   -491.13925607 </i>
    <i name="XCdc">     52.97458413 </i>
    <i name="pawpsdc">   1952.64393576 </i>
    <i name="pawaedc">  -1912.85193665 </i>
    <i name="eentropy">     -0.02962717 </i>
    <i name="bandstr">   -357.70438020 </i>
    <i name="atom">   2642.62590440 </i>
    <i name="e_fr_energy">    -18.67979376 </i>
    <i name="e_wo_entrp">    -18.65016659 </i>
    <i name="e_0_energy">    -18.66498018 </i>
   </energy>
  </scstep>
  <scstep>
   <time name="diag">    0.01    0.01</time>
   <time name="diis">    0.00    0.00</time>
   <time name="orth">    0.00    0.00</time>
   <time name="total">    0.01    0.01</time>
   <energy>
    <i name="e_fr_energy">    -18.15423055 </i>
    <i name="e_wo_entrp">    -18.12915077 </i>
    <i name="e_0_energy">    -18.14169066 </i>
   </energy>
  </scstep>
  <scstep>
   <time name="diag">    0.01    0.01</time>
   <time name="diis">    0.00    0.00</time>
   <time name="orth">    0.00    0.00</time>
   <time name="total">    0.01    0.01</time>
   <energy>
    <i name="e_fr_energy">    -18.14960496 </i>
    <i name="e_wo_entrp">    -18.12446154 </i>
    <i name="e_0_energy">    -18.13703325 </i>
   </energy>
  </scstep>
  <scstep>
   <time name="diag">    0.01    0.01</time>
   <time name="diis">    0.00    0.00</time>
   <time name="orth">    0.00    0.00</time>
   <time name="total">    0.01    0.01</time>
   <energy>
    <i name="e_fr_energy">    -18.15254381 </i>
    <i name="e_wo_entrp">    -18.12740874 </i>
    <i name="e_0_energy">    -18.13997627 </i>
   </energy>
  </scstep>
  <scstep>
   <time name="diag">    0.01    0.01</time>
   <time name="diis">    0.00    0.00</time>
   <time name="orth">    0.00    0.00</time>
   <time name="total">    0.01    0.01</time>
   <energy>
    <i name="e_fr_energy">    -18.15265997 </i>
    <i name="e_wo_entrp">    -18.12751990 </i>
    <i name="e_0_energy">    -18.14008993 </i>
   </energy>
  </scstep>
  <scstep>
   <time name="diag">    0.01    0.01</time>
   <time name="diis">    0.00    0.00</time>
   <time name="orth">    0.00    0.00</time>
   <time name="total">    0.01    0.01</time>
   <energy>
    <i name="e_fr_energy">    -18.15267388 </i>
    <i name="e_wo_entrp">    -18.12752073 </i>
    <i name="e_0_energy">    -18.14009730 </i>
   </energy>
  </scstep>
  <scstep>
   <time name="diag">    0.01    0.01</time>
   <time name="diis">    0.00    0.00</time>
   <time name="orth">    0.00    0.00</time>
   <time name="total">    0.01    0.01</time>
   <energy>
    <i name="alphaZ">    202.20562076 </i>
    <i name="ewald">  -2107.40463872 </i>
    <i name="hartreedc">   -509.08186152 </i>
    <i name="XCdc">     53.83104665 </i>
    <i name="pawpsdc">   1934.35985128 </i>
    <i name="pawaedc">  -1894.53667635 </i>
    <i name="eentropy">     -0.02514737 </i>
    <i name="bandstr">   -340.12676306 </i>
    <i name="atom">   2642.62590440 </i>
    <i name="e_fr_energy">    -18.15266393 </i>
    <i name="e_wo_entrp">    -18.12751656 </i>
    <i name="e_0_energy">    -18.14009024 </i>
   </energy>
  </scstep>
  <structure>
   <crystal>
    <varray name="basis" >
     <v>       3.00887004      -0.00000000      -0.00000000 </v>
     <v>      -0.00000000       3.00887004      -0.00000000 </v>
     <v>      -0.00000000      -0.00000000       3.00887004 </v>
    </varray>
    <i name="volume">     27.24019985 </i>
    <varray name="rec_basis" >
     <v>       0.33235068       0.00000000       0.00000000 </v>
     <v>       0.00000000       0.33235068       0.00000000 </v>
     <v>       0.00000000       0.00000000       0.33235068 </v>
    </varray>
   </crystal>
   <varray name="positions" >
    <v>       0.00000000       0.00000000       0.00000000 </v>
    <v>       0.50000000       0.50000000       0.50000000 </v>
   </varray>
  </structure>
  <varray name="forces" >
   <v>       0.00000000      -0.00000000       0.00000000 </v>
   <v>      -0.00000000       0.00000000      -0.00000000 </v>
  </varray>
  <varray name="stress" >
   <v>       0.77671961      -0.00000000       0.00000000 </v>
   <v>      -0.00000000       0.77671961      -0.00000000 </v>
   <v>       0.00000000      -0.00000000       0.77671961 </v>
  </varray>
  <energy>
   <i name="e_fr_energy">    -18.15266393 </i>
   <i name="e_wo_entrp">    -18.12751656 </i>
   <i name="e_0_energy">    -18.14009024 </i>
  </energy>
  <time name="totalsc">    0.14    0.14</time>
  <eigenvalues>
   <array>
    <dimension dim="1">band</dimension>
    <dimension dim="2">kpoint</dimension>
    <dimension dim="3">spin</dimension>
    <field>eigene</field>
    <field>occ</field>
    <set>
     <set comment="spin 1">
      <set comment="kpoint 1">
       <r>  -31.9901    1.0000 </r>
       <r>  -31.9901    1.0000 </r>
       <r>  -31.9901    1.0000 </r>
       <r>  -31.3996    1.0000 </r>
       <r>  -31.3996    1.0000 </r>
       <r>  -31.3996    1.0000 </r>
       <r>   -0.7882    1.0000 </r>
       <r>    2.7482    1.0000 </r>
       <r>    2.7482    1.0000 </r>
       <r>    6.0537    0.0008 </r>
       <r>    6.0537    0.0008 </r>
       <r>    6.0537    0.0008 </r>
       <r>    8.0191    0.0000 </r>
       <r>    8.0191    0.0000 </r>
       <r>    9.2832    0.0000 </r>
       <r>    9.2832    0.0000 </r>
       <r>    9.2832    0.0000 </r>
       <r>   15.9276    0.0000 </r>
       <r>   15.9276    0.0000 </r>
       <r>   15.9276    0.0000 </r>
       <r>   22.3753    0.0000 </r>
       <r>   22.3753    0.0000 </r>
       <r>   26.7140    0.0000 </r>
       <r>   26.7140    0.0000 </r>
       <r>   26.7140    0.0000 </r>
       <r>   27.3790    0.0000 </r>
       <r>   32.9802    0.0000 </r>
       <r>   32.9802    0.0000 </r>
      </set>
      <set comment="kpoint 2">
       <r>  -31.9661    1.0000 </r>
       <r>  -31.8362    1.0000 </r>
       <r>  -31.8362    1.0000 </r>
       <r>  -31.6745    1.0000 </r>
       <r>  -31.5407    1.0000 </r>
       <r>  -31.5407    1.0000 </r>
       <r>    1.2023    1.0000 </r>
       <r>    3.4522    1.0000 </r>
       <r>    3.8886    1.0000 </r>
       <r>    6.0924    0.0001 </r>
       <r>    6.0924    0.0001 </r>
       <r>    6.5100    0.0000 </r>
       <r>    6.7962    0.0000 </r>
       <r>    7.3721    0.0000 </r>
       <r>    7.3721    0.0000 </r>
       <r>    8.4063    0.0000 </r>
       <r>    8.5544    0.0000 </r>
       <r>   10.9481    0.0000 </r>
       <r>   19.9513    0.0000 </r>
       <r>   19.9513    0.0000 </r>
       <r>   22.5310    0.0000 </r>
       <r>   23.6063    0.0000 </r>
       <r>   23.8178    0.0000 </r>
       <r>   26.0728    0.0000 </r>
       <r>   26.0728    0.0000 </r>
       <r>   26.8042    0.0000 </r>
       <r>   33.8140    0.0000 </r>
       <r>   33.8140    0.0000 </r>
      </set>
      <set comment="kpoint 3">
       <r>  -32.1956    1.0000 </r>
       <r>  -32.0557    1.0000 </r>
       <r>  -31.7522    1.0000 </r>
       <r>  -31.6042    1.0000 </r>
       <r>  -31.5565    1.0000 </r>
       <r>  -31.4051    1.0000 </r>
       <r>    2.2376    1.0000 </r>
       <r>    3.2190    1.0000 </r>
       <r>    4.8945    1.0000 </r>
       <r>    5.1400    1.0000 </r>
       <r>    5.4194    1.0000 </r>
       <r>    5.8315    0.4997 </r>
       <r>    7.2748    0.0000 </r>
       <r>    7.8628    0.0000 </r>
       <r>    8.2287    0.0000 </r>
       <r>    8.5754    0.0000 </r>
       <r>    9.5672    0.0000 </r>
       <r>   11.1093    0.0000 </r>
       <r>   15.6308    0.0000 </r>
       <r>   19.0240    0.0000 </r>
       <r>   22.1141    0.0000 </r>
       <r>   22.3981    0.0000 </r>
       <r>   23.1711    0.0000 </r>
       <r>   27.5987    0.0000 </r>
       <r>   28.2727    0.0000 </r>
       <r>   29.8324    0.0000 </r>
       <r>   31.8726    0.0000 </r>
       <r>   32.5363    0.0000 </r>
      </set>
      <set comment="kpoint 4">
       <r>  -32.0801    1.0000 </r>
       <r>  -31.9922    1.0000 </r>
       <r>  -31.9922    1.0000 </r>
       <r>  -31.5968    1.0000 </r>
       <r>  -31.5968    1.0000 </r>
       <r>  -31.5074    1.0000 </r>
       <r>    3.8116    1.0000 </r>
       <r>    4.0894    1.0000 </r>
       <r>    4.5396    1.0000 </r>
       <r>    4.5396    1.0000 </r>
       <r>    4.7535    1.0000 </r>
       <r>    4.7535    1.0000 </r>
       <r>    8.2260    0.0000 </r>
       <r>    8.2260    0.0000 </r>
       <r>    8.2747    0.0000 </r>
       <r>    8.2747    0.0000 </r>
       <r>   10.8502    0.0000 </r>
       <r>   14.5572    0.0000 </r>
       <r>   14.5572    0.0000 </r>
       <r>   16.6992    0.0000 </r>
       <r>   19.4614    0.0000 </r>
       <r>   19.4614    0.0000 </r>
       <r>   20.9933    0.0000 </r>
       <r>   24.4184    0.0000 </r>
       <r>   31.0530    0.0000 </r>
       <r>   31.0530    0.0000 </r>
       <r>   32.2248    0.0000 </r>
       <r>   35.4783    0.0000 </r>
      </set>
     </set>
    </set>
   </array>
  </eigenvalues>
  <separator name="orbital magnetization" >
   <v name="MAGDIPOLOUT">      0.00000000      0.00000000      0.00000000</v>
  </separator>
  <dos>
   <i name="efermi">      5.83139835 </i>
   <total>
    <array>
     <dimension dim="1">gridpoints</dimension>
     <dimension dim="2">spin</dimension>
     <field>energy</field>
     <field>total</field>
     <field>integrated</field>
     <set>
      <set comment="spin 1">
       <r>   -35.5793     0.0000     0.0000 </r>
       <r>   -35.3312     0.0000     0.0000 </r>
       <r>   -35.0830     0.0000     0.0000 </r>
       <r>   -34.8349     0.0000     0.0000 </r>
       <r>   -34.5868     0.0000     0.0000 </r>
       <r>   -34.3386     0.0000     0.0000 </r>
       <r>   -34.0905     0.0000     0.0000 </r>
       <r>   -33.8424     0.0000     0.0000 </r>
       <r>   -33.5942     0.0000     0.0000 </r>
       <r>   -33.3461     0.0000     0.0000 </r>
       <r>   -33.0979     0.0000     0.0000 </r>
       <r>   -32.8498     0.0000     0.0000 </r>
       <r>   -32.6017     0.0000     0.0000 </r>
       <r>   -32.3535     0.0459     0.0114 </r>
       <r>   -32.1054     5.2504     1.3142 </r>
       <r>   -31.8573    13.0645     4.5560 </r>
       <r>   -31.6091    12.5654     7.6739 </r>
       <r>   -31.3610    16.1387    11.6786 </r>
       <r>   -31.1128     1.2953    12.0000 </r>
       <r>   -30.8647     0.0001    12.0000 </r>
       <r>   -30.6166     0.0000    12.0000 </r>
       <r>   -30.3684     0.0000    12.0000 </r>
       <r>   -30.1203     0.0000    12.0000 </r>
       <r>   -29.8722     0.0000    12.0000 </r>
       <r>   -29.6240     0.0000    12.0000 </r>
       <r>   -29.3759     0.0000    12.0000 </r>
       <r>   -29.1277     0.0000    12.0000 </r>
       <r>   -28.8796     0.0000    12.0000 </r>
       <r>   -28.6315     0.0000    12.0000 </r>
       <r>   -28.3833     0.0000    12.0000 </r>
       <r>   -28.1352     0.0000    12.0000 </r>
       <r>   -27.8871     0.0000    12.0000 </r>
       <r>   -27.6389     0.0000    12.0000 </r>
       <r>   -27.3908     0.0000    12.0000 </r>
       <r>   -27.1426     0.0000    12.0000 </r>
       <r>   -26.8945     0.0000    12.0000 </r>
       <r>   -26.6464     0.0000    12.0000 </r>
       <r>   -26.3982     0.0000    12.0000 </r>
       <r>   -26.1501     0.0000    12.0000 </r>
       <r>   -25.9020     0.0000    12.0000 </r>
       <r>   -25.6538     0.0000    12.0000 </r>
       <r>   -25.4057     0.0000    12.0000 </r>
       <r>   -25.1575     0.0000    12.0000 </r>
       <r>   -24.9094     0.0000    12.0000 </r>
       <r>   -24.6613     0.0000    12.0000 </r>
       <r>   -24.4131     0.0000    12.0000 </r>
       <r>   -24.1650     0.0000    12.0000 </r>
       <r>   -23.9169     0.0000    12.0000 </r>
       <r>   -23.6687     0.0000    12.0000 </r>
       <r>   -23.4206     0.0000    12.0000 </r>
       <r>   -23.1724     0.0000    12.0000 </r>
       <r>   -22.9243     0.0000    12.0000 </r>
       <r>   -22.6762     0.0000    12.0000 </r>
       <r>   -22.4280     0.0000    12.0000 </r>
       <r>   -22.1799     0.0000    12.0000 </r>
       <r>   -21.9318     0.0000    12.0000 </r>
       <r>   -21.6836     0.0000    12.0000 </r>
       <r>   -21.4355     0.0000    12.0000 </r>
       <r>   -21.1873     0.0000    12.0000 </r>
       <r>   -20.9392     0.0000    12.0000 </r>
       <r>   -20.6911     0.0000    12.0000 </r>
       <r>   -20.4429     0.0000    12.0000 </r>
       <r>   -20.1948     0.0000    12.0000 </r>
       <r>   -19.9467     0.0000    12.0000 </r>
       <r>   -19.6985     0.0000    12.0000 </r>
       <r>   -19.4504     0.0000    12.0000 </r>
       <r>   -19.2022     0.0000    12.0000 </r>
       <r>   -18.9541     0.0000    12.0000 </r>
       <r>   -18.7060     0.0000    12.0000 </r>
       <r>   -18.4578     0.0000    12.0000 </r>
       <r>   -18.2097     0.0000    12.0000 </r>
       <r>   -17.9616     0.0000    12.0000 </r>
       <r>   -17.7134     0.0000    12.0000 </r>
       <r>   -17.4653     0.0000    12.0000 </r>
       <r>   -17.2171     0.0000    12.0000 </r>
       <r>   -16.9690     0.0000    12.0000 </r>
       <r>   -16.7209     0.0000    12.0000 </r>
       <r>   -16.4727     0.0000    12.0000 </r>
       <r>   -16.2246     0.0000    12.0000 </r>
       <r>   -15.9765     0.0000    12.0000 </r>
       <r>   -15.7283     0.0000    12.0000 </r>
       <r>   -15.4802     0.0000    12.0000 </r>
       <r>   -15.2320     0.0000    12.0000 </r>
       <r>   -14.9839     0.0000    12.0000 </r>
       <r>   -14.7358     0.0000    12.0000 </r>
       <r>   -14.4876     0.0000    12.0000 </r>
       <r>   -14.2395     0.0000    12.0000 </r>
       <r>   -13.9913     0.0000    12.0000 </r>
       <r>   -13.7432     0.0000    12.0000 </r>
       <r>   -13.4951     0.0000    12.0000 </r>
       <r>   -13.2469     0.0000    12.0000 </r>
       <r>   -12.9988     0.0000    12.0000 </r>
       <r>   -12.7507     0.0000    12.0000 </r>
       <r>   -12.5025     0.0000    12.0000 </r>
       <r>   -12.2544     0.0000    12.0000 </r>
       <r>   -12.0062     0.0000    12.0000 </r>
       <r>   -11.7581     0.0000    12.0000 </r>
       <r>   -11.5100     0.0000    12.0000 </r>
       <r>   -11.2618     0.0000    12.0000 </r>
       <r>   -11.0137     0.0000    12.0000 </r>
       <r>   -10.7656     0.0000    12.0000 </r>
       <r>   -10.5174     0.0000    12.0000 </r>
       <r>   -10.2693     0.0000    12.0000 </r>
       <r>   -10.0211     0.0000    12.0000 </r>
       <r>    -9.7730     0.0000    12.0000 </r>
       <r>    -9.5249     0.0000    12.0000 </r>
       <r>    -9.2767     0.0000    12.0000 </r>
       <r>    -9.0286     0.0000    12.0000 </r>
       <r>    -8.7805     0.0000    12.0000 </r>
       <r>    -8.5323     0.0000    12.0000 </r>
       <r>    -8.2842     0.0000    12.0000 </r>
       <r>    -8.0360     0.0000    12.0000 </r>
       <r>    -7.7879     0.0000    12.0000 </r>
       <r>    -7.5398     0.0000    12.0000 </r>
       <r>    -7.2916     0.0000    12.0000 </r>
       <r>    -7.0435     0.0000    12.0000 </r>
       <r>    -6.7954     0.0000    12.0000 </r>
       <r>    -6.5472     0.0000    12.0000 </r>
       <r>    -6.2991     0.0000    12.0000 </r>
       <r>    -6.0509     0.0000    12.0000 </r>
       <r>    -5.8028     0.0000    12.0000 </r>
       <r>    -5.5547     0.0000    12.0000 </r>
       <r>    -5.3065     0.0000    12.0000 </r>
       <r>    -5.0584     0.0000    12.0000 </r>
       <r>    -4.8103     0.0000    12.0000 </r>
       <r>    -4.5621     0.0000    12.0000 </r>
       <r>    -4.3140     0.0000    12.0000 </r>
       <r>    -4.0658     0.0000    12.0000 </r>
       <r>    -3.8177     0.0000    12.0000 </r>
       <r>    -3.5696     0.0000    12.0000 </r>
       <r>    -3.3214     0.0000    12.0000 </r>
       <r>    -3.0733     0.0000    12.0000 </r>
       <r>    -2.8252     0.0000    12.0000 </r>
       <r>    -2.5770     0.0000    12.0000 </r>
       <r>    -2.3289     0.0000    12.0000 </r>
       <r>    -2.0807     0.0000    12.0000 </r>
       <r>    -1.8326     0.0000    12.0000 </r>
       <r>    -1.5845     0.0000    12.0000 </r>
       <r>    -1.3363     0.0000    12.0000 </r>
       <r>    -1.0882     0.0000    12.0000 </r>
       <r>    -0.8401     0.0692    12.0172 </r>
       <r>    -0.5919     0.2285    12.0739 </r>
       <r>    -0.3438     0.0008    12.0741 </r>
       <r>    -0.0956     0.0000    12.0741 </r>
       <r>     0.1525     0.0000    12.0741 </r>
       <r>     0.4006     0.0000    12.0741 </r>
       <r>     0.6488     0.0000    12.0741 </r>
       <r>     0.8969     0.0000    12.0741 </r>
       <r>     1.1450     0.3743    12.1669 </r>
       <r>     1.3932     1.4106    12.5170 </r>
       <r>     1.6413     0.0062    12.5185 </r>
       <r>     1.8895     0.0000    12.5185 </r>
       <r>     2.1376     0.2819    12.5885 </r>
       <r>     2.3857     3.2356    13.3913 </r>
       <r>     2.6339     0.0964    13.4153 </r>
       <r>     2.8820     0.5480    13.5512 </r>
       <r>     3.1301     0.3915    13.6484 </r>
       <r>     3.3783     3.4298    14.4994 </r>
       <r>     3.6264     1.5680    14.8885 </r>
       <r>     3.8746     2.7010    15.5587 </r>
       <r>     4.1227     3.1057    16.3294 </r>
       <r>     4.3708     0.8028    16.5286 </r>
       <r>     4.6190     4.2476    17.5826 </r>
       <r>     4.8671     6.2577    19.1353 </r>
       <r>     5.1152     3.8864    20.0997 </r>
       <r>     5.3634     3.0484    20.8561 </r>
       <r>     5.6115     2.8103    21.5535 </r>
       <r>     5.8597     2.3593    22.1389 </r>
       <r>     6.1078     4.0275    23.1383 </r>
       <r>     6.3559     1.7077    23.5620 </r>
       <r>     6.6041     1.6069    23.9607 </r>
       <r>     6.8522     1.5656    24.3492 </r>
       <r>     7.1003     0.4084    24.4505 </r>
       <r>     7.3485     4.3462    25.5290 </r>
       <r>     7.5966     2.7913    26.2216 </r>
       <r>     7.8448     1.4364    26.5781 </r>
       <r>     8.0929     2.9194    27.3025 </r>
       <r>     8.3410    12.0033    30.2809 </r>
       <r>     8.5892     6.0409    31.7799 </r>
       <r>     8.8373     2.0807    32.2962 </r>
       <r>     9.0854     0.0027    32.2969 </r>
       <r>     9.3336     0.6818    32.4660 </r>
       <r>     9.5817     2.2948    33.0355 </r>
       <r>     9.8299     1.4985    33.4073 </r>
       <r>    10.0780     0.0004    33.4074 </r>
       <r>    10.3261     0.0000    33.4074 </r>
       <r>    10.5743     0.0001    33.4074 </r>
       <r>    10.8224     0.8965    33.6299 </r>
       <r>    11.0705     4.2509    34.6847 </r>
       <r>    11.3187     2.6085    35.3320 </r>
       <r>    11.5668     0.0055    35.3333 </r>
       <r>    11.8150     0.0000    35.3333 </r>
       <r>    12.0631     0.0000    35.3333 </r>
       <r>    12.3112     0.0000    35.3333 </r>
       <r>    12.5594     0.0000    35.3333 </r>
       <r>    12.8075     0.0000    35.3333 </r>
       <r>    13.0556     0.0000    35.3333 </r>
       <r>    13.3038     0.0000    35.3333 </r>
       <r>    13.5519     0.0000    35.3333 </r>
       <r>    13.8001     0.0000    35.3333 </r>
       <r>    14.0482     0.0000    35.3333 </r>
       <r>    14.2963     0.0005    35.3335 </r>
       <r>    14.5445     2.0470    35.8414 </r>
       <r>    14.7926     2.7267    36.5180 </r>
       <r>    15.0407     0.0021    36.5185 </r>
       <r>    15.2889     0.0000    36.5185 </r>
       <r>    15.5370     0.3307    36.6006 </r>
       <r>    15.7852     3.2192    37.3994 </r>
       <r>    16.0333     0.8675    37.6147 </r>
       <r>    16.2814     0.0604    37.6296 </r>
       <r>    16.5296     0.0196    37.6345 </r>
       <r>    16.7777     2.0498    38.1431 </r>
       <r>    17.0258     0.3187    38.2222 </r>
       <r>    17.2740     0.0000    38.2222 </r>
       <r>    17.5221     0.0000    38.2222 </r>
       <r>    17.7703     0.0000    38.2222 </r>
       <r>    18.0184     0.0000    38.2222 </r>
       <r>    18.2665     0.0000    38.2222 </r>
       <r>    18.5147     0.0000    38.2222 </r>
       <r>    18.7628     0.0004    38.2223 </r>
       <r>    19.0109     1.5287    38.6017 </r>
       <r>    19.2591     2.0616    39.1132 </r>
       <r>    19.5072     3.5326    39.9898 </r>
       <r>    19.7554     1.2452    40.2988 </r>
       <r>    20.0035     2.7477    40.9806 </r>
       <r>    20.2516     0.8246    41.1852 </r>
       <r>    20.4998     0.0000    41.1852 </r>
       <r>    20.7479     0.0006    41.1853 </r>
       <r>    20.9960     1.2300    41.4905 </r>
       <r>    21.2442     1.1571    41.7777 </r>
       <r>    21.4923     0.0005    41.7778 </r>
       <r>    21.7405     0.0000    41.7778 </r>
       <r>    21.9886     0.1361    41.8116 </r>
       <r>    22.2367     3.3531    42.6436 </r>
       <r>    22.4849     4.3028    43.7113 </r>
       <r>    22.7330     1.7568    44.1472 </r>
       <r>    22.9812     0.0168    44.1514 </r>
       <r>    23.2293     2.8337    44.8545 </r>
       <r>    23.4774     0.7969    45.0522 </r>
       <r>    23.7256     1.8199    45.5038 </r>
       <r>    23.9737     1.6764    45.9198 </r>
       <r>    24.2218     0.0311    45.9275 </r>
       <r>    24.4700     1.8258    46.3806 </r>
       <r>    24.7181     0.5559    46.5185 </r>
       <r>    24.9663     0.0000    46.5185 </r>
       <r>    25.2144     0.0000    46.5185 </r>
       <r>    25.4625     0.0000    46.5185 </r>
       <r>    25.7107     0.0000    46.5185 </r>
       <r>    25.9588     0.1914    46.5660 </r>
       <r>    26.2069     3.2872    47.3817 </r>
       <r>    26.4551     0.1038    47.4074 </r>
       <r>    26.7032     0.5307    47.5391 </r>
       <r>    26.9514     2.1221    48.0657 </r>
       <r>    27.1995     0.0355    48.0745 </r>
       <r>    27.4476     0.3059    48.1504 </r>
       <r>    27.6958     3.2692    48.9616 </r>
       <r>    27.9439     0.3040    49.0370 </r>
       <r>    28.1920     0.4544    49.1498 </r>
       <r>    28.4402     3.0958    49.9180 </r>
       <r>    28.6883     0.0320    49.9259 </r>
       <r>    28.9365     0.0000    49.9259 </r>
       <r>    29.1846     0.0000    49.9259 </r>
       <r>    29.4327     0.0000    49.9259 </r>
       <r>    29.6809     0.0576    49.9402 </r>
       <r>    29.9290     3.2170    50.7385 </r>
       <r>    30.1771     0.3076    50.8148 </r>
       <r>    30.4253     0.0000    50.8148 </r>
       <r>    30.6734     0.0000    50.8148 </r>
       <r>    30.9216     0.1506    50.8522 </r>
       <r>    31.1697     4.3896    51.9414 </r>
       <r>    31.4178     0.2361    52.0000 </r>
       <r>    31.6660     0.0062    52.0015 </r>
       <r>    31.9141     2.5781    52.6413 </r>
       <r>    32.1622     1.4468    53.0003 </r>
       <r>    32.4104     2.0630    53.5122 </r>
       <r>    32.6585     3.3081    54.3330 </r>
       <r>    32.9067     0.2394    54.3925 </r>
       <r>    33.1548     0.5040    54.5175 </r>
       <r>    33.4029     0.0040    54.5185 </r>
       <r>    33.6511     0.0380    54.5279 </r>
       <r>    33.8992     3.1354    55.3059 </r>
       <r>    34.1473     0.4089    55.4074 </r>
       <r>    34.3955     0.0000    55.4074 </r>
       <r>    34.6436     0.0000    55.4074 </r>
       <r>    34.8918     0.0000    55.4074 </r>
       <r>    35.1399     0.0000    55.4074 </r>
       <r>    35.3880     0.2411    55.4672 </r>
       <r>    35.6362     2.1165    55.9924 </r>
       <r>    35.8843     0.0305    56.0000 </r>
       <r>    36.1324     0.0000    56.0000 </r>
       <r>    36.3806     0.0000    56.0000 </r>
       <r>    36.6287     0.0000    56.0000 </r>
       <r>    36.8769     0.0000    56.0000 </r>
       <r>    37.1250     0.0000    56.0000 </r>
       <r>    37.3731     0.0000    56.0000 </r>
       <r>    37.6213     0.0000    56.0000 </r>
       <r>    37.8694     0.0000    56.0000 </r>
       <r>    38.1175     0.0000    56.0000 </r>
       <r>    38.3657     0.0000    56.0000 </r>
       <r>    38.6138     0.0000    56.0000 </r>
       <r>    38.8620     0.0000    56.0000 </r>
      </set>
     </set>
    </array>
   </total>
  </dos>
 </calculation>
 <structure name="finalpos" >
  <crystal>
   <varray name="basis" >
    <v>       3.00887004      -0.00000000      -0.00000000 </v>
    <v>      -0.00000000       3.00887004      -0.00000000 </v>
    <v>      -0.00000000      -0.00000000       3.00887004 </v>
   </varray>
   <i name="volume">     27.24019985 </i>
   <varray name="rec_basis" >
    <v>       0.33235068       0.00000000       0.00000000 </v>
    <v>       0.00000000       0.33235068       0.00000000 </v>
    <v>       0.00000000       0.00000000       0.33235068 </v>
   </varray>
  </crystal>
  <varray name="positions" >
   <v>       0.00000000       0.00000000       0.00000000 </v>
   <v>       0.50000000       0.50000000       0.50000000 </v>
  </varray>
 </structure>
</modeling>
