HECN                                    
           1
     3.028000    0.000000    0.000000
     0.000000    3.028000    0.000000
     0.000000    0.000000    3.028000
   V 
     2
Direct configuration=     1
   0.00000000  0.00000000  0.00000000
   0.50000000  0.50000000  0.50000000
HECN                                    
           1
     2.970351   -0.000000   -0.000000
    -0.000000    2.970351   -0.000000
    -0.000000   -0.000000    2.970351
   V 
     2
Direct configuration=     2
   0.00000000  1.00000000  0.00000000
   0.50000000  0.50000000  0.50000000
HECN                                    
           1
     3.008870   -0.000000   -0.000000
    -0.000000    3.008870   -0.000000
    -0.000000   -0.000000    3.008870
   V 
     2
Direct configuration=     3
   0.00000000  0.00000000  0.00000000
   0.50000000  0.50000000  0.50000000
