       N       E                     dE             d eps       ncg     rms          rms(c)
DAV:   1     0.676089202868E+04    0.67609E+04   -0.21616E+05  8736   0.155E+03
DAV:   2     0.375544305663E+03   -0.63853E+04   -0.62258E+04  8736   0.595E+02
DAV:   3    -0.656988408772E+03   -0.10325E+04   -0.97032E+03 13176   0.199E+02
DAV:   4    -0.794726681965E+03   -0.13774E+03   -0.13459E+03 15504   0.880E+01
DAV:   5    -0.806174663750E+03   -0.11448E+02   -0.11271E+02 16128   0.226E+01    0.826E+01
RMM:   6    -0.951960271918E+03   -0.14579E+03   -0.31693E+03 12143   0.144E+02    0.126E+02
RMM:   7    -0.660869145436E+03    0.29109E+03   -0.31110E+02 13843   0.479E+01    0.564E+01
RMM:   8    -0.651690325637E+03    0.91788E+01   -0.72194E+01 13509   0.202E+01    0.410E+01
RMM:   9    -0.636365708902E+03    0.15325E+02   -0.23277E+01 13771   0.137E+01    0.238E+01
RMM:  10    -0.635370433091E+03    0.99528E+00   -0.90805E+00 14167   0.759E+00    0.207E+01
RMM:  11    -0.634850720677E+03    0.51971E+00   -0.69610E+00 13627   0.598E+00    0.182E+01
RMM:  12    -0.633927944336E+03    0.92278E+00   -0.36901E+00 13793   0.474E+00    0.162E+01
RMM:  13    -0.633418648906E+03    0.50930E+00   -0.31699E+00 14183   0.396E+00    0.111E+01
RMM:  14    -0.633560241337E+03   -0.14159E+00   -0.29671E+00 13876   0.396E+00    0.137E+01
RMM:  15    -0.633210082539E+03    0.35016E+00   -0.13018E+00 13516   0.296E+00    0.991E+00
RMM:  16    -0.633062734930E+03    0.14735E+00   -0.97675E-01 13822   0.227E+00    0.743E+00
RMM:  17    -0.633058772805E+03    0.39621E-02   -0.54970E-01 13816   0.195E+00    0.800E+00
RMM:  18    -0.632822544884E+03    0.23623E+00   -0.35535E-01 13807   0.149E+00    0.273E+00
RMM:  19    -0.632866341085E+03   -0.43796E-01   -0.31468E-01 13896   0.107E+00    0.517E+00
RMM:  20    -0.632778830055E+03    0.87511E-01   -0.16906E-01 13915   0.938E-01    0.151E+00
RMM:  21    -0.632784665383E+03   -0.58353E-02   -0.12337E-01 13859   0.542E-01    0.139E+00
RMM:  22    -0.632777886531E+03    0.67789E-02   -0.62802E-02 13960   0.570E-01    0.781E-01
RMM:  23    -0.632780337372E+03   -0.24508E-02   -0.37820E-02 13837   0.358E-01    0.830E-01
RMM:  24    -0.632778004227E+03    0.23331E-02   -0.24949E-02 13897   0.292E-01    0.392E-01
RMM:  25    -0.632777735052E+03    0.26917E-03   -0.13593E-02 13548   0.190E-01    0.230E-01
RMM:  26    -0.632778082005E+03   -0.34695E-03   -0.67150E-03 13132   0.135E-01    0.191E-01
RMM:  27    -0.632778098019E+03   -0.16014E-04   -0.37556E-03 12722   0.879E-02    0.661E-02
RMM:  28    -0.632778225891E+03   -0.12787E-03   -0.20832E-03 11794   0.660E-02    0.371E-02
RMM:  29    -0.632778329113E+03   -0.10322E-03   -0.13808E-03 11484   0.485E-02    0.196E-02
RMM:  30    -0.632778400420E+03   -0.71307E-04   -0.86183E-04 10814   0.374E-02    0.109E-02
RMM:  31    -0.632778450605E+03   -0.50184E-04   -0.57399E-04 10686   0.294E-02    0.692E-03
RMM:  32    -0.632778485430E+03   -0.34825E-04   -0.38585E-04 10028   0.237E-02    0.399E-03
RMM:  33    -0.632778506467E+03   -0.21037E-04   -0.23178E-04  9736   0.196E-02    0.286E-03
RMM:  34    -0.632778519232E+03   -0.12764E-04   -0.14121E-04  8959   0.166E-02    0.178E-03
RMM:  35    -0.632778527080E+03   -0.78482E-05   -0.88906E-05  8592   0.145E-02
   1 F= -.63277853E+03 E0= -.63269044E+03  d E =-.632779E+03
       N       E                     dE             d eps       ncg     rms          rms(c)
DAV:   1    -0.776510306378E+03   -0.14373E+03   -0.61787E+03 12096   0.320E+02    0.893E+01
RMM:   2    -0.796079117094E+03   -0.19569E+02   -0.15930E+03 10576   0.154E+02    0.865E+01
RMM:   3    -0.684652494977E+03    0.11143E+03   -0.17596E+02 12811   0.435E+01    0.644E+01
RMM:   4    -0.656416602533E+03    0.28236E+02   -0.78117E+01 12957   0.253E+01    0.337E+01
RMM:   5    -0.641455382208E+03    0.14961E+02   -0.44113E+01 11526   0.215E+01    0.304E+01
RMM:   6    -0.637584358439E+03    0.38710E+01   -0.14772E+01 11423   0.150E+01    0.223E+01
RMM:   7    -0.635319819722E+03    0.22645E+01   -0.91869E+00 13511   0.807E+00    0.140E+01
RMM:   8    -0.634772169259E+03    0.54765E+00   -0.27329E+00 13544   0.472E+00    0.110E+01
RMM:   9    -0.634313799277E+03    0.45837E+00   -0.16760E+00 13503   0.339E+00    0.594E+00
RMM:  10    -0.634178865996E+03    0.13493E+00   -0.71290E-01 14108   0.202E+00    0.309E+00
RMM:  11    -0.634258955652E+03   -0.80090E-01   -0.37652E-01 13908   0.162E+00    0.412E+00
RMM:  12    -0.634240063318E+03    0.18892E-01   -0.24186E-01 12976   0.155E+00    0.309E+00
RMM:  13    -0.634263201138E+03   -0.23138E-01   -0.23450E-01 13848   0.121E+00    0.242E+00
RMM:  14    -0.634249719275E+03    0.13482E-01   -0.15697E-01 14043   0.961E-01    0.164E+00
RMM:  15    -0.634252042485E+03   -0.23232E-02   -0.81553E-02 13882   0.679E-01    0.153E+00
RMM:  16    -0.634248279355E+03    0.37631E-02   -0.47749E-02 13929   0.505E-01    0.858E-01
RMM:  17    -0.634249544713E+03   -0.12654E-02   -0.29512E-02 13462   0.391E-01    0.726E-01
RMM:  18    -0.634251098150E+03   -0.15534E-02   -0.20024E-02 13745   0.317E-01    0.572E-01
RMM:  19    -0.634250701056E+03    0.39709E-03   -0.13084E-02 13777   0.224E-01    0.267E-01
RMM:  20    -0.634250832286E+03   -0.13123E-03   -0.76009E-03 13296   0.179E-01    0.231E-01
RMM:  21    -0.634250546439E+03    0.28585E-03   -0.40362E-03 13582   0.144E-01    0.138E-01
RMM:  22    -0.634250610226E+03   -0.63787E-04   -0.20200E-03 12259   0.823E-02    0.804E-02
RMM:  23    -0.634250666169E+03   -0.55943E-04   -0.10722E-03 11764   0.580E-02    0.557E-02
RMM:  24    -0.634250691527E+03   -0.25357E-04   -0.60133E-04 11517   0.442E-02    0.280E-02
RMM:  25    -0.634250710353E+03   -0.18827E-04   -0.33955E-04 10863   0.327E-02    0.924E-03
RMM:  26    -0.634250726540E+03   -0.16187E-04   -0.19741E-04 10633   0.272E-02    0.500E-03
RMM:  27    -0.634250735302E+03   -0.87615E-05   -0.10790E-04  9270   0.199E-02    0.241E-03
RMM:  28    -0.634250741490E+03   -0.61884E-05   -0.71784E-05  9452   0.177E-02
   2 F= -.63425074E+03 E0= -.63417720E+03  d E =-.147221E+01
       N       E                     dE             d eps       ncg     rms          rms(c)
DAV:   1    -0.680528233127E+03   -0.46277E+02   -0.13950E+03 12096   0.146E+02    0.633E+01
RMM:   2    -0.824853232953E+03   -0.14432E+03   -0.45859E+02 12837   0.652E+01    0.879E+01
RMM:   3    -0.661004851610E+03    0.16385E+03   -0.14473E+02 11945   0.495E+01    0.272E+01
RMM:   4    -0.653343390430E+03    0.76615E+01   -0.42769E+01 12058   0.230E+01    0.361E+01
RMM:   5    -0.643186003459E+03    0.10157E+02   -0.11825E+01 12502   0.120E+01    0.162E+01
RMM:   6    -0.647002198887E+03   -0.38162E+01   -0.15102E+01 12396   0.106E+01    0.305E+01
RMM:   7    -0.642197054922E+03    0.48051E+01   -0.82543E+00 12430   0.822E+00    0.151E+01
RMM:   8    -0.641636299998E+03    0.56075E+00   -0.31325E+00 13119   0.433E+00    0.113E+01
RMM:   9    -0.641233400689E+03    0.40290E+00   -0.12380E+00 11887   0.370E+00    0.974E+00
RMM:  10    -0.640808570328E+03    0.42483E+00   -0.56753E-01 12729   0.238E+00    0.495E+00
RMM:  11    -0.640730465673E+03    0.78105E-01   -0.42247E-01 14060   0.153E+00    0.311E+00
RMM:  12    -0.640758895439E+03   -0.28430E-01   -0.31504E-01 13890   0.126E+00    0.407E+00
RMM:  13    -0.640711983545E+03    0.46912E-01   -0.17247E-01 13714   0.989E-01    0.189E+00
RMM:  14    -0.640709062550E+03    0.29210E-02   -0.87431E-02 13923   0.617E-01    0.171E+00
RMM:  15    -0.640689023087E+03    0.20039E-01   -0.44330E-02 13737   0.630E-01    0.944E-01
RMM:  16    -0.640692118757E+03   -0.30957E-02   -0.40716E-02 13656   0.466E-01    0.134E+00
RMM:  17    -0.640690134990E+03    0.19838E-02   -0.46080E-02 13911   0.542E-01    0.768E-01
RMM:  18    -0.640692623645E+03   -0.24887E-02   -0.33753E-02 13587   0.316E-01    0.612E-01
RMM:  19    -0.640690409186E+03    0.22145E-02   -0.87852E-03 13728   0.237E-01    0.377E-01
RMM:  20    -0.640689743031E+03    0.66616E-03   -0.65228E-03 13337   0.168E-01    0.325E-01
RMM:  21    -0.640689122089E+03    0.62094E-03   -0.58529E-03 13267   0.162E-01    0.122E-01
RMM:  22    -0.640689444402E+03   -0.32231E-03   -0.34790E-03 12548   0.108E-01    0.121E-01
RMM:  23    -0.640689508207E+03   -0.63805E-04   -0.13770E-03 11821   0.797E-02    0.112E-01
RMM:  24    -0.640689396712E+03    0.11150E-03   -0.98662E-04 12312   0.627E-02    0.449E-02
RMM:  25    -0.640689411948E+03   -0.15237E-04   -0.49445E-04 11631   0.492E-02    0.137E-02
RMM:  26    -0.640689428039E+03   -0.16091E-04   -0.22876E-04 10862   0.293E-02    0.119E-02
RMM:  27    -0.640689434028E+03   -0.59892E-05   -0.10887E-04  9769   0.223E-02    0.395E-03
RMM:  28    -0.640689439729E+03   -0.57010E-05   -0.73501E-05  9388   0.178E-02
   3 F= -.64068944E+03 E0= -.64060960E+03  d E =-.791091E+01
       N       E                     dE             d eps       ncg     rms          rms(c)
DAV:   1    -0.640749351429E+03   -0.59917E-01   -0.19500E+00 12432   0.550E+00    0.206E+00
RMM:   2    -0.640976086922E+03   -0.22674E+00   -0.74699E-01 11377   0.330E+00    0.609E+00
RMM:   3    -0.640806510214E+03    0.16958E+00   -0.21753E-01 11156   0.197E+00    0.435E+00
RMM:   4    -0.640734327486E+03    0.72183E-01   -0.76209E-02 11820   0.978E-01    0.258E+00
RMM:   5    -0.640710296521E+03    0.24031E-01   -0.33718E-02 11962   0.621E-01    0.127E+00
RMM:   6    -0.640707762753E+03    0.25338E-02   -0.18158E-02 12541   0.391E-01    0.135E+00
RMM:   7    -0.640701346430E+03    0.64163E-02   -0.80750E-03 11479   0.316E-01    0.864E-01
RMM:   8    -0.640700479119E+03    0.86731E-03   -0.63421E-03 12094   0.235E-01    0.678E-01
RMM:   9    -0.640698219191E+03    0.22599E-02   -0.28212E-03 11778   0.173E-01    0.372E-01
RMM:  10    -0.640697767927E+03    0.45126E-03   -0.11517E-03 11264   0.116E-01    0.245E-01
RMM:  11    -0.640697644422E+03    0.12350E-03   -0.78079E-04 12003   0.743E-02    0.162E-01
RMM:  12    -0.640697565986E+03    0.78436E-04   -0.35356E-04 11386   0.557E-02    0.143E-01
RMM:  13    -0.640697519368E+03    0.46618E-04   -0.17085E-04 10303   0.420E-02    0.857E-02
RMM:  14    -0.640697505878E+03    0.13491E-04   -0.11510E-04 10623   0.261E-02    0.445E-02
RMM:  15    -0.640697509884E+03   -0.40059E-05   -0.72072E-05  9738   0.207E-02
   4 F= -.64069751E+03 E0= -.64061788E+03  d E =-.791898E+01
       N       E                     dE             d eps       ncg     rms          rms(c)
DAV:   1    -0.636047187521E+03    0.46503E+01   -0.98402E+02 10080   0.117E+02    0.191E+01
RMM:   2    -0.671606679018E+03   -0.35559E+02   -0.16359E+02 13505   0.430E+01    0.461E+01
RMM:   3    -0.645911212178E+03    0.25695E+02   -0.27474E+01 11301   0.214E+01    0.209E+01
RMM:   4    -0.645441309523E+03    0.46990E+00   -0.90120E+00 13365   0.949E+00    0.214E+01
RMM:   5    -0.643359194270E+03    0.20821E+01   -0.31579E+00 13193   0.562E+00    0.119E+01
RMM:   6    -0.642578525535E+03    0.78067E+00   -0.15125E+00 13961   0.316E+00    0.544E+00
RMM:   7    -0.642815463374E+03   -0.23694E+00   -0.10790E+00 13727   0.277E+00    0.937E+00
RMM:   8    -0.642507023525E+03    0.30844E+00   -0.74131E-01 13652   0.228E+00    0.523E+00
RMM:   9    -0.642452477492E+03    0.54546E-01   -0.46140E-01 14111   0.165E+00    0.437E+00
RMM:  10    -0.642462453400E+03   -0.99759E-02   -0.26583E-01 13565   0.147E+00    0.435E+00
RMM:  11    -0.642380176495E+03    0.82277E-01   -0.15993E-01 13815   0.111E+00    0.190E+00
RMM:  12    -0.642379396170E+03    0.78032E-03   -0.10836E-01 14058   0.694E-01    0.194E+00
RMM:  13    -0.642377760001E+03    0.16362E-02   -0.61772E-02 13830   0.596E-01    0.172E+00
RMM:  14    -0.642366486563E+03    0.11273E-01   -0.39645E-02 13852   0.397E-01    0.605E-01
RMM:  15    -0.642368956215E+03   -0.24697E-02   -0.24407E-02 13667   0.294E-01    0.735E-01
RMM:  16    -0.642367579334E+03    0.13769E-02   -0.12786E-02 13238   0.235E-01    0.414E-01
RMM:  17    -0.642367777758E+03   -0.19842E-03   -0.85322E-03 13206   0.156E-01    0.299E-01
RMM:  18    -0.642367961030E+03   -0.18327E-03   -0.53162E-03 13288   0.120E-01    0.187E-01
RMM:  19    -0.642368255273E+03   -0.29424E-03   -0.31236E-03 13054   0.105E-01    0.181E-01
RMM:  20    -0.642368225183E+03    0.30091E-04   -0.17878E-03 12483   0.791E-02    0.675E-02
RMM:  21    -0.642368286817E+03   -0.61635E-04   -0.10525E-03 11936   0.582E-02    0.589E-02
RMM:  22    -0.642368319744E+03   -0.32927E-04   -0.64464E-04 11536   0.433E-02    0.432E-02
RMM:  23    -0.642368335840E+03   -0.16096E-04   -0.39443E-04 11188   0.334E-02    0.188E-02
RMM:  24    -0.642368351657E+03   -0.15816E-04   -0.20842E-04 10813   0.269E-02    0.122E-02
RMM:  25    -0.642368360028E+03   -0.83711E-05   -0.12221E-04  9533   0.205E-02    0.724E-03
RMM:  26    -0.642368366722E+03   -0.66947E-05   -0.83628E-05  9177   0.189E-02
   5 F= -.64236837E+03 E0= -.64228169E+03  d E =-.167086E+01
       N       E                     dE             d eps       ncg     rms          rms(c)
DAV:   1    -0.642157590810E+03    0.21077E+00   -0.49421E+01  9816   0.265E+01    0.375E+00
RMM:   2    -0.643933790631E+03   -0.17762E+01   -0.82483E+00 12919   0.100E+01    0.144E+01
RMM:   3    -0.642879762055E+03    0.10540E+01   -0.12566E+00 11960   0.423E+00    0.817E+00
RMM:   4    -0.642614840145E+03    0.26492E+00   -0.44937E-01 12400   0.228E+00    0.437E+00
RMM:   5    -0.642543214852E+03    0.71625E-01   -0.18011E-01 13127   0.122E+00    0.227E+00
RMM:   6    -0.642528796796E+03    0.14418E-01   -0.86983E-02 13480   0.760E-01    0.219E+00
RMM:   7    -0.642512502371E+03    0.16294E-01   -0.42995E-02 12726   0.598E-01    0.148E+00
RMM:   8    -0.642515654313E+03   -0.31519E-02   -0.38127E-02 13468   0.506E-01    0.164E+00
RMM:   9    -0.642506792351E+03    0.88620E-02   -0.22729E-02 13149   0.440E-01    0.112E+00
RMM:  10    -0.642503721765E+03    0.30706E-02   -0.13436E-02 13274   0.313E-01    0.730E-01
RMM:  11    -0.642502208486E+03    0.15133E-02   -0.84094E-03 13413   0.201E-01    0.447E-01
RMM:  12    -0.642501463696E+03    0.74479E-03   -0.42960E-03 12595   0.158E-01    0.311E-01
RMM:  13    -0.642501511545E+03   -0.47849E-04   -0.27085E-03 12085   0.113E-01    0.258E-01
RMM:  14    -0.642501288569E+03    0.22298E-03   -0.15207E-03 12424   0.793E-02    0.111E-01
RMM:  15    -0.642501392011E+03   -0.10344E-03   -0.89363E-04 11935   0.610E-02    0.152E-01
RMM:  16    -0.642501399214E+03   -0.72031E-05   -0.52095E-04 11246   0.507E-02    0.124E-01
RMM:  17    -0.642501356426E+03    0.42788E-04   -0.31978E-04 11083   0.338E-02    0.419E-02
RMM:  18    -0.642501389485E+03   -0.33059E-04   -0.22148E-04 10623   0.280E-02    0.526E-02
RMM:  19    -0.642501388232E+03    0.12529E-05   -0.12835E-04 10171   0.229E-02    0.191E-02
RMM:  20    -0.642501394179E+03   -0.59466E-05   -0.64223E-05  8913   0.186E-02
   6 F= -.64250139E+03 E0= -.64241568E+03  d E =-.180388E+01
       N       E                     dE             d eps       ncg     rms          rms(c)
DAV:   1    -0.640705213336E+03    0.17962E+01   -0.11341E+02  9048   0.596E+01    0.308E+00
RMM:   2    -0.643797411844E+03   -0.30922E+01   -0.23702E+01 14215   0.150E+01    0.141E+01
RMM:   3    -0.642964758867E+03    0.83265E+00   -0.21424E+00 13812   0.452E+00    0.333E+00
RMM:   4    -0.643011848739E+03   -0.47090E-01   -0.49317E-01 13934   0.200E+00    0.438E+00
RMM:   5    -0.642927761959E+03    0.84087E-01   -0.15260E-01 13850   0.130E+00    0.251E+00
RMM:   6    -0.642905940158E+03    0.21822E-01   -0.93279E-02 14232   0.701E-01    0.147E+00
RMM:   7    -0.642924416721E+03   -0.18477E-01   -0.65196E-02 13617   0.652E-01    0.252E+00
RMM:   8    -0.642899035487E+03    0.25381E-01   -0.49276E-02 13845   0.605E-01    0.121E+00
RMM:   9    -0.642899931503E+03   -0.89602E-03   -0.29881E-02 13426   0.459E-01    0.144E+00
RMM:  10    -0.642893738166E+03    0.61933E-02   -0.18384E-02 13736   0.363E-01    0.710E-01
RMM:  11    -0.642893091885E+03    0.64628E-03   -0.11940E-02 13307   0.252E-01    0.563E-01
RMM:  12    -0.642892908597E+03    0.18329E-03   -0.73954E-03 13113   0.193E-01    0.477E-01
RMM:  13    -0.642892290807E+03    0.61779E-03   -0.45363E-03 12692   0.144E-01    0.256E-01
RMM:  14    -0.642892194131E+03    0.96676E-04   -0.28187E-03 12422   0.983E-02    0.156E-01
RMM:  15    -0.642892234902E+03   -0.40770E-04   -0.15820E-03 11869   0.746E-02    0.108E-01
RMM:  16    -0.642892256396E+03   -0.21495E-04   -0.95361E-04 11408   0.497E-02    0.599E-02
RMM:  17    -0.642892278533E+03   -0.22137E-04   -0.50157E-04 11020   0.378E-02    0.419E-02
RMM:  18    -0.642892309433E+03   -0.30900E-04   -0.32014E-04 10842   0.308E-02    0.443E-02
RMM:  19    -0.642892309380E+03    0.53005E-07   -0.19121E-04 10291   0.249E-02    0.121E-02
RMM:  20    -0.642892317874E+03   -0.84937E-05   -0.11467E-04  9240   0.198E-02    0.821E-03
RMM:  21    -0.642892324217E+03   -0.63435E-05   -0.75744E-05  8954   0.175E-02
   7 F= -.64289232E+03 E0= -.64280794E+03  d E =-.390930E+00
       N       E                     dE             d eps       ncg     rms          rms(c)
DAV:   1    -0.642521967527E+03    0.37035E+00   -0.21608E+01  9144   0.262E+01    0.132E+00
RMM:   2    -0.643087635987E+03   -0.56567E+00   -0.43906E+00 14254   0.642E+00    0.618E+00
RMM:   3    -0.642947692505E+03    0.13994E+00   -0.39669E-01 13770   0.193E+00    0.156E+00
RMM:   4    -0.642958149639E+03   -0.10457E-01   -0.90508E-02 13821   0.924E-01    0.213E+00
RMM:   5    -0.642941100925E+03    0.17049E-01   -0.30993E-02 13635   0.586E-01    0.123E+00
RMM:   6    -0.642935435707E+03    0.56652E-02   -0.18791E-02 13771   0.322E-01    0.646E-01
RMM:   7    -0.642937437236E+03   -0.20015E-02   -0.12382E-02 13293   0.290E-01    0.888E-01
RMM:   8    -0.642934067830E+03    0.33694E-02   -0.10276E-02 13799   0.273E-01    0.481E-01
RMM:   9    -0.642933592959E+03    0.47487E-03   -0.57536E-03 13308   0.205E-01    0.500E-01
RMM:  10    -0.642933104950E+03    0.48801E-03   -0.35563E-03 12535   0.151E-01    0.340E-01
RMM:  11    -0.642933031529E+03    0.73421E-04   -0.22611E-03 12484   0.115E-01    0.255E-01
RMM:  12    -0.642932814465E+03    0.21706E-03   -0.13946E-03 12219   0.816E-02    0.140E-01
RMM:  13    -0.642932831383E+03   -0.16918E-04   -0.85817E-04 11713   0.573E-02    0.123E-01
RMM:  14    -0.642932819071E+03    0.12312E-04   -0.51212E-04 11306   0.439E-02    0.843E-02
RMM:  15    -0.642932808718E+03    0.10353E-04   -0.29299E-04 10925   0.348E-02    0.386E-02
RMM:  16    -0.642932817182E+03   -0.84642E-05   -0.16224E-04 10016   0.234E-02    0.282E-02
RMM:  17    -0.642932820215E+03   -0.30326E-05   -0.94708E-05  9395   0.193E-02
   8 F= -.64293282E+03 E0= -.64284903E+03  d E =-.431426E+00
       N       E                     dE             d eps       ncg     rms          rms(c)
DAV:   1    -0.641961180408E+03    0.97164E+00   -0.48281E+01  8736   0.420E+01    0.270E+00
RMM:   2    -0.643434640311E+03   -0.14735E+01   -0.12342E+01 14405   0.105E+01    0.802E+00
RMM:   3    -0.643202073156E+03    0.23257E+00   -0.12617E+00 13008   0.363E+00    0.541E+00
RMM:   4    -0.643120931459E+03    0.81142E-01   -0.30202E-01 13389   0.178E+00    0.349E+00
RMM:   5    -0.643084067291E+03    0.36864E-01   -0.12414E-01 13846   0.108E+00    0.235E+00
RMM:   6    -0.643069026078E+03    0.15041E-01   -0.59341E-02 13825   0.659E-01    0.198E+00
RMM:   7    -0.643053923194E+03    0.15103E-01   -0.35493E-02 13816   0.463E-01    0.104E+00
RMM:   8    -0.643058525204E+03   -0.46020E-02   -0.25816E-02 13735   0.461E-01    0.139E+00
RMM:   9    -0.643049471446E+03    0.90538E-02   -0.22811E-02 13771   0.440E-01    0.752E-01
RMM:  10    -0.643049102739E+03    0.36871E-03   -0.13190E-02 13722   0.304E-01    0.738E-01
RMM:  11    -0.643047378457E+03    0.17243E-02   -0.70021E-03 13486   0.224E-01    0.507E-01
RMM:  12    -0.643046707110E+03    0.67135E-03   -0.41140E-03 12827   0.154E-01    0.331E-01
RMM:  13    -0.643046551052E+03    0.15606E-03   -0.26426E-03 12329   0.104E-01    0.182E-01
RMM:  14    -0.643046529988E+03    0.21064E-04   -0.15636E-03 12400   0.743E-02    0.123E-01
RMM:  15    -0.643046583234E+03   -0.53246E-04   -0.85109E-04 11784   0.616E-02    0.131E-01
RMM:  16    -0.643046608498E+03   -0.25264E-04   -0.58327E-04 11677   0.500E-02    0.102E-01
RMM:  17    -0.643046585491E+03    0.23007E-04   -0.34585E-04 11232   0.346E-02    0.354E-02
RMM:  18    -0.643046607205E+03   -0.21714E-04   -0.20225E-04 10754   0.261E-02    0.381E-02
RMM:  19    -0.643046608227E+03   -0.10215E-05   -0.11414E-04 10488   0.219E-02    0.129E-02
RMM:  20    -0.643046613742E+03   -0.55152E-05   -0.55982E-05  9021   0.169E-02
   9 F= -.64304661E+03 E0= -.64296516E+03  d E =-.113794E+00
       N       E                     dE             d eps       ncg     rms          rms(c)
DAV:   1    -0.642988368398E+03    0.58240E-01   -0.29702E+00  9456   0.104E+01    0.668E-01
RMM:   2    -0.643076090119E+03   -0.87722E-01   -0.72659E-01 14375   0.253E+00    0.203E+00
RMM:   3    -0.643060831722E+03    0.15258E-01   -0.65711E-02 12928   0.896E-01    0.138E+00
RMM:   4    -0.643056178277E+03    0.46534E-02   -0.19808E-02 13282   0.461E-01    0.916E-01
RMM:   5    -0.643053641456E+03    0.25368E-02   -0.78020E-03 13306   0.270E-01    0.597E-01
RMM:   6    -0.643052671816E+03    0.96964E-03   -0.38625E-03 12912   0.173E-01    0.492E-01
RMM:   7    -0.643051714421E+03    0.95740E-03   -0.23180E-03 12858   0.121E-01    0.252E-01
RMM:   8    -0.643051964394E+03   -0.24997E-03   -0.16779E-03 12904   0.115E-01    0.329E-01
RMM:   9    -0.643051470430E+03    0.49396E-03   -0.13824E-03 13329   0.109E-01    0.184E-01
RMM:  10    -0.643051448644E+03    0.21785E-04   -0.80650E-04 12569   0.797E-02    0.175E-01
RMM:  11    -0.643051340988E+03    0.10766E-03   -0.45643E-04 12026   0.580E-02    0.106E-01
RMM:  12    -0.643051316327E+03    0.24661E-04   -0.25874E-04 11385   0.402E-02    0.741E-02
RMM:  13    -0.643051313817E+03    0.25098E-05   -0.17252E-04 10816   0.282E-02    0.467E-02
RMM:  14    -0.643051315144E+03   -0.13264E-05   -0.10951E-04  9807   0.218E-02    0.339E-02
RMM:  15    -0.643051318198E+03   -0.30537E-05   -0.62553E-05  8933   0.208E-02
  10 F= -.64305132E+03 E0= -.64297048E+03  d E =-.118498E+00
       N       E                     dE             d eps       ncg     rms          rms(c)
DAV:   1    -0.642466363674E+03    0.58495E+00   -0.42723E+01 11088   0.409E+01    0.493E+00
RMM:   2    -0.644937022794E+03   -0.24707E+01   -0.12536E+01 13030   0.121E+01    0.152E+01
RMM:   3    -0.643523011443E+03    0.14140E+01   -0.21719E+00 11872   0.539E+00    0.798E+00
RMM:   4    -0.643299727013E+03    0.22328E+00   -0.58422E-01 12991   0.234E+00    0.587E+00
RMM:   5    -0.643183096129E+03    0.11663E+00   -0.21306E-01 12861   0.151E+00    0.330E+00
RMM:   6    -0.643141100263E+03    0.41996E-01   -0.10997E-01 13215   0.952E-01    0.264E+00
RMM:   7    -0.643120686359E+03    0.20414E-01   -0.55651E-02 12349   0.789E-01    0.204E+00
RMM:   8    -0.643119795634E+03    0.89073E-03   -0.48929E-02 13200   0.643E-01    0.198E+00
RMM:   9    -0.643104947386E+03    0.14848E-01   -0.29927E-02 12718   0.575E-01    0.130E+00
RMM:  10    -0.643102657383E+03    0.22900E-02   -0.21602E-02 12877   0.447E-01    0.110E+00
RMM:  11    -0.643100098841E+03    0.25585E-02   -0.13505E-02 13371   0.324E-01    0.845E-01
RMM:  12    -0.643097105609E+03    0.29932E-02   -0.58020E-03 12372   0.227E-01    0.479E-01
RMM:  13    -0.643096457662E+03    0.64795E-03   -0.42171E-03 12586   0.143E-01    0.254E-01
RMM:  14    -0.643096516932E+03   -0.59269E-04   -0.22712E-03 12614   0.949E-02    0.250E-01
RMM:  15    -0.643096438377E+03    0.78555E-04   -0.13297E-03 11906   0.795E-02    0.163E-01
RMM:  16    -0.643096508055E+03   -0.69678E-04   -0.90386E-04 12117   0.586E-02    0.131E-01
RMM:  17    -0.643096476545E+03    0.31510E-04   -0.56440E-04 11812   0.477E-02    0.608E-02
RMM:  18    -0.643096517642E+03   -0.41097E-04   -0.36268E-04 11495   0.382E-02    0.658E-02
RMM:  19    -0.643096508048E+03    0.95943E-05   -0.20846E-04 11193   0.305E-02    0.249E-02
RMM:  20    -0.643096515341E+03   -0.72931E-05   -0.11791E-04 10545   0.235E-02    0.119E-02
RMM:  21    -0.643096520046E+03   -0.47051E-05   -0.60229E-05  9230   0.194E-02
  11 F= -.64309652E+03 E0= -.64301684E+03  d E =-.452018E-01
       N       E                     dE             d eps       ncg     rms          rms(c)
DAV:   1    -0.643079938122E+03    0.16577E-01   -0.14430E+00 11904   0.755E+00    0.898E-01
RMM:   2    -0.643160825872E+03   -0.80888E-01   -0.41433E-01 12611   0.223E+00    0.297E+00
RMM:   3    -0.643120925296E+03    0.39901E-01   -0.67551E-02 11821   0.966E-01    0.205E+00
RMM:   4    -0.643107041181E+03    0.13884E-01   -0.20993E-02 12099   0.492E-01    0.116E+00
RMM:   5    -0.643101854657E+03    0.51865E-02   -0.87695E-03 12514   0.296E-01    0.578E-01
RMM:   6    -0.643101190543E+03    0.66411E-03   -0.41845E-03 12668   0.186E-01    0.602E-01
RMM:   7    -0.643099685736E+03    0.15048E-02   -0.20089E-03 11518   0.157E-01    0.338E-01
RMM:   8    -0.643099713303E+03   -0.27567E-04   -0.17007E-03 12188   0.120E-01    0.346E-01
RMM:   9    -0.643099336042E+03    0.37726E-03   -0.11253E-03 11835   0.116E-01    0.256E-01
RMM:  10    -0.643099139122E+03    0.19692E-03   -0.68066E-04 11425   0.841E-02    0.172E-01
RMM:  11    -0.643099103643E+03    0.35479E-04   -0.42233E-04 11582   0.612E-02    0.148E-01
RMM:  12    -0.643099019851E+03    0.83791E-04   -0.16384E-04 10146   0.433E-02    0.895E-02
RMM:  13    -0.643098991153E+03    0.28699E-04   -0.11278E-04 10036   0.274E-02    0.393E-02
RMM:  14    -0.643098998014E+03   -0.68613E-05   -0.65647E-05  8701   0.196E-02
  12 F= -.64309900E+03 E0= -.64301910E+03  d E =-.476798E-01
       N       E                     dE             d eps       ncg     rms          rms(c)
DAV:   1    -0.642522173146E+03    0.57682E+00   -0.22987E+01  9072   0.323E+01    0.202E+00
RMM:   2    -0.643287527028E+03   -0.76535E+00   -0.69450E+00 14370   0.757E+00    0.469E+00
RMM:   3    -0.643204710917E+03    0.82816E-01   -0.66969E-01 12316   0.277E+00    0.384E+00
RMM:   4    -0.643171801677E+03    0.32909E-01   -0.16291E-01 13553   0.123E+00    0.271E+00
RMM:   5    -0.643151627961E+03    0.20174E-01   -0.61174E-02 13493   0.776E-01    0.180E+00
RMM:   6    -0.643138715362E+03    0.12913E-01   -0.29151E-02 13605   0.457E-01    0.123E+00
RMM:   7    -0.643133895324E+03    0.48200E-02   -0.16302E-02 13346   0.358E-01    0.806E-01
RMM:   8    -0.643135492653E+03   -0.15973E-02   -0.14094E-02 13906   0.322E-01    0.953E-01
RMM:   9    -0.643132242725E+03    0.32499E-02   -0.10365E-02 13828   0.291E-01    0.735E-01
RMM:  10    -0.643131665657E+03    0.57707E-03   -0.61184E-03 13022   0.233E-01    0.621E-01
RMM:  11    -0.643130019428E+03    0.16462E-02   -0.38135E-03 13392   0.160E-01    0.241E-01
RMM:  12    -0.643129831531E+03    0.18790E-03   -0.22963E-03 12551   0.938E-02    0.150E-01
RMM:  13    -0.643129992101E+03   -0.16057E-03   -0.11854E-03 11996   0.767E-02    0.200E-01
RMM:  14    -0.643129877143E+03    0.11496E-03   -0.74031E-04 11874   0.546E-02    0.757E-02
RMM:  15    -0.643129934341E+03   -0.57197E-04   -0.47747E-04 11435   0.421E-02    0.975E-02
RMM:  16    -0.643129923060E+03    0.11281E-04   -0.26225E-04 11201   0.336E-02    0.452E-02
RMM:  17    -0.643129929864E+03   -0.68038E-05   -0.16605E-04 10777   0.242E-02    0.288E-02
RMM:  18    -0.643129937726E+03   -0.78619E-05   -0.90141E-05  9947   0.192E-02
  13 F= -.64312994E+03 E0= -.64305235E+03  d E =-.309397E-01
       N       E                     dE             d eps       ncg     rms          rms(c)
DAV:   1    -0.643124571405E+03    0.53585E-02   -0.19567E-01  9432   0.300E+00    0.186E-01
RMM:   2    -0.643131234683E+03   -0.66633E-02   -0.61791E-02 14369   0.717E-01    0.401E-01
RMM:   3    -0.643130760916E+03    0.47377E-03   -0.64732E-03 12340   0.253E-01    0.343E-01
RMM:   4    -0.643130484536E+03    0.27638E-03   -0.13836E-03 12633   0.114E-01    0.242E-01
RMM:   5    -0.643130337879E+03    0.14666E-03   -0.55267E-04 11605   0.756E-02    0.170E-01
RMM:   6    -0.643130223692E+03    0.11419E-03   -0.28252E-04 11532   0.454E-02    0.109E-01
RMM:   7    -0.643130197459E+03    0.26234E-04   -0.16729E-04 11096   0.360E-02    0.816E-02
RMM:   8    -0.643130208164E+03   -0.10706E-04   -0.13576E-04 10732   0.335E-02    0.879E-02
RMM:   9    -0.643130184294E+03    0.23870E-04   -0.96220E-05 10256   0.319E-02    0.703E-02
RMM:  10    -0.643130175588E+03    0.87062E-05   -0.61812E-05  9456   0.265E-02
  14 F= -.64313018E+03 E0= -.64305282E+03  d E =-.311776E-01
       N       E                     dE             d eps       ncg     rms          rms(c)
DAV:   1    -0.642760740269E+03    0.36944E+00   -0.12499E+01  8736   0.237E+01    0.107E+00
RMM:   2    -0.643158940203E+03   -0.39820E+00   -0.38604E+00 14385   0.547E+00    0.259E+00
RMM:   3    -0.643168829959E+03   -0.98898E-02   -0.39209E-01 13850   0.155E+00    0.205E+00
RMM:   4    -0.643161895740E+03    0.69342E-02   -0.52151E-02 13529   0.737E-01    0.137E+00
RMM:   5    -0.643155743305E+03    0.61524E-02   -0.18578E-02 13662   0.426E-01    0.932E-01
RMM:   6    -0.643152390139E+03    0.33532E-02   -0.97891E-03 13398   0.230E-01    0.405E-01
RMM:   7    -0.643152654897E+03   -0.26476E-03   -0.55207E-03 12893   0.170E-01    0.474E-01
RMM:   8    -0.643152551497E+03    0.10340E-03   -0.43592E-03 13341   0.172E-01    0.447E-01
RMM:   9    -0.643151696801E+03    0.85470E-03   -0.31352E-03 13870   0.150E-01    0.301E-01
RMM:  10    -0.643151553042E+03    0.14376E-03   -0.17824E-03 12828   0.114E-01    0.244E-01
RMM:  11    -0.643151527173E+03    0.25869E-04   -0.11214E-03 12277   0.857E-02    0.211E-01
RMM:  12    -0.643151377101E+03    0.15007E-03   -0.63359E-04 11653   0.650E-02    0.996E-02
RMM:  13    -0.643151401866E+03   -0.24764E-04   -0.47796E-04 11566   0.443E-02    0.104E-01
RMM:  14    -0.643151367077E+03    0.34789E-04   -0.25370E-04 11117   0.369E-02    0.440E-02
RMM:  15    -0.643151378921E+03   -0.11845E-04   -0.18111E-04 10520   0.239E-02    0.377E-02
RMM:  16    -0.643151377212E+03    0.17096E-05   -0.98310E-05  9538   0.212E-02
  15 F= -.64315138E+03 E0= -.64307546E+03  d E =-.212016E-01
       N       E                     dE             d eps       ncg     rms          rms(c)
DAV:   1    -0.643057869532E+03    0.93509E-01   -0.31001E+00  8736   0.118E+01    0.535E-01
RMM:   2    -0.643157341725E+03   -0.99472E-01   -0.95772E-01 14388   0.270E+00    0.134E+00
RMM:   3    -0.643159073964E+03   -0.17322E-02   -0.97973E-02 13784   0.780E-01    0.103E+00
RMM:   4    -0.643157626937E+03    0.14470E-02   -0.13469E-02 13290   0.379E-01    0.722E-01
RMM:   5    -0.643155807832E+03    0.18191E-02   -0.48748E-03 13062   0.222E-01    0.465E-01
RMM:   6    -0.643154980883E+03    0.82695E-03   -0.26493E-03 12668   0.120E-01    0.208E-01
RMM:   7    -0.643155031317E+03   -0.50434E-04   -0.14748E-03 12306   0.871E-02    0.233E-01
RMM:   8    -0.643155069673E+03   -0.38356E-04   -0.11219E-03 12408   0.889E-02    0.243E-01
RMM:   9    -0.643154801792E+03    0.26788E-03   -0.83770E-04 12855   0.784E-02    0.136E-01
RMM:  10    -0.643154771989E+03    0.29803E-04   -0.50505E-04 12191   0.596E-02    0.112E-01
RMM:  11    -0.643154774453E+03   -0.24631E-05   -0.29568E-04 11651   0.471E-02    0.104E-01
RMM:  12    -0.643154742699E+03    0.31754E-04   -0.17554E-04 10866   0.345E-02    0.565E-02
RMM:  13    -0.643154746089E+03   -0.33901E-05   -0.12993E-04 10219   0.257E-02    0.491E-02
RMM:  14    -0.643154738915E+03    0.71736E-05   -0.77359E-05  9462   0.212E-02
  16 F= -.64315474E+03 E0= -.64307954E+03  d E =-.245633E-01
       N       E                     dE             d eps       ncg     rms          rms(c)
DAV:   1    -0.642950930909E+03    0.20382E+00   -0.72053E+00  8736   0.178E+01    0.747E-01
RMM:   2    -0.643164586962E+03   -0.21366E+00   -0.21162E+00 14378   0.412E+00    0.155E+00
RMM:   3    -0.643176930134E+03   -0.12343E-01   -0.20738E-01 14027   0.111E+00    0.153E+00
RMM:   4    -0.643174176296E+03    0.27538E-02   -0.27677E-02 13207   0.580E-01    0.103E+00
RMM:   5    -0.643169057414E+03    0.51189E-02   -0.10027E-02 13886   0.295E-01    0.540E-01
RMM:   6    -0.643168353701E+03    0.70371E-03   -0.53708E-03 13191   0.151E-01    0.299E-01
RMM:   7    -0.643168221663E+03    0.13204E-03   -0.27306E-03 12891   0.113E-01    0.251E-01
RMM:   8    -0.643168253978E+03   -0.32314E-04   -0.20159E-03 13152   0.120E-01    0.310E-01
RMM:   9    -0.643167885598E+03    0.36838E-03   -0.13363E-03 12922   0.109E-01    0.182E-01
RMM:  10    -0.643167808943E+03    0.76655E-04   -0.90681E-04 12549   0.704E-02    0.116E-01
RMM:  11    -0.643167836346E+03   -0.27403E-04   -0.44034E-04 11679   0.599E-02    0.129E-01
RMM:  12    -0.643167795759E+03    0.40587E-04   -0.30189E-04 11297   0.405E-02    0.734E-02
RMM:  13    -0.643167795708E+03    0.51063E-07   -0.18768E-04 10955   0.329E-02    0.679E-02
RMM:  14    -0.643167782928E+03    0.12780E-04   -0.11305E-04 10160   0.240E-02    0.292E-02
RMM:  15    -0.643167793435E+03   -0.10507E-04   -0.80584E-05  9492   0.205E-02    0.398E-02
RMM:  16    -0.643167788678E+03    0.47572E-05   -0.48444E-05  8878   0.171E-02
  17 F= -.64316779E+03 E0= -.64309394E+03  d E =-.130498E-01
       N       E                     dE             d eps       ncg     rms          rms(c)
DAV:   1    -0.643094168358E+03    0.73625E-01   -0.25283E+00  8736   0.105E+01    0.442E-01
RMM:   2    -0.643169115604E+03   -0.74947E-01   -0.74270E-01 14377   0.243E+00    0.918E-01
RMM:   3    -0.643173373733E+03   -0.42581E-02   -0.72501E-02 14030   0.657E-01    0.902E-01
RMM:   4    -0.643172413741E+03    0.95999E-03   -0.98327E-03 13133   0.345E-01    0.599E-01
RMM:   5    -0.643170660789E+03    0.17530E-02   -0.36309E-03 13415   0.170E-01    0.311E-01
RMM:   6    -0.643170439386E+03    0.22140E-03   -0.18411E-03 12547   0.926E-02    0.180E-01
RMM:   7    -0.643170394327E+03    0.45059E-04   -0.97925E-04 12289   0.698E-02    0.146E-01
RMM:   8    -0.643170403024E+03   -0.86962E-05   -0.76775E-04 12668   0.715E-02    0.186E-01
RMM:   9    -0.643170283471E+03    0.11955E-03   -0.43940E-04 11723   0.667E-02    0.112E-01
RMM:  10    -0.643170250000E+03    0.33471E-04   -0.32422E-04 11711   0.437E-02    0.613E-02
RMM:  11    -0.643170268910E+03   -0.18910E-04   -0.16922E-04 11018   0.359E-02    0.827E-02
RMM:  12    -0.643170250837E+03    0.18074E-04   -0.99249E-05 10226   0.276E-02    0.416E-02
RMM:  13    -0.643170249665E+03    0.11716E-05   -0.74862E-05  9414   0.198E-02
  18 F= -.64317025E+03 E0= -.64309722E+03  d E =-.155107E-01
       N       E                     dE             d eps       ncg     rms          rms(c)
DAV:   1    -0.642907114390E+03    0.26314E+00   -0.92849E+00  9192   0.208E+01    0.912E-01
RMM:   2    -0.643188569209E+03   -0.28145E+00   -0.27731E+00 14374   0.441E+00    0.207E+00
RMM:   3    -0.643194919557E+03   -0.63503E-02   -0.21358E-01 13911   0.134E+00    0.194E+00
RMM:   4    -0.643185855507E+03    0.90640E-02   -0.43648E-02 13519   0.658E-01    0.965E-01
RMM:   5    -0.643182011706E+03    0.38438E-02   -0.13745E-02 13974   0.335E-01    0.723E-01
RMM:   6    -0.643180297289E+03    0.17144E-02   -0.67660E-03 13450   0.201E-01    0.410E-01
RMM:   7    -0.643180205462E+03    0.91827E-04   -0.43435E-03 13049   0.148E-01    0.368E-01
RMM:   8    -0.643180502809E+03   -0.29735E-03   -0.34562E-03 13370   0.164E-01    0.473E-01
RMM:   9    -0.643179349730E+03    0.11531E-02   -0.22270E-03 13388   0.141E-01    0.173E-01
RMM:  10    -0.643179389437E+03   -0.39707E-04   -0.15838E-03 12722   0.813E-02    0.154E-01
RMM:  11    -0.643179308007E+03    0.81430E-04   -0.69671E-04 12167   0.662E-02    0.105E-01
RMM:  12    -0.643179321237E+03   -0.13231E-04   -0.41899E-04 11487   0.466E-02    0.106E-01
RMM:  13    -0.643179296723E+03    0.24515E-04   -0.25442E-04 11148   0.359E-02    0.617E-02
RMM:  14    -0.643179289365E+03    0.73579E-05   -0.16308E-04 10547   0.260E-02    0.312E-02
RMM:  15    -0.643179298021E+03   -0.86565E-05   -0.10199E-04  9964   0.242E-02    0.365E-02
RMM:  16    -0.643179293994E+03    0.40274E-05   -0.67009E-05  9097   0.178E-02
  19 F= -.64317929E+03 E0= -.64310779E+03  d E =-.904433E-02
       N       E                     dE             d eps       ncg     rms          rms(c)
DAV:   1    -0.643163310115E+03    0.15988E-01   -0.53059E-01  9384   0.500E+00    0.225E-01
RMM:   2    -0.643180653774E+03   -0.17344E-01   -0.16714E-01 14385   0.109E+00    0.573E-01
RMM:   3    -0.643180536317E+03    0.11746E-03   -0.13933E-02 13754   0.329E-01    0.439E-01
RMM:   4    -0.643180213786E+03    0.32253E-03   -0.26703E-03 12925   0.166E-01    0.269E-01
RMM:   5    -0.643179919709E+03    0.29408E-03   -0.87013E-04 12303   0.915E-02    0.173E-01
RMM:   6    -0.643179813570E+03    0.10614E-03   -0.47033E-04 12005   0.525E-02    0.985E-02
RMM:   7    -0.643179825103E+03   -0.11533E-04   -0.28735E-04 11511   0.414E-02    0.106E-01
RMM:   8    -0.643179833980E+03   -0.88765E-05   -0.21034E-04 11329   0.432E-02    0.113E-01
RMM:   9    -0.643179767771E+03    0.66209E-04   -0.16251E-04 11318   0.362E-02    0.467E-02
RMM:  10    -0.643179770085E+03   -0.23140E-05   -0.94199E-05 10401   0.257E-02
  20 F= -.64317977E+03 E0= -.64310862E+03  d E =-.952042E-02
       N       E                     dE             d eps       ncg     rms          rms(c)
DAV:   1    -0.642938185335E+03    0.24158E+00   -0.66690E+00  9120   0.185E+01    0.100E+00
RMM:   2    -0.643208342935E+03   -0.27016E+00   -0.25286E+00 14502   0.405E+00    0.243E+00
RMM:   3    -0.643203963898E+03    0.43790E-02   -0.27668E-01 12881   0.139E+00    0.193E+00
RMM:   4    -0.643194237827E+03    0.97261E-02   -0.42399E-02 13285   0.648E-01    0.116E+00
RMM:   5    -0.643188988288E+03    0.52495E-02   -0.14457E-02 13500   0.383E-01    0.672E-01
RMM:   6    -0.643186842580E+03    0.21457E-02   -0.70179E-03 13647   0.188E-01    0.421E-01
RMM:   7    -0.643186730385E+03    0.11219E-03   -0.36217E-03 12963   0.160E-01    0.407E-01
RMM:   8    -0.643186849548E+03   -0.11916E-03   -0.29929E-03 13412   0.154E-01    0.430E-01
RMM:   9    -0.643186116161E+03    0.73339E-03   -0.22727E-03 13328   0.137E-01    0.285E-01
RMM:  10    -0.643186178097E+03   -0.61936E-04   -0.15412E-03 12870   0.114E-01    0.298E-01
RMM:  11    -0.643185772624E+03    0.40547E-03   -0.87470E-04 12327   0.775E-02    0.112E-01
RMM:  12    -0.643185794840E+03   -0.22215E-04   -0.56383E-04 11799   0.504E-02    0.127E-01
RMM:  13    -0.643185776669E+03    0.18171E-04   -0.29522E-04 11416   0.412E-02    0.774E-02
RMM:  14    -0.643185764895E+03    0.11774E-04   -0.19646E-04 10804   0.250E-02    0.344E-02
RMM:  15    -0.643185772526E+03   -0.76302E-05   -0.11704E-04 10098   0.215E-02    0.297E-02
RMM:  16    -0.643185774573E+03   -0.20477E-05   -0.64454E-05  9404   0.173E-02
  21 F= -.64318577E+03 E0= -.64311642E+03  d E =-.600449E-02
       N       E                     dE             d eps       ncg     rms          rms(c)
DAV:   1    -0.643176003472E+03    0.97691E-02   -0.26676E-01  9552   0.370E+00    0.199E-01
RMM:   2    -0.643186843673E+03   -0.10840E-01   -0.10222E-01 14509   0.811E-01    0.465E-01
RMM:   3    -0.643186770297E+03    0.73376E-04   -0.10659E-02 12730   0.270E-01    0.407E-01
RMM:   4    -0.643186293464E+03    0.47683E-03   -0.16957E-03 12465   0.136E-01    0.222E-01
RMM:   5    -0.643186117486E+03    0.17598E-03   -0.61454E-04 12054   0.773E-02    0.139E-01
RMM:   6    -0.643186032361E+03    0.85125E-04   -0.31401E-04 11640   0.414E-02    0.870E-02
RMM:   7    -0.643186029236E+03    0.31257E-05   -0.16245E-04 11073   0.369E-02    0.843E-02
RMM:   8    -0.643186047587E+03   -0.18351E-04   -0.13364E-04 10888   0.334E-02    0.102E-01
RMM:   9    -0.643186009969E+03    0.37618E-04   -0.96258E-05 10237   0.335E-02    0.631E-02
RMM:  10    -0.643186008816E+03    0.11528E-05   -0.78838E-05 10175   0.271E-02
  22 F= -.64318601E+03 E0= -.64311701E+03  d E =-.623873E-02
       N       E                     dE             d eps       ncg     rms          rms(c)
DAV:   1    -0.642991832158E+03    0.19418E+00   -0.48698E+00  9312   0.156E+01    0.941E-01
RMM:   2    -0.643210697853E+03   -0.21887E+00   -0.20190E+00 14479   0.337E+00    0.222E+00
RMM:   3    -0.643208594352E+03    0.21035E-02   -0.24480E-01 12193   0.123E+00    0.182E+00
RMM:   4    -0.643198269916E+03    0.10324E-01   -0.32854E-02 13228   0.539E-01    0.106E+00
RMM:   5    -0.643194664817E+03    0.36051E-02   -0.11278E-02 13021   0.326E-01    0.696E-01
RMM:   6    -0.643192097064E+03    0.25678E-02   -0.48465E-03 13358   0.176E-01    0.322E-01
RMM:   7    -0.643192271575E+03   -0.17451E-03   -0.26513E-03 12712   0.137E-01    0.378E-01
RMM:   8    -0.643191951791E+03    0.31978E-03   -0.20857E-03 13207   0.133E-01    0.295E-01
RMM:   9    -0.643191734324E+03    0.21747E-03   -0.16231E-03 13292   0.109E-01    0.261E-01
RMM:  10    -0.643191784305E+03   -0.49981E-04   -0.10380E-03 12614   0.980E-02    0.294E-01
RMM:  11    -0.643191461931E+03    0.32237E-03   -0.55589E-04 11809   0.733E-02    0.131E-01
RMM:  12    -0.643191401412E+03    0.60519E-04   -0.40677E-04 11722   0.438E-02    0.705E-02
RMM:  13    -0.643191425699E+03   -0.24287E-04   -0.20492E-04 10842   0.358E-02    0.890E-02
RMM:  14    -0.643191395579E+03    0.30120E-04   -0.12209E-04 10459   0.245E-02    0.269E-02
RMM:  15    -0.643191402295E+03   -0.67163E-05   -0.86720E-05  9375   0.182E-02
  23 F= -.64319140E+03 E0= -.64312350E+03  d E =-.539348E-02
       N       E                     dE             d eps       ncg     rms          rms(c)
DAV:   1    -0.643099834025E+03    0.91562E-01   -0.23424E+00  9384   0.108E+01    0.648E-01
RMM:   2    -0.643204222604E+03   -0.10439E+00   -0.95199E-01 14460   0.229E+00    0.160E+00
RMM:   3    -0.643201210995E+03    0.30116E-02   -0.11012E-01 12136   0.853E-01    0.126E+00
RMM:   4    -0.643196229373E+03    0.49816E-02   -0.15367E-02 13018   0.369E-01    0.733E-01
RMM:   5    -0.643194452995E+03    0.17764E-02   -0.53828E-03 12680   0.229E-01    0.466E-01
RMM:   6    -0.643193320508E+03    0.11325E-02   -0.23413E-03 12998   0.122E-01    0.233E-01
RMM:   7    -0.643193365948E+03   -0.45439E-04   -0.12618E-03 12274   0.933E-02    0.256E-01
RMM:   8    -0.643193342641E+03    0.23307E-04   -0.98260E-04 12958   0.902E-02    0.249E-01
RMM:   9    -0.643193171715E+03    0.17093E-03   -0.76575E-04 12442   0.800E-02    0.201E-01
RMM:  10    -0.643193154206E+03    0.17510E-04   -0.53231E-04 11846   0.707E-02    0.189E-01
RMM:  11    -0.643193013326E+03    0.14088E-03   -0.31553E-04 11575   0.516E-02    0.927E-02
RMM:  12    -0.643192992177E+03    0.21149E-04   -0.18580E-04 11142   0.345E-02    0.662E-02
RMM:  13    -0.643192988704E+03    0.34731E-05   -0.11460E-04 10383   0.263E-02    0.455E-02
RMM:  14    -0.643192981780E+03    0.69238E-05   -0.72965E-05  8919   0.182E-02
  24 F= -.64319298E+03 E0= -.64312572E+03  d E =-.697296E-02
       N       E                     dE             d eps       ncg     rms          rms(c)
DAV:   1    -0.643026774083E+03    0.16621E+00   -0.46625E+00 10056   0.145E+01    0.595E-01
RMM:   2    -0.643190985716E+03   -0.16421E+00   -0.16378E+00 14323   0.281E+00    0.108E+00
RMM:   3    -0.643205579147E+03   -0.14593E-01   -0.18685E-01 13426   0.889E-01    0.129E+00
RMM:   4    -0.643201643945E+03    0.39352E-02   -0.18552E-02 13047   0.397E-01    0.656E-01
RMM:   5    -0.643199347923E+03    0.22960E-02   -0.48178E-03 12809   0.219E-01    0.292E-01
RMM:   6    -0.643199147808E+03    0.20011E-03   -0.27901E-03 12698   0.956E-02    0.230E-01
RMM:   7    -0.643199273053E+03   -0.12524E-03   -0.11876E-03 12174   0.915E-02    0.282E-01
RMM:   8    -0.643199150017E+03    0.12304E-03   -0.11035E-03 12815   0.905E-02    0.247E-01
RMM:   9    -0.643198938703E+03    0.21131E-03   -0.84358E-04 12408   0.786E-02    0.160E-01
RMM:  10    -0.643199009746E+03   -0.71043E-04   -0.53247E-04 11880   0.672E-02    0.191E-01
RMM:  11    -0.643198865095E+03    0.14465E-03   -0.29420E-04 11410   0.520E-02    0.703E-02
RMM:  12    -0.643198864875E+03    0.21979E-06   -0.21899E-04 11009   0.318E-02    0.587E-02
RMM:  13    -0.643198855361E+03    0.95139E-05   -0.10333E-04 10000   0.274E-02    0.447E-02
RMM:  14    -0.643198850607E+03    0.47538E-05   -0.69345E-05  9411   0.203E-02
  25 F= -.64319885E+03 E0= -.64313252E+03  d E =-.586883E-02
       N       E                     dE             d eps       ncg     rms          rms(c)
DAV:   1    -0.643013364403E+03    0.18549E+00   -0.68567E+00 10920   0.170E+01    0.655E-01
RMM:   2    -0.643196585179E+03   -0.18322E+00   -0.18493E+00 14235   0.296E+00    0.112E+00
RMM:   3    -0.643210452228E+03   -0.13867E-01   -0.16439E-01 13218   0.116E+00    0.149E+00
RMM:   4    -0.643206137511E+03    0.43147E-02   -0.31832E-02 13185   0.518E-01    0.783E-01
RMM:   5    -0.643203259341E+03    0.28782E-02   -0.93983E-03 13002   0.274E-01    0.330E-01
RMM:   6    -0.643202925748E+03    0.33359E-03   -0.38985E-03 12906   0.117E-01    0.249E-01
RMM:   7    -0.643203091488E+03   -0.16574E-03   -0.16675E-03 12364   0.106E-01    0.315E-01
RMM:   8    -0.643202984502E+03    0.10699E-03   -0.15454E-03 12858   0.107E-01    0.290E-01
RMM:   9    -0.643202601610E+03    0.38289E-03   -0.11616E-03 12743   0.883E-02    0.139E-01
RMM:  10    -0.643202757826E+03   -0.15622E-03   -0.65434E-04 12094   0.723E-02    0.212E-01
RMM:  11    -0.643202561786E+03    0.19604E-03   -0.33459E-04 11388   0.558E-02    0.639E-02
RMM:  12    -0.643202585091E+03   -0.23305E-04   -0.27859E-04 11054   0.328E-02    0.728E-02
RMM:  13    -0.643202562112E+03    0.22979E-04   -0.13951E-04 10283   0.287E-02    0.359E-02
RMM:  14    -0.643202566370E+03   -0.42579E-05   -0.90322E-05  9605   0.211E-02
  26 F= -.64320257E+03 E0= -.64313709E+03  d E =-.958459E-02
       N       E                     dE             d eps       ncg     rms          rms(c)
DAV:   1    -0.643165388725E+03    0.37173E-01   -0.10023E+00 10344   0.676E+00    0.277E-01
RMM:   2    -0.643200769743E+03   -0.35381E-01   -0.35580E-01 14304   0.130E+00    0.425E-01
RMM:   3    -0.643204501235E+03   -0.37315E-02   -0.41149E-02 13317   0.412E-01    0.632E-01
RMM:   4    -0.643203447840E+03    0.10534E-02   -0.41097E-03 12620   0.190E-01    0.307E-01
RMM:   5    -0.643202990433E+03    0.45741E-03   -0.11663E-03 11937   0.105E-01    0.149E-01
RMM:   6    -0.643202937765E+03    0.52668E-04   -0.59614E-04 11850   0.521E-02    0.113E-01
RMM:   7    -0.643202945305E+03   -0.75404E-05   -0.29971E-04 11235   0.424E-02    0.113E-01
RMM:   8    -0.643202949165E+03   -0.38597E-05   -0.25333E-04 11481   0.447E-02    0.123E-01
RMM:   9    -0.643202886553E+03    0.62612E-04   -0.18600E-04 11276   0.395E-02    0.662E-02
RMM:  10    -0.643202915112E+03   -0.28558E-04   -0.12922E-04 10582   0.316E-02    0.896E-02
RMM:  11    -0.643202878436E+03    0.36675E-04   -0.68978E-05  9609   0.265E-02    0.256E-02
RMM:  12    -0.643202884801E+03   -0.63646E-05   -0.48625E-05  8531   0.181E-02
  27 F= -.64320288E+03 E0= -.64313769E+03  d E =-.990302E-02
       N       E                     dE             d eps       ncg     rms          rms(c)
DAV:   1    -0.643005755249E+03    0.19712E+00   -0.74898E+00 10200   0.177E+01    0.735E-01
RMM:   2    -0.643199712970E+03   -0.19396E+00   -0.20277E+00 14257   0.308E+00    0.829E-01
RMM:   3    -0.643222210160E+03   -0.22497E-01   -0.14047E-01 13447   0.129E+00    0.188E+00
RMM:   4    -0.643211074389E+03    0.11136E-01   -0.35161E-02 13006   0.597E-01    0.660E-01
RMM:   5    -0.643209585452E+03    0.14889E-02   -0.13563E-02 13628   0.273E-01    0.431E-01
RMM:   6    -0.643208925667E+03    0.65978E-03   -0.37736E-03 12819   0.148E-01    0.250E-01
RMM:   7    -0.643209151283E+03   -0.22562E-03   -0.24908E-03 13017   0.116E-01    0.345E-01
RMM:   8    -0.643208619677E+03    0.53161E-03   -0.21207E-03 13278   0.117E-01    0.268E-01
RMM:   9    -0.643208445143E+03    0.17453E-03   -0.10346E-03 12432   0.894E-02    0.177E-01
RMM:  10    -0.643208430785E+03    0.14358E-04   -0.79195E-04 12347   0.651E-02    0.120E-01
RMM:  11    -0.643208349804E+03    0.80981E-04   -0.37116E-04 11798   0.480E-02    0.590E-02
RMM:  12    -0.643208375607E+03   -0.25802E-04   -0.21172E-04 11139   0.357E-02    0.851E-02
RMM:  13    -0.643208351809E+03    0.23798E-04   -0.11525E-04 10587   0.296E-02    0.416E-02
RMM:  14    -0.643208352436E+03   -0.62759E-06   -0.94756E-05  9872   0.214E-02
  28 F= -.64320835E+03 E0= -.64314355E+03  d E =-.546764E-02
       N       E                     dE             d eps       ncg     rms          rms(c)
DAV:   1    -0.643113646482E+03    0.94705E-01   -0.25452E+00  9336   0.108E+01    0.467E-01
RMM:   2    -0.643204012577E+03   -0.90366E-01   -0.92942E-01 14359   0.211E+00    0.501E-01
RMM:   3    -0.643215681027E+03   -0.11668E-01   -0.89692E-02 13790   0.662E-01    0.119E+00
RMM:   4    -0.643210656827E+03    0.50242E-02   -0.10752E-02 12625   0.321E-01    0.401E-01
RMM:   5    -0.643209916956E+03    0.73987E-03   -0.35572E-03 13029   0.148E-01    0.259E-01
RMM:   6    -0.643209719264E+03    0.19769E-03   -0.13611E-03 12343   0.890E-02    0.173E-01
RMM:   7    -0.643209752686E+03   -0.33422E-04   -0.90281E-04 12198   0.708E-02    0.195E-01
RMM:   8    -0.643209545221E+03    0.20746E-03   -0.73255E-04 12633   0.700E-02    0.128E-01
RMM:   9    -0.643209591572E+03   -0.46351E-04   -0.44910E-04 11711   0.600E-02    0.156E-01
RMM:  10    -0.643209554824E+03    0.36748E-04   -0.32298E-04 11847   0.493E-02    0.102E-01
RMM:  11    -0.643209506274E+03    0.48550E-04   -0.17310E-04 11155   0.341E-02    0.560E-02
RMM:  12    -0.643209506386E+03   -0.11182E-06   -0.91575E-05 10037   0.266E-02
  29 F= -.64320951E+03 E0= -.64314492E+03  d E =-.662158E-02
       N       E                     dE             d eps       ncg     rms          rms(c)
DAV:   1    -0.643173469773E+03    0.36037E-01   -0.15933E+00  9120   0.799E+00    0.409E-01
RMM:   2    -0.643218687258E+03   -0.45217E-01   -0.43221E-01 14417   0.175E+00    0.852E-01
RMM:   3    -0.643216695795E+03    0.19915E-02   -0.40068E-02 12872   0.624E-01    0.612E-01
RMM:   4    -0.643215728304E+03    0.96749E-03   -0.85729E-03 13419   0.267E-01    0.381E-01
RMM:   5    -0.643215369077E+03    0.35923E-03   -0.28274E-03 12747   0.160E-01    0.319E-01
RMM:   6    -0.643214927807E+03    0.44127E-03   -0.13016E-03 12597   0.909E-02    0.160E-01
RMM:   7    -0.643214982899E+03   -0.55092E-04   -0.78293E-04 12075   0.680E-02    0.189E-01
RMM:   8    -0.643214928080E+03    0.54819E-04   -0.59603E-04 12540   0.719E-02    0.158E-01
RMM:   9    -0.643214808832E+03    0.11925E-03   -0.45767E-04 12247   0.570E-02    0.940E-02
RMM:  10    -0.643214852045E+03   -0.43213E-04   -0.24710E-04 11527   0.488E-02    0.131E-01
RMM:  11    -0.643214774006E+03    0.78039E-04   -0.13999E-04 10997   0.359E-02    0.344E-02
RMM:  12    -0.643214786681E+03   -0.12675E-04   -0.11083E-04 10181   0.227E-02    0.471E-02
RMM:  13    -0.643214780986E+03    0.56958E-05   -0.53592E-05  8956   0.213E-02
  30 F= -.64321478E+03 E0= -.64315029E+03  d E =-.527460E-02
       N       E                     dE             d eps       ncg     rms          rms(c)
DAV:   1    -0.643107001699E+03    0.10778E+00   -0.36678E+00  8736   0.123E+01    0.648E-01
RMM:   2    -0.643225342114E+03   -0.11834E+00   -0.11254E+00 14409   0.285E+00    0.136E+00
RMM:   3    -0.643223070489E+03    0.22716E-02   -0.12754E-01 12904   0.945E-01    0.989E-01
RMM:   4    -0.643220306140E+03    0.27643E-02   -0.19038E-02 13601   0.398E-01    0.609E-01
RMM:   5    -0.643219223924E+03    0.10822E-02   -0.64900E-03 13310   0.242E-01    0.478E-01
RMM:   6    -0.643218238328E+03    0.98560E-03   -0.30818E-03 12981   0.130E-01    0.254E-01
RMM:   7    -0.643218355265E+03   -0.11694E-03   -0.17978E-03 12326   0.101E-01    0.294E-01
RMM:   8    -0.643218195755E+03    0.15951E-03   -0.14150E-03 13193   0.108E-01    0.237E-01
RMM:   9    -0.643217920072E+03    0.27568E-03   -0.10782E-03 13045   0.857E-02    0.143E-01
RMM:  10    -0.643217967306E+03   -0.47234E-04   -0.58658E-04 12567   0.727E-02    0.169E-01
RMM:  11    -0.643217829665E+03    0.13764E-03   -0.32375E-04 11613   0.513E-02    0.451E-02
RMM:  12    -0.643217845411E+03   -0.15746E-04   -0.22854E-04 11151   0.296E-02    0.422E-02
RMM:  13    -0.643217846361E+03   -0.94989E-06   -0.11824E-04 10370   0.237E-02    0.318E-02
RMM:  14    -0.643217850485E+03   -0.41237E-05   -0.69268E-05  9504   0.201E-02
  31 F= -.64321785E+03 E0= -.64315352E+03  d E =-.834410E-02
       N       E                     dE             d eps       ncg     rms          rms(c)
DAV:   1    -0.643186536585E+03    0.31310E-01   -0.14682E+00 10032   0.810E+00    0.594E-01
RMM:   2    -0.643236959615E+03   -0.50423E-01   -0.43723E-01 14287   0.189E+00    0.135E+00
RMM:   3    -0.643225631617E+03    0.11328E-01   -0.45284E-02 12276   0.759E-01    0.783E-01
RMM:   4    -0.643223020081E+03    0.26115E-02   -0.12072E-02 13595   0.314E-01    0.443E-01
RMM:   5    -0.643222767240E+03    0.25284E-03   -0.37292E-03 12984   0.195E-01    0.477E-01
RMM:   6    -0.643221791549E+03    0.97569E-03   -0.18380E-03 12761   0.128E-01    0.254E-01
RMM:   7    -0.643221761663E+03    0.29886E-04   -0.11768E-03 12479   0.957E-02    0.243E-01
RMM:   8    -0.643221666689E+03    0.94974E-04   -0.87984E-04 12414   0.953E-02    0.209E-01
RMM:   9    -0.643221503688E+03    0.16300E-03   -0.65936E-04 12542   0.706E-02    0.128E-01
RMM:  10    -0.643221521221E+03   -0.17533E-04   -0.42081E-04 12250   0.564E-02    0.148E-01
RMM:  11    -0.643221437423E+03    0.83798E-04   -0.18152E-04 10944   0.458E-02    0.767E-02
RMM:  12    -0.643221414844E+03    0.22579E-04   -0.15140E-04 10735   0.273E-02    0.274E-02
RMM:  13    -0.643221419654E+03   -0.48094E-05   -0.87285E-05  9556   0.222E-02
  32 F= -.64322142E+03 E0= -.64315689E+03  d E =-.356917E-02
       N       E                     dE             d eps       ncg     rms          rms(c)
DAV:   1    -0.643211351905E+03    0.10063E-01   -0.45979E-01 10296   0.453E+00    0.336E-01
RMM:   2    -0.643227639001E+03   -0.16287E-01   -0.13738E-01 14257   0.106E+00    0.810E-01
RMM:   3    -0.643223651326E+03    0.39877E-02   -0.14461E-02 12175   0.431E-01    0.473E-01
RMM:   4    -0.643222769435E+03    0.88189E-03   -0.39393E-03 12992   0.186E-01    0.288E-01
RMM:   5    -0.643222625596E+03    0.14384E-03   -0.12652E-03 11909   0.118E-01    0.267E-01
RMM:   6    -0.643222314883E+03    0.31071E-03   -0.64045E-04 12288   0.737E-02    0.140E-01
RMM:   7    -0.643222292967E+03    0.21916E-04   -0.38226E-04 11792   0.564E-02    0.127E-01
RMM:   8    -0.643222288074E+03    0.48927E-05   -0.29646E-04 11890   0.542E-02    0.127E-01
RMM:   9    -0.643222231021E+03    0.57054E-04   -0.21086E-04 11667   0.416E-02    0.844E-02
RMM:  10    -0.643222244141E+03   -0.13120E-04   -0.13217E-04 10792   0.376E-02    0.979E-02
RMM:  11    -0.643222201333E+03    0.42808E-04   -0.75479E-05 10189   0.282E-02    0.329E-02
RMM:  12    -0.643222198156E+03    0.31762E-05   -0.58550E-05  8899   0.176E-02
  33 F= -.64322220E+03 E0= -.64315758E+03  d E =-.434767E-02
       N       E                     dE             d eps       ncg     rms          rms(c)
DAV:   1    -0.643220534360E+03    0.16670E-02   -0.73250E-02 10752   0.181E+00    0.136E-01
RMM:   2    -0.643223247589E+03   -0.27132E-02   -0.22103E-02 14202   0.424E-01    0.350E-01
RMM:   3    -0.643222519355E+03    0.72823E-03   -0.23310E-03 11531   0.174E-01    0.198E-01
RMM:   4    -0.643222360953E+03    0.15840E-03   -0.66162E-04 12164   0.825E-02    0.116E-01
RMM:   5    -0.643222330022E+03    0.30932E-04   -0.22539E-04 11294   0.492E-02    0.982E-02
RMM:   6    -0.643222287174E+03    0.42848E-04   -0.10927E-04 10653   0.310E-02    0.587E-02
RMM:   7    -0.643222284038E+03    0.31358E-05   -0.60953E-05  9601   0.249E-02
  34 F= -.64322228E+03 E0= -.64315765E+03  d E =-.443355E-02
       N       E                     dE             d eps       ncg     rms          rms(c)
DAV:   1    -0.643210668980E+03    0.11618E-01   -0.59796E-01 10176   0.513E+00    0.407E-01
RMM:   2    -0.643233288446E+03   -0.22619E-01   -0.18214E-01 14082   0.129E+00    0.103E+00
RMM:   3    -0.643226788016E+03    0.65004E-02   -0.20744E-02 12135   0.515E-01    0.618E-01
RMM:   4    -0.643225286635E+03    0.15014E-02   -0.54379E-03 13091   0.220E-01    0.396E-01
RMM:   5    -0.643224986662E+03    0.29997E-03   -0.18556E-03 12164   0.143E-01    0.329E-01
RMM:   6    -0.643224411496E+03    0.57517E-03   -0.88155E-04 12579   0.851E-02    0.120E-01
RMM:   7    -0.643224494480E+03   -0.82984E-04   -0.62174E-04 12296   0.679E-02    0.182E-01
RMM:   8    -0.643224429535E+03    0.64945E-04   -0.40371E-04 12076   0.683E-02    0.158E-01
RMM:   9    -0.643224341414E+03    0.88122E-04   -0.30249E-04 11595   0.537E-02    0.953E-02
RMM:  10    -0.643224347408E+03   -0.59942E-05   -0.17966E-04 11103   0.421E-02    0.101E-01
RMM:  11    -0.643224302217E+03    0.45191E-04   -0.88249E-05 10122   0.312E-02    0.365E-02
RMM:  12    -0.643224301964E+03    0.25238E-06   -0.71941E-05  9169   0.186E-02
  35 F= -.64322430E+03 E0= -.64315961E+03  d E =-.201793E-02
       N       E                     dE             d eps       ncg     rms          rms(c)
DAV:   1    -0.643220819755E+03    0.34825E-02   -0.17067E-01 10296   0.274E+00    0.222E-01
RMM:   2    -0.643227365241E+03   -0.65455E-02   -0.52837E-02 14078   0.691E-01    0.550E-01
RMM:   3    -0.643225479393E+03    0.18858E-02   -0.60171E-03 11920   0.279E-01    0.334E-01
RMM:   4    -0.643224983018E+03    0.49637E-03   -0.15892E-03 12626   0.124E-01    0.170E-01
RMM:   5    -0.643224937077E+03    0.45942E-04   -0.54505E-04 11760   0.748E-02    0.161E-01
RMM:   6    -0.643224801596E+03    0.13548E-03   -0.26666E-04 11447   0.469E-02    0.783E-02
RMM:   7    -0.643224819497E+03   -0.17901E-04   -0.17019E-04 11055   0.379E-02    0.104E-01
RMM:   8    -0.643224804016E+03    0.15481E-04   -0.12474E-04 10496   0.368E-02    0.830E-02
RMM:   9    -0.643224775405E+03    0.28611E-04   -0.10285E-04 10575   0.288E-02    0.435E-02
RMM:  10    -0.643224773456E+03    0.19489E-05   -0.59579E-05  9623   0.227E-02
  36 F= -.64322477E+03 E0= -.64316007E+03  d E =-.248942E-02
       N       E                     dE             d eps       ncg     rms          rms(c)
DAV:   1    -0.643208701746E+03    0.16074E-01   -0.68280E-01 10032   0.549E+00    0.436E-01
RMM:   2    -0.643233908801E+03   -0.25207E-01   -0.20871E-01 14079   0.137E+00    0.104E+00
RMM:   3    -0.643227038141E+03    0.68707E-02   -0.23539E-02 12089   0.551E-01    0.646E-01
RMM:   4    -0.643225301243E+03    0.17369E-02   -0.61742E-03 13083   0.236E-01    0.366E-01
RMM:   5    -0.643225118187E+03    0.18306E-03   -0.20460E-03 12390   0.147E-01    0.355E-01
RMM:   6    -0.643224527541E+03    0.59065E-03   -0.99329E-04 12403   0.965E-02    0.170E-01
RMM:   7    -0.643224535436E+03   -0.78947E-05   -0.67562E-04 12084   0.699E-02    0.182E-01
RMM:   8    -0.643224530312E+03    0.51238E-05   -0.47715E-04 12229   0.706E-02    0.179E-01
RMM:   9    -0.643224393626E+03    0.13669E-03   -0.38001E-04 12015   0.558E-02    0.960E-02
RMM:  10    -0.643224423673E+03   -0.30046E-04   -0.21298E-04 11350   0.444E-02    0.123E-01
RMM:  11    -0.643224358118E+03    0.65554E-04   -0.10841E-04 10426   0.341E-02    0.424E-02
RMM:  12    -0.643224354891E+03    0.32273E-05   -0.84469E-05  9615   0.198E-02
  37 F= -.64322435E+03 E0= -.64315961E+03  d E =-.207085E-02
       N       E                     dE             d eps       ncg     rms          rms(c)
DAV:   1    -0.643216964853E+03    0.73933E-02   -0.35500E-01 10080   0.394E+00    0.313E-01
RMM:   2    -0.643229712061E+03   -0.12747E-01   -0.10645E-01 14074   0.978E-01    0.736E-01
RMM:   3    -0.643226170912E+03    0.35411E-02   -0.11593E-02 11940   0.388E-01    0.431E-01
RMM:   4    -0.643225267207E+03    0.90371E-03   -0.30360E-03 12893   0.165E-01    0.211E-01
RMM:   5    -0.643225241271E+03    0.25936E-04   -0.91500E-04 11787   0.103E-01    0.245E-01
RMM:   6    -0.643224932358E+03    0.30891E-03   -0.42623E-04 11711   0.672E-02    0.109E-01
RMM:   7    -0.643224958912E+03   -0.26554E-04   -0.31051E-04 11669   0.516E-02    0.141E-01
RMM:   8    -0.643224935110E+03    0.23802E-04   -0.21982E-04 11165   0.523E-02    0.129E-01
RMM:   9    -0.643224862529E+03    0.72581E-04   -0.16578E-04 11152   0.404E-02    0.625E-02
RMM:  10    -0.643224871828E+03   -0.92991E-05   -0.91363E-05 10000   0.326E-02
  38 F= -.64322487E+03 E0= -.64316011E+03  d E =-.258779E-02
       N       E                     dE             d eps       ncg     rms          rms(c)
DAV:   1    -0.643208856763E+03    0.16006E-01   -0.58024E-01  8736   0.503E+00    0.251E-01
RMM:   2    -0.643226885737E+03   -0.18029E-01   -0.17554E-01 14438   0.115E+00    0.473E-01
RMM:   3    -0.643226876475E+03    0.92623E-05   -0.17228E-02 13182   0.360E-01    0.392E-01
RMM:   4    -0.643226588520E+03    0.28796E-03   -0.26462E-03 12799   0.172E-01    0.294E-01
RMM:   5    -0.643226229850E+03    0.35867E-03   -0.91668E-04 12057   0.100E-01    0.161E-01
RMM:   6    -0.643226113536E+03    0.11631E-03   -0.46872E-04 12033   0.499E-02    0.952E-02
RMM:   7    -0.643226120482E+03   -0.69460E-05   -0.25038E-04 11520   0.431E-02    0.100E-01
RMM:   8    -0.643226108622E+03    0.11860E-04   -0.21424E-04 11615   0.441E-02    0.999E-02
RMM:   9    -0.643226063541E+03    0.45081E-04   -0.14942E-04 11407   0.354E-02    0.631E-02
RMM:  10    -0.643226066842E+03   -0.33009E-05   -0.86182E-05 10527   0.284E-02
  39 F= -.64322607E+03 E0= -.64316099E+03  d E =-.119501E-02
       N       E                     dE             d eps       ncg     rms          rms(c)
DAV:   1    -0.643203286366E+03    0.22777E-01   -0.77829E-01  8736   0.583E+00    0.286E-01
RMM:   2    -0.643227412357E+03   -0.24126E-01   -0.23699E-01 14446   0.134E+00    0.519E-01
RMM:   3    -0.643227564111E+03   -0.15175E-03   -0.23333E-02 13411   0.415E-01    0.454E-01
RMM:   4    -0.643227093848E+03    0.47026E-03   -0.36868E-03 13032   0.193E-01    0.305E-01
RMM:   5    -0.643226703293E+03    0.39055E-03   -0.13332E-03 12496   0.111E-01    0.181E-01
RMM:   6    -0.643226571002E+03    0.13229E-03   -0.70653E-04 12310   0.574E-02    0.114E-01
RMM:   7    -0.643226593537E+03   -0.22535E-04   -0.38186E-04 11636   0.509E-02    0.126E-01
RMM:   8    -0.643226570589E+03    0.22949E-04   -0.33072E-04 11937   0.509E-02    0.117E-01
RMM:   9    -0.643226512918E+03    0.57671E-04   -0.21826E-04 11760   0.417E-02    0.720E-02
RMM:  10    -0.643226526365E+03   -0.13447E-04   -0.12865E-04 11086   0.335E-02    0.907E-02
RMM:  11    -0.643226493401E+03    0.32964E-04   -0.77480E-05 10223   0.257E-02    0.227E-02
RMM:  12    -0.643226495780E+03   -0.23796E-05   -0.58385E-05  9028   0.168E-02
  40 F= -.64322650E+03 E0= -.64316110E+03  d E =-.162395E-02
       N       E                     dE             d eps       ncg     rms          rms(c)
DAV:   1    -0.643215534902E+03    0.10958E-01   -0.53039E-01  8808   0.436E+00    0.258E-01
RMM:   2    -0.643229110575E+03   -0.13576E-01   -0.12822E-01 14405   0.105E+00    0.569E-01
RMM:   3    -0.643228489620E+03    0.62095E-03   -0.13221E-02 13145   0.347E-01    0.475E-01
RMM:   4    -0.643227789475E+03    0.70015E-03   -0.26534E-03 12942   0.167E-01    0.273E-01
RMM:   5    -0.643227598091E+03    0.19138E-03   -0.11136E-03 12185   0.106E-01    0.218E-01
RMM:   6    -0.643227369934E+03    0.22816E-03   -0.56807E-04 12103   0.629E-02    0.121E-01
RMM:   7    -0.643227380471E+03   -0.10537E-04   -0.35995E-04 11720   0.537E-02    0.130E-01
RMM:   8    -0.643227355990E+03    0.24481E-04   -0.28959E-04 11928   0.511E-02    0.114E-01
RMM:   9    -0.643227318955E+03    0.37035E-04   -0.19021E-04 11388   0.453E-02    0.956E-02
RMM:  10    -0.643227302533E+03    0.16423E-04   -0.12355E-04 10767   0.337E-02    0.647E-02
RMM:  11    -0.643227282083E+03    0.20450E-04   -0.75532E-05 10091   0.233E-02    0.222E-02
RMM:  12    -0.643227284840E+03   -0.27573E-05   -0.53508E-05  8530   0.161E-02
  41 F= -.64322728E+03 E0= -.64316170E+03  d E =-.789060E-03
       N       E                     dE             d eps       ncg     rms          rms(c)
DAV:   1    -0.643226007528E+03    0.12746E-02   -0.59868E-02  9384   0.147E+00    0.904E-02
RMM:   2    -0.643227696422E+03   -0.16889E-02   -0.14683E-02 14364   0.357E-01    0.251E-01
RMM:   3    -0.643227452386E+03    0.24404E-03   -0.15661E-03 12220   0.124E-01    0.144E-01
RMM:   4    -0.643227399936E+03    0.52451E-04   -0.36128E-04 11991   0.650E-02    0.996E-02
RMM:   5    -0.643227377517E+03    0.22419E-04   -0.15188E-04 11016   0.410E-02    0.792E-02
RMM:   6    -0.643227351941E+03    0.25576E-04   -0.78711E-05 10266   0.260E-02    0.426E-02
RMM:   7    -0.643227350227E+03    0.17138E-05   -0.51312E-05  9464   0.202E-02
  42 F= -.64322735E+03 E0= -.64316169E+03  d E =-.854447E-03
       N       E                     dE             d eps       ncg     rms          rms(c)
DAV:   1    -0.643224848941E+03    0.25030E-02   -0.12969E-01  9072   0.213E+00    0.106E-01
RMM:   2    -0.643228171407E+03   -0.33225E-02   -0.29456E-02 14350   0.494E-01    0.321E-01
RMM:   3    -0.643227808570E+03    0.36284E-03   -0.29495E-03 13389   0.151E-01    0.154E-01
RMM:   4    -0.643227794524E+03    0.14046E-04   -0.59577E-04 12396   0.801E-02    0.121E-01
RMM:   5    -0.643227734233E+03    0.60291E-04   -0.22987E-04 11450   0.461E-02    0.828E-02
RMM:   6    -0.643227705859E+03    0.28374E-04   -0.11836E-04 10858   0.299E-02    0.443E-02
RMM:   7    -0.643227723601E+03   -0.17742E-04   -0.89364E-05 10502   0.260E-02    0.704E-02
RMM:   8    -0.643227709900E+03    0.13701E-04   -0.63233E-05  9501   0.268E-02    0.547E-02
RMM:   9    -0.643227699008E+03    0.10892E-04   -0.35469E-05  7481   0.210E-02    0.384E-02
RMM:  10    -0.643227693896E+03    0.51115E-05   -0.23739E-05  6356   0.189E-02
  43 F= -.64322769E+03 E0= -.64316198E+03  d E =-.343669E-03
       N       E                     dE             d eps       ncg     rms          rms(c)
DAV:   1    -0.643226747264E+03    0.95174E-03   -0.47511E-02  9528   0.128E+00    0.617E-02
RMM:   2    -0.643227874828E+03   -0.11276E-02   -0.10425E-02 14300   0.286E-01    0.164E-01
RMM:   3    -0.643227781369E+03    0.93459E-04   -0.94675E-04 12866   0.953E-02    0.946E-02
RMM:   4    -0.643227788064E+03   -0.66949E-05   -0.24177E-04 11742   0.519E-02    0.852E-02
RMM:   5    -0.643227759918E+03    0.28145E-04   -0.98504E-05 10678   0.314E-02    0.491E-02
RMM:   6    -0.643227753200E+03    0.67179E-05   -0.57198E-05  9637   0.210E-02
  44 F= -.64322775E+03 E0= -.64316202E+03  d E =-.402973E-03
       N       E                     dE             d eps       ncg     rms          rms(c)
DAV:   1    -0.643225091052E+03    0.26689E-02   -0.16955E-01  9960   0.244E+00    0.179E-01
RMM:   2    -0.643229234757E+03   -0.41437E-02   -0.37959E-02 14234   0.552E-01    0.367E-01
RMM:   3    -0.643228524533E+03    0.71022E-03   -0.36236E-03 11866   0.236E-01    0.284E-01
RMM:   4    -0.643228214276E+03    0.31026E-03   -0.11442E-03 12540   0.108E-01    0.149E-01
RMM:   5    -0.643228176258E+03    0.38018E-04   -0.41497E-04 11580   0.648E-02    0.142E-01
RMM:   6    -0.643228076250E+03    0.10001E-03   -0.19980E-04 11493   0.426E-02    0.725E-02
RMM:   7    -0.643228081257E+03   -0.50069E-05   -0.12645E-04 10906   0.355E-02    0.856E-02
RMM:   8    -0.643228064486E+03    0.16771E-04   -0.90688E-05  9931   0.338E-02    0.681E-02
RMM:   9    -0.643228047667E+03    0.16819E-04   -0.67947E-05  9942   0.255E-02    0.404E-02
RMM:  10    -0.643228053350E+03   -0.56828E-05   -0.34132E-05  6698   0.212E-02
  45 F= -.64322805E+03 E0= -.64316218E+03  d E =-.300150E-03
       N       E                     dE             d eps       ncg     rms          rms(c)
DAV:   1    -0.643227982879E+03    0.64789E-04   -0.44833E-03 11736   0.396E-01    0.339E-02
RMM:   2    -0.643228195687E+03   -0.21281E-03   -0.10289E-03 13012   0.913E-02    0.161E-01
RMM:   3    -0.643228072484E+03    0.12320E-03   -0.13236E-04  8231   0.497E-02    0.586E-02
RMM:   4    -0.643228060522E+03    0.11961E-04   -0.44204E-05  7364   0.269E-02    0.337E-02
RMM:   5    -0.643228056411E+03    0.41112E-05   -0.20555E-05  6075   0.185E-02
  46 F= -.64322806E+03 E0= -.64316211E+03  d E =-.303211E-03
       N       E                     dE             d eps       ncg     rms          rms(c)
DAV:   1    -0.643226251533E+03    0.18090E-02   -0.11609E-01  9312   0.194E+00    0.157E-01
RMM:   2    -0.643229037882E+03   -0.27863E-02   -0.26099E-02 14361   0.467E-01    0.313E-01
RMM:   3    -0.643228614382E+03    0.42350E-03   -0.27266E-03 12654   0.177E-01    0.248E-01
RMM:   4    -0.643228403012E+03    0.21137E-03   -0.77204E-04 12102   0.909E-02    0.151E-01
RMM:   5    -0.643228342207E+03    0.60805E-04   -0.35167E-04 11427   0.601E-02    0.127E-01
RMM:   6    -0.643228266476E+03    0.75732E-04   -0.19538E-04 11418   0.405E-02    0.933E-02
RMM:   7    -0.643228263855E+03    0.26204E-05   -0.12228E-04 10379   0.362E-02    0.943E-02
RMM:   8    -0.643228242112E+03    0.21743E-04   -0.95310E-05  9850   0.348E-02    0.646E-02
RMM:   9    -0.643228223782E+03    0.18330E-04   -0.59570E-05  9655   0.248E-02    0.330E-02
RMM:  10    -0.643228223657E+03    0.12486E-06   -0.36938E-05  7961   0.182E-02
  47 F= -.64322822E+03 E0= -.64316226E+03  d E =-.167246E-03
       N       E                     dE             d eps       ncg     rms          rms(c)
DAV:   1    -0.643228218241E+03    0.55405E-05   -0.44914E-04 12984   0.117E-01    0.252E-02
RMM:   2    -0.643228421203E+03   -0.20296E-03   -0.18790E-04  8799   0.458E-02    0.199E-01
RMM:   3    -0.643228227217E+03    0.19399E-03   -0.60535E-05  6338   0.378E-02    0.239E-02
RMM:   4    -0.643228222461E+03    0.47558E-05   -0.12587E-05  5111   0.142E-02
  48 F= -.64322822E+03 E0= -.64316225E+03  d E =-.166050E-03
       N       E                     dE             d eps       ncg     rms          rms(c)
DAV:   1    -0.643226078793E+03    0.21484E-02   -0.11380E-01  9048   0.190E+00    0.825E-02
RMM:   2    -0.643228335760E+03   -0.22570E-02   -0.22912E-02 14082   0.430E-01    0.128E-01
RMM:   3    -0.643228458419E+03   -0.12266E-03   -0.23235E-03 13467   0.119E-01    0.130E-01
RMM:   4    -0.643228415374E+03    0.43045E-04   -0.29193E-04 11758   0.603E-02    0.916E-02
RMM:   5    -0.643228383537E+03    0.31837E-04   -0.10629E-04 10267   0.332E-02    0.469E-02
RMM:   6    -0.643228384479E+03   -0.94234E-06   -0.67001E-05  9739   0.236E-02
  49 F= -.64322838E+03 E0= -.64316233E+03  d E =-.162018E-03
       N       E                     dE             d eps       ncg     rms          rms(c)
DAV:   1    -0.643228379741E+03    0.37960E-05   -0.13809E-03 12264   0.205E-01    0.568E-02
RMM:   2    -0.643229223866E+03   -0.84412E-03   -0.90864E-04 10216   0.976E-02    0.381E-01
RMM:   3    -0.643228430847E+03    0.79302E-03   -0.29655E-04  8238   0.787E-02    0.894E-02
RMM:   4    -0.643228383218E+03    0.47629E-04   -0.53128E-05  6787   0.295E-02    0.328E-02
RMM:   5    -0.643228378826E+03    0.43921E-05   -0.16815E-05  5429   0.169E-02
  50 F= -.64322838E+03 E0= -.64316234E+03  d E =-.156365E-03
       N       E                     dE             d eps       ncg     rms          rms(c)
DAV:   1    -0.643227902588E+03    0.48063E-03   -0.36022E-02  9336   0.105E+00    0.876E-02
RMM:   2    -0.643228814994E+03   -0.91241E-03   -0.75003E-03 14260   0.252E-01    0.255E-01
RMM:   3    -0.643228548245E+03    0.26675E-03   -0.77041E-04 11982   0.967E-02    0.126E-01
RMM:   4    -0.643228518244E+03    0.30002E-04   -0.25515E-04 11151   0.578E-02    0.101E-01
RMM:   5    -0.643228505164E+03    0.13080E-04   -0.12233E-04  9433   0.374E-02    0.986E-02
RMM:   6    -0.643228454570E+03    0.50594E-04   -0.68083E-05  8717   0.299E-02    0.441E-02
RMM:   7    -0.643228454514E+03    0.55486E-07   -0.54676E-05  8888   0.223E-02
  51 F= -.64322845E+03 E0= -.64316233E+03  d E =-.756882E-04
       N       E                     dE             d eps       ncg     rms          rms(c)
DAV:   1    -0.643228433031E+03    0.21539E-04   -0.16784E-03 12120   0.223E-01    0.575E-02
RMM:   2    -0.643229485239E+03   -0.10522E-02   -0.92804E-04 10222   0.102E-01    0.455E-01
RMM:   3    -0.643228472339E+03    0.10129E-02   -0.33144E-04  7881   0.816E-02    0.602E-02
RMM:   4    -0.643228438182E+03    0.34157E-04   -0.51660E-05  7620   0.243E-02    0.223E-02
RMM:   5    -0.643228441182E+03   -0.29996E-05   -0.13399E-05  5322   0.178E-02
  52 F= -.64322844E+03 E0= -.64316233E+03  d E =-.623559E-04
       N       E                     dE             d eps       ncg     rms          rms(c)
DAV:   1    -0.643228435171E+03    0.30116E-05   -0.55046E-04 12072   0.130E-01    0.200E-02
RMM:   2    -0.643228549460E+03   -0.11429E-03   -0.14578E-04  7943   0.418E-02    0.149E-01
RMM:   3    -0.643228445878E+03    0.10358E-03   -0.38314E-05  5799   0.322E-02    0.297E-02
RMM:   4    -0.643228440270E+03    0.56079E-05   -0.87262E-06  4668   0.137E-02
  53 F= -.64322844E+03 E0= -.64316231E+03  d E =-.614440E-04
       N       E                     dE             d eps       ncg     rms          rms(c)
DAV:   1    -0.643228177550E+03    0.26833E-03   -0.11084E-02  9768   0.667E-01    0.295E-02
RMM:   2    -0.643228504146E+03   -0.32660E-03   -0.28843E-03 13324   0.134E-01    0.104E-01
RMM:   3    -0.643228466763E+03    0.37383E-04   -0.23288E-04  7777   0.477E-02    0.407E-02
RMM:   4    -0.643228464809E+03    0.19542E-05   -0.46472E-05  6232   0.267E-02
  54 F= -.64322846E+03 E0= -.64316232E+03  d E =-.245390E-04
       N       E                     dE             d eps       ncg     rms          rms(c)
DAV:   1    -0.643228451354E+03    0.15409E-04   -0.47372E-04 12984   0.140E-01    0.259E-02
RMM:   2    -0.643228654424E+03   -0.20307E-03   -0.20958E-04  7760   0.468E-02    0.202E-01
RMM:   3    -0.643228462427E+03    0.19200E-03   -0.65187E-05  6337   0.382E-02    0.276E-02
RMM:   4    -0.643228457164E+03    0.52625E-05   -0.10312E-05  4712   0.128E-02
  55 F= -.64322846E+03 E0= -.64316231E+03  d E =-.168941E-04
       N       E                     dE             d eps       ncg     rms          rms(c)
DAV:   1    -0.643228456453E+03    0.59735E-05   -0.24940E-04 12720   0.101E-01    0.137E-02
RMM:   2    -0.643228507310E+03   -0.50857E-04   -0.72257E-05  6403   0.271E-02    0.936E-02
RMM:   3    -0.643228462398E+03    0.44913E-04   -0.22398E-05  5542   0.256E-02    0.163E-02
RMM:   4    -0.643228460536E+03    0.18611E-05   -0.44851E-06  4443   0.847E-03
  56 F= -.64322846E+03 E0= -.64316231E+03  d E =-.202662E-04
