  64  64   0   0
  0.1129557E+02  0.8932500E-09  0.9055600E-09  0.8937200E-09  0.5000000E-15
  1.000000000000000E-004
  CAR 
 HECN                                    
     15.73638726    -49.92798183  301      9.16790324      1.00000000
    -49.928  0.0000E+00  0.0000E+00
    -49.709  0.0000E+00  0.0000E+00
    -49.490  0.0000E+00  0.0000E+00
    -49.271  0.0000E+00  0.0000E+00
    -49.052  0.0000E+00  0.0000E+00
    -48.834  0.0000E+00  0.0000E+00
    -48.615  0.0000E+00  0.0000E+00
    -48.396  0.0000E+00  0.0000E+00
    -48.177  0.0000E+00  0.0000E+00
    -47.958  0.0000E+00  0.0000E+00
    -47.739  0.0000E+00  0.0000E+00
    -47.520  0.1522E-16  0.3331E-17
    -47.301  0.1863E-07  0.4078E-08
    -47.083  0.2238E-02  0.4898E-03
    -46.864  0.9864E-01  0.2208E-01
    -46.645  0.2489E+00  0.7657E-01
    -46.426  0.2628E+00  0.1341E+00
    -46.207  0.2698E-01  0.1400E+00
    -45.988  0.4377E-05  0.1400E+00
    -45.769  0.1029E-12  0.1400E+00
    -45.550  0.0000E+00  0.1400E+00
    -45.331  0.0000E+00  0.1400E+00
    -45.113  0.0000E+00  0.1400E+00
    -44.894  0.0000E+00  0.1400E+00
    -44.675  0.0000E+00  0.1400E+00
    -44.456  0.0000E+00  0.1400E+00
    -44.237  0.0000E+00  0.1400E+00
    -44.018  0.0000E+00  0.1400E+00
    -43.799  0.0000E+00  0.1400E+00
    -43.580  0.0000E+00  0.1400E+00
    -43.362  0.0000E+00  0.1400E+00
    -43.143  0.0000E+00  0.1400E+00
    -42.924  0.0000E+00  0.1400E+00
    -42.705  0.0000E+00  0.1400E+00
    -42.486  0.0000E+00  0.1400E+00
    -42.267  0.0000E+00  0.1400E+00
    -42.048  0.0000E+00  0.1400E+00
    -41.829  0.0000E+00  0.1400E+00
    -41.610  0.0000E+00  0.1400E+00
    -41.392  0.0000E+00  0.1400E+00
    -41.173  0.0000E+00  0.1400E+00
    -40.954  0.0000E+00  0.1400E+00
    -40.735  0.0000E+00  0.1400E+00
    -40.516  0.0000E+00  0.1400E+00
    -40.297  0.0000E+00  0.1400E+00
    -40.078  0.0000E+00  0.1400E+00
    -39.859  0.0000E+00  0.1400E+00
    -39.641  0.0000E+00  0.1400E+00
    -39.422  0.0000E+00  0.1400E+00
    -39.203  0.0000E+00  0.1400E+00
    -38.984  0.0000E+00  0.1400E+00
    -38.765  0.0000E+00  0.1400E+00
    -38.546  0.0000E+00  0.1400E+00
    -38.327  0.0000E+00  0.1400E+00
    -38.108  0.0000E+00  0.1400E+00
    -37.890  0.0000E+00  0.1400E+00
    -37.671  0.0000E+00  0.1400E+00
    -37.452  0.0000E+00  0.1400E+00
    -37.233  0.0000E+00  0.1400E+00
    -37.014  0.0000E+00  0.1400E+00
    -36.795  0.0000E+00  0.1400E+00
    -36.576  0.0000E+00  0.1400E+00
    -36.357  0.0000E+00  0.1400E+00
    -36.138  0.0000E+00  0.1400E+00
    -35.920  0.0000E+00  0.1400E+00
    -35.701  0.0000E+00  0.1400E+00
    -35.482  0.0000E+00  0.1400E+00
    -35.263  0.0000E+00  0.1400E+00
    -35.044  0.9864E-09  0.1400E+00
    -34.825  0.5625E-03  0.1401E+00
    -34.606  0.8570E-01  0.1589E+00
    -34.387  0.8648E+00  0.3482E+00
    -34.169  0.6723E+00  0.4953E+00
    -33.950  0.2136E-01  0.5000E+00
    -33.731  0.1114E-05  0.5000E+00
    -33.512  0.8068E-14  0.5000E+00
    -33.293  0.0000E+00  0.5000E+00
    -33.074  0.0000E+00  0.5000E+00
    -32.855  0.0000E+00  0.5000E+00
    -32.636  0.0000E+00  0.5000E+00
    -32.417  0.0000E+00  0.5000E+00
    -32.199  0.0000E+00  0.5000E+00
    -31.980  0.0000E+00  0.5000E+00
    -31.761  0.0000E+00  0.5000E+00
    -31.542  0.0000E+00  0.5000E+00
    -31.323  0.0000E+00  0.5000E+00
    -31.104  0.2525E-11  0.5000E+00
    -30.885  0.2463E-04  0.5000E+00
    -30.666  0.3326E-01  0.5073E+00
    -30.448  0.2083E+00  0.5529E+00
    -30.229  0.4910E+00  0.6603E+00
    -30.010  0.7743E+00  0.8298E+00
    -29.791  0.1377E+00  0.8600E+00
    -29.572  0.2168E-03  0.8600E+00
    -29.353  0.9514E-10  0.8600E+00
    -29.134  0.0000E+00  0.8600E+00
    -28.915  0.0000E+00  0.8600E+00
    -28.697  0.0000E+00  0.8600E+00
    -28.478  0.0000E+00  0.8600E+00
    -28.259  0.0000E+00  0.8600E+00
    -28.040  0.0000E+00  0.8600E+00
    -27.821  0.0000E+00  0.8600E+00
    -27.602  0.0000E+00  0.8600E+00
    -27.383  0.0000E+00  0.8600E+00
    -27.164  0.0000E+00  0.8600E+00
    -26.945  0.0000E+00  0.8600E+00
    -26.727  0.0000E+00  0.8600E+00
    -26.508  0.0000E+00  0.8600E+00
    -26.289  0.0000E+00  0.8600E+00
    -26.070  0.0000E+00  0.8600E+00
    -25.851  0.0000E+00  0.8600E+00
    -25.632  0.0000E+00  0.8600E+00
    -25.413  0.0000E+00  0.8600E+00
    -25.194  0.0000E+00  0.8600E+00
    -24.976  0.0000E+00  0.8600E+00
    -24.757  0.0000E+00  0.8600E+00
    -24.538  0.0000E+00  0.8600E+00
    -24.319  0.0000E+00  0.8600E+00
    -24.100  0.0000E+00  0.8600E+00
    -23.881  0.0000E+00  0.8600E+00
    -23.662  0.5256E-13  0.8600E+00
    -23.443  0.3407E-05  0.8600E+00
    -23.224  0.3169E-01  0.8669E+00
    -23.006  0.3933E+00  0.9530E+00
    -22.787  0.8449E+00  0.1138E+01
    -22.568  0.5260E+00  0.1253E+01
    -22.349  0.1222E+00  0.1280E+01
    -22.130  0.8516E-01  0.1298E+01
    -21.911  0.3216E+00  0.1369E+01
    -21.692  0.3944E+00  0.1455E+01
    -21.473  0.3838E+00  0.1539E+01
    -21.255  0.4561E+00  0.1639E+01
    -21.036  0.1350E+00  0.1669E+01
    -20.817  0.1430E+00  0.1700E+01
    -20.598  0.4566E-03  0.1700E+01
    -20.379  0.2992E-09  0.1700E+01
    -20.160  0.0000E+00  0.1700E+01
    -19.941  0.0000E+00  0.1700E+01
    -19.722  0.0000E+00  0.1700E+01
    -19.503  0.0000E+00  0.1700E+01
    -19.285  0.0000E+00  0.1700E+01
    -19.066  0.0000E+00  0.1700E+01
    -18.847  0.0000E+00  0.1700E+01
    -18.628  0.0000E+00  0.1700E+01
    -18.409  0.0000E+00  0.1700E+01
    -18.190  0.0000E+00  0.1700E+01
    -17.971  0.0000E+00  0.1700E+01
    -17.752  0.0000E+00  0.1700E+01
    -17.534  0.0000E+00  0.1700E+01
    -17.315  0.0000E+00  0.1700E+01
    -17.096  0.0000E+00  0.1700E+01
    -16.877  0.0000E+00  0.1700E+01
    -16.658  0.0000E+00  0.1700E+01
    -16.439  0.0000E+00  0.1700E+01
    -16.220  0.0000E+00  0.1700E+01
    -16.001  0.0000E+00  0.1700E+01
    -15.783  0.0000E+00  0.1700E+01
    -15.564  0.0000E+00  0.1700E+01
    -15.345  0.0000E+00  0.1700E+01
    -15.126  0.0000E+00  0.1700E+01
    -14.907  0.0000E+00  0.1700E+01
    -14.688  0.0000E+00  0.1700E+01
    -14.469  0.0000E+00  0.1700E+01
    -14.250  0.0000E+00  0.1700E+01
    -14.031  0.0000E+00  0.1700E+01
    -13.813  0.0000E+00  0.1700E+01
    -13.594  0.0000E+00  0.1700E+01
    -13.375  0.0000E+00  0.1700E+01
    -13.156  0.0000E+00  0.1700E+01
    -12.937  0.0000E+00  0.1700E+01
    -12.718  0.0000E+00  0.1700E+01
    -12.499  0.0000E+00  0.1700E+01
    -12.280  0.0000E+00  0.1700E+01
    -12.062  0.0000E+00  0.1700E+01
    -11.843  0.0000E+00  0.1700E+01
    -11.624  0.0000E+00  0.1700E+01
    -11.405  0.0000E+00  0.1700E+01
    -11.186  0.0000E+00  0.1700E+01
    -10.967  0.0000E+00  0.1700E+01
    -10.748  0.0000E+00  0.1700E+01
    -10.529  0.0000E+00  0.1700E+01
    -10.310  0.0000E+00  0.1700E+01
    -10.092  0.0000E+00  0.1700E+01
     -9.873  0.0000E+00  0.1700E+01
     -9.654  0.0000E+00  0.1700E+01
     -9.435  0.0000E+00  0.1700E+01
     -9.216  0.0000E+00  0.1700E+01
     -8.997  0.0000E+00  0.1700E+01
     -8.778  0.0000E+00  0.1700E+01
     -8.559  0.0000E+00  0.1700E+01
     -8.341  0.0000E+00  0.1700E+01
     -8.122  0.0000E+00  0.1700E+01
     -7.903  0.9972E-13  0.1700E+01
     -7.684  0.1187E-05  0.1700E+01
     -7.465  0.3334E-02  0.1701E+01
     -7.246  0.5412E-01  0.1713E+01
     -7.027  0.5962E-01  0.1726E+01
     -6.808  0.7751E-01  0.1743E+01
     -6.589  0.1028E+00  0.1765E+01
     -6.371  0.1158E+00  0.1790E+01
     -6.152  0.1245E+00  0.1818E+01
     -5.933  0.1178E+00  0.1843E+01
     -5.714  0.1809E+00  0.1883E+01
     -5.495  0.2301E+00  0.1933E+01
     -5.276  0.1074E+00  0.1957E+01
     -5.057  0.1392E-01  0.1960E+01
     -4.838  0.1759E-05  0.1960E+01
     -4.620  0.2638E-13  0.1960E+01
     -4.401  0.1892E-07  0.1960E+01
     -4.182  0.7636E-03  0.1960E+01
     -3.963  0.4715E-01  0.1970E+01
     -3.744  0.4342E-01  0.1980E+01
     -3.525  0.5135E-01  0.1991E+01
     -3.306  0.1248E+00  0.2019E+01
     -3.087  0.1238E+00  0.2046E+01
     -2.869  0.2232E+00  0.2094E+01
     -2.650  0.2040E+00  0.2139E+01
     -2.431  0.2056E+00  0.2184E+01
     -2.212  0.2389E+00  0.2236E+01
     -1.993  0.2115E+00  0.2283E+01
     -1.774  0.1392E+00  0.2313E+01
     -1.555  0.9188E-01  0.2333E+01
     -1.336  0.2881E-01  0.2340E+01
     -1.117  0.1709E-02  0.2340E+01
     -0.899  0.7216E-06  0.2340E+01
     -0.680  0.5349E-13  0.2340E+01
     -0.461  0.0000E+00  0.2340E+01
     -0.242  0.0000E+00  0.2340E+01
     -0.023  0.0000E+00  0.2340E+01
      0.196  0.4095E-13  0.2340E+01
      0.415  0.5760E-06  0.2340E+01
      0.634  0.1133E-02  0.2340E+01
      0.852  0.7282E-02  0.2342E+01
      1.071  0.3156E-01  0.2349E+01
      1.290  0.8469E-01  0.2367E+01
      1.509  0.1001E+00  0.2389E+01
      1.728  0.1592E+00  0.2424E+01
      1.947  0.1798E+00  0.2463E+01
      2.166  0.2331E+00  0.2514E+01
      2.385  0.2729E+00  0.2574E+01
      2.604  0.2662E+00  0.2632E+01
      2.822  0.2918E+00  0.2696E+01
      3.041  0.3329E+00  0.2769E+01
      3.260  0.3434E+00  0.2844E+01
      3.479  0.4232E+00  0.2937E+01
      3.698  0.4998E+00  0.3046E+01
      3.917  0.5662E+00  0.3170E+01
      4.136  0.6587E+00  0.3314E+01
      4.355  0.7022E+00  0.3468E+01
      4.573  0.6437E+00  0.3609E+01
      4.792  0.5663E+00  0.3733E+01
      5.011  0.4966E+00  0.3842E+01
      5.230  0.3969E+00  0.3929E+01
      5.449  0.3239E+00  0.4000E+01
      5.668  0.2957E+00  0.4064E+01
      5.887  0.3015E+00  0.4130E+01
      6.106  0.2513E+00  0.4185E+01
      6.324  0.1787E+00  0.4224E+01
      6.543  0.1226E+00  0.4251E+01
      6.762  0.1068E+00  0.4275E+01
      6.981  0.1459E+00  0.4306E+01
      7.200  0.2002E+00  0.4350E+01
      7.419  0.1900E+00  0.4392E+01
      7.638  0.1744E+00  0.4430E+01
      7.857  0.1926E+00  0.4472E+01
      8.076  0.2388E+00  0.4524E+01
      8.294  0.2751E+00  0.4585E+01
      8.513  0.2770E+00  0.4645E+01
      8.732  0.2843E+00  0.4708E+01
      8.951  0.2660E+00  0.4766E+01
      9.170  0.2503E+00  0.4821E+01
      9.389  0.3052E+00  0.4887E+01
      9.608  0.3800E+00  0.4971E+01
      9.827  0.4669E+00  0.5073E+01
     10.045  0.4620E+00  0.5174E+01
     10.264  0.4853E+00  0.5280E+01
     10.483  0.4633E+00  0.5381E+01
     10.702  0.4517E+00  0.5480E+01
     10.921  0.4278E+00  0.5574E+01
     11.140  0.4559E+00  0.5674E+01
     11.359  0.4253E+00  0.5767E+01
     11.578  0.4269E+00  0.5860E+01
     11.797  0.4764E+00  0.5965E+01
     12.015  0.3824E+00  0.6048E+01
     12.234  0.3045E+00  0.6115E+01
     12.453  0.3152E+00  0.6184E+01
     12.672  0.2048E+00  0.6229E+01
     12.891  0.5091E-01  0.6240E+01
     13.110  0.5046E-03  0.6240E+01
     13.329  0.3303E-08  0.6240E+01
     13.548  0.3006E-17  0.6240E+01
     13.766  0.0000E+00  0.6240E+01
     13.985  0.0000E+00  0.6240E+01
     14.204  0.0000E+00  0.6240E+01
     14.423  0.0000E+00  0.6240E+01
     14.642  0.0000E+00  0.6240E+01
     14.861  0.0000E+00  0.6240E+01
     15.080  0.0000E+00  0.6240E+01
     15.299  0.0000E+00  0.6240E+01
     15.518  0.0000E+00  0.6240E+01
     15.736  0.0000E+00  0.6240E+01
