   64   64  100    1
  0.1129557E+02  0.8932500E-09  0.9055600E-09  0.8937200E-09  0.5000000E-15
  1.000000000000000E-004
  CAR 
 HECN                                    
    482     14    312
 
  0.0000000E+00  0.0000000E+00  0.0000000E+00  0.3703704E-01
    1      -46.943237   1.000000
    2      -46.810697   1.000000
    3      -46.675759   1.000000
    4      -46.659525   1.000000
    5      -46.650915   1.000000
    6      -46.520398   1.000000
    7      -46.484592   1.000000
    8      -34.648182   1.000000
    9      -34.500764   1.000000
   10      -34.489253   1.000000
   11      -34.488519   1.000000
   12      -34.461300   1.000000
   13      -34.445737   1.000000
   14      -34.443612   1.000000
   15      -34.421105   1.000000
   16      -34.415494   1.000000
   17      -34.408576   1.000000
   18      -34.398180   1.000000
   19      -34.392970   1.000000
   20      -34.361366   1.000000
   21      -34.358478   1.000000
   22      -34.331193   1.000000
   23      -34.313523   1.000000
   24      -34.268719   1.000000
   25      -34.253225   1.000000
   26      -30.640636   1.000000
   27      -30.486035   1.000000
   28      -30.453105   1.000000
   29      -30.398297   1.000000
   30      -30.374923   1.000000
   31      -30.270763   1.000000
   32      -30.262341   1.000000
   33      -30.250089   1.000000
   34      -30.197962   1.000000
   35      -30.179933   1.000000
   36      -30.172900   1.000000
   37      -30.123675   1.000000
   38      -30.121407   1.000000
   39      -30.105867   1.000000
   40      -30.099224   1.000000
   41      -30.073742   1.000000
   42      -30.022489   1.000000
   43      -29.996708   1.000000
   44      -23.158222   1.000000
   45      -23.141627   1.000000
   46      -23.097505   1.000000
   47      -23.073931   1.000000
   48      -23.001712   1.000000
   49      -22.948070   1.000000
   50      -22.920032   1.000000
   51      -22.895743   1.000000
   52      -22.892787   1.000000
   53      -22.862082   1.000000
   54      -22.843076   1.000000
   55      -22.832192   1.000000
   56      -22.818147   1.000000
   57      -22.807196   1.000000
   58      -22.794909   1.000000
   59      -22.782959   1.000000
   60      -22.732423   1.000000
   61      -22.691298   1.000000
   62      -22.665779   1.000000
   63      -22.593570   1.000000
   64      -22.493535   1.000000
   65      -22.191467   1.000000
   66      -22.022073   1.000000
   67      -22.010658   1.000000
   68      -21.950301   1.000000
   69      -21.909390   1.000000
   70      -21.857838   1.000000
   71      -21.817774   1.000000
   72      -21.788563   1.000000
   73      -21.778345   1.000000
   74      -21.512844   1.000000
   75      -21.500475   1.000000
   76      -21.486020   1.000000
   77      -21.480748   1.000000
   78      -21.469416   1.000000
   79      -21.449314   1.000000
   80      -21.436732   1.000000
   81      -21.421605   1.000000
   82      -21.384341   1.000000
   83      -21.061152   1.000000
   84      -21.019192   1.000000
   85      -21.013952   1.000000
   86       -7.439179   1.000000
   87       -6.998670   1.000000
   88       -6.733677   1.000000
   89       -6.506461   1.000000
   90       -6.329219   1.000000
   91       -6.235615   1.000000
   92       -6.039848   1.000000
   93       -5.851585   1.000000
   94       -5.772113   1.000000
   95       -5.677866   1.000000
   96       -5.619863   1.000000
   97       -5.548112   1.000000
   98       -5.355462   1.000000
   99       -4.031433   1.000000
  100       -3.437663   1.000000
  101       -3.434472   1.000000
  102       -3.122378   1.000000
  103       -3.060379   1.000000
  104       -2.978167   1.000000
  105       -2.855710   1.000000
  106       -2.754438   1.000000
  107       -2.636364   1.000000
  108       -2.549328   1.000000
  109       -2.388366   1.000000
  110       -2.328486   1.000000
  111       -2.260895   1.000000
  112       -2.165048   1.000000
  113       -2.018098   1.000000
  114       -1.956803   1.000000
  115       -1.720250   1.000000
  116       -1.410280   1.000000
  117       -1.368178   1.000000
  118        0.668034   1.000000
  119        0.776420   1.000000
  120        0.900366   1.000000
  121        1.050774   1.000000
  122        1.583696   1.000000
  123        1.742423   1.000000
  124        1.826972   1.000000
  125        1.909523   1.000000
  126        1.966118   1.000000
  127        2.141651   1.000000
  128        2.161607   1.000000
  129        2.177534   1.000000
  130        2.230308   1.000000
  131        2.302681   1.000000
  132        2.321531   1.000000
  133        2.387812   1.000000
  134        2.662363   1.000000
  135        2.818921   1.000000
  136        2.910123   1.000000
  137        2.967333   1.000000
  138        3.019878   1.000000
  139        3.072211   1.000000
  140        3.132142   1.000000
  141        3.196845   1.000000
  142        3.214982   1.000000
  143        3.277401   1.000000
  144        3.297743   1.000000
  145        3.320084   1.000000
  146        3.371486   1.000000
  147        3.395785   1.000000
  148        3.490850   1.000000
  149        3.526651   1.000000
  150        3.544042   1.000000
  151        3.581365   1.000000
  152        3.646737   1.000000
  153        3.675135   1.000000
  154        3.693904   1.000000
  155        3.778815   1.000000
  156        3.804302   1.000000
  157        3.811718   1.000000
  158        3.896708   1.000000
  159        3.917520   1.000000
  160        3.944544   1.000000
  161        3.964451   1.000000
  162        3.987519   1.000000
  163        4.042385   1.000000
  164        4.050049   1.000000
  165        4.076344   1.000000
  166        4.095071   1.000000
  167        4.119595   1.000000
  168        4.136429   1.000000
  169        4.160494   1.000000
  170        4.184319   1.000000
  171        4.248093   1.000000
  172        4.273471   1.000000
  173        4.302217   1.000000
  174        4.302502   1.000000
  175        4.334097   1.000000
  176        4.346123   1.000000
  177        4.349802   1.000000
  178        4.372366   1.000000
  179        4.431266   1.000000
  180        4.464046   1.000000
  181        4.509212   1.000000
  182        4.552284   1.000000
  183        4.576279   1.000000
  184        4.619430   1.000000
  185        4.637643   1.000000
  186        4.652220   1.000000
  187        4.693998   1.000000
  188        4.723635   1.000000
  189        4.790927   1.000000
  190        4.829902   1.000000
  191        4.904312   1.000000
  192        4.948124   1.000000
  193        4.999614   1.000000
  194        5.104266   1.000000
  195        5.124680   1.000000
  196        5.638546   1.000000
  197        5.724012   1.000000
  198        5.760428   1.000000
  199        5.813939   1.000000
  200        5.918818   1.000000
  201        5.958061   1.000000
  202        6.053115   1.000000
  203        6.086348   1.000000
  204        6.133517   1.000000
  205        6.211748   1.000000
  206        6.272917   1.000000
  207        6.320274   1.000000
  208        6.379020   1.000000
  209        6.438827   1.000000
  210        6.458419   1.000000
  211        6.555342   1.000000
  212        6.591725   1.000000
  213        6.639496   1.000000
  214        6.688839   1.000000
  215        6.702146   1.000000
  216        6.761506   1.000000
  217        6.845571   1.000000
  218        7.033401   1.000000
  219        7.064729   1.000000
  220        7.480249   1.000000
  221        7.574392   1.000000
  222        7.639034   1.000000
  223        7.655617   1.000000
  224        7.667676   1.000000
  225        7.809859   1.000000
  226        8.238790   1.000000
  227        8.288904   1.000000
  228        8.403602   1.000000
  229        8.547982   1.000000
  230        8.602292   1.000000
  231        8.650899   1.000000
  232        8.768075   1.000000
  233        8.801631   1.000000
  234        8.851575   0.999996
  235        8.867541   0.999989
  236        8.969093   0.997535
  237        8.993239   0.993247
  238        9.097474   0.840381
  239        9.134539   0.681480
  240        9.163429   0.525228
  241        9.298378   0.032505
  242        9.332468   0.009975
  243        9.380555   0.001318
  244        9.445922   0.000042
  245        9.487751   0.000003
  246        9.545335   0.000000
  247        9.579797   0.000000
  248        9.630986   0.000000
  249        9.700860   0.000000
  250        9.704204   0.000000
  251        9.767340   0.000000
  252        9.801043   0.000000
  253        9.882611   0.000000
  254        9.894614   0.000000
  255        9.945361   0.000000
  256        9.961397   0.000000
  257        9.992330   0.000000
  258       10.010592   0.000000
  259       10.082053   0.000000
  260       10.160522   0.000000
  261       10.173550   0.000000
  262       10.184315   0.000000
  263       10.215035   0.000000
  264       10.237767   0.000000
  265       10.278769   0.000000
  266       10.323711   0.000000
  267       10.383413   0.000000
  268       10.412818   0.000000
  269       10.453212   0.000000
  270       10.480469   0.000000
  271       10.537240   0.000000
  272       10.613008   0.000000
  273       10.656661   0.000000
  274       10.722213   0.000000
  275       10.735844   0.000000
  276       10.840466   0.000000
  277       10.842038   0.000000
  278       10.862074   0.000000
  279       10.898172   0.000000
  280       10.921245   0.000000
  281       10.932265   0.000000
  282       11.017451   0.000000
  283       11.058519   0.000000
  284       11.124256   0.000000
  285       11.162978   0.000000
  286       11.170517   0.000000
  287       11.228091   0.000000
  288       11.296168   0.000000
  289       11.325441   0.000000
  290       11.361621   0.000000
  291       11.385188   0.000000
  292       11.441014   0.000000
  293       11.486362   0.000000
  294       11.529726   0.000000
  295       11.536026   0.000000
  296       11.554682   0.000000
  297       11.620632   0.000000
  298       11.657074   0.000000
  299       11.690444   0.000000
  300       11.718364   0.000000
  301       11.767816   0.000000
  302       11.835503   0.000000
  303       11.876862   0.000000
  304       11.906517   0.000000
  305       11.953691   0.000000
  306       11.997845   0.000000
  307       12.082834   0.000000
  308       12.157703   0.000000
  309       12.211498   0.000000
  310       12.244520   0.000000
  311       12.270852   0.000000
  312       12.329800   0.000000
 
  0.3333333E+00  0.0000000E+00  0.2168404E-18  0.7407407E-01
    1      -46.943237   1.000000
    2      -46.810697   1.000000
    3      -46.675759   1.000000
    4      -46.659525   1.000000
    5      -46.650915   1.000000
    6      -46.520397   1.000000
    7      -46.484593   1.000000
    8      -34.648177   1.000000
    9      -34.500762   1.000000
   10      -34.489219   1.000000
   11      -34.488521   1.000000
   12      -34.461286   1.000000
   13      -34.445755   1.000000
   14      -34.443640   1.000000
   15      -34.421139   1.000000
   16      -34.415511   1.000000
   17      -34.408622   1.000000
   18      -34.398190   1.000000
   19      -34.392973   1.000000
   20      -34.361252   1.000000
   21      -34.358508   1.000000
   22      -34.331230   1.000000
   23      -34.313512   1.000000
   24      -34.268732   1.000000
   25      -34.253214   1.000000
   26      -30.640630   1.000000
   27      -30.486044   1.000000
   28      -30.453082   1.000000
   29      -30.398308   1.000000
   30      -30.374944   1.000000
   31      -30.270776   1.000000
   32      -30.262280   1.000000
   33      -30.250093   1.000000
   34      -30.198042   1.000000
   35      -30.179831   1.000000
   36      -30.172971   1.000000
   37      -30.123636   1.000000
   38      -30.121481   1.000000
   39      -30.106099   1.000000
   40      -30.099072   1.000000
   41      -30.073747   1.000000
   42      -30.022497   1.000000
   43      -29.996639   1.000000
   44      -23.157603   1.000000
   45      -23.141719   1.000000
   46      -23.096895   1.000000
   47      -23.074316   1.000000
   48      -23.001700   1.000000
   49      -22.948235   1.000000
   50      -22.919964   1.000000
   51      -22.896318   1.000000
   52      -22.892560   1.000000
   53      -22.862445   1.000000
   54      -22.843236   1.000000
   55      -22.832353   1.000000
   56      -22.818329   1.000000
   57      -22.806967   1.000000
   58      -22.795046   1.000000
   59      -22.782616   1.000000
   60      -22.732606   1.000000
   61      -22.691502   1.000000
   62      -22.665920   1.000000
   63      -22.593785   1.000000
   64      -22.493672   1.000000
   65      -22.191919   1.000000
   66      -22.022805   1.000000
   67      -22.010498   1.000000
   68      -21.948904   1.000000
   69      -21.909161   1.000000
   70      -21.857110   1.000000
   71      -21.817392   1.000000
   72      -21.788045   1.000000
   73      -21.776772   1.000000
   74      -21.513095   1.000000
   75      -21.501519   1.000000
   76      -21.486892   1.000000
   77      -21.480996   1.000000
   78      -21.470437   1.000000
   79      -21.449211   1.000000
   80      -21.435956   1.000000
   81      -21.421883   1.000000
   82      -21.384634   1.000000
   83      -21.061161   1.000000
   84      -21.019200   1.000000
   85      -21.013950   1.000000
   86       -7.338368   1.000000
   87       -6.942247   1.000000
   88       -6.750953   1.000000
   89       -6.586209   1.000000
   90       -6.393835   1.000000
   91       -6.230890   1.000000
   92       -6.015159   1.000000
   93       -5.896874   1.000000
   94       -5.746060   1.000000
   95       -5.668051   1.000000
   96       -5.584898   1.000000
   97       -5.532730   1.000000
   98       -5.354169   1.000000
   99       -3.944444   1.000000
  100       -3.557358   1.000000
  101       -3.424399   1.000000
  102       -3.219396   1.000000
  103       -3.007029   1.000000
  104       -2.968513   1.000000
  105       -2.843473   1.000000
  106       -2.803561   1.000000
  107       -2.622802   1.000000
  108       -2.534712   1.000000
  109       -2.487668   1.000000
  110       -2.336662   1.000000
  111       -2.302421   1.000000
  112       -2.199339   1.000000
  113       -2.162445   1.000000
  114       -2.001198   1.000000
  115       -1.930761   1.000000
  116       -1.553102   1.000000
  117       -1.510385   1.000000
  118        0.954446   1.000000
  119        1.113500   1.000000
  120        1.186819   1.000000
  121        1.340360   1.000000
  122        1.731066   1.000000
  123        1.802213   1.000000
  124        1.816082   1.000000
  125        1.935281   1.000000
  126        1.993278   1.000000
  127        2.037380   1.000000
  128        2.213608   1.000000
  129        2.282860   1.000000
  130        2.325740   1.000000
  131        2.502304   1.000000
  132        2.545729   1.000000
  133        2.605793   1.000000
  134        2.723041   1.000000
  135        2.839092   1.000000
  136        2.902955   1.000000
  137        2.919117   1.000000
  138        2.980275   1.000000
  139        3.074726   1.000000
  140        3.104048   1.000000
  141        3.132437   1.000000
  142        3.174585   1.000000
  143        3.218208   1.000000
  144        3.257446   1.000000
  145        3.310101   1.000000
  146        3.397109   1.000000
  147        3.412542   1.000000
  148        3.479367   1.000000
  149        3.519539   1.000000
  150        3.561243   1.000000
  151        3.663149   1.000000
  152        3.699933   1.000000
  153        3.735078   1.000000
  154        3.771314   1.000000
  155        3.803052   1.000000
  156        3.819621   1.000000
  157        3.859713   1.000000
  158        3.905145   1.000000
  159        3.930434   1.000000
  160        3.974934   1.000000
  161        4.013289   1.000000
  162        4.030317   1.000000
  163        4.063559   1.000000
  164        4.097966   1.000000
  165        4.111808   1.000000
  166        4.138629   1.000000
  167        4.168351   1.000000
  168        4.184488   1.000000
  169        4.232898   1.000000
  170        4.256126   1.000000
  171        4.263843   1.000000
  172        4.296793   1.000000
  173        4.325062   1.000000
  174        4.349758   1.000000
  175        4.373830   1.000000
  176        4.415877   1.000000
  177        4.450410   1.000000
  178        4.483792   1.000000
  179        4.509903   1.000000
  180        4.530392   1.000000
  181        4.567843   1.000000
  182        4.597472   1.000000
  183        4.609438   1.000000
  184        4.661883   1.000000
  185        4.701639   1.000000
  186        4.745806   1.000000
  187        4.760413   1.000000
  188        4.799490   1.000000
  189        4.849911   1.000000
  190        4.920370   1.000000
  191        4.947439   1.000000
  192        4.999443   1.000000
  193        5.025000   1.000000
  194        5.077666   1.000000
  195        5.091680   1.000000
  196        5.208527   1.000000
  197        5.292561   1.000000
  198        5.348404   1.000000
  199        5.418589   1.000000
  200        5.545927   1.000000
  201        5.596676   1.000000
  202        5.624746   1.000000
  203        5.694203   1.000000
  204        5.827459   1.000000
  205        5.880480   1.000000
  206        6.025705   1.000000
  207        6.051759   1.000000
  208        6.174614   1.000000
  209        6.245519   1.000000
  210        6.287060   1.000000
  211        6.336718   1.000000
  212        6.593161   1.000000
  213        6.641582   1.000000
  214        6.739154   1.000000
  215        6.866810   1.000000
  216        6.934711   1.000000
  217        7.074636   1.000000
  218        7.193843   1.000000
  219        7.317576   1.000000
  220        7.379517   1.000000
  221        7.462113   1.000000
  222        7.519889   1.000000
  223        7.640632   1.000000
  224        8.063280   1.000000
  225        8.123088   1.000000
  226        8.164730   1.000000
  227        8.215651   1.000000
  228        8.294485   1.000000
  229        8.391382   1.000000
  230        8.470298   1.000000
  231        8.537182   1.000000
  232        8.619993   1.000000
  233        8.672361   1.000000
  234        8.734639   1.000000
  235        8.783324   1.000000
  236        8.875010   0.999983
  237        8.955877   0.998643
  238        9.014959   0.984728
  239        9.109354   0.796168
  240        9.206384   0.293150
  241        9.247251   0.130901
  242        9.317863   0.016971
  243        9.347385   0.005570
  244        9.431074   0.000099
  245        9.493133   0.000002
  246        9.515505   0.000000
  247        9.569158   0.000000
  248        9.581487   0.000000
  249        9.619601   0.000000
  250        9.687052   0.000000
  251        9.704507   0.000000
  252        9.731748   0.000000
  253        9.789833   0.000000
  254        9.822254   0.000000
  255        9.856797   0.000000
  256        9.909908   0.000000
  257        9.944874   0.000000
  258        9.990300   0.000000
  259       10.024636   0.000000
  260       10.052233   0.000000
  261       10.113563   0.000000
  262       10.145895   0.000000
  263       10.202303   0.000000
  264       10.224963   0.000000
  265       10.278243   0.000000
  266       10.299652   0.000000
  267       10.352192   0.000000
  268       10.395994   0.000000
  269       10.406843   0.000000
  270       10.496060   0.000000
  271       10.515013   0.000000
  272       10.575666   0.000000
  273       10.609769   0.000000
  274       10.706343   0.000000
  275       10.733678   0.000000
  276       10.758742   0.000000
  277       10.828279   0.000000
  278       10.871037   0.000000
  279       10.887030   0.000000
  280       10.933973   0.000000
  281       10.965859   0.000000
  282       10.994539   0.000000
  283       11.056108   0.000000
  284       11.091482   0.000000
  285       11.128931   0.000000
  286       11.163532   0.000000
  287       11.212627   0.000000
  288       11.262120   0.000000
  289       11.286884   0.000000
  290       11.364892   0.000000
  291       11.413638   0.000000
  292       11.429265   0.000000
  293       11.486587   0.000000
  294       11.538146   0.000000
  295       11.577344   0.000000
  296       11.616935   0.000000
  297       11.651314   0.000000
  298       11.664495   0.000000
  299       11.719955   0.000000
  300       11.746576   0.000000
  301       11.777452   0.000000
  302       11.858250   0.000000
  303       11.934742   0.000000
  304       11.973909   0.000000
  305       12.014379   0.000000
  306       12.088704   0.000000
  307       12.111284   0.000000
  308       12.162515   0.000000
  309       12.247837   0.000000
  310       12.338551   0.000000
  311       12.395746   0.000000
  312       12.467627   0.000000
 
  0.0000000E+00  0.3333333E+00  0.0000000E+00  0.7407407E-01
    1      -46.943238   1.000000
    2      -46.810697   1.000000
    3      -46.675758   1.000000
    4      -46.659524   1.000000
    5      -46.650916   1.000000
    6      -46.520405   1.000000
    7      -46.484588   1.000000
    8      -34.648178   1.000000
    9      -34.500770   1.000000
   10      -34.489262   1.000000
   11      -34.488559   1.000000
   12      -34.461298   1.000000
   13      -34.445764   1.000000
   14      -34.443610   1.000000
   15      -34.421105   1.000000
   16      -34.415505   1.000000
   17      -34.408580   1.000000
   18      -34.398183   1.000000
   19      -34.392974   1.000000
   20      -34.361375   1.000000
   21      -34.358492   1.000000
   22      -34.331185   1.000000
   23      -34.313516   1.000000
   24      -34.268701   1.000000
   25      -34.253228   1.000000
   26      -30.640638   1.000000
   27      -30.486038   1.000000
   28      -30.453107   1.000000
   29      -30.398302   1.000000
   30      -30.374932   1.000000
   31      -30.270230   1.000000
   32      -30.262461   1.000000
   33      -30.249987   1.000000
   34      -30.198899   1.000000
   35      -30.179755   1.000000
   36      -30.173083   1.000000
   37      -30.124535   1.000000
   38      -30.120677   1.000000
   39      -30.105633   1.000000
   40      -30.099128   1.000000
   41      -30.073362   1.000000
   42      -30.022543   1.000000
   43      -29.996857   1.000000
   44      -23.157530   1.000000
   45      -23.141786   1.000000
   46      -23.096689   1.000000
   47      -23.074149   1.000000
   48      -23.001694   1.000000
   49      -22.948369   1.000000
   50      -22.918613   1.000000
   51      -22.897872   1.000000
   52      -22.891266   1.000000
   53      -22.859923   1.000000
   54      -22.838965   1.000000
   55      -22.831820   1.000000
   56      -22.818826   1.000000
   57      -22.808773   1.000000
   58      -22.800823   1.000000
   59      -22.783434   1.000000
   60      -22.733178   1.000000
   61      -22.693288   1.000000
   62      -22.664664   1.000000
   63      -22.593361   1.000000
   64      -22.493450   1.000000
   65      -22.190829   1.000000
   66      -22.022028   1.000000
   67      -22.010585   1.000000
   68      -21.949417   1.000000
   69      -21.909392   1.000000
   70      -21.857758   1.000000
   71      -21.817436   1.000000
   72      -21.787765   1.000000
   73      -21.777969   1.000000
   74      -21.512087   1.000000
   75      -21.500319   1.000000
   76      -21.486959   1.000000
   77      -21.480385   1.000000
   78      -21.468698   1.000000
   79      -21.448684   1.000000
   80      -21.436754   1.000000
   81      -21.423767   1.000000
   82      -21.385298   1.000000
   83      -21.061187   1.000000
   84      -21.019350   1.000000
   85      -21.014114   1.000000
   86       -7.404874   1.000000
   87       -6.997870   1.000000
   88       -6.723551   1.000000
   89       -6.490533   1.000000
   90       -6.316175   1.000000
   91       -6.228567   1.000000
   92       -6.039877   1.000000
   93       -5.863530   1.000000
   94       -5.742730   1.000000
   95       -5.687146   1.000000
   96       -5.624630   1.000000
   97       -5.547274   1.000000
   98       -5.348668   1.000000
   99       -4.078917   1.000000
  100       -3.441174   1.000000
  101       -3.338308   1.000000
  102       -3.210219   1.000000
  103       -3.052032   1.000000
  104       -3.024328   1.000000
  105       -2.907460   1.000000
  106       -2.777890   1.000000
  107       -2.731608   1.000000
  108       -2.562063   1.000000
  109       -2.489970   1.000000
  110       -2.342495   1.000000
  111       -2.263997   1.000000
  112       -2.144167   1.000000
  113       -2.071121   1.000000
  114       -1.954414   1.000000
  115       -1.840847   1.000000
  116       -1.578374   1.000000
  117       -1.510768   1.000000
  118        0.946015   1.000000
  119        1.065748   1.000000
  120        1.242462   1.000000
  121        1.367815   1.000000
  122        1.544228   1.000000
  123        1.634305   1.000000
  124        1.831550   1.000000
  125        1.899906   1.000000
  126        2.014960   1.000000
  127        2.119946   1.000000
  128        2.266524   1.000000
  129        2.314494   1.000000
  130        2.422477   1.000000
  131        2.449900   1.000000
  132        2.590563   1.000000
  133        2.665027   1.000000
  134        2.713471   1.000000
  135        2.823819   1.000000
  136        2.857574   1.000000
  137        2.899548   1.000000
  138        2.940337   1.000000
  139        3.017833   1.000000
  140        3.063190   1.000000
  141        3.144065   1.000000
  142        3.206335   1.000000
  143        3.244242   1.000000
  144        3.282498   1.000000
  145        3.348142   1.000000
  146        3.421796   1.000000
  147        3.451263   1.000000
  148        3.514946   1.000000
  149        3.532616   1.000000
  150        3.574369   1.000000
  151        3.608954   1.000000
  152        3.640176   1.000000
  153        3.665653   1.000000
  154        3.720163   1.000000
  155        3.743469   1.000000
  156        3.803191   1.000000
  157        3.846227   1.000000
  158        3.882819   1.000000
  159        3.918557   1.000000
  160        3.942799   1.000000
  161        3.974041   1.000000
  162        3.992878   1.000000
  163        4.027332   1.000000
  164        4.061181   1.000000
  165        4.088626   1.000000
  166        4.111612   1.000000
  167        4.144869   1.000000
  168        4.184046   1.000000
  169        4.213714   1.000000
  170        4.225248   1.000000
  171        4.261719   1.000000
  172        4.292199   1.000000
  173        4.323873   1.000000
  174        4.358583   1.000000
  175        4.386938   1.000000
  176        4.404438   1.000000
  177        4.454538   1.000000
  178        4.468033   1.000000
  179        4.495377   1.000000
  180        4.542730   1.000000
  181        4.596611   1.000000
  182        4.617837   1.000000
  183        4.628961   1.000000
  184        4.681159   1.000000
  185        4.724852   1.000000
  186        4.746258   1.000000
  187        4.794926   1.000000
  188        4.808460   1.000000
  189        4.831457   1.000000
  190        4.895778   1.000000
  191        4.936696   1.000000
  192        4.982279   1.000000
  193        5.001844   1.000000
  194        5.089007   1.000000
  195        5.126980   1.000000
  196        5.271533   1.000000
  197        5.318399   1.000000
  198        5.400210   1.000000
  199        5.468829   1.000000
  200        5.535801   1.000000
  201        5.632725   1.000000
  202        5.669106   1.000000
  203        5.761409   1.000000
  204        5.847598   1.000000
  205        5.933599   1.000000
  206        6.011922   1.000000
  207        6.080008   1.000000
  208        6.132979   1.000000
  209        6.391760   1.000000
  210        6.455627   1.000000
  211        6.509685   1.000000
  212        6.580646   1.000000
  213        6.699083   1.000000
  214        6.812736   1.000000
  215        6.842106   1.000000
  216        6.950544   1.000000
  217        6.972270   1.000000
  218        7.029755   1.000000
  219        7.116256   1.000000
  220        7.184977   1.000000
  221        7.348899   1.000000
  222        7.398541   1.000000
  223        7.631634   1.000000
  224        7.949876   1.000000
  225        8.092212   1.000000
  226        8.173291   1.000000
  227        8.247318   1.000000
  228        8.291918   1.000000
  229        8.365368   1.000000
  230        8.405420   1.000000
  231        8.457830   1.000000
  232        8.575215   1.000000
  233        8.676353   1.000000
  234        8.793851   1.000000
  235        8.847945   0.999997
  236        8.872739   0.999985
  237        8.989767   0.994119
  238        9.055846   0.943486
  239        9.146300   0.620012
  240        9.187875   0.388803
  241        9.253211   0.113825
  242        9.288530   0.044011
  243        9.386699   0.000987
  244        9.409994   0.000309
  245        9.450467   0.000032
  246        9.519024   0.000000
  247        9.572989   0.000000
  248        9.639634   0.000000
  249        9.646191   0.000000
  250        9.683427   0.000000
  251        9.748879   0.000000
  252        9.797242   0.000000
  253        9.829249   0.000000
  254        9.857211   0.000000
  255        9.922873   0.000000
  256        9.941265   0.000000
  257        9.993851   0.000000
  258       10.028884   0.000000
  259       10.059553   0.000000
  260       10.097036   0.000000
  261       10.167165   0.000000
  262       10.205791   0.000000
  263       10.224062   0.000000
  264       10.311308   0.000000
  265       10.321014   0.000000
  266       10.354368   0.000000
  267       10.427843   0.000000
  268       10.455334   0.000000
  269       10.487408   0.000000
  270       10.501001   0.000000
  271       10.581375   0.000000
  272       10.598455   0.000000
  273       10.662763   0.000000