       N       E                     dE             d eps       ncg     rms          rms(c)
DAV:   1     0.572104651447E+04    0.57210E+04   -0.19613E+05  8784   0.141E+03
DAV:   2     0.175458142486E+03   -0.55456E+04   -0.52900E+04  9072   0.589E+02
DAV:   3    -0.693617550804E+03   -0.86908E+03   -0.80849E+03 14256   0.202E+02
DAV:   4    -0.773334169663E+03   -0.79717E+02   -0.76673E+02 14784   0.762E+01
DAV:   5    -0.783828363182E+03   -0.10494E+02   -0.10259E+02 17472   0.234E+01    0.735E+01
RMM:   6    -0.971338731416E+03   -0.18751E+03   -0.21192E+03 11706   0.130E+02    0.129E+02
RMM:   7    -0.661056332541E+03    0.31028E+03   -0.24697E+02 13442   0.355E+01    0.406E+01
RMM:   8    -0.658142944761E+03    0.29134E+01   -0.44744E+01 14037   0.130E+01    0.367E+01
RMM:   9    -0.655104307107E+03    0.30386E+01   -0.12044E+01 12198   0.106E+01    0.369E+01
RMM:  10    -0.648393296845E+03    0.67110E+01   -0.80377E+00 13880   0.557E+00    0.101E+01
RMM:  11    -0.650724831106E+03   -0.23315E+01   -0.28389E+00 11462   0.530E+00    0.242E+01
RMM:  12    -0.647982936797E+03    0.27419E+01   -0.29072E+00 12923   0.443E+00    0.115E+01
RMM:  13    -0.648926600271E+03   -0.94366E+00   -0.18259E+00 13593   0.323E+00    0.204E+01
RMM:  14    -0.647852663744E+03    0.10739E+01   -0.18077E+00 13481   0.295E+00    0.886E+00
RMM:  15    -0.648064560221E+03   -0.21190E+00   -0.69539E-01 12935   0.214E+00    0.125E+01
RMM:  16    -0.647462441178E+03    0.60212E+00   -0.42292E-01 12999   0.166E+00    0.307E+00
RMM:  17    -0.647440653429E+03    0.21788E-01   -0.49073E-01 14195   0.923E-01    0.306E+00
RMM:  18    -0.647438205155E+03    0.24483E-02   -0.14050E-01 12473   0.107E+00    0.250E+00
RMM:  19    -0.647434779169E+03    0.34260E-02   -0.17876E-01 14164   0.623E-01    0.100E+00
RMM:  20    -0.647431147504E+03    0.36317E-02   -0.59155E-02 12880   0.514E-01    0.668E-01
RMM:  21    -0.647429430275E+03    0.17172E-02   -0.30681E-02 13559   0.360E-01    0.426E-01
RMM:  22    -0.647431062711E+03   -0.16324E-02   -0.30349E-02 13505   0.267E-01    0.223E-01
RMM:  23    -0.647431619059E+03   -0.55635E-03   -0.99414E-03 13401   0.172E-01    0.743E-02
RMM:  24    -0.647432328046E+03   -0.70899E-03   -0.80216E-03 11554   0.145E-01    0.460E-02
RMM:  25    -0.647432591167E+03   -0.26312E-03   -0.32043E-03 11899   0.983E-02    0.389E-02
RMM:  26    -0.647432814535E+03   -0.22337E-03   -0.25037E-03 11321   0.793E-02    0.145E-02
RMM:  27    -0.647432926306E+03   -0.11177E-03   -0.12521E-03 10882   0.543E-02    0.197E-02
RMM:  28    -0.647432989314E+03   -0.63008E-04   -0.67634E-04 10481   0.482E-02    0.131E-02
RMM:  29    -0.647433030855E+03   -0.41541E-04   -0.41858E-04 10427   0.327E-02    0.936E-03
RMM:  30    -0.647433053508E+03   -0.22652E-04   -0.22655E-04 10237   0.298E-02    0.423E-03
RMM:  31    -0.647433069297E+03   -0.15789E-04   -0.15868E-04  9642   0.213E-02    0.416E-03
RMM:  32    -0.647433078429E+03   -0.91325E-05   -0.79935E-05  9225   0.187E-02
   1 F= -.64743308E+03 E0= -.64731177E+03  d E =-.647433E+03
       N       E                     dE             d eps       ncg     rms          rms(c)
DAV:   1    -0.713722223262E+03   -0.66289E+02   -0.25136E+03 12432   0.249E+02    0.655E+01
RMM:   2    -0.923433324422E+03   -0.20971E+03   -0.13499E+03 10178   0.140E+02    0.112E+02
RMM:   3    -0.654808646981E+03    0.26862E+03   -0.92509E+01 11753   0.334E+01    0.311E+01
RMM:   4    -0.655673140139E+03   -0.86449E+00   -0.37932E+01 11598   0.203E+01    0.358E+01
RMM:   5    -0.652991915240E+03    0.26812E+01   -0.18281E+01 10788   0.156E+01    0.337E+01
RMM:   6    -0.645596753552E+03    0.73952E+01   -0.14058E+01 11900   0.847E+00    0.146E+01
RMM:   7    -0.646862157424E+03   -0.12654E+01   -0.29723E+00 10824   0.636E+00    0.217E+01
RMM:   8    -0.644572870685E+03    0.22893E+01   -0.20201E+00 11738   0.415E+00    0.830E+00
RMM:   9    -0.644537861246E+03    0.35009E-01   -0.75105E-01 13341   0.228E+00    0.797E+00
RMM:  10    -0.644297147106E+03    0.24071E+00   -0.46745E-01 13789   0.158E+00    0.307E+00
RMM:  11    -0.644383421270E+03   -0.86274E-01   -0.23266E-01 14199   0.120E+00    0.472E+00
RMM:  12    -0.644317056281E+03    0.66365E-01   -0.15648E-01 13618   0.104E+00    0.189E+00
RMM:  13    -0.644377910151E+03   -0.60854E-01   -0.11582E-01 13764   0.985E-01    0.350E+00
RMM:  14    -0.644343276260E+03    0.34634E-01   -0.10436E-01 13429   0.921E-01    0.111E+00
RMM:  15    -0.644348244764E+03   -0.49685E-02   -0.78829E-02 15024   0.560E-01    0.476E-01
RMM:  16    -0.644350051703E+03   -0.18069E-02   -0.35844E-02 13399   0.552E-01    0.259E-01
RMM:  17    -0.644352563495E+03   -0.25118E-02   -0.29091E-02 15049   0.324E-01    0.167E-01
RMM:  18    -0.644353717310E+03   -0.11538E-02   -0.14759E-02 13304   0.332E-01    0.132E-01
RMM:  19    -0.644354754809E+03   -0.10375E-02   -0.11477E-02 14858   0.194E-01    0.801E-02
RMM:  20    -0.644355170542E+03   -0.41573E-03   -0.48003E-03 13620   0.175E-01    0.410E-02
RMM:  21    -0.644355534218E+03   -0.36368E-03   -0.39410E-03 13979   0.108E-01    0.519E-02
RMM:  22    -0.644355679692E+03   -0.14547E-03   -0.16784E-03 13352   0.973E-02    0.146E-02
RMM:  23    -0.644355804465E+03   -0.12477E-03   -0.12871E-03 12679   0.691E-02    0.253E-02
RMM:  24    -0.644355868969E+03   -0.64504E-04   -0.69127E-04 12031   0.629E-02    0.802E-03
RMM:  25    -0.644355921364E+03   -0.52395E-04   -0.50157E-04 11825   0.457E-02    0.697E-03
RMM:  26    -0.644355949127E+03   -0.27764E-04   -0.27784E-04 11349   0.364E-02    0.326E-03
RMM:  27    -0.644355965902E+03   -0.16775E-04   -0.15810E-04 10739   0.290E-02    0.183E-03
RMM:  28    -0.644355975339E+03   -0.94369E-05   -0.10324E-04  9739   0.232E-02    0.471E-03
RMM:  29    -0.644355983401E+03   -0.80623E-05   -0.66192E-05  8891   0.206E-02
   2 F= -.64435598E+03 E0= -.64426789E+03  d E =0.307710E+01
       N       E                     dE             d eps       ncg     rms          rms(c)
DAV:   1    -0.681940801895E+03   -0.37585E+02   -0.87576E+02 12432   0.136E+02    0.642E+01
RMM:   2    -0.955008811394E+03   -0.27307E+03   -0.28496E+02 12515   0.398E+01    0.831E+01
RMM:   3    -0.702729147720E+03    0.25228E+03   -0.88147E+01 12116   0.311E+01    0.569E+01
RMM:   4    -0.656529904707E+03    0.46199E+02   -0.35117E+01 11471   0.177E+01    0.240E+01
RMM:   5    -0.671641822656E+03   -0.15112E+02   -0.44448E+01 10502   0.210E+01    0.505E+01
RMM:   6    -0.664523919408E+03    0.71179E+01   -0.16660E+01 11539   0.983E+00    0.433E+01
RMM:   7    -0.652070036811E+03    0.12454E+02   -0.76106E+00 10642   0.966E+00    0.172E+01
RMM:   8    -0.654224882164E+03   -0.21548E+01   -0.42339E+00 12062   0.507E+00    0.227E+01
RMM:   9    -0.651289270400E+03    0.29356E+01   -0.89589E-01 12003   0.316E+00    0.117E+01
RMM:  10    -0.650657491212E+03    0.63178E+00   -0.38704E-01 12124   0.213E+00    0.703E+00
RMM:  11    -0.650443637272E+03    0.21385E+00   -0.24434E-01 12572   0.145E+00    0.429E+00
RMM:  12    -0.650468847482E+03   -0.25210E-01   -0.14999E-01 14144   0.838E-01    0.480E+00
RMM:  13    -0.650467122903E+03    0.17246E-02   -0.78598E-02 13434   0.798E-01    0.472E+00
RMM:  14    -0.650413388552E+03    0.53734E-01   -0.91221E-02 12580   0.923E-01    0.387E+00
RMM:  15    -0.650354528014E+03    0.58861E-01   -0.89408E-02 12831   0.877E-01    0.116E+00
RMM:  16    -0.650357129663E+03   -0.26016E-02   -0.61153E-02 14502   0.438E-01    0.728E-01
RMM:  17    -0.650360559260E+03   -0.34296E-02   -0.24387E-02 12341   0.499E-01    0.529E-01
RMM:  18    -0.650366767021E+03   -0.62078E-02   -0.21749E-02 13544   0.327E-01    0.100E+00
RMM:  19    -0.650363663247E+03    0.31038E-02   -0.12562E-02 13939   0.265E-01    0.457E-01
RMM:  20    -0.650364115689E+03   -0.45244E-03   -0.10009E-02 14225   0.175E-01    0.398E-01
RMM:  21    -0.650363963824E+03    0.15187E-03   -0.51232E-03 13229   0.196E-01    0.255E-01
RMM:  22    -0.650364044673E+03   -0.80849E-04   -0.43088E-03 13029   0.120E-01    0.462E-02
RMM:  23    -0.650364249053E+03   -0.20438E-03   -0.19284E-03 12500   0.108E-01    0.100E-01
RMM:  24    -0.650364338841E+03   -0.89788E-04   -0.15267E-03 12116   0.756E-02    0.210E-02
RMM:  25    -0.650364432723E+03   -0.93883E-04   -0.90914E-04 11870   0.613E-02    0.493E-02
RMM:  26    -0.650364477822E+03   -0.45098E-04   -0.62107E-04 11110   0.487E-02    0.139E-02
RMM:  27    -0.650364502320E+03   -0.24498E-04   -0.31992E-04 10900   0.417E-02    0.684E-03
RMM:  28    -0.650364525792E+03   -0.23472E-04   -0.23162E-04 10558   0.295E-02    0.142E-02
RMM:  29    -0.650364535169E+03   -0.93776E-05   -0.14249E-04 10564   0.258E-02    0.259E-03
RMM:  30    -0.650364542163E+03   -0.69939E-05   -0.85358E-05  9743   0.201E-02
   3 F= -.65036454E+03 E0= -.65025788E+03  d E =-.293146E+01
       N       E                     dE             d eps       ncg     rms          rms(c)
DAV:   1    -0.646036787705E+03    0.43277E+01   -0.47647E+02  9072   0.922E+01    0.783E+00
RMM:   2    -0.663460299053E+03   -0.17424E+02   -0.67661E+01 13657   0.221E+01    0.335E+01
RMM:   3    -0.653013391524E+03    0.10447E+02   -0.73226E+00 10496   0.120E+01    0.137E+01
RMM:   4    -0.652209535953E+03    0.80386E+00   -0.27419E+00 12341   0.416E+00    0.532E+00
RMM:   5    -0.652322319189E+03   -0.11278E+00   -0.75909E-01 13316   0.199E+00    0.842E+00
RMM:   6    -0.652036853502E+03    0.28547E+00   -0.22123E-01 12974   0.126E+00    0.253E+00
RMM:   7    -0.652043541364E+03   -0.66879E-02   -0.20640E-01 13715   0.885E-01    0.345E+00
RMM:   8    -0.652026926493E+03    0.16615E-01   -0.10574E-01 11842   0.997E-01    0.298E+00
RMM:   9    -0.651969200348E+03    0.57726E-01   -0.11361E-01 12842   0.728E-01    0.816E-01
RMM:  10    -0.651988793787E+03   -0.19593E-01   -0.38550E-02 12582   0.489E-01    0.227E+00
RMM:  11    -0.651968026930E+03    0.20767E-01   -0.15838E-02 12271   0.350E-01    0.582E-01
RMM:  12    -0.651969948972E+03   -0.19220E-02   -0.12410E-02 13603   0.201E-01    0.875E-01
RMM:  13    -0.651967032180E+03    0.29168E-02   -0.54726E-03 13388   0.157E-01    0.219E-01
RMM:  14    -0.651966968851E+03    0.63329E-04   -0.34128E-03 13893   0.889E-02    0.106E-01
RMM:  15    -0.651966989180E+03   -0.20329E-04   -0.96659E-04 12187   0.874E-02    0.492E-02
RMM:  16    -0.651967072103E+03   -0.82923E-04   -0.10362E-03 12613   0.433E-02    0.333E-02
RMM:  17    -0.651967078013E+03   -0.59095E-05   -0.27697E-04 10737   0.444E-02    0.172E-02
RMM:  18    -0.651967103533E+03   -0.25520E-04   -0.29966E-04  9721   0.266E-02    0.914E-03
RMM:  19    -0.651967110976E+03   -0.74431E-05   -0.10637E-04  8561   0.257E-02    0.514E-03
RMM:  20    -0.651967116601E+03   -0.56253E-05   -0.66784E-05  7902   0.192E-02
   4 F= -.65196712E+03 E0= -.65187016E+03  d E =-.160257E+01
       N       E                     dE             d eps       ncg     rms          rms(c)
DAV:   1    -0.651882727818E+03    0.84383E-01   -0.84258E+00  9456   0.125E+01    0.102E+00
RMM:   2    -0.652248903847E+03   -0.36618E+00   -0.12455E+00 13623   0.303E+00    0.701E+00
RMM:   3    -0.652005927977E+03    0.24298E+00   -0.14117E-01 10514   0.160E+00    0.183E+00
RMM:   4    -0.651996300470E+03    0.96275E-02   -0.53342E-02 12136   0.598E-01    0.108E+00
RMM:   5    -0.651992855249E+03    0.34452E-02   -0.13536E-02 13532   0.255E-01    0.853E-01
RMM:   6    -0.651990397561E+03    0.24577E-02   -0.40064E-03 12280   0.168E-01    0.447E-01
RMM:   7    -0.651989615722E+03    0.78184E-03   -0.30815E-03 12953   0.113E-01    0.357E-01
RMM:   8    -0.651990202150E+03   -0.58643E-03   -0.15691E-03 11045   0.121E-01    0.540E-01
RMM:   9    -0.651989100720E+03    0.11014E-02   -0.20536E-03 12139   0.119E-01    0.297E-01
RMM:  10    -0.651988796487E+03    0.30423E-03   -0.69048E-04 11172   0.710E-02    0.151E-01
RMM:  11    -0.651988731583E+03    0.64904E-04   -0.49963E-04 11329   0.416E-02    0.656E-02
RMM:  12    -0.651988795219E+03   -0.63636E-04   -0.18367E-04  8946   0.382E-02    0.142E-01
RMM:  13    -0.651988702300E+03    0.92919E-04   -0.10055E-04  8209   0.283E-02    0.201E-02
RMM:  14    -0.651988704988E+03   -0.26880E-05   -0.84929E-05  8018   0.172E-02
   5 F= -.65198870E+03 E0= -.65189319E+03  d E =-.162416E+01
       N       E                     dE             d eps       ncg     rms          rms(c)
DAV:   1    -0.649450181919E+03    0.25385E+01   -0.17294E+02 12024   0.775E+01    0.821E+00
RMM:   2    -0.663525750166E+03   -0.14076E+02   -0.40071E+01 12875   0.166E+01    0.345E+01
RMM:   3    -0.652622106707E+03    0.10904E+02   -0.54038E+00 10697   0.871E+00    0.475E+00
RMM:   4    -0.653052732792E+03   -0.43063E+00   -0.18703E+00 12854   0.302E+00    0.101E+01
RMM:   5    -0.652552801035E+03    0.49993E+00   -0.30423E-01 11243   0.185E+00    0.217E+00
RMM:   6    -0.652588824618E+03   -0.36024E-01   -0.19072E-01 13025   0.876E-01    0.390E+00
RMM:   7    -0.652529503164E+03    0.59321E-01   -0.80991E-02 11804   0.770E-01    0.171E+00
RMM:   8    -0.652546962762E+03   -0.17460E-01   -0.57576E-02 11575   0.701E-01    0.279E+00
RMM:   9    -0.652507176396E+03    0.39786E-01   -0.38489E-02 12327   0.544E-01    0.493E-01
RMM:  10    -0.652509347454E+03   -0.21711E-02   -0.22209E-02 14173   0.283E-01    0.892E-01
RMM:  11    -0.652506965580E+03    0.23819E-02   -0.67789E-03 12728   0.233E-01    0.435E-01
RMM:  12    -0.652506528117E+03    0.43746E-03   -0.61112E-03 14327   0.128E-01    0.133E-01
RMM:  13    -0.652506703265E+03   -0.17515E-03   -0.20175E-03 14047   0.106E-01    0.157E-01
RMM:  14    -0.652506906348E+03   -0.20308E-03   -0.13521E-03 13025   0.862E-02    0.208E-01
RMM:  15    -0.652506838850E+03    0.67497E-04   -0.10650E-03 13053   0.627E-02    0.684E-02
RMM:  16    -0.652506886068E+03   -0.47217E-04   -0.58106E-04 13158   0.492E-02    0.318E-02
RMM:  17    -0.652506903421E+03   -0.17354E-04   -0.30212E-04 12469   0.482E-02    0.190E-02
RMM:  18    -0.652506924807E+03   -0.21386E-04   -0.27736E-04 11576   0.305E-02    0.147E-02
RMM:  19    -0.652506933958E+03   -0.91514E-05   -0.13242E-04 10144   0.315E-02    0.105E-02
RMM:  20    -0.652506942458E+03   -0.85002E-05   -0.10789E-04  9734   0.211E-02    0.703E-03
RMM:  21    -0.652506947114E+03   -0.46552E-05   -0.68385E-05  8698   0.206E-02
   6 F= -.65250695E+03 E0= -.65241726E+03  d E =-.518242E+00
       N       E                     dE             d eps       ncg     rms          rms(c)
DAV:   1    -0.652070173392E+03    0.43677E+00   -0.26413E+01 12048   0.311E+01    0.324E+00
RMM:   2    -0.654518063498E+03   -0.24479E+01   -0.68536E+00 12301   0.700E+00    0.171E+01
RMM:   3    -0.652648508502E+03    0.18696E+01   -0.94631E-01 10573   0.369E+00    0.432E+00
RMM:   4    -0.652598667477E+03    0.49841E-01   -0.32284E-01 12490   0.137E+00    0.253E+00
RMM:   5    -0.652578057859E+03    0.20610E-01   -0.66446E-02 12185   0.647E-01    0.202E+00
RMM:   6    -0.652563079820E+03    0.14978E-01   -0.19258E-02 11641   0.402E-01    0.100E+00
RMM:   7    -0.652565347381E+03   -0.22676E-02   -0.17902E-02 12329   0.288E-01    0.132E+00
RMM:   8    -0.652559900376E+03    0.54470E-02   -0.93334E-03 11070   0.310E-01    0.826E-01
RMM:   9    -0.652557265915E+03    0.26345E-02   -0.82206E-03 12920   0.209E-01    0.607E-01
RMM:  10    -0.652555925530E+03    0.13404E-02   -0.25805E-03 11735   0.158E-01    0.322E-01
RMM:  11    -0.652555884143E+03    0.41387E-04   -0.21729E-03 13491   0.950E-02    0.287E-01
RMM:  12    -0.652555605399E+03    0.27874E-03   -0.75061E-04 11784   0.803E-02    0.136E-01
RMM:  13    -0.652555557413E+03    0.47986E-04   -0.62451E-04 12537   0.421E-02    0.559E-02
RMM:  14    -0.652555568365E+03   -0.10952E-04   -0.25163E-04 11959   0.362E-02    0.363E-02
RMM:  15    -0.652555579003E+03   -0.10638E-04   -0.16109E-04 11043   0.299E-02    0.220E-02
RMM:  16    -0.652555583277E+03   -0.42743E-05   -0.12085E-04 10258   0.250E-02    0.103E-02
RMM:  17    -0.652555585527E+03   -0.22501E-05   -0.56379E-05  8367   0.204E-02
   7 F= -.65255559E+03 E0= -.65246725E+03  d E =-.566881E+00
       N       E                     dE             d eps       ncg     rms          rms(c)
DAV:   1    -0.650158033208E+03    0.23976E+01   -0.15662E+02 12912   0.783E+01    0.930E+00
RMM:   2    -0.668015523367E+03   -0.17857E+02   -0.52394E+01 10706   0.230E+01    0.417E+01
RMM:   3    -0.652989588147E+03    0.15026E+02   -0.78567E+00 10858   0.103E+01    0.668E+00
RMM:   4    -0.653141403706E+03   -0.15182E+00   -0.22594E+00 13212   0.336E+00    0.722E+00
RMM:   5    -0.652867040705E+03    0.27436E+00   -0.35021E-01 11569   0.178E+00    0.268E+00
RMM:   6    -0.652881249399E+03   -0.14209E-01   -0.17998E-01 11553   0.116E+00    0.402E+00
RMM:   7    -0.652809356436E+03    0.71893E-01   -0.13283E-01 11599   0.957E-01    0.229E+00
RMM:   8    -0.652871975327E+03   -0.62619E-01   -0.91833E-02 10985   0.951E-01    0.438E+00
RMM:   9    -0.652779865566E+03    0.92110E-01   -0.67604E-02 12029   0.786E-01    0.110E+00
RMM:  10    -0.652780357925E+03   -0.49236E-03   -0.35850E-02 13432   0.426E-01    0.114E+00
RMM:  11    -0.652775111249E+03    0.52467E-02   -0.14867E-02 14354   0.241E-01    0.278E-01
RMM:  12    -0.652776020110E+03   -0.90886E-03   -0.59189E-03 14195   0.162E-01    0.402E-01
RMM:  13    -0.652775693642E+03    0.32647E-03   -0.30868E-03 13819   0.123E-01    0.202E-01
RMM:  14    -0.652776080547E+03   -0.38691E-03   -0.25781E-03 13756   0.867E-02    0.132E-01
RMM:  15    -0.652776437920E+03   -0.35737E-03   -0.13121E-03 13352   0.883E-02    0.619E-02
RMM:  16    -0.652776540413E+03   -0.10249E-03   -0.98580E-04 13545   0.694E-02    0.378E-02
RMM:  17    -0.652776581823E+03   -0.41411E-04   -0.62812E-04 12737   0.587E-02    0.250E-02
RMM:  18    -0.652776623846E+03   -0.42023E-04   -0.45220E-04 11923   0.442E-02    0.215E-02
RMM:  19    -0.652776647121E+03   -0.23275E-04   -0.25640E-04 10811   0.365E-02    0.156E-02
RMM:  20    -0.652776661412E+03   -0.14291E-04   -0.13269E-04 10239   0.277E-02    0.574E-03
RMM:  21    -0.652776674403E+03   -0.12991E-04   -0.11845E-04  9931   0.207E-02    0.284E-03
RMM:  22    -0.652776678107E+03   -0.37046E-05   -0.46884E-05  8043   0.209E-02
   8 F= -.65277668E+03 E0= -.65269651E+03  d E =-.221093E+00
       N       E                     dE             d eps       ncg     rms          rms(c)
DAV:   1    -0.652704671486E+03    0.72003E-01   -0.50159E+00 13272   0.140E+01    0.168E+00
RMM:   2    -0.653313026621E+03   -0.60836E+00   -0.13887E+00 11477   0.339E+00    0.902E+00
RMM:   3    -0.652825380733E+03    0.48765E+00   -0.23787E-01 10635   0.181E+00    0.258E+00
RMM:   4    -0.652797937979E+03    0.27443E-01   -0.77911E-02 12460   0.722E-01    0.109E+00
RMM:   5    -0.652795931298E+03    0.20067E-02   -0.19797E-02 12153   0.339E-01    0.109E+00
RMM:   6    -0.652791275323E+03    0.46560E-02   -0.55125E-03 10820   0.234E-01    0.595E-01
RMM:   7    -0.652790038220E+03    0.12371E-02   -0.49378E-03 12029   0.157E-01    0.454E-01
RMM:   8    -0.652790073110E+03   -0.34890E-04   -0.21493E-03 10588   0.159E-01    0.492E-01
RMM:   9    -0.652788926738E+03    0.11464E-02   -0.18059E-03 12212   0.123E-01    0.254E-01
RMM:  10    -0.652788756553E+03    0.17018E-03   -0.70408E-04 11201   0.802E-02    0.181E-01
RMM:  11    -0.652788635637E+03    0.12092E-03   -0.50316E-04 12573   0.464E-02    0.858E-02
RMM:  12    -0.652788630314E+03    0.53228E-05   -0.16494E-04  9799   0.371E-02    0.741E-02
RMM:  13    -0.652788610104E+03    0.20210E-04   -0.10503E-04  9010   0.235E-02    0.301E-02
RMM:  14    -0.652788611986E+03   -0.18814E-05   -0.63798E-05  8121   0.208E-02
   9 F= -.65278861E+03 E0= -.65270711E+03  d E =-.233026E+00
       N       E                     dE             d eps       ncg     rms          rms(c)
DAV:   1    -0.651038579531E+03    0.17500E+01   -0.88135E+01  9624   0.515E+01    0.261E+00
RMM:   2    -0.653491899168E+03   -0.24533E+01   -0.21030E+01 13809   0.103E+01    0.947E+00
RMM:   3    -0.653068949995E+03    0.42295E+00   -0.11787E+00  9824   0.510E+00    0.338E+00
RMM:   4    -0.653140569776E+03   -0.71620E-01   -0.47387E-01 12782   0.167E+00    0.435E+00
RMM:   5    -0.653043986430E+03    0.96583E-01   -0.93014E-02 11977   0.920E-01    0.142E+00
RMM:   6    -0.653041339035E+03    0.26474E-02   -0.59399E-02 13645   0.435E-01    0.121E+00
RMM:   7    -0.653036712532E+03    0.46265E-02   -0.26040E-02 12973   0.360E-01    0.104E+00
RMM:   8    -0.653040000151E+03   -0.32876E-02   -0.17973E-02 11547   0.397E-01    0.146E+00
RMM:   9    -0.653027884495E+03    0.12116E-01   -0.15951E-02 12066   0.338E-01    0.268E-01
RMM:  10    -0.653030052159E+03   -0.21677E-02   -0.75469E-03 13772   0.178E-01    0.670E-01
RMM:  11    -0.653027918641E+03    0.21335E-02   -0.25820E-03 12076   0.140E-01    0.171E-01
RMM:  12    -0.653028168646E+03   -0.25000E-03   -0.21493E-03 12936   0.831E-02    0.255E-01
RMM:  13    -0.653027894384E+03    0.27426E-03   -0.77971E-04 12677   0.654E-02    0.835E-02
RMM:  14    -0.653027905828E+03   -0.11443E-04   -0.57155E-04 12984   0.390E-02    0.400E-02
RMM:  15    -0.653027913030E+03   -0.72028E-05   -0.19478E-04 11281   0.434E-02    0.229E-02
RMM:  16    -0.653027928986E+03   -0.15955E-04   -0.21487E-04 10455   0.221E-02    0.133E-02
RMM:  17    -0.653027930645E+03   -0.16591E-05   -0.66270E-05  8182   0.259E-02
  10 F= -.65302793E+03 E0= -.65295136E+03  d E =-.239319E+00
       N       E                     dE             d eps       ncg     rms          rms(c)
DAV:   1    -0.652216885042E+03    0.81104E+00   -0.37620E+01  9768   0.340E+01    0.167E+00
RMM:   2    -0.653183905091E+03   -0.96702E+00   -0.87725E+00 13791   0.668E+00    0.493E+00
RMM:   3    -0.653097484518E+03    0.86421E-01   -0.54061E-01  9769   0.345E+00    0.252E+00
RMM:   4    -0.653120899069E+03   -0.23415E-01   -0.20746E-01 12837   0.113E+00    0.275E+00
RMM:   5    -0.653080800747E+03    0.40098E-01   -0.48585E-02 11961   0.622E-01    0.789E-01
RMM:   6    -0.653082464035E+03   -0.16633E-02   -0.26673E-02 13552   0.301E-01    0.962E-01
RMM:   7    -0.653078380495E+03    0.40835E-02   -0.11075E-02 13042   0.235E-01    0.556E-01
RMM:   8    -0.653080687846E+03   -0.23074E-02   -0.87325E-03 12022   0.259E-01    0.995E-01
RMM:   9    -0.653075427639E+03    0.52602E-02   -0.53568E-03 11904   0.210E-01    0.175E-01
RMM:  10    -0.653075979789E+03   -0.55215E-03   -0.31387E-03 13764   0.101E-01    0.336E-01
RMM:  11    -0.653075511775E+03    0.46801E-03   -0.10518E-03 11357   0.876E-02    0.125E-01
RMM:  12    -0.653075515523E+03   -0.37479E-05   -0.77153E-04 12246   0.495E-02    0.114E-01
RMM:  13    -0.653075484097E+03    0.31426E-04   -0.27099E-04 10997   0.426E-02    0.697E-02
RMM:  14    -0.653075479229E+03    0.48680E-05   -0.24537E-04 11221   0.274E-02    0.248E-02
RMM:  15    -0.653075482002E+03   -0.27728E-05   -0.98675E-05  9614   0.270E-02
  11 F= -.65307548E+03 E0= -.65300121E+03  d E =-.286870E+00
       N       E                     dE             d eps       ncg     rms          rms(c)
DAV:   1    -0.652622479501E+03    0.45300E+00   -0.39987E+01 11160   0.313E+01    0.281E+00
RMM:   2    -0.654299614522E+03   -0.16771E+01   -0.73024E+00 13559   0.689E+00    0.127E+01
RMM:   3    -0.653260219091E+03    0.10394E+01   -0.74875E-01  9959   0.398E+00    0.348E+00
RMM:   4    -0.653245503882E+03    0.14715E-01   -0.30959E-01 12859   0.134E+00    0.259E+00
RMM:   5    -0.653212938028E+03    0.32566E-01   -0.65582E-02 12084   0.693E-01    0.150E+00
RMM:   6    -0.653208032271E+03    0.49058E-02   -0.28160E-02 12457   0.423E-01    0.120E+00
RMM:   7    -0.653200989794E+03    0.70425E-02   -0.23947E-02 12886   0.303E-01    0.467E-01
RMM:   8    -0.653202773030E+03   -0.17832E-02   -0.11109E-02 12152   0.304E-01    0.966E-01
RMM:   9    -0.653198131811E+03    0.46412E-02   -0.45711E-03 12341   0.204E-01    0.240E-01
RMM:  10    -0.653198725754E+03   -0.59394E-03   -0.34630E-03 14029   0.112E-01    0.371E-01
RMM:  11    -0.653198146071E+03    0.57968E-03   -0.12111E-03 12309   0.931E-02    0.111E-01
RMM:  12    -0.653198140161E+03    0.59103E-05   -0.90572E-04 13127   0.438E-02    0.572E-02
RMM:  13    -0.653198172891E+03   -0.32730E-04   -0.25970E-04 11783   0.485E-02    0.758E-02
RMM:  14    -0.653198181076E+03   -0.81848E-05   -0.26265E-04 11831   0.326E-02    0.556E-02
RMM:  15    -0.653198175936E+03    0.51397E-05   -0.14546E-04 11734   0.277E-02    0.190E-02
RMM:  16    -0.653198177305E+03   -0.13685E-05   -0.78399E-05  9483   0.229E-02
  12 F= -.65319818E+03 E0= -.65312514E+03  d E =-.122695E+00
       N       E                     dE             d eps       ncg     rms          rms(c)
DAV:   1    -0.653144778343E+03    0.53398E-01   -0.41613E+00 11496   0.102E+01    0.905E-01
RMM:   2    -0.653324926990E+03   -0.18015E+00   -0.79332E-01 13564   0.226E+00    0.425E+00
RMM:   3    -0.653213942994E+03    0.11098E+00   -0.82611E-02  9999   0.132E+00    0.125E+00
RMM:   4    -0.653210804232E+03    0.31388E-02   -0.33120E-02 12733   0.436E-01    0.797E-01
RMM:   5    -0.653208074879E+03    0.27294E-02   -0.73920E-03 12078   0.224E-01    0.551E-01
RMM:   6    -0.653207028467E+03    0.10464E-02   -0.28355E-03 11782   0.142E-01    0.345E-01
RMM:   7    -0.653206422412E+03    0.60605E-03   -0.26638E-03 13010   0.987E-02    0.150E-01
RMM:   8    -0.653206595560E+03   -0.17315E-03   -0.12306E-03 12002   0.106E-01    0.312E-01
RMM:   9    -0.653206121952E+03    0.47361E-03   -0.53314E-04 11370   0.681E-02    0.775E-02
RMM:  10    -0.653206172506E+03   -0.50554E-04   -0.37975E-04 11425   0.403E-02    0.110E-01
RMM:  11    -0.653206121692E+03    0.50813E-04   -0.12642E-04  8792   0.306E-02    0.375E-02
RMM:  12    -0.653206118297E+03    0.33955E-05   -0.87847E-05  8142   0.202E-02
  13 F= -.65320612E+03 E0= -.65313341E+03  d E =-.130636E+00
       N       E                     dE             d eps       ncg     rms          rms(c)
DAV:   1    -0.652882621462E+03    0.32350E+00   -0.46809E+01 13032   0.368E+01    0.599E+00
RMM:   2    -0.659288242046E+03   -0.64056E+01   -0.13370E+01 10672   0.125E+01    0.280E+01
RMM:   3    -0.653430014002E+03    0.58582E+01   -0.26370E+00 10669   0.647E+00    0.546E+00
RMM:   4    -0.653368367909E+03    0.61646E-01   -0.65751E-01 13251   0.207E+00    0.382E+00
RMM:   5    -0.653311136206E+03    0.57232E-01   -0.16518E-01 11680   0.113E+00    0.270E+00
RMM:   6    -0.653288669044E+03    0.22467E-01   -0.61315E-02 11030   0.798E-01    0.207E+00
RMM:   7    -0.653266176064E+03    0.22493E-01   -0.56078E-02 12002   0.552E-01    0.112E+00
RMM:   8    -0.653280777728E+03   -0.14602E-01   -0.25718E-02 11143   0.520E-01    0.207E+00
RMM:   9    -0.653258184251E+03    0.22593E-01   -0.15760E-02 12243   0.376E-01    0.343E-01
RMM:  10    -0.653259908820E+03   -0.17246E-02   -0.92849E-03 13456   0.221E-01    0.624E-01
RMM:  11    -0.653258254367E+03    0.16545E-02   -0.37550E-03 13544   0.144E-01    0.176E-01
RMM:  12    -0.653258590580E+03   -0.33621E-03   -0.21472E-03 13233   0.888E-02    0.241E-01
RMM:  13    -0.653258445199E+03    0.14538E-03   -0.90384E-04 12849   0.743E-02    0.109E-01
RMM:  14    -0.653258576773E+03   -0.13157E-03   -0.71657E-04 12852   0.458E-02    0.740E-02
RMM:  15    -0.653258707979E+03   -0.13121E-03   -0.42590E-04 12271   0.539E-02    0.327E-02
RMM:  16    -0.653258744500E+03   -0.36521E-04   -0.32743E-04 12328   0.401E-02    0.181E-02
RMM:  17    -0.653258756829E+03   -0.12328E-04   -0.19202E-04 11023   0.355E-02    0.173E-02
RMM:  18    -0.653258770114E+03   -0.13286E-04   -0.14036E-04 10048   0.262E-02    0.149E-02
RMM:  19    -0.653258778425E+03   -0.83108E-05   -0.77717E-05  8493   0.225E-02
  14 F= -.65325878E+03 E0= -.65318868E+03  d E =-.526601E-01
       N       E                     dE             d eps       ncg     rms          rms(c)
DAV:   1    -0.653244431641E+03    0.14338E-01   -0.25370E+00 13296   0.852E+00    0.142E+00
RMM:   2    -0.653600777093E+03   -0.35635E+00   -0.61902E-01 11195   0.252E+00    0.687E+00
RMM:   3    -0.653282963407E+03    0.31781E+00   -0.14282E-01 10602   0.149E+00    0.180E+00
RMM:   4    -0.653269504592E+03    0.13459E-01   -0.35843E-02 13021   0.511E-01    0.801E-01
RMM:   5    -0.653268189607E+03    0.13150E-02   -0.10785E-02 12248   0.256E-01    0.763E-01
RMM:   6    -0.653265658908E+03    0.25307E-02   -0.31561E-03 10635   0.188E-01    0.403E-01
RMM:   7    -0.653264851154E+03    0.80775E-03   -0.30546E-03 12142   0.120E-01    0.221E-01
RMM:   8    -0.653265379924E+03   -0.52877E-03   -0.11792E-03 10362   0.122E-01    0.404E-01
RMM:   9    -0.653264437273E+03    0.94265E-03   -0.71195E-04 11257   0.863E-02    0.824E-02
RMM:  10    -0.653264531344E+03   -0.94070E-04   -0.40861E-04 10852   0.483E-02    0.153E-01
RMM:  11    -0.653264419047E+03    0.11230E-03   -0.16554E-04  9303   0.341E-02    0.368E-02
RMM:  12    -0.653264429407E+03   -0.10361E-04   -0.10243E-04  8053   0.237E-02    0.515E-02
RMM:  13    -0.653264418865E+03    0.10542E-04   -0.38245E-05  6693   0.218E-02    0.220E-02
RMM:  14    -0.653264417438E+03    0.14268E-05   -0.30954E-05  6408   0.148E-02
  15 F= -.65326442E+03 E0= -.65319377E+03  d E =-.582991E-01
       N       E                     dE             d eps       ncg     rms          rms(c)
DAV:   1    -0.652797884677E+03    0.46653E+00   -0.25843E+01  9768   0.265E+01    0.145E+00
RMM:   2    -0.653394187150E+03   -0.59630E+00   -0.54845E+00 13821   0.544E+00    0.370E+00
RMM:   3    -0.653328180953E+03    0.66006E-01   -0.31787E-01  9796   0.265E+00    0.178E+00
RMM:   4    -0.653353995235E+03   -0.25814E-01   -0.12514E-01 12857   0.890E-01    0.261E+00
RMM:   5    -0.653318475159E+03    0.35520E-01   -0.27971E-02 11300   0.528E-01    0.493E-01
RMM:   6    -0.653321867034E+03   -0.33919E-02   -0.20404E-02 13068   0.264E-01    0.998E-01
RMM:   7    -0.653317996402E+03    0.38706E-02   -0.66828E-03 11850   0.232E-01    0.510E-01
RMM:   8    -0.653317470539E+03    0.52586E-03   -0.74303E-03 12623   0.195E-01    0.538E-01
RMM:   9    -0.653315896135E+03    0.15744E-02   -0.22119E-03 11326   0.142E-01    0.159E-01
RMM:  10    -0.653315911124E+03   -0.14989E-04   -0.17471E-03 13205   0.582E-02    0.969E-02
RMM:  11    -0.653315993339E+03   -0.82215E-04   -0.40778E-04  9883   0.616E-02    0.166E-01
RMM:  12    -0.653315878456E+03    0.11488E-03   -0.35912E-04 11330   0.356E-02    0.397E-02
RMM:  13    -0.653315913388E+03   -0.34932E-04   -0.14784E-04  9175   0.300E-02    0.824E-02
RMM:  14    -0.653315883966E+03    0.29422E-04   -0.93029E-05  8482   0.266E-02    0.219E-02
RMM:  15    -0.653315886444E+03   -0.24779E-05   -0.75511E-05  7616   0.183E-02
  16 F= -.65331589E+03 E0= -.65324587E+03  d E =-.514690E-01
       N       E                     dE             d eps       ncg     rms          rms(c)
DAV:   1    -0.653278275642E+03    0.37608E-01   -0.19314E+00  9576   0.728E+00    0.400E-01
RMM:   2    -0.653324763811E+03   -0.46488E-01   -0.42630E-01 13815   0.152E+00    0.100E+00
RMM:   3    -0.653319514188E+03    0.52496E-02   -0.26319E-02  9841   0.721E-01    0.436E-01
RMM:   4    -0.653321369678E+03   -0.18555E-02   -0.91367E-03 12934   0.244E-01    0.696E-01
RMM:   5    -0.653318940298E+03    0.24294E-02   -0.18975E-03 10747   0.142E-01    0.153E-01
RMM:   6    -0.653319255540E+03   -0.31524E-03   -0.14665E-03 11890   0.748E-02    0.308E-01
RMM:   7    -0.653318860599E+03    0.39494E-03   -0.57201E-04 11043   0.692E-02    0.121E-01
RMM:   8    -0.653318848563E+03    0.12035E-04   -0.62855E-04 12248   0.581E-02    0.153E-01
RMM:   9    -0.653318722800E+03    0.12576E-03   -0.18859E-04  8504   0.445E-02    0.436E-02
RMM:  10    -0.653318726944E+03   -0.41439E-05   -0.13978E-04  8808   0.224E-02    0.393E-02
RMM:  11    -0.653318724852E+03    0.20914E-05   -0.34230E-05  6183   0.202E-02
  17 F= -.65331872E+03 E0= -.65324882E+03  d E =-.543074E-01
       N       E                     dE             d eps       ncg     rms          rms(c)
DAV:   1    -0.653125557304E+03    0.19317E+00   -0.97166E+00  9072   0.172E+01    0.116E+00
RMM:   2    -0.653444211459E+03   -0.31865E+00   -0.23970E+00 13911   0.380E+00    0.389E+00
RMM:   3    -0.653351403287E+03    0.92808E-01   -0.17739E-01 10120   0.181E+00    0.121E+00
RMM:   4    -0.653364452379E+03   -0.13049E-01   -0.66455E-02 12196   0.711E-01    0.180E+00
RMM:   5    -0.653346880180E+03    0.17572E-01   -0.13292E-02 11738   0.379E-01    0.450E-01
RMM:   6    -0.653348372521E+03   -0.14923E-02   -0.88014E-03 13094   0.192E-01    0.729E-01
RMM:   7    -0.653345931121E+03    0.24414E-02   -0.42236E-03 12383   0.164E-01    0.271E-01
RMM:   8    -0.653346937710E+03   -0.10066E-02   -0.32107E-03 12107   0.151E-01    0.549E-01
RMM:   9    -0.653345196701E+03    0.17410E-02   -0.14172E-03 11718   0.115E-01    0.746E-02
RMM:  10    -0.653345320047E+03   -0.12335E-03   -0.10436E-03 12951   0.501E-02    0.130E-01
RMM:  11    -0.653345251027E+03    0.69020E-04   -0.26555E-04 10142   0.435E-02    0.566E-02
RMM:  12    -0.653345261922E+03   -0.10895E-04   -0.21067E-04 10317   0.264E-02    0.601E-02
RMM:  13    -0.653345253635E+03    0.82869E-05   -0.69454E-05  7612   0.249E-02
  18 F= -.65334525E+03 E0= -.65327531E+03  d E =-.265288E-01
       N       E                     dE             d eps       ncg     rms          rms(c)
DAV:   1    -0.653297737775E+03    0.47524E-01   -0.22770E+00  9216   0.837E+00    0.561E-01
RMM:   2    -0.653373217816E+03   -0.75480E-01   -0.56396E-01 13893   0.184E+00    0.191E+00
RMM:   3    -0.653350574588E+03    0.22643E-01   -0.41558E-02 10144   0.882E-01    0.580E-01
RMM:   4    -0.653353481571E+03   -0.29070E-02   -0.15977E-02 12262   0.340E-01    0.845E-01
RMM:   5    -0.653349562614E+03    0.39190E-02   -0.31409E-03 11532   0.186E-01    0.213E-01
RMM:   6    -0.653349964903E+03   -0.40229E-03   -0.21312E-03 12480   0.938E-02    0.367E-01
RMM:   7    -0.653349365638E+03    0.59927E-03   -0.99378E-04 12244   0.839E-02    0.138E-01
RMM:   8    -0.653349625285E+03   -0.25965E-03   -0.81042E-04 11797   0.766E-02    0.275E-01
RMM:   9    -0.653349187530E+03    0.43776E-03   -0.36160E-04 10737   0.607E-02    0.361E-02
RMM:  10    -0.653349229210E+03   -0.41681E-04   -0.27126E-04  9745   0.302E-02    0.788E-02
RMM:  11    -0.653349201238E+03    0.27972E-04   -0.74818E-05  7295   0.263E-02    0.252E-02
RMM:  12    -0.653349206443E+03   -0.52049E-05   -0.50388E-05  6787   0.183E-02
  19 F= -.65334921E+03 E0= -.65327920E+03  d E =-.304816E-01
       N       E                     dE             d eps       ncg     rms          rms(c)
DAV:   1    -0.653226917578E+03    0.12228E+00   -0.10420E+01 12240   0.176E+01    0.253E+00
RMM:   2    -0.654482848505E+03   -0.12559E+01   -0.28965E+00 11306   0.529E+00    0.128E+01
RMM:   3    -0.653427647191E+03    0.10552E+01   -0.51714E-01 10690   0.270E+00    0.348E+00
RMM:   4    -0.653379286328E+03    0.48361E-01   -0.14972E-01 12650   0.105E+00    0.139E+00
RMM:   5    -0.653373989827E+03    0.52965E-02   -0.37415E-02 12023   0.505E-01    0.125E+00
RMM:   6    -0.653367113355E+03    0.68765E-02   -0.11321E-02 11351   0.326E-01    0.699E-01
RMM:   7    -0.653365549122E+03    0.15642E-02   -0.10483E-02 12381   0.227E-01    0.534E-01
RMM:   8    -0.653366510411E+03   -0.96129E-03   -0.43484E-03 10894   0.225E-01    0.710E-01
RMM:   9    -0.653363612610E+03    0.28978E-02   -0.26567E-03 12526   0.150E-01    0.143E-01
RMM:  10    -0.653363918548E+03   -0.30594E-03   -0.13679E-03 12911   0.854E-02    0.264E-01
RMM:  11    -0.653363635640E+03    0.28291E-03   -0.60392E-04 12009   0.592E-02    0.749E-02
RMM:  12    -0.653363689160E+03   -0.53519E-04   -0.34060E-04 11550   0.390E-02    0.946E-02
RMM:  13    -0.653363672725E+03    0.16435E-04   -0.16240E-04 10546   0.323E-02    0.440E-02
RMM:  14    -0.653363699413E+03   -0.26688E-04   -0.11917E-04 10256   0.231E-02    0.271E-02
RMM:  15    -0.653363728852E+03   -0.29439E-04   -0.80721E-05  9379   0.241E-02    0.117E-02
RMM:  16    -0.653363736469E+03   -0.76165E-05   -0.57635E-05  8543   0.198E-02
  20 F= -.65336374E+03 E0= -.65329420E+03  d E =-.145300E-01
       N       E                     dE             d eps       ncg     rms          rms(c)
DAV:   1    -0.653363194292E+03    0.53456E-03   -0.52009E-02 12792   0.125E+00    0.179E-01
RMM:   2    -0.653369307572E+03   -0.61133E-02   -0.13263E-02 11743   0.354E-01    0.902E-01
RMM:   3    -0.653364225398E+03    0.50822E-02   -0.26155E-03 10445   0.198E-01    0.262E-01
RMM:   4    -0.653363933510E+03    0.29189E-03   -0.74220E-04 12031   0.772E-02    0.972E-02
RMM:   5    -0.653363904308E+03    0.29202E-04   -0.18637E-04  9692   0.384E-02    0.884E-02
RMM:   6    -0.653363872302E+03    0.32006E-04   -0.55151E-05  6941   0.277E-02    0.518E-02
RMM:   7    -0.653363858785E+03    0.13517E-04   -0.41384E-05  6181   0.219E-02    0.307E-02
RMM:   8    -0.653363867910E+03   -0.91253E-05   -0.24312E-05  5733   0.218E-02
  21 F= -.65336387E+03 E0= -.65329432E+03  d E =-.146615E-01
       N       E                     dE             d eps       ncg     rms          rms(c)
DAV:   1    -0.653218483602E+03    0.14538E+00   -0.76184E+00  9408   0.149E+01    0.815E-01
RMM:   2    -0.653413658903E+03   -0.19518E+00   -0.16874E+00 13809   0.310E+00    0.256E+00
RMM:   3    -0.653383112458E+03    0.30546E-01   -0.10652E-01  9939   0.148E+00    0.117E+00
RMM:   4    -0.653388074379E+03   -0.49619E-02   -0.42948E-02 12435   0.547E-01    0.128E+00
RMM:   5    -0.653378791100E+03    0.92833E-02   -0.84456E-03 11054   0.301E-01    0.297E-01
RMM:   6    -0.653379556712E+03   -0.76561E-03   -0.56589E-03 12524   0.145E-01    0.505E-01
RMM:   7    -0.653378472156E+03    0.10846E-02   -0.19489E-03 11754   0.114E-01    0.252E-01
RMM:   8    -0.653378981913E+03   -0.50976E-03   -0.18820E-03 11565   0.118E-01    0.424E-01
RMM:   9    -0.653377986246E+03    0.99567E-03   -0.86546E-04 10649   0.952E-02    0.856E-02
RMM:  10    -0.653378024910E+03   -0.38664E-04   -0.66104E-04 12280   0.443E-02    0.101E-01
RMM:  11    -0.653378009605E+03    0.15306E-04   -0.16892E-04  8226   0.418E-02    0.782E-02
RMM:  12    -0.653377985752E+03    0.23853E-04   -0.13920E-04  8439   0.224E-02    0.306E-02
RMM:  13    -0.653377990282E+03   -0.45303E-05   -0.48248E-05  6503   0.220E-02
  22 F= -.65337799E+03 E0= -.65330838E+03  d E =-.141224E-01
       N       E                     dE             d eps       ncg     rms          rms(c)
DAV:   1    -0.653309426230E+03    0.68560E-01   -0.34413E+00  9408   0.998E+00    0.544E-01
RMM:   2    -0.653396496274E+03   -0.87070E-01   -0.76022E-01 13795   0.208E+00    0.165E+00
RMM:   3    -0.653383655986E+03    0.12840E-01   -0.48117E-02  9914   0.101E+00    0.775E-01
RMM:   4    -0.653386069470E+03   -0.24135E-02   -0.19643E-02 12513   0.369E-01    0.876E-01
RMM:   5    -0.653381842194E+03    0.42273E-02   -0.38276E-03 10853   0.201E-01    0.203E-01
RMM:   6    -0.653382182457E+03   -0.34026E-03   -0.26329E-03 12128   0.987E-02    0.338E-01
RMM:   7    -0.653381700778E+03    0.48168E-03   -0.93254E-04 11456   0.797E-02    0.169E-01
RMM:   8    -0.653381968165E+03   -0.26739E-03   -0.89082E-04 11399   0.816E-02    0.295E-01
RMM:   9    -0.653381492691E+03    0.47547E-03   -0.41591E-04 10220   0.674E-02    0.580E-02
RMM:  10    -0.653381511102E+03   -0.18411E-04   -0.32337E-04 10818   0.314E-02    0.672E-02
RMM:  11    -0.653381503765E+03    0.73371E-05   -0.82264E-05  7166   0.293E-02
  23 F= -.65338150E+03 E0= -.65331185E+03  d E =-.176359E-01
       N       E                     dE             d eps       ncg     rms          rms(c)
DAV:   1    -0.653338527706E+03    0.42983E-01   -0.32955E+00 11088   0.975E+00    0.960E-01
RMM:   2    -0.653510148626E+03   -0.17162E+00   -0.73514E-01 13418   0.231E+00    0.409E+00
RMM:   3    -0.653398098543E+03    0.11205E+00   -0.82817E-02 10133   0.121E+00    0.118E+00
RMM:   4    -0.653396563227E+03    0.15353E-02   -0.31597E-02 12809   0.446E-01    0.892E-01
RMM:   5    -0.653392246170E+03    0.43171E-02   -0.65924E-03 12147   0.229E-01    0.372E-01
RMM:   6    -0.653392498120E+03   -0.25195E-03   -0.29204E-03 11833   0.146E-01    0.472E-01
RMM:   7    -0.653391402804E+03    0.10953E-02   -0.21655E-03 12478   0.112E-01    0.168E-01
RMM:   8    -0.653391845049E+03   -0.44225E-03   -0.11912E-03 11255   0.105E-01    0.356E-01
RMM:   9    -0.653391113333E+03    0.73172E-03   -0.55663E-04 11166   0.777E-02    0.483E-02
RMM:  10    -0.653391143133E+03   -0.29799E-04   -0.42740E-04 11437   0.323E-02    0.620E-02
RMM:  11    -0.653391131220E+03    0.11912E-04   -0.85706E-05  8075   0.302E-02    0.382E-02
RMM:  12    -0.653391127939E+03    0.32809E-05   -0.81051E-05  7752   0.195E-02
  24 F= -.65339113E+03 E0= -.65332147E+03  d E =-.962417E-02
       N       E                     dE             d eps       ncg     rms          rms(c)
DAV:   1    -0.653380968049E+03    0.10163E-01   -0.71279E-01 11376   0.455E+00    0.448E-01
RMM:   2    -0.653418895516E+03   -0.37927E-01   -0.16003E-01 13354   0.108E+00    0.195E+00
RMM:   3    -0.653393944333E+03    0.24951E-01   -0.18385E-02 10102   0.572E-01    0.561E-01
RMM:   4    -0.653393513183E+03    0.43115E-03   -0.70040E-03 12734   0.211E-01    0.405E-01
RMM:   5    -0.653392661659E+03    0.85152E-03   -0.14747E-03 11944   0.108E-01    0.198E-01
RMM:   6    -0.653392641229E+03    0.20430E-04   -0.61504E-04 10373   0.706E-02    0.205E-01
RMM:   7    -0.653392439428E+03    0.20180E-03   -0.52056E-04 12279   0.524E-02    0.818E-02
RMM:   8    -0.653392538359E+03   -0.98931E-04   -0.25283E-04  9526   0.564E-02    0.170E-01
RMM:   9    -0.653392372681E+03    0.16568E-03   -0.13893E-04  8826   0.389E-02    0.265E-02
RMM:  10    -0.653392386923E+03   -0.14242E-04   -0.86362E-05  7730   0.223E-02    0.544E-02
RMM:  11    -0.653392373779E+03    0.13144E-04   -0.31123E-05  6113   0.205E-02    0.170E-02
RMM:  12    -0.653392375327E+03   -0.15484E-05   -0.23357E-05  5982   0.148E-02
  25 F= -.65339238E+03 E0= -.65332269E+03  d E =-.108716E-01
       N       E                     dE             d eps       ncg     rms          rms(c)
DAV:   1    -0.653363213798E+03    0.29160E-01   -0.21753E+00 11016   0.817E+00    0.871E-01
RMM:   2    -0.653514779690E+03   -0.15157E+00   -0.51904E-01 12935   0.203E+00    0.404E+00
RMM:   3    -0.653404301967E+03    0.11048E+00   -0.71956E-02 10304   0.109E+00    0.107E+00
RMM:   4    -0.653402012501E+03    0.22895E-02   -0.26640E-02 12567   0.399E-01    0.652E-01
RMM:   5    -0.653400306390E+03    0.17061E-02   -0.49352E-03 12270   0.189E-01    0.451E-01
RMM:   6    -0.653399555767E+03    0.75062E-03   -0.16637E-03 11163   0.121E-01    0.278E-01
RMM:   7    -0.653399222238E+03    0.33353E-03   -0.14255E-03 12624   0.791E-02    0.174E-01
RMM:   8    -0.653399531429E+03   -0.30919E-03   -0.69557E-04 10236   0.926E-02    0.304E-01
RMM:   9    -0.653398983087E+03    0.54834E-03   -0.47531E-04 11323   0.673E-02    0.415E-02
RMM:  10    -0.653399036231E+03   -0.53144E-04   -0.24322E-04 10305   0.356E-02    0.972E-02
RMM:  11    -0.653399001962E+03    0.34270E-04   -0.86967E-05  7443   0.266E-02    0.331E-02
RMM:  12    -0.653399004128E+03   -0.21666E-05   -0.55416E-05  6815   0.196E-02
  26 F= -.65339900E+03 E0= -.65332961E+03  d E =-.662880E-02
       N       E                     dE             d eps       ncg     rms          rms(c)
DAV:   1    -0.653370196675E+03    0.28805E-01   -0.18535E+00 11016   0.753E+00    0.808E-01
RMM:   2    -0.653500269996E+03   -0.13007E+00   -0.44251E-01 12874   0.188E+00    0.374E+00
RMM:   3    -0.653405273248E+03    0.94997E-01   -0.62399E-02 10300   0.101E+00    0.983E-01
RMM:   4    -0.653403392885E+03    0.18804E-02   -0.22924E-02 12325   0.373E-01    0.599E-01
RMM:   5    -0.653401943511E+03    0.14494E-02   -0.42157E-03 12096   0.173E-01    0.410E-01
RMM:   6    -0.653401322638E+03    0.62087E-03   -0.14258E-03 10911   0.109E-01    0.251E-01
RMM:   7    -0.653401070666E+03    0.25197E-03   -0.12130E-03 12491   0.736E-02    0.164E-01
RMM:   8    -0.653401295555E+03   -0.22489E-03   -0.58376E-04 10286   0.840E-02    0.267E-01
RMM:   9    -0.653400874539E+03    0.42102E-03   -0.40013E-04 11511   0.616E-02    0.435E-02
RMM:  10    -0.653400922132E+03   -0.47593E-04   -0.21290E-04 10027   0.363E-02    0.903E-02
RMM:  11    -0.653400892290E+03    0.29841E-04   -0.85967E-05  8155   0.273E-02    0.319E-02
RMM:  12    -0.653400898800E+03   -0.65097E-05   -0.45750E-05  6694   0.204E-02
  27 F= -.65340090E+03 E0= -.65333176E+03  d E =-.852347E-02
       N       E                     dE             d eps       ncg     rms          rms(c)
DAV:   1    -0.653354142207E+03    0.46750E-01   -0.26841E+00  9072   0.879E+00    0.428E-01
RMM:   2    -0.653407565458E+03   -0.53423E-01   -0.54889E-01 13806   0.191E+00    0.797E-01
RMM:   3    -0.653409799527E+03   -0.22341E-02   -0.35847E-02 10038   0.853E-01    0.774E-01
RMM:   4    -0.653408252030E+03    0.15475E-02   -0.14003E-02 12988   0.303E-01    0.316E-01
RMM:   5    -0.653408134189E+03    0.11784E-03   -0.24772E-03 11203   0.147E-01    0.321E-01
RMM:   6    -0.653407786949E+03    0.34724E-03   -0.11899E-03 12491   0.789E-02    0.201E-01
RMM:   7    -0.653407756711E+03    0.30238E-04   -0.65592E-04 10832   0.768E-02    0.197E-01
RMM:   8    -0.653407598423E+03    0.15829E-03   -0.73529E-04 11933   0.695E-02    0.144E-01
RMM:   9    -0.653407536507E+03    0.61916E-04   -0.27888E-04  9885   0.493E-02    0.104E-01
RMM:  10    -0.653407493117E+03    0.43391E-04   -0.15614E-04  8599   0.307E-02    0.601E-02
RMM:  11    -0.653407484611E+03    0.85057E-05   -0.68647E-05  6817   0.238E-02
  28 F= -.65340748E+03 E0= -.65333850E+03  d E =-.658581E-02
       N       E                     dE             d eps       ncg     rms          rms(c)
DAV:   1    -0.653366217624E+03    0.41275E-01   -0.22293E+00  9072   0.803E+00    0.390E-01
RMM:   2    -0.653410786518E+03   -0.44569E-01   -0.45852E-01 13807   0.174E+00    0.714E-01
RMM:   3    -0.653412646581E+03   -0.18601E-02   -0.28971E-02 10036   0.764E-01    0.721E-01
RMM:   4    -0.653411242978E+03    0.14036E-02   -0.11815E-02 12993   0.272E-01    0.281E-01
RMM:   5    -0.653411165546E+03    0.77432E-04   -0.19023E-03 11075   0.133E-01    0.303E-01
RMM:   6    -0.653410831199E+03    0.33435E-03   -0.98763E-04 12268   0.723E-02    0.174E-01
RMM:   7    -0.653410859229E+03   -0.28031E-04   -0.57370E-04 10784   0.705E-02    0.196E-01
RMM:   8    -0.653410685888E+03    0.17334E-03   -0.59637E-04 11920   0.654E-02    0.121E-01
RMM:   9    -0.653410648121E+03    0.37767E-04   -0.25603E-04 10039   0.452E-02    0.933E-02
RMM:  10    -0.653410605216E+03    0.42905E-04   -0.12845E-04  8210   0.280E-02    0.493E-02
RMM:  11    -0.653410603372E+03    0.18447E-05   -0.60724E-05  6765   0.226E-02
  29 F= -.65341060E+03 E0= -.65334178E+03  d E =-.970457E-02
       N       E                     dE             d eps       ncg     rms          rms(c)
DAV:   1    -0.653231087662E+03    0.17952E+00   -0.89106E+00  9072   0.160E+01    0.781E-01
RMM:   2    -0.653411186220E+03   -0.18010E+00   -0.18462E+00 13818   0.350E+00    0.148E+00
RMM:   3    -0.653416305180E+03   -0.51190E-02   -0.11341E-01 10064   0.150E+00    0.138E+00
RMM:   4    -0.653411483352E+03    0.48218E-02   -0.45955E-02 12942   0.541E-01    0.582E-01
RMM:   5    -0.653410663970E+03    0.81938E-03   -0.72622E-03 11694   0.259E-01    0.555E-01
RMM:   6    -0.653409819840E+03    0.84413E-03   -0.39340E-03 13067   0.140E-01    0.413E-01
RMM:   7    -0.653409410550E+03    0.40929E-03   -0.20763E-03 11838   0.132E-01    0.322E-01
RMM:   8    -0.653408871796E+03    0.53875E-03   -0.25216E-03 12810   0.116E-01    0.206E-01
RMM:   9    -0.653408870093E+03    0.17035E-05   -0.84392E-04 11298   0.849E-02    0.223E-01
RMM:  10    -0.653408634182E+03    0.23591E-03   -0.50046E-04 11201   0.507E-02    0.829E-02
RMM:  11    -0.653408650969E+03   -0.16787E-04   -0.24942E-04  9218   0.380E-02    0.882E-02
RMM:  12    -0.653408610468E+03    0.40501E-04   -0.15182E-04  9428   0.271E-02    0.170E-02
RMM:  13    -0.653408616949E+03   -0.64809E-05   -0.84899E-05  8471   0.200E-02
  30 F= -.65340862E+03 E0= -.65334017E+03  d E =-.771815E-02
       N       E                     dE             d eps       ncg     rms          rms(c)
DAV:   1    -0.653323117053E+03    0.85493E-01   -0.45322E+00  9120   0.114E+01    0.550E-01
RMM:   2    -0.653410213935E+03   -0.87097E-01   -0.91089E-01 13788   0.249E+00    0.833E-01
RMM:   3    -0.653417176348E+03   -0.69624E-02   -0.58190E-02 10033   0.107E+00    0.117E+00
RMM:   4    -0.653412572705E+03    0.46036E-02   -0.22741E-02 12771   0.396E-01    0.405E-01
RMM:   5    -0.653412418019E+03    0.15469E-03   -0.41763E-03 11190   0.189E-01    0.434E-01
RMM:   6    -0.653411609535E+03    0.80848E-03   -0.18957E-03 12453   0.998E-02    0.232E-01
RMM:   7    -0.653411771478E+03   -0.16194E-03   -0.10199E-03 11021   0.890E-02    0.312E-01
RMM:   8    -0.653411293265E+03    0.47821E-03   -0.11610E-03 11545   0.883E-02    0.138E-01
RMM:   9    -0.653411291858E+03    0.14072E-05   -0.47086E-04 10235   0.649E-02    0.157E-01
RMM:  10    -0.653411172985E+03    0.11887E-03   -0.26966E-04  9616   0.411E-02    0.728E-02
RMM:  11    -0.653411167983E+03    0.50019E-05   -0.12775E-04  7276   0.276E-02    0.548E-02
RMM:  12    -0.653411154293E+03    0.13690E-04   -0.62312E-05  6775   0.223E-02    0.292E-02
RMM:  13    -0.653411154944E+03   -0.65028E-06   -0.29320E-05  6171   0.175E-02
  31 F= -.65341115E+03 E0= -.65334240E+03  d E =-.102561E-01
       N       E                     dE             d eps       ncg     rms          rms(c)
DAV:   1    -0.653356209986E+03    0.54944E-01   -0.35838E+00 10608   0.104E+01    0.975E-01
RMM:   2    -0.653534408681E+03   -0.17820E+00   -0.82333E-01 13511   0.237E+00    0.397E+00
RMM:   3    -0.653422119787E+03    0.11229E+00   -0.86388E-02 10385   0.121E+00    0.991E-01
RMM:   4    -0.653424391734E+03   -0.22719E-02   -0.34331E-02 12210   0.453E-01    0.105E+00
RMM:   5    -0.653418817646E+03    0.55741E-02   -0.68775E-03 11935   0.236E-01    0.402E-01
RMM:   6    -0.653418857565E+03   -0.39919E-04   -0.30313E-03 11698   0.147E-01    0.470E-01
RMM:   7    -0.653417801905E+03    0.10557E-02   -0.20134E-03 12155   0.108E-01    0.196E-01
RMM:   8    -0.653418341833E+03   -0.53993E-03   -0.11847E-03 10900   0.107E-01    0.389E-01
RMM:   9    -0.653417464999E+03    0.87683E-03   -0.70786E-04 11380   0.837E-02    0.599E-02
RMM:  10    -0.653417512041E+03   -0.47042E-04   -0.47974E-04 12120   0.385E-02    0.997E-02
RMM:  11    -0.653417474112E+03    0.37929E-04   -0.12744E-04  8332   0.340E-02    0.474E-02
RMM:  12    -0.653417472542E+03    0.15705E-05   -0.81464E-05  7673   0.217E-02
  32 F= -.65341747E+03 E0= -.65334876E+03  d E =-.631760E-02
       N       E                     dE             d eps       ncg     rms          rms(c)
DAV:   1    -0.653394750337E+03    0.22724E-01   -0.14036E+00 10944   0.649E+00    0.615E-01
RMM:   2    -0.653466091646E+03   -0.71341E-01   -0.32081E-01 13342   0.149E+00    0.254E+00
RMM:   3    -0.653420170259E+03    0.45921E-01   -0.34683E-02 10371   0.756E-01    0.622E-01
RMM:   4    -0.653421011467E+03   -0.84121E-03   -0.13788E-02 12165   0.283E-01    0.649E-01
RMM:   5    -0.653418935369E+03    0.20761E-02   -0.27212E-03 11788   0.146E-01    0.258E-01
RMM:   6    -0.653418930446E+03    0.49229E-05   -0.12184E-03 11140   0.931E-02    0.292E-01
RMM:   7    -0.653418529435E+03    0.40101E-03   -0.82168E-04 11859   0.699E-02    0.122E-01
RMM:   8    -0.653418739230E+03   -0.20980E-03   -0.48268E-04 10592   0.700E-02    0.241E-01
RMM:   9    -0.653418403705E+03    0.33552E-03   -0.29208E-04 10745   0.561E-02    0.386E-02
RMM:  10    -0.653418418151E+03   -0.14446E-04   -0.19970E-04  9701   0.269E-02    0.564E-02
RMM:  11    -0.653418407296E+03    0.10855E-04   -0.54188E-05  6862   0.254E-02    0.309E-02
RMM:  12    -0.653418404919E+03    0.23776E-05   -0.36950E-05  6375   0.179E-02
  33 F= -.65341840E+03 E0= -.65334976E+03  d E =-.724998E-02
       N       E                     dE             d eps       ncg     rms          rms(c)
DAV:   1    -0.653384830681E+03    0.33577E-01   -0.18801E+00  9072   0.743E+00    0.535E-01
RMM:   2    -0.653455480215E+03   -0.70650E-01   -0.43432E-01 13885   0.160E+00    0.222E+00
RMM:   3    -0.653425176950E+03    0.30303E-01   -0.33568E-02 10225   0.797E-01    0.727E-01
RMM:   4    -0.653425224071E+03   -0.47121E-04   -0.14129E-02 12073   0.301E-01    0.589E-01
RMM:   5    -0.653423304017E+03    0.19201E-02   -0.27019E-03 12024   0.148E-01    0.228E-01
RMM:   6    -0.653423356218E+03   -0.52201E-04   -0.13796E-03 11922   0.796E-02    0.251E-01
RMM:   7    -0.653423064603E+03    0.29162E-03   -0.85132E-04 12495   0.683E-02    0.114E-01
RMM:   8    -0.653423165769E+03   -0.10117E-03   -0.46139E-04 10625   0.657E-02    0.196E-01
RMM:   9    -0.653422939030E+03    0.22674E-03   -0.22742E-04  9654   0.489E-02    0.292E-02
RMM:  10    -0.653422956077E+03   -0.17047E-04   -0.16168E-04  8575   0.227E-02    0.354E-02
RMM:  11    -0.653422956265E+03   -0.18816E-06   -0.35295E-05  6277   0.223E-02
  34 F= -.65342296E+03 E0= -.65335459E+03  d E =-.455135E-02
       N       E                     dE             d eps       ncg     rms          rms(c)
DAV:   1    -0.653394638588E+03    0.28317E-01   -0.14866E+00  9120   0.664E+00    0.478E-01
RMM:   2    -0.653451272892E+03   -0.56634E-01   -0.34276E-01 13847   0.142E+00    0.201E+00
RMM:   3    -0.653426572323E+03    0.24701E-01   -0.27274E-02 10230   0.717E-01    0.653E-01
RMM:   4    -0.653426563800E+03    0.85224E-05   -0.11364E-02 11872   0.271E-01    0.518E-01
RMM:   5    -0.653425125966E+03    0.14378E-02   -0.22502E-03 11830   0.132E-01    0.217E-01
RMM:   6    -0.653425111140E+03    0.14826E-04   -0.10773E-03 11508   0.711E-02    0.210E-01
RMM:   7    -0.653424913109E+03    0.19803E-03   -0.68580E-04 12532   0.583E-02    0.943E-02
RMM:   8    -0.653424973646E+03   -0.60537E-04   -0.35694E-04 10863   0.582E-02    0.161E-01
RMM:   9    -0.653424829961E+03    0.14368E-03   -0.16481E-04  8975   0.421E-02    0.334E-02
RMM:  10    -0.653424855919E+03   -0.25958E-04   -0.11808E-04  8075   0.239E-02    0.656E-02
RMM:  11    -0.653424839810E+03    0.16109E-04   -0.41556E-05  6303   0.231E-02    0.198E-02
RMM:  12    -0.653424842380E+03   -0.25694E-05   -0.32216E-05  6231   0.140E-02
  35 F= -.65342484E+03 E0= -.65335670E+03  d E =-.643746E-02
       N       E                     dE             d eps       ncg     rms          rms(c)
DAV:   1    -0.653420873239E+03    0.39666E-02   -0.20354E-01  9696   0.244E+00    0.178E-01
RMM:   2    -0.653428648759E+03   -0.77755E-02   -0.46786E-02 13819   0.529E-01    0.750E-01
RMM:   3    -0.653425242914E+03    0.34058E-02   -0.37798E-03  9972   0.269E-01    0.240E-01
RMM:   4    -0.653425249890E+03   -0.69756E-05   -0.15785E-03 11196   0.103E-01    0.192E-01
RMM:   5    -0.653425061381E+03    0.18851E-03   -0.30714E-04  9627   0.510E-02    0.860E-02
RMM:   6    -0.653425049096E+03    0.12285E-04   -0.14051E-04  7711   0.310E-02    0.698E-02
RMM:   7    -0.653425037939E+03    0.11157E-04   -0.97284E-05  8664   0.271E-02    0.515E-02
RMM:   8    -0.653425043909E+03   -0.59705E-05   -0.49783E-05  6578   0.253E-02
  36 F= -.65342504E+03 E0= -.65335704E+03  d E =-.663899E-02
       N       E                     dE             d eps       ncg     rms          rms(c)
DAV:   1    -0.653425498989E+03   -0.46105E-03   -0.27153E-01 11472   0.243E+00    0.380E-01
RMM:   2    -0.653447287368E+03   -0.21788E-01   -0.54769E-02 11914   0.723E-01    0.166E+00
RMM:   3    -0.653428395161E+03    0.18892E-01   -0.97288E-03 10402   0.389E-01    0.449E-01
RMM:   4    -0.653427876527E+03    0.51863E-03   -0.29106E-03 12014   0.146E-01    0.298E-01
RMM:   5    -0.653427555928E+03    0.32060E-03   -0.95715E-04 11393   0.866E-02    0.248E-01
RMM:   6    -0.653427313419E+03    0.24251E-03   -0.37655E-04  9174   0.677E-02    0.142E-01
RMM:   7    -0.653427209460E+03    0.10396E-03   -0.34567E-04 11812   0.392E-02    0.530E-02
RMM:   8    -0.653427263134E+03   -0.53674E-04   -0.10695E-04  7462   0.428E-02    0.115E-01
RMM:   9    -0.653427186671E+03    0.76463E-04   -0.52916E-05  6384   0.268E-02    0.155E-02
RMM:  10    -0.653427194327E+03   -0.76554E-05   -0.40030E-05  6358   0.184E-02
  37 F= -.65342719E+03 E0= -.65335921E+03  d E =-.215042E-02
       N       E                     dE             d eps       ncg     rms          rms(c)
DAV:   1    -0.653426226860E+03    0.95981E-03   -0.28923E-01 11616   0.250E+00    0.394E-01
RMM:   2    -0.653449751854E+03   -0.23525E-01   -0.57555E-02 11776   0.748E-01    0.173E+00
RMM:   3    -0.653429290919E+03    0.20461E-01   -0.10426E-02 10414   0.401E-01    0.467E-01
RMM:   4    -0.653428693485E+03    0.59743E-03   -0.30793E-03 12158   0.151E-01    0.304E-01
RMM:   5    -0.653428396216E+03    0.29727E-03   -0.10287E-03 11677   0.889E-02    0.267E-01
RMM:   6    -0.653428103251E+03    0.29297E-03   -0.40890E-04  9340   0.706E-02    0.141E-01
RMM:   7    -0.653428002462E+03    0.10079E-03   -0.37796E-04 12169   0.398E-02    0.535E-02
RMM:   8    -0.653428063155E+03   -0.60693E-04   -0.12147E-04  7735   0.449E-02    0.119E-01
RMM:   9    -0.653427981317E+03    0.81838E-04   -0.59735E-05  6684   0.264E-02    0.125E-02
RMM:  10    -0.653427989463E+03   -0.81453E-05   -0.54790E-05  6804   0.184E-02
  38 F= -.65342799E+03 E0= -.65336007E+03  d E =-.294555E-02
       N       E                     dE             d eps       ncg     rms          rms(c)
DAV:   1    -0.653427760245E+03    0.22107E-03   -0.37341E-01 12552   0.297E+00    0.510E-01
RMM:   2    -0.653468299843E+03   -0.40540E-01   -0.79849E-02 11138   0.947E-01    0.229E+00
RMM:   3    -0.653431727160E+03    0.36573E-01   -0.17262E-02 10640   0.511E-01    0.588E-01
RMM:   4    -0.653430598094E+03    0.11291E-02   -0.44209E-03 12916   0.189E-01    0.346E-01
RMM:   5    -0.653430165205E+03    0.43289E-03   -0.13556E-03 12227   0.103E-01    0.260E-01
RMM:   6    -0.653429931564E+03    0.23364E-03   -0.52943E-04 10155   0.789E-02    0.186E-01
RMM:   7    -0.653429758622E+03    0.17294E-03   -0.48356E-04 11946   0.515E-02    0.793E-02
RMM:   8    -0.653429826011E+03   -0.67389E-04   -0.18493E-04  8591   0.518E-02    0.146E-01
RMM:   9    -0.653429698758E+03    0.12725E-03   -0.95519E-05  7597   0.338E-02    0.218E-02
RMM:  10    -0.653429703610E+03   -0.48517E-05   -0.78577E-05  7377   0.202E-02
  39 F= -.65342970E+03 E0= -.65336171E+03  d E =-.171415E-02
       N       E                     dE             d eps       ncg     rms          rms(c)
DAV:   1    -0.653429622097E+03    0.76661E-04   -0.49912E-02 12504   0.109E+00    0.190E-01
RMM:   2    -0.653435419610E+03   -0.57975E-02   -0.10973E-02 11009   0.350E-01    0.870E-01
RMM:   3    -0.653430167713E+03    0.52519E-02   -0.24082E-03 10093   0.192E-01    0.219E-01
RMM:   4    -0.653429999161E+03    0.16855E-03   -0.59250E-04 11197   0.720E-02    0.121E-01
RMM:   5    -0.653429955962E+03    0.43199E-04   -0.18496E-04 10050   0.385E-02    0.103E-01
RMM:   6    -0.653429913893E+03    0.42068E-04   -0.66746E-05  6599   0.314E-02    0.619E-02
RMM:   7    -0.653429891922E+03    0.21972E-04   -0.59717E-05  6955   0.219E-02    0.290E-02
RMM:   8    -0.653429900736E+03   -0.88149E-05   -0.26537E-05  5805   0.225E-02
  40 F= -.65342990E+03 E0= -.65336189E+03  d E =-.191127E-02
       N       E                     dE             d eps       ncg     rms          rms(c)
DAV:   1    -0.653428518490E+03    0.13734E-02   -0.19890E-01 12456   0.217E+00    0.375E-01
RMM:   2    -0.653450879651E+03   -0.22361E-01   -0.43137E-02 11029   0.695E-01    0.170E+00
RMM:   3    -0.653430655696E+03    0.20224E-01   -0.93317E-03 10474   0.376E-01    0.432E-01
RMM:   4    -0.653430032777E+03    0.62292E-03   -0.23614E-03 12350   0.139E-01    0.250E-01
RMM:   5    -0.653429831967E+03    0.20081E-03   -0.72668E-04 11448   0.739E-02    0.197E-01
RMM:   6    -0.653429686034E+03    0.14593E-03   -0.27813E-04  9197   0.597E-02    0.131E-01
RMM:   7    -0.653429599483E+03    0.86551E-04   -0.25983E-04 11653   0.376E-02    0.598E-02
RMM:   8    -0.653429634158E+03   -0.34676E-04   -0.93920E-05  7371   0.390E-02    0.107E-01
RMM:   9    -0.653429565708E+03    0.68451E-04   -0.47899E-05  6280   0.259E-02    0.174E-02
RMM:  10    -0.653429569513E+03   -0.38053E-05   -0.36142E-05  6258   0.189E-02
  41 F= -.65342957E+03 E0= -.65336147E+03  d E =-.158005E-02
       N       E                     dE             d eps       ncg     rms          rms(c)
DAV:   1    -0.653429257275E+03    0.30843E-03   -0.11958E-01 12552   0.168E+00    0.287E-01
RMM:   2    -0.653442102486E+03   -0.12845E-01   -0.25898E-02 11106   0.542E-01    0.129E+00
RMM:   3    -0.653430524886E+03    0.11578E-01   -0.54559E-03 10629   0.288E-01    0.330E-01
RMM:   4    -0.653430169932E+03    0.35495E-03   -0.13543E-03 12404   0.107E-01    0.199E-01
RMM:   5    -0.653430030303E+03    0.13963E-03   -0.42549E-04 11056   0.599E-02    0.148E-01
RMM:   6    -0.653429952759E+03    0.77544E-04   -0.16199E-04  8506   0.474E-02    0.107E-01
RMM:   7    -0.653429900814E+03    0.51945E-04   -0.14341E-04  9466   0.309E-02    0.531E-02
RMM:   8    -0.653429921705E+03   -0.20891E-04   -0.55355E-05  6327   0.316E-02    0.858E-02
RMM:   9    -0.653429881123E+03    0.40582E-04   -0.28926E-05  5802   0.240E-02    0.149E-02
RMM:  10    -0.653429886232E+03   -0.51084E-05   -0.14965E-05  5632   0.140E-02
  42 F= -.65342989E+03 E0= -.65336183E+03  d E =-.189677E-02
       N       E                     dE             d eps       ncg     rms          rms(c)
DAV:   1    -0.653425319092E+03    0.45620E-02   -0.29467E-01  9408   0.295E+00    0.159E-01
RMM:   2    -0.653431510935E+03   -0.61918E-02   -0.62046E-02 13754   0.613E-01    0.313E-01
RMM:   3    -0.653431417961E+03    0.92974E-04   -0.36545E-03  9655   0.288E-01    0.252E-01
RMM:   4    -0.653431532897E+03   -0.11494E-03   -0.14867E-03 12103   0.106E-01    0.248E-01
RMM:   5    -0.653431167904E+03    0.36499E-03   -0.34197E-04  9212   0.625E-02    0.768E-02
RMM:   6    -0.653431208896E+03   -0.40992E-04   -0.23350E-04  9272   0.373E-02    0.120E-01
RMM:   7    -0.653431142554E+03    0.66342E-04   -0.11831E-04  8916   0.317E-02    0.484E-02
RMM:   8    -0.653431153908E+03   -0.11354E-04   -0.71637E-05  6917   0.277E-02    0.779E-02
RMM:   9    -0.653431119022E+03    0.34886E-04   -0.31668E-05  5870   0.234E-02    0.123E-02
RMM:  10    -0.653431122880E+03   -0.38579E-05   -0.23348E-05  5926   0.143E-02
  43 F= -.65343112E+03 E0= -.65336311E+03  d E =-.123665E-02
       N       E                     dE             d eps       ncg     rms          rms(c)
DAV:   1    -0.653418658240E+03    0.12461E-01   -0.66099E-01  9408   0.443E+00    0.238E-01
RMM:   2    -0.653432738154E+03   -0.14080E-01   -0.14062E-01 13748   0.919E-01    0.472E-01
RMM:   3    -0.653432487727E+03    0.25043E-03   -0.82161E-03  9859   0.425E-01    0.379E-01
RMM:   4    -0.653432747387E+03   -0.25966E-03   -0.34089E-03 12543   0.157E-01    0.374E-01
RMM:   5    -0.653431936634E+03    0.81075E-03   -0.80357E-04 10171   0.925E-02    0.121E-01
RMM:   6    -0.653432018440E+03   -0.81806E-04   -0.56418E-04 10688   0.533E-02    0.175E-01
RMM:   7    -0.653431874938E+03    0.14350E-03   -0.29158E-04 10910   0.440E-02    0.649E-02
RMM:   8    -0.653431888765E+03   -0.13827E-04   -0.18862E-04  9913   0.399E-02    0.103E-01
RMM:   9    -0.653431827200E+03    0.61566E-04   -0.66791E-05  6782   0.277E-02    0.187E-02
RMM:  10    -0.653431831616E+03   -0.44163E-05   -0.52521E-05  7073   0.185E-02
  44 F= -.65343183E+03 E0= -.65336386E+03  d E =-.194538E-02
       N       E                     dE             d eps       ncg     rms          rms(c)
DAV:   1    -0.653427565171E+03    0.42620E-02   -0.42409E-01 12744   0.388E+00    0.557E-01
RMM:   2    -0.653480609953E+03   -0.53045E-01   -0.12044E-01 11180   0.110E+00    0.257E+00
RMM:   3    -0.653435067587E+03    0.45542E-01   -0.23005E-02 10759   0.576E-01    0.659E-01
RMM:   4    -0.653433638100E+03    0.14295E-02   -0.61679E-03 12362   0.211E-01    0.357E-01
RMM:   5    -0.653433238184E+03    0.39992E-03   -0.16978E-03 11992   0.111E-01    0.291E-01
RMM:   6    -0.653432910959E+03    0.32722E-03   -0.55469E-04  9838   0.768E-02    0.174E-01
RMM:   7    -0.653432745266E+03    0.16569E-03   -0.51505E-04 11899   0.504E-02    0.639E-02
RMM:   8    -0.653432841757E+03   -0.96491E-04   -0.19695E-04  8946   0.528E-02    0.152E-01
RMM:   9    -0.653432713560E+03    0.12820E-03   -0.97036E-05  7437   0.353E-02    0.283E-02
RMM:  10    -0.653432730434E+03   -0.16874E-04   -0.60293E-05  6771   0.236E-02    0.551E-02
RMM:  11    -0.653432719813E+03    0.10621E-04   -0.25762E-05  5890   0.200E-02    0.138E-02
RMM:  12    -0.653432724225E+03   -0.44118E-05   -0.20173E-05  5867   0.140E-02
  45 F= -.65343272E+03 E0= -.65336493E+03  d E =-.892609E-03
       N       E                     dE             d eps       ncg     rms          rms(c)
DAV:   1    -0.653432689361E+03    0.30452E-04   -0.28422E-03 13224   0.317E-01    0.490E-02
RMM:   2    -0.653433110816E+03   -0.42145E-03   -0.81295E-04  9985   0.926E-02    0.231E-01
RMM:   3    -0.653432744780E+03    0.36604E-03   -0.17381E-04  7661   0.565E-02    0.582E-02
RMM:   4    -0.653432733008E+03    0.11772E-04   -0.42351E-05  6453   0.226E-02    0.288E-02
RMM:   5    -0.653432734719E+03   -0.17106E-05   -0.13324E-05  5456   0.170E-02
  46 F= -.65343273E+03 E0= -.65336496E+03  d E =-.903103E-03
       N       E                     dE             d eps       ncg     rms          rms(c)
DAV:   1    -0.653429593595E+03    0.31394E-02   -0.22343E-01 10704   0.254E+00    0.212E-01
RMM:   2    -0.653437482792E+03   -0.78892E-02   -0.49324E-02 13802   0.541E-01    0.739E-01
RMM:   3    -0.653433700597E+03    0.37822E-02   -0.44215E-03  9896   0.294E-01    0.191E-01
RMM:   4    -0.653434089188E+03   -0.38859E-03   -0.17440E-03 12090   0.109E-01    0.321E-01
RMM:   5    -0.653433574047E+03    0.51514E-03   -0.45222E-04 10467   0.684E-02    0.103E-01
RMM:   6    -0.653433578722E+03   -0.46755E-05   -0.23547E-04  9334   0.466E-02    0.123E-01
RMM:   7    -0.653433498444E+03    0.80279E-04   -0.15340E-04  9671   0.334E-02    0.469E-02
RMM:   8    -0.653433526666E+03   -0.28223E-04   -0.83660E-05  7334   0.306E-02    0.990E-02
RMM:   9    -0.653433475432E+03    0.51234E-04   -0.35974E-05  5859   0.239E-02    0.176E-02
RMM:  10    -0.653433475519E+03   -0.86140E-07   -0.29077E-05  6167   0.155E-02
  47 F= -.65343348E+03 E0= -.65336572E+03  d E =-.740800E-03
       N       E                     dE             d eps       ncg     rms          rms(c)
DAV:   1    -0.653433144963E+03    0.33047E-03   -0.24743E-02 11328   0.847E-01    0.743E-02
RMM:   2    -0.653434175300E+03   -0.10303E-02   -0.54629E-03 13539   0.182E-01    0.298E-01
RMM:   3    -0.653433600328E+03    0.57497E-03   -0.55299E-04  8776   0.104E-01    0.812E-02
RMM:   4    -0.653433616373E+03   -0.16045E-04   -0.21789E-04  9936   0.416E-02    0.868E-02
RMM:   5    -0.653433575838E+03    0.40535E-04   -0.46659E-05  6191   0.245E-02    0.390E-02
RMM:   6    -0.653433576503E+03   -0.66537E-06   -0.24796E-05  5858   0.207E-02
  48 F= -.65343358E+03 E0= -.65336582E+03  d E =-.841785E-03
       N       E                     dE             d eps       ncg     rms          rms(c)
DAV:   1    -0.653431813713E+03    0.17621E-02   -0.98725E-02 10848   0.169E+00    0.150E-01
RMM:   2    -0.653435722689E+03   -0.39090E-02   -0.21909E-02 13670   0.364E-01    0.565E-01
RMM:   3    -0.653433630400E+03    0.20923E-02   -0.21533E-03  9787   0.202E-01    0.160E-01
RMM:   4    -0.653433724668E+03   -0.94268E-04   -0.84173E-04 11271   0.764E-02    0.191E-01
RMM:   5    -0.653433546791E+03    0.17788E-03   -0.22502E-04  9998   0.470E-02    0.891E-02
RMM:   6    -0.653433520305E+03    0.26487E-04   -0.96624E-05  7095   0.337E-02    0.670E-02
RMM:   7    -0.653433503293E+03    0.17011E-04   -0.84788E-05  8113   0.255E-02    0.466E-02
RMM:   8    -0.653433511354E+03   -0.80610E-05   -0.35243E-05  5923   0.236E-02
  49 F= -.65343351E+03 E0= -.65336579E+03  d E =-.776635E-03
       N       E                     dE             d eps       ncg     rms          rms(c)
DAV:   1    -0.653432891819E+03    0.61147E-03   -0.41148E-02 11064   0.109E+00    0.925E-02
RMM:   2    -0.653434322676E+03   -0.14309E-02   -0.87522E-03 13710   0.232E-01    0.322E-01
RMM:   3    -0.653433607802E+03    0.71487E-03   -0.83792E-04  9093   0.131E-01    0.825E-02
RMM:   4    -0.653433681378E+03   -0.73575E-04   -0.32821E-04  9738   0.506E-02    0.137E-01
RMM:   5    -0.653433581866E+03    0.99512E-04   -0.70260E-05  6544   0.320E-02    0.434E-02
RMM:   6    -0.653433587498E+03   -0.56321E-05   -0.32984E-05  5890   0.239E-02
  50 F= -.65343359E+03 E0= -.65336587E+03  d E =-.852779E-03
       N       E                     dE             d eps       ncg     rms          rms(c)
DAV:   1    -0.653428671546E+03    0.49103E-02   -0.25697E-01 11040   0.297E+00    0.233E-01
RMM:   2    -0.653440398693E+03   -0.11727E-01   -0.63035E-02 13635   0.600E-01    0.965E-01
RMM:   3    -0.653434219898E+03    0.61788E-02   -0.60451E-03 10006   0.336E-01    0.271E-01
RMM:   4    -0.653434279615E+03   -0.59717E-04   -0.23139E-03 11586   0.119E-01    0.240E-01
RMM:   5    -0.653433994943E+03    0.28467E-03   -0.46559E-04 10060   0.633E-02    0.113E-01
RMM:   6    -0.653433974267E+03    0.20676E-04   -0.18264E-04  8104   0.397E-02    0.108E-01
RMM:   7    -0.653433911856E+03    0.62411E-04   -0.11769E-04  8406   0.277E-02    0.373E-02
RMM:   8    -0.653433931218E+03   -0.19362E-04   -0.76285E-05  7497   0.308E-02    0.867E-02
RMM:   9    -0.653433893389E+03    0.37829E-04   -0.31231E-05  5784   0.226E-02    0.206E-02
RMM:  10    -0.653433894384E+03   -0.99486E-06   -0.19667E-05  5738   0.175E-02
  51 F= -.65343389E+03 E0= -.65336618E+03  d E =-.306886E-03
       N       E                     dE             d eps       ncg     rms          rms(c)
DAV:   1    -0.653433491215E+03    0.40217E-03   -0.20189E-02 11712   0.836E-01    0.671E-02
RMM:   2    -0.653434473492E+03   -0.98228E-03   -0.49794E-03 13193   0.171E-01    0.287E-01
RMM:   3    -0.653433926921E+03    0.54657E-03   -0.51933E-04  8544   0.102E-01    0.802E-02
RMM:   4    -0.653433929320E+03   -0.23992E-05   -0.20189E-04  8886   0.374E-02    0.652E-02
RMM:   5    -0.653433908754E+03    0.20566E-04   -0.37061E-05  6013   0.208E-02    0.308E-02
RMM:   6    -0.653433907327E+03    0.14272E-05   -0.15238E-05  5651   0.173E-02
  52 F= -.65343391E+03 E0= -.65336621E+03  d E =-.319830E-03
       N       E                     dE             d eps       ncg     rms          rms(c)
DAV:   1    -0.653433670872E+03    0.23788E-03   -0.75979E-02 11976   0.139E+00    0.213E-01
RMM:   2    -0.653440742472E+03   -0.70716E-02   -0.16755E-02 11626   0.412E-01    0.932E-01
RMM:   3    -0.653434512474E+03    0.62300E-02   -0.30831E-03 10160   0.219E-01    0.220E-01
RMM:   4    -0.653434418309E+03    0.94165E-04   -0.88910E-04 11624   0.831E-02    0.171E-01
RMM:   5    -0.653434307713E+03    0.11060E-03   -0.26602E-04 10517   0.481E-02    0.125E-01
RMM:   6    -0.653434259818E+03    0.47896E-04   -0.11192E-04  7549   0.411E-02    0.915E-02
RMM:   7    -0.653434216929E+03    0.42888E-04   -0.10077E-04  8941   0.255E-02    0.406E-02
RMM:   8    -0.653434232516E+03   -0.15587E-04   -0.36862E-05  5917   0.273E-02    0.679E-02
RMM:   9    -0.653434207242E+03    0.25274E-04   -0.21483E-05  5684   0.206E-02    0.104E-02
RMM:  10    -0.653434209757E+03   -0.25151E-05   -0.12905E-05  5662   0.119E-02
  53 F= -.65343421E+03 E0= -.65336658E+03  d E =-.302430E-03
       N       E                     dE             d eps       ncg     rms          rms(c)
DAV:   1    -0.653434179282E+03    0.27960E-04   -0.41458E-03 12336   0.327E-01    0.519E-02
RMM:   2    -0.653434623098E+03   -0.44382E-03   -0.94147E-04 10826   0.983E-02    0.236E-01
RMM:   3    -0.653434230040E+03    0.39306E-03   -0.18025E-04  7924   0.584E-02    0.572E-02
RMM:   4    -0.653434220731E+03    0.93086E-05   -0.48061E-05  6717   0.240E-02
  54 F= -.65343422E+03 E0= -.65336662E+03  d E =-.313404E-03
       N       E                     dE             d eps       ncg     rms          rms(c)
DAV:   1    -0.653434045885E+03    0.18416E-03   -0.16719E-02 11856   0.647E-01    0.113E-01
RMM:   2    -0.653436174064E+03   -0.21282E-02   -0.40452E-03 11294   0.205E-01    0.549E-01
RMM:   3    -0.653434298899E+03    0.18752E-02   -0.85535E-04  9301   0.121E-01    0.168E-01
RMM:   4    -0.653434182746E+03    0.11615E-03   -0.24205E-04  9548   0.511E-02    0.704E-02
RMM:   5    -0.653434155254E+03    0.27492E-04   -0.79131E-05  7582   0.257E-02    0.358E-02
RMM:   6    -0.653434170405E+03   -0.15151E-04   -0.32169E-05  5896   0.239E-02    0.728E-02
RMM:   7    -0.653434145183E+03    0.25222E-04   -0.21001E-05  5627   0.207E-02    0.170E-02
RMM:   8    -0.653434151085E+03   -0.59017E-05   -0.13896E-05  5493   0.153E-02
  55 F= -.65343415E+03 E0= -.65336657E+03  d E =-.243757E-03
       N       E                     dE             d eps       ncg     rms          rms(c)
DAV:   1    -0.653434147264E+03   -0.20812E-05   -0.12123E-02 12048   0.553E-01    0.854E-02
RMM:   2    -0.653435214480E+03   -0.10672E-02   -0.25900E-03 11546   0.163E-01    0.363E-01
RMM:   3    -0.653434269052E+03    0.94543E-03   -0.47339E-04  9073   0.900E-02    0.872E-02
RMM:   4    -0.653434257422E+03    0.11631E-04   -0.12640E-04  8818   0.368E-02    0.725E-02
RMM:   5    -0.653434231744E+03    0.25678E-04   -0.33797E-05  5890   0.235E-02    0.444E-02
RMM:   6    -0.653434228469E+03    0.32750E-05   -0.19547E-05  5653   0.205E-02
  56 F= -.65343423E+03 E0= -.65336662E+03  d E =-.321142E-03
       N       E                     dE             d eps       ncg     rms          rms(c)
DAV:   1    -0.653434222447E+03    0.92973E-05   -0.23022E-04 13680   0.833E-02    0.189E-02
RMM:   2    -0.653434276086E+03   -0.53639E-04   -0.60958E-05  6443   0.290E-02    0.915E-02
RMM:   3    -0.653434223245E+03    0.52842E-04   -0.23326E-05  5868   0.270E-02    0.220E-02
RMM:   4    -0.653434221787E+03    0.14582E-05   -0.52460E-06  4493   0.920E-03
  57 F= -.65343422E+03 E0= -.65336661E+03  d E =-.314459E-03
       N       E                     dE             d eps       ncg     rms          rms(c)
DAV:   1    -0.653433114520E+03    0.11087E-02   -0.76237E-02  9504   0.138E+00    0.839E-02
RMM:   2    -0.653434843793E+03   -0.17293E-02   -0.13971E-02 13720   0.292E-01    0.273E-01
RMM:   3    -0.653434435166E+03    0.40863E-03   -0.88588E-04  9480   0.140E-01    0.113E-01
RMM:   4    -0.653434473574E+03   -0.38408E-04   -0.37072E-04 10449   0.540E-02    0.124E-01
RMM:   5    -0.653434382905E+03    0.90669E-04   -0.70192E-05  6509   0.335E-02    0.274E-02
RMM:   6    -0.653434396197E+03   -0.13292E-04   -0.52102E-05  6390   0.215E-02    0.601E-02
RMM:   7    -0.653434379145E+03    0.17053E-04   -0.28480E-05  5916   0.229E-02    0.267E-02
RMM:   8    -0.653434383442E+03   -0.42978E-05   -0.21398E-05  5621   0.166E-02
  58 F= -.65343438E+03 E0= -.65336679E+03  d E =-.161656E-03
       N       E                     dE             d eps       ncg     rms          rms(c)
DAV:   1    -0.653433945420E+03    0.43373E-03   -0.25941E-02  9408   0.805E-01    0.471E-02
RMM:   2    -0.653434497229E+03   -0.55181E-03   -0.47814E-03 13601   0.171E-01    0.130E-01
RMM:   3    -0.653434396039E+03    0.10119E-03   -0.32621E-04  8589   0.878E-02    0.483E-02
RMM:   4    -0.653434427821E+03   -0.31782E-04   -0.13658E-04  8543   0.326E-02    0.864E-02
RMM:   5    -0.653434391266E+03    0.36555E-04   -0.29238E-05  5863   0.215E-02    0.154E-02
RMM:   6    -0.653434392606E+03   -0.13402E-05   -0.19954E-05  5861   0.151E-02
  59 F= -.65343439E+03 E0= -.65336683E+03  d E =-.170820E-03
       N       E                     dE             d eps       ncg     rms          rms(c)
DAV:   1    -0.653434347195E+03    0.44071E-04   -0.30730E-03 10632   0.277E-01    0.247E-02
RMM:   2    -0.653434514348E+03   -0.16715E-03   -0.56844E-04 12119   0.630E-02    0.152E-01
RMM:   3    -0.653434393967E+03    0.12038E-03   -0.69015E-05  6392   0.422E-02    0.205E-02
RMM:   4    -0.653434394442E+03   -0.47591E-06   -0.16451E-05  5600   0.160E-02
  60 F= -.65343439E+03 E0= -.65336682E+03  d E =-.172656E-03
       N       E                     dE             d eps       ncg     rms          rms(c)
DAV:   1    -0.653434383523E+03    0.10444E-04   -0.64172E-04 11688   0.133E-01    0.104E-02
RMM:   2    -0.653434409383E+03   -0.25860E-04   -0.10282E-04  8451   0.281E-02    0.553E-02
RMM:   3    -0.653434391764E+03    0.17620E-04   -0.14305E-05  5551   0.218E-02    0.895E-03
RMM:   4    -0.653434392402E+03   -0.63790E-06   -0.48299E-06  4757   0.900E-03
  61 F= -.65343439E+03 E0= -.65336682E+03  d E =-.170615E-03
       N       E                     dE             d eps       ncg     rms          rms(c)
DAV:   1    -0.653434389666E+03    0.20974E-05   -0.19594E-04 11328   0.732E-02    0.648E-03
RMM:   2    -0.653434400257E+03   -0.10591E-04   -0.24956E-05  5841   0.159E-02    0.420E-02
RMM:   3    -0.653434391968E+03    0.82893E-05   -0.81215E-06  4535   0.179E-02
  62 F= -.65343439E+03 E0= -.65336682E+03  d E =-.170181E-03
       N       E                     dE             d eps       ncg     rms          rms(c)
DAV:   1    -0.653434391653E+03    0.86043E-05   -0.45232E-05  9000   0.366E-02    0.771E-03
RMM:   2    -0.653434411908E+03   -0.20255E-04   -0.12206E-05  5537   0.140E-02    0.636E-02
RMM:   3    -0.653434392215E+03    0.19693E-04   -0.65909E-06  4668   0.140E-02    0.738E-03
RMM:   4    -0.653434391959E+03    0.25541E-06   -0.13547E-06  4166   0.403E-03
  63 F= -.65343439E+03 E0= -.65336682E+03  d E =-.170173E-03
       N       E                     dE             d eps       ncg     rms          rms(c)
DAV:   1    -0.653433886238E+03    0.50598E-03   -0.33062E-02  9072   0.101E+00    0.716E-02
RMM:   2    -0.653434755490E+03   -0.86925E-03   -0.75620E-03 13743   0.217E-01    0.182E-01
RMM:   3    -0.653434555008E+03    0.20048E-03   -0.52156E-04  9060   0.105E-01    0.712E-02
RMM:   4    -0.653434606796E+03   -0.51788E-04   -0.20221E-04  9153   0.445E-02    0.124E-01
RMM:   5    -0.653434527785E+03    0.79011E-04   -0.51094E-05  6219   0.293E-02    0.401E-02
RMM:   6    -0.653434529933E+03   -0.21482E-05   -0.27762E-05  5828   0.216E-02
  64 F= -.65343453E+03 E0= -.65336694E+03  d E =-.137973E-03
       N       E                     dE             d eps       ncg     rms          rms(c)
DAV:   1    -0.653434424844E+03    0.10294E-03   -0.62656E-03 11496   0.443E-01    0.398E-02
RMM:   2    -0.653434660901E+03   -0.23606E-03   -0.13839E-03 13029   0.989E-02    0.145E-01
RMM:   3    -0.653434534547E+03    0.12635E-03   -0.14310E-04  7696   0.565E-02    0.474E-02
RMM:   4    -0.653434538011E+03   -0.34642E-05   -0.48579E-05  6399   0.240E-02
  65 F= -.65343454E+03 E0= -.65336697E+03  d E =-.146052E-03
       N       E                     dE             d eps       ncg     rms          rms(c)
DAV:   1    -0.653434493152E+03    0.41396E-04   -0.34044E-02 12264   0.989E-01    0.218E-01
RMM:   2    -0.653441649876E+03   -0.71567E-02   -0.10668E-02 10779   0.362E-01    0.989E-01
RMM:   3    -0.653434833366E+03    0.68165E-02   -0.27628E-03 10061   0.210E-01    0.250E-01
RMM:   4    -0.653434600292E+03    0.23307E-03   -0.58236E-04 10618   0.787E-02    0.136E-01
RMM:   5    -0.653434556515E+03    0.43777E-04   -0.22847E-04  9981   0.445E-02    0.127E-01
RMM:   6    -0.653434482337E+03    0.74178E-04   -0.78536E-05  6924   0.356E-02    0.621E-02
RMM:   7    -0.653434464889E+03    0.17448E-04   -0.69829E-05  7670   0.237E-02    0.423E-02
RMM:   8    -0.653434464585E+03    0.30438E-06   -0.25236E-05  5760   0.226E-02
  66 F= -.65343446E+03 E0= -.65336691E+03  d E =0.734270E-04
       N       E                     dE             d eps       ncg     rms          rms(c)
DAV:   1    -0.653434513430E+03   -0.48541E-04   -0.93016E-03 12384   0.521E-01    0.109E-01
RMM:   2    -0.653436222327E+03   -0.17089E-02   -0.27697E-03 10879   0.186E-01    0.478E-01
RMM:   3    -0.653434580061E+03    0.16423E-02   -0.68289E-04  9612   0.106E-01    0.110E-01
RMM:   4    -0.653434547353E+03    0.32708E-04   -0.14357E-04  8893   0.430E-02    0.792E-02
RMM:   5    -0.653434522188E+03    0.25164E-04   -0.45995E-05  6322   0.254E-02    0.553E-02
RMM:   6    -0.653434514075E+03    0.81127E-05   -0.22955E-05  5752   0.208E-02
  67 F= -.65343451E+03 E0= -.65336694E+03  d E =0.239360E-04
       N       E                     dE             d eps       ncg     rms          rms(c)
DAV:   1    -0.653434520518E+03    0.16704E-05   -0.20977E-03 12864   0.254E-01    0.609E-02
RMM:   2    -0.653435119246E+03   -0.59873E-03   -0.74966E-04  9469   0.955E-02    0.291E-01
RMM:   3    -0.653434544292E+03    0.57495E-03   -0.21694E-04  7926   0.657E-02    0.715E-02
RMM:   4    -0.653434522140E+03    0.22152E-04   -0.34713E-05  6010   0.225E-02    0.344E-02
RMM:   5    -0.653434526005E+03   -0.38653E-05   -0.16279E-05  5549   0.193E-02
  68 F= -.65343453E+03 E0= -.65336694E+03  d E =0.120066E-04
       N       E                     dE             d eps       ncg     rms          rms(c)
DAV:   1    -0.653434518716E+03    0.34233E-05   -0.32916E-04 13368   0.103E-01    0.259E-02
RMM:   2    -0.653434630088E+03   -0.11137E-03   -0.11285E-04  7207   0.373E-02    0.130E-01
RMM:   3    -0.653434522776E+03    0.10731E-03   -0.37203E-05  5977   0.296E-02    0.288E-02
RMM:   4    -0.653434519363E+03    0.34136E-05   -0.76787E-06  4463   0.115E-02
  69 F= -.65343452E+03 E0= -.65336696E+03  d E =0.186489E-04
       N       E                     dE             d eps       ncg     rms          rms(c)
DAV:   1    -0.653434518857E+03    0.39196E-05   -0.16387E-04 12984   0.678E-02    0.187E-02
RMM:   2    -0.653434571085E+03   -0.52228E-04   -0.58595E-05  6503   0.286E-02    0.887E-02
RMM:   3    -0.653434521316E+03    0.49769E-04   -0.21131E-05  5825   0.254E-02    0.226E-02
RMM:   4    -0.653434519682E+03    0.16342E-05   -0.44040E-06  4417   0.848E-03
  70 F= -.65343452E+03 E0= -.65336696E+03  d E =0.183298E-04
       N       E                     dE             d eps       ncg     rms          rms(c)
DAV:   1    -0.653434517788E+03    0.35283E-05   -0.35914E-05  7248   0.363E-02    0.130E-02
RMM:   2    -0.653434553920E+03   -0.36132E-04   -0.28512E-05  5817   0.228E-02    0.776E-02
RMM:   3    -0.653434520339E+03    0.33581E-04   -0.12349E-05  5401   0.174E-02    0.176E-02
RMM:   4    -0.653434518934E+03    0.14047E-05   -0.29164E-06  4350   0.663E-03
  71 F= -.65343452E+03 E0= -.65336696E+03  d E =0.190775E-04
       N       E                     dE             d eps       ncg     rms          rms(c)
DAV:   1    -0.653434471101E+03    0.49237E-04   -0.39816E-03 11664   0.352E-01    0.269E-02
RMM:   2    -0.653434633324E+03   -0.16222E-03   -0.92503E-04 12155   0.731E-02    0.109E-01
RMM:   3    -0.653434551610E+03    0.81714E-04   -0.77388E-05  6644   0.436E-02    0.288E-02
RMM:   4    -0.653434553786E+03   -0.21759E-05   -0.23539E-05  5707   0.174E-02
  72 F= -.65343455E+03 E0= -.65336699E+03  d E =-.348523E-04
       N       E                     dE             d eps       ncg     rms          rms(c)
DAV:   1    -0.653434529951E+03    0.21659E-04   -0.17593E-03 11472   0.231E-01    0.264E-02
RMM:   2    -0.653434682944E+03   -0.15299E-03   -0.48965E-04 10904   0.572E-02    0.141E-01
RMM:   3    -0.653434570021E+03    0.11292E-03   -0.65848E-05  6292   0.400E-02    0.376E-02
RMM:   4    -0.653434565118E+03    0.49036E-05   -0.19502E-05  5679   0.167E-02
  73 F= -.65343457E+03 E0= -.65336701E+03  d E =-.461839E-04
