HECN                                    
           1
     8.932500    0.000000    0.000000
     0.005753    9.055598    0.000000
     0.032102   -0.015743    8.937128
   Nb   Ta   Ti   N    C    Cr   W 
     7     6     7    13    19     6     6
Direct configuration=     1
   0.99688001  0.99204997  0.99924002
   0.25398003  0.99714995  0.24912000
   0.24803003  0.50165000  0.24955001
   0.50501006  0.49745998  0.99834003
   0.50479003  0.24631001  0.74710002
   0.99427992  0.50449999  0.49779000
   0.49950005  0.75481999  0.74817004
   0.99437004  0.23617001  0.26379999
   0.75718000  0.74102998  0.01100000
   0.00201000  0.25541000  0.73894001
   0.75307001  0.26163001  0.50533002
   0.99514004  0.74492004  0.74511997
   0.25679999  0.49462002  0.74545002
   0.24788999  0.24839000  0.99657997
   0.50833000  0.25676999  0.25376001
   0.74879004  0.98787999  0.26967001
   0.75719000  0.25603001  0.99591997
   0.24762001  0.74973999  0.99974006
   0.25272001  0.24823001  0.50015003
   0.24457999  0.75048999  0.49983999
   0.24982001  0.24942998  0.24825000
   0.26146999  0.99984002  0.99295996
   0.00281000  0.25024000  0.00130000
   0.75313998  0.24617000  0.25492002
   0.74767001  0.99748000  0.01202000
   0.50714994  0.99977000  0.24673000
   0.99051999  0.48088002  0.24100998
   0.50519005  0.76130999  0.00855000
   0.98896989  0.00202000  0.73708999
   0.75744996  0.24437997  0.74896999
   0.73632001  0.00417000  0.51063000
   0.50563996  0.23264999  0.49544997
   0.50008998  0.00061000  0.73471998
   0.99720000  0.99771992  0.25899999
   0.50427997  0.24673000  0.00262000
   0.25133999  0.74958002  0.24910999
   0.24328000  0.50072997  0.99510994
   0.99837005  0.74313996  0.00460000
   0.75633000  0.73891003  0.25767000
   0.75839004  0.50315998  0.00288000
   0.50700002  0.50333002  0.25878999
   0.24900999  0.25315000  0.74854000
   0.24446000  0.99823996  0.50287998
   0.99804009  0.24229999  0.50128003
   0.24177002  0.75340997  0.75018002
   0.25841001  0.50062002  0.50129001
   0.99000004  0.76215003  0.49746000
   0.99203996  0.50055999  0.75138002
   0.75036005  0.74888000  0.74756004
   0.74036002  0.50197000  0.50067003
   0.50575006  0.74958002  0.49720000
   0.50501003  0.50217998  0.73912003
   0.51588997  0.01358000  0.98075008
   0.99841994  0.50976998  0.98613004
   0.50379003  0.73926997  0.25905001
   0.23780002  0.01082000  0.74607998
   0.47957999  0.98308000  0.49717999
   0.74279003  0.97869994  0.76450995
   0.99864998  0.77573999  0.26102000
   0.73551001  0.51468004  0.26666001
   0.02362000  0.99783001  0.49557002
   0.50539000  0.52833005  0.49917999
   0.73876003  0.52828003  0.73814999
   0.75400003  0.72937999  0.49116997
HECN                                    
           1
     8.332681    0.017953   -0.005184
     0.023568    8.428264    0.005233
     0.024728   -0.009420    8.354677
   Nb   Ta   Ti   N    C    Cr   W 
     7     6     7    13    19     6     6
Direct configuration=     2
   0.99776053  0.99230062  0.99866793
   0.25753045  0.99432718  0.24677345
   0.25225459  0.50428048  0.24709913
   0.50249891  0.49262530  0.99935084
   0.50041714  0.24196342  0.75186383
   0.99789006  0.50203577  0.50115166
   0.49557199  0.76135710  0.74976908
   0.99609651  0.23570577  0.25888796
   0.75331956  0.74611189  0.01052109
   0.00472167  0.25327489  0.74307739
   0.74785260  0.25571692  0.50500104
   0.00188655  0.74797811  0.74813881
   0.25479583  0.49683120  0.74910046
   0.25042141  0.24860670  0.99534468
   0.50818963  0.25303107  0.25135918
   0.74292185  0.98916265  0.26877398
   0.75316444  0.25566828  0.99430590
   0.24763848  0.74955883  0.99951868
   0.25429409  0.24799981  0.50122173
   0.24658534  0.75054913  0.49967843
   0.25017714  0.24976048  0.24877983
   0.25959293  0.00042016  0.99308262
   0.00252412  0.24863062  0.00139481
   0.75168357  0.24611919  0.25423681
   0.74705238  0.99741263  0.00833010
   0.50644411  0.00008887  0.24917557
   0.99248542  0.48094355  0.24309059
   0.50428910  0.75971569  0.00670221
   0.98864902  0.00242775  0.74079027
   0.75638341  0.24457557  0.75100402
   0.73777279  0.00409378  0.50676569
   0.50378122  0.23330065  0.49415086
   0.50261389  0.00063787  0.73803837
   0.99547810  0.00145399  0.25323983
   0.50475385  0.24652703  0.00256527
   0.25187064  0.74925788  0.24918769
   0.24474460  0.50054836  0.99672342
   0.00241278  0.74292979  0.00445160
   0.75348223  0.74633357  0.25222230
   0.75807056  0.49920875  0.00270530
   0.49969666  0.50240719  0.25412076
   0.25018493  0.24959489  0.74861122
   0.25379307  0.99734055  0.50560733
   0.00112168  0.24538346  0.50083135
   0.24434999  0.75366593  0.75047911
   0.25572003  0.50080509  0.49887056
   0.99673934  0.75856505  0.50089587
   0.99377634  0.50059338  0.75215488
   0.74834854  0.75787687  0.74974684
   0.74657082  0.49587631  0.50305464
   0.50086543  0.75727157  0.49505669
   0.50101014  0.50009408  0.74417820
   0.51832045  0.01803374  0.97814913
   0.00003146  0.51391360  0.98269512
   0.50352237  0.73811563  0.25877717
   0.23765030  0.01197372  0.74863991
   0.47688809  0.98256467  0.49637455
   0.73882150  0.97466658  0.76775563
   0.00259682  0.77507658  0.25579122
   0.73610720  0.50918552  0.25771285
   0.02205447  0.00089880  0.49835203
   0.49718872  0.52461462  0.49690804
   0.74139221  0.51929830  0.74566886
   0.75317630  0.73871234  0.49332577
HECN                                    
           1
     8.679620    0.007569   -0.002186
     0.013264    8.791118    0.002206
     0.028993   -0.013078    8.691570
   Nb   Ta   Ti   N    C    Cr   W 
     7     6     7    13    19     6     6
Direct configuration=     3
   0.99721513  0.99214579  0.99902165
   0.25532612  0.99608520  0.24822286
   0.24963970  0.50265036  0.24861496
   0.50404898  0.49562694  0.99872450
   0.50312076  0.24466074  0.74891630
   0.99564695  0.50357326  0.49906934
   0.49801581  0.75728998  0.74878377
   0.99502732  0.23599464  0.26192634
   0.75572029  0.74294840  0.01082088
   0.00303579  0.25460697  0.74051559
   0.75107973  0.25938466  0.50520429
   0.99770638  0.74608772  0.74626955
   0.25604007  0.49545581  0.74684346
   0.24885260  0.24847489  0.99610810
   0.50827254  0.25535354  0.25284324
   0.74656248  0.98835743  0.26933114
   0.75566061  0.25588714  0.99530599
   0.24762687  0.74967135  0.99965558
   0.25331735  0.24814537  0.50055794
   0.24534208  0.75051496  0.49977764
   0.24995595  0.24955577  0.24845200
   0.26075753  0.00005720  0.99300768
   0.00269916  0.24963045  0.00133563
   0.75258681  0.24614857  0.25466007
   0.74743670  0.99745224  0.01061336
   0.50688122  0.99989072  0.24766282
   0.99126604  0.48090748  0.24180252
   0.50484629  0.76070458  0.00784522
   0.98884707  0.00217537  0.73850108
   0.75704418  0.24445340  0.74974599
   0.73687342  0.00414156  0.50915607
   0.50493511  0.23289333  0.49495563
   0.50104768  0.00062518  0.73598422
   0.99655309  0.99912889  0.25680594
   0.50445977  0.24665377  0.00259887
   0.25154114  0.74945881  0.24913928
   0.24383560  0.50066379  0.99572447
   0.99990588  0.74306568  0.00454178
   0.75526019  0.74171425  0.25559695
   0.75826336  0.50166379  0.00281198
   0.50422565  0.50296923  0.25701221
   0.24945156  0.25180583  0.74856531
   0.24800386  0.99791288  0.50391588
   0.99921532  0.24347110  0.50110898
   0.24275052  0.75351038  0.75029316
   0.25738914  0.50068558  0.50036866
   0.99255445  0.76080321  0.49876599
   0.99269945  0.50057523  0.75167479
   0.74960712  0.75228387  0.74839809
   0.74271064  0.49967243  0.50157444
   0.50390540  0.75248429  0.49638771
   0.50348543  0.50138708  0.74104928
   0.51682051  0.01526811  0.97975922
   0.99903922  0.51133929  0.98482140
   0.50368687  0.73883254  0.25894564
   0.23774369  0.01125753  0.74705651
   0.47855681  0.98288106  0.49687374
   0.74127542  0.97716918  0.76574739
   0.00015076  0.77549204  0.25902464
   0.73573297  0.51259745  0.26324636
   0.02302824  0.99899069  0.49663251
   0.50226973  0.52691190  0.49831548
   0.73974499  0.52488650  0.74101219
   0.75369887  0.73291240  0.49199587
HECN                                    
           1
     8.670083    0.007855   -0.002268
     0.013547    8.781143    0.002289
     0.028876   -0.012977    8.682309
   Nb   Ta   Ti   N    C    Cr   W 
     7     6     7    13    19     6     6
Direct configuration=     4
   0.99722953  0.99214989  0.99901230
   0.25538425  0.99603892  0.24818452
   0.24970879  0.50269340  0.24857490
   0.50400796  0.49554779  0.99874104
   0.50304928  0.24458959  0.74899419
   0.99570607  0.50353284  0.49912433
   0.49795144  0.75739710  0.74880987
   0.99505556  0.23598703  0.26184603
   0.75565704  0.74303169  0.01081301
   0.00308021  0.25457194  0.74058325
   0.75099444  0.25928788  0.50519892
   0.99781674  0.74613770  0.74631893
   0.25600726  0.49549204  0.74690312
   0.24889401  0.24847841  0.99608791
   0.50827029  0.25529232  0.25280400
   0.74646644  0.98837853  0.26931647
   0.75559474  0.25588128  0.99527958
   0.24762717  0.74966839  0.99965196
   0.25334312  0.24814157  0.50057547
   0.24537489  0.75051590  0.49977501
   0.24996179  0.24956117  0.24846066
   0.26072681  0.00006672  0.99300968
   0.00269450  0.24960409  0.00133719
   0.75256297  0.24614776  0.25464890
   0.74742658  0.99745116  0.01055303
   0.50686968  0.99989594  0.24770280
   0.99129820  0.48090848  0.24183655
   0.50483157  0.76067848  0.00781501
   0.98884183  0.00218203  0.73856157
   0.75702674  0.24445661  0.74977924
   0.73689718  0.00414031  0.50909290
   0.50490468  0.23290402  0.49493438
   0.50108900  0.00062558  0.73603848
   0.99652483  0.99919010  0.25671174
   0.50446752  0.24665044  0.00259798
   0.25154983  0.74945352  0.24914056
   0.24385958  0.50066079  0.99575086
   0.99997204  0.74306219  0.00453937
   0.75521346  0.74183590  0.25550784
   0.75825819  0.50159908  0.00280913
   0.50410614  0.50295423  0.25693585
   0.24947084  0.25174759  0.74856650
   0.24815661  0.99789801  0.50396052
   0.99926570  0.24352156  0.50110164
   0.24279274  0.75351454  0.75029806
   0.25734511  0.50068866  0.50032909
   0.99266480  0.76074438  0.49882221
   0.99272787  0.50057574  0.75168747
   0.74957408  0.75243124  0.74843379
   0.74281237  0.49957253  0.50161347
   0.50382535  0.75261034  0.49635261
   0.50342003  0.50135295  0.74113197
   0.51686021  0.01534103  0.97971668
   0.99906552  0.51140715  0.98476523
   0.50368251  0.73881364  0.25894118
   0.23774124  0.01127642  0.74709836
   0.47851276  0.98287266  0.49686056
   0.74121055  0.97710316  0.76580045
   0.00021533  0.77548114  0.25893917
   0.73574279  0.51250749  0.26310010
   0.02300259  0.99904096  0.49667798
   0.50213557  0.52685117  0.49827831
   0.73978823  0.52473932  0.74113516
   0.75368526  0.73306526  0.49203107
HECN                                    
           1
     8.674487    0.021453   -0.003095
     0.027373    8.730097    0.005768
     0.028041   -0.009418    8.690422
   Nb   Ta   Ti   N    C    Cr   W 
     7     6     7    13    19     6     6
Direct configuration=     5
   0.99957630  0.99363888  0.99709431
   0.25941352  0.99423432  0.24543266
   0.25351495  0.50463804  0.24572742
   0.50070407  0.49146909  0.00018740
   0.49846611  0.24015270  0.75356166
   0.00110939  0.50047986  0.50218653
   0.49338605  0.76378225  0.75102272
   0.99813277  0.23707298  0.25421233
   0.75068027  0.74946925  0.00859445
   0.00592023  0.25093374  0.74743121
   0.74603948  0.25148812  0.50476995
   0.00375099  0.75061209  0.75079857
   0.25216396  0.49829165  0.75089382
   0.25198353  0.24839614  0.99547637
   0.50699687  0.25068216  0.24983236
   0.74034876  0.99083983  0.26673958
   0.75130222  0.25428559  0.99426017
   0.24901227  0.74980748  0.99968942
   0.25554135  0.24791634  0.50107681
   0.24802618  0.75062869  0.49955925
   0.25155443  0.24982195  0.24879974
   0.25997253  0.00062654  0.99221425
   0.00243780  0.24941187  0.00168202
   0.74913317  0.24579917  0.25197709
   0.74574606  0.99866819  0.00678654
   0.50671389  0.00006531  0.24939115
   0.99301539  0.48375568  0.24255997
   0.50226206  0.76020489  0.00665572
   0.98804251  0.00256406  0.74294981
   0.75521674  0.24479713  0.75327580
   0.73910648  0.00293252  0.50671768
   0.50136693  0.23431086  0.49323425
   0.50327609  0.00094472  0.73979061
   0.99425147  0.00299721  0.25062636
   0.50442444  0.24563488  0.00381226
   0.25399080  0.74904474  0.24889796
   0.24431120  0.50022727  0.99774852
   0.00513079  0.74196902  0.00487814
   0.75079056  0.75032161  0.25069527
   0.75919867  0.49619520  0.00287355
   0.49546970  0.50161288  0.25152893
   0.25147481  0.24699763  0.74890066
   0.25920444  0.99731478  0.50777977
   0.00336077  0.24748538  0.50066157
   0.24646028  0.75523492  0.75084270
   0.25381973  0.50052245  0.49794553
   0.00057452  0.75635608  0.50193499
   0.99523701  0.50052515  0.75334101
   0.74790394  0.76080696  0.75013444
   0.74784280  0.49505205  0.50308805
   0.49772863  0.76210429  0.49353004
   0.49938988  0.49909558  0.74618337
   0.51852310  0.01891421  0.97752944
   0.00112630  0.51451924  0.98171314
   0.50266789  0.73862240  0.25770069
   0.23756161  0.01127660  0.75066760
   0.47692079  0.98342862  0.49483679
   0.73667753  0.97542237  0.76981764
   0.00480698  0.76987315  0.25196082
   0.73843090  0.50485972  0.25216219
   0.01869423  0.00343117  0.49993984
   0.49446844  0.51938830  0.49578838
   0.74408187  0.51418172  0.75207651
   0.75156295  0.74386210  0.49582234
HECN                                    
           1
     8.674415    0.021231   -0.003082
     0.027148    8.730930    0.005711
     0.028054   -0.009476    8.690289
   Nb   Ta   Ti   N    C    Cr   W 
     7     6     7    13    19     6     6
Direct configuration=     6
   0.99953809  0.99361451  0.99712555
   0.25934781  0.99426400  0.24547746
   0.25345297  0.50460622  0.24577382
   0.50075780  0.49153591  0.00016382
   0.49854067  0.24022538  0.75348723
   0.00102125  0.50053009  0.50213662
   0.49346062  0.76367743  0.75098672
   0.99808267  0.23705520  0.25433668
   0.75076155  0.74936353  0.00863064
   0.00587384  0.25099353  0.74731963
   0.74612003  0.25161591  0.50477689
   0.00365439  0.75053889  0.75072561
   0.25222666  0.49824566  0.75082883
   0.25193318  0.24839757  0.99548633
   0.50701751  0.25075771  0.24988074
   0.74044853  0.99079930  0.26678158
   0.75137213  0.25431164  0.99427677
   0.24898970  0.74980523  0.99968881
   0.25550552  0.24792009  0.50106864
   0.24798298  0.75062691  0.49956276
   0.25152849  0.24981771  0.24879422
   0.25998484  0.00061733  0.99222721
   0.00244198  0.24941501  0.00167640
   0.74918905  0.24580478  0.25202062
   0.74577349  0.99864817  0.00684790
   0.50671643  0.00006254  0.24936365
   0.99298748  0.48370904  0.24254820
   0.50230392  0.76021259  0.00667461
   0.98805554  0.00255781  0.74287833
   0.75524624  0.24479152  0.75321884
   0.73907045  0.00295237  0.50675636
   0.50142462  0.23428769  0.49326196
   0.50324045  0.00093956  0.73972949
   0.99428863  0.00293467  0.25072551
   0.50442511  0.24565154  0.00379248
   0.25395101  0.74905151  0.24890191
   0.24430382  0.50023441  0.99771597
   0.00504669  0.74198708  0.00487260
   0.75086287  0.75018229  0.25077372
   0.75918320  0.49628385  0.00287247
   0.49561042  0.50163462  0.25161701
   0.25144203  0.24707558  0.74889518
   0.25902438  0.99732465  0.50771753
   0.00329414  0.24742047  0.50066876
   0.24640056  0.75520680  0.75083383
   0.25387718  0.50052507  0.49798436
   0.00044550  0.75642827  0.50188425
   0.99519611  0.50052605  0.75331407
   0.74793138  0.76066956  0.75010680
   0.74776070  0.49512633  0.50306399
   0.49782824  0.76194841  0.49357610
   0.49945549  0.49913253  0.74610107
   0.51849609  0.01885563  0.97756509
   0.00109280  0.51446824  0.98176288
   0.50268442  0.73862550  0.25772090
   0.23756454  0.01127662  0.75060946
   0.47694675  0.98341945  0.49486976
   0.73675135  0.97544984  0.76975220
   0.00473201  0.76996519  0.25207446
   0.73838691  0.50498514  0.25234031
   0.01876455  0.00335908  0.49988674
   0.49459319  0.51951049  0.49582891
   0.74401160  0.51435505  0.75189821
   0.75159781  0.74368500  0.49576066
HECN                                    
           1
     8.747565    0.014250   -0.002075
     0.020230    8.780739    0.008169
     0.029324   -0.007151    8.754537
   Nb   Ta   Ti   N    C    Cr   W 
     7     6     7    13    19     6     6
Direct configuration=     7
   0.00194512  0.99338221  0.99596554
   0.25956459  0.99387512  0.24614183
   0.25336245  0.50538570  0.24518276
   0.50036842  0.49039638  0.00055832
   0.49710376  0.23929208  0.75441133
   0.00313477  0.49889642  0.50462004
   0.49367878  0.76300813  0.74983015
   0.99919660  0.23977075  0.25167555
   0.74991957  0.74974910  0.00625602
   0.00698006  0.24852174  0.74950819
   0.74674928  0.24818182  0.50535334
   0.00314673  0.75166741  0.75281835
   0.25028230  0.49813295  0.75153189
   0.25361984  0.24759353  0.99580572
   0.50572410  0.24852568  0.24846337
   0.73757954  0.99266078  0.26401791
   0.74939144  0.25137125  0.99462265
   0.25117263  0.75025011  0.00061975
   0.25581285  0.24727832  0.50130789
   0.24891950  0.75118205  0.49913787
   0.25204257  0.24914393  0.24894276
   0.26003732  0.00105822  0.99213127
   0.00224188  0.25044582  0.00208701
   0.74788608  0.24542147  0.25063394
   0.74512395  0.00023245  0.00404093
   0.50682419  0.00034274  0.24966141
   0.99302094  0.48799331  0.24345576
   0.50072809  0.76037363  0.00570194
   0.98766068  0.00270552  0.74389248
   0.75470872  0.24608311  0.75372030
   0.74257378  0.00202202  0.50612499
   0.49980650  0.23797874  0.49308897
   0.50422971  0.00181446  0.74238273
   0.99462884  0.99845058  0.25072669
   0.50346063  0.24451263  0.00462922
   0.25625058  0.74937466  0.24861812
   0.24338163  0.49982075  0.99820384
   0.00467915  0.74175246  0.00546241
   0.74852427  0.75019732  0.25280871
   0.76013540  0.49605169  0.00343191
   0.49793503  0.50150606  0.25122994
   0.25149625  0.24616577  0.74914837
   0.25755426  0.99843447  0.50978118
   0.00399754  0.24907202  0.50014533
   0.24789532  0.75700102  0.75109336
   0.25239372  0.50003211  0.49867869
   0.00196588  0.75501390  0.50058249
   0.99685624  0.50091880  0.75429817
   0.74886971  0.75734451  0.74937682
   0.74655688  0.49774608  0.50224414
   0.49677043  0.76014217  0.49185159
   0.50014873  0.49918074  0.74574068
   0.51935850  0.01973139  0.97660167
   0.00226517  0.51629631  0.97873240
   0.50119118  0.73675431  0.25816178
   0.23514645  0.00914012  0.75284701
   0.47772796  0.98488472  0.49224582
   0.73239102  0.97811472  0.77388973
   0.00512406  0.77028042  0.25038100
   0.73558370  0.50530791  0.24902369
   0.02132593  0.00452067  0.49855505
   0.49609302  0.51978868  0.49422053
   0.74529893  0.51472347  0.75749305
   0.75045722  0.74300236  0.49610379
HECN                                    
           1
     8.737576    0.015204   -0.002212
     0.021175    8.773937    0.007833
     0.029151   -0.007469    8.745764
   Nb   Ta   Ti   N    C    Cr   W 
     7     6     7    13    19     6     6
Direct configuration=     8
   0.00161917  0.99341345  0.99612282
   0.25953529  0.99392792  0.24605176
   0.25337461  0.50527985  0.24526291
   0.50042128  0.49055117  0.00050479
   0.49729846  0.23941900  0.75428601
   0.00284879  0.49911810  0.50428337
   0.49364930  0.76309895  0.74998691
   0.99904541  0.23940180  0.25203640
   0.75003350  0.74969676  0.00657791
   0.00683057  0.24885732  0.74921144
   0.74666446  0.24864806  0.50527508
   0.00321539  0.75151431  0.75253471
   0.25054562  0.49814850  0.75143655
   0.25339153  0.24770253  0.99576242
   0.50589947  0.24882884  0.24865540
   0.73796779  0.99240824  0.26439256
   0.74965999  0.25177073  0.99457563
   0.25087699  0.75018949  0.00049360
   0.25577130  0.24736543  0.50127544
   0.24879261  0.75110656  0.49919550
   0.25197303  0.24923536  0.24892261
   0.26003016  0.00099835  0.99214430
   0.00226887  0.25030589  0.00203138
   0.74806254  0.24547361  0.25082188
   0.74521169  0.00001730  0.00442148
   0.50680957  0.00030469  0.24962106
   0.99301596  0.48741161  0.24333290
   0.50094145  0.76035190  0.00583377
   0.98771415  0.00268555  0.74375501
   0.75478138  0.24590781  0.75365236
   0.74209946  0.00214793  0.50621060
   0.50002521  0.23747773  0.49311253
   0.50409569  0.00169565  0.74202312
   0.99458327  0.99905940  0.25072637
   0.50359137  0.24466741  0.00451574
   0.25593915  0.74933052  0.24865664
   0.24350656  0.49987704  0.99813767
   0.00472896  0.74178438  0.00538245
   0.74884098  0.75019561  0.25253282
   0.76000649  0.49608313  0.00335608
   0.49762025  0.50152325  0.25128244
   0.25148901  0.24628931  0.74911402
   0.25775325  0.99828402  0.50950146
   0.00390210  0.24884767  0.50021636
   0.24769271  0.75675724  0.75105827
   0.25259467  0.50009923  0.49858452
   0.00176013  0.75520573  0.50075893
   0.99663141  0.50086532  0.75416481
   0.74874300  0.75779587  0.74947567
   0.74671960  0.49739046  0.50235535
   0.49691384  0.76038748  0.49208527
   0.50005485  0.49917410  0.74578955
   0.51924160  0.01961235  0.97673232
   0.00210616  0.51604785  0.97914329
   0.50139360  0.73700857  0.25810193
   0.23547417  0.00943057  0.75254358
   0.47762197  0.98468558  0.49260157
   0.73298126  0.97775351  0.77332890
   0.00507091  0.77023751  0.25061058
   0.73596321  0.50526427  0.24947324
   0.02097893  0.00436262  0.49873565
   0.49588987  0.51975068  0.49443859
   0.74512466  0.51467351  0.75673468
   0.75061175  0.74309519  0.49605723
HECN                                    
           1
     8.701447    0.007184   -0.001492
     0.013116    8.727337    0.009761
     0.029745   -0.005501    8.706449
   Nb   Ta   Ti   N    C    Cr   W 
     7     6     7    13    19     6     6
Direct configuration=     9
   0.00473206  0.99293154  0.99556166
   0.25931265  0.99346896  0.24753475
   0.25419087  0.50604686  0.24556970
   0.50027236  0.48958296  0.00057529
   0.49602689  0.23935416  0.75470038
   0.00331836  0.49766180  0.50740978
   0.49556676  0.76188549  0.74786357
   0.99973384  0.24001433  0.24999002
   0.74931648  0.74994469  0.00510708
   0.00784835  0.24618907  0.75045721
   0.74782773  0.24648814  0.50592546
   0.00271705  0.75278356  0.75348296
   0.24980605  0.49816258  0.75165757
   0.25503030  0.24655839  0.99617742
   0.50431325  0.24669609  0.24771130
   0.73523212  0.99367768  0.26148763
   0.74734911  0.24826200  0.99506832
   0.25307820  0.75084488  0.00146396
   0.25570124  0.24682883  0.50175026
   0.24970629  0.75190953  0.49865984
   0.25202412  0.24871306  0.24907818
   0.26003880  0.00139051  0.99261646
   0.00206132  0.25134198  0.00241062
   0.74732140  0.24501391  0.25002065
   0.74517332  0.00127368  0.00166848
   0.50663196  0.00096320  0.24987632
   0.99315310  0.49166798  0.24516464
   0.49990177  0.76022560  0.00425355
   0.98760791  0.00261272  0.74373517
   0.75439793  0.24707543  0.75334298
   0.74618253  0.00195982  0.50485979
   0.49936413  0.24205889  0.49325811
   0.50499725  0.00205530  0.74483637
   0.99517071  0.99761623  0.25124619
   0.50234628  0.24351953  0.00492222
   0.25774923  0.74974721  0.24844954
   0.24271156  0.49946814  0.99842604
   0.00393803  0.74191162  0.00597431
   0.74696584  0.74944881  0.25384011
   0.76094530  0.49643924  0.00427851
   0.49952191  0.50118878  0.25113426
   0.25119163  0.24572410  0.74958729
   0.25630656  0.99936954  0.51128501
   0.00406715  0.24944421  0.49971570
   0.24839027  0.75836982  0.75134436
   0.25238836  0.49965906  0.49961609
   0.00205890  0.75456992  0.49907435
   0.99782335  0.50100809  0.75474458
   0.74982354  0.75513507  0.74864452
   0.74558262  0.49926750  0.50183926
   0.49664005  0.75818536  0.49032267
   0.50142949  0.49954587  0.74463786
   0.52018863  0.02040389  0.97552355
   0.00302365  0.51859546  0.97548447
   0.49962869  0.73444030  0.25941174
   0.23143498  0.00682608  0.75541768
   0.47782787  0.98609304  0.48956784
   0.72758404  0.97916842  0.77805063
   0.00499493  0.76961314  0.24977998
   0.73285445  0.50698499  0.24672132
   0.02379075  0.00548032  0.49681448
   0.49743261  0.52031748  0.49280836
   0.74632423  0.51567262  0.76179989
   0.74992925  0.74114234  0.49626184
HECN                                    
           1
     8.709019    0.008864   -0.001643
     0.014805    8.737103    0.009357
     0.029620   -0.005913    8.714688
   Nb   Ta   Ti   N    C    Cr   W 
     7     6     7    13    19     6     6
Direct configuration=    10
   0.00407703  0.99303245  0.99567983
   0.25935962  0.99356577  0.24722251
   0.25401894  0.50588511  0.24550516
   0.50030389  0.48978699  0.00056040
   0.49629452  0.23936809  0.75461312
   0.00321987  0.49796870  0.50675152
   0.49516342  0.76214070  0.74831057
   0.99958881  0.23988505  0.25042088
   0.74946730  0.74989252  0.00541673
   0.00763469  0.24675114  0.75019483
   0.74758334  0.24694304  0.50578845
   0.00282170  0.75251626  0.75328338
   0.24996170  0.49815976  0.75161103
   0.25468564  0.24679917  0.99609003
   0.50464747  0.24714572  0.24790993
   0.73580756  0.99341060  0.26209922
   0.74783613  0.24900176  0.99496439
   0.25261484  0.75070641  0.00125974
   0.25571610  0.24694193  0.50165027
   0.24951384  0.75174014  0.49877267
   0.25201347  0.24882311  0.24904540
   0.26003692  0.00130790  0.99251707
   0.00210481  0.25112373  0.00233083
   0.74747745  0.24511087  0.25018930
   0.74518110  0.00100883  0.00224813
   0.50666921  0.00082450  0.24982261
   0.99312345  0.49077121  0.24477921
   0.50012057  0.76025234  0.00458621
   0.98763028  0.00262808  0.74373934
   0.75447840  0.24682947  0.75340817
   0.74532325  0.00199861  0.50514424
   0.49950238  0.24109376  0.49322767
   0.50480749  0.00197948  0.74424413
   0.99504737  0.99792022  0.25113670
   0.50260854  0.24376165  0.00483657
   0.25736821  0.74965905  0.24849319
   0.24287896  0.49955446  0.99836530
   0.00410447  0.74188499  0.00584970
   0.74736064  0.74960658  0.25356482
   0.76074767  0.49636407  0.00408434
   0.49912176  0.50125888  0.25116547
   0.25125433  0.24584327  0.74948762
   0.25661084  0.99914118  0.51090954
   0.00403230  0.24931846  0.49982113
   0.24824316  0.75802992  0.75128422
   0.25243188  0.49975189  0.49939889
   0.00199612  0.75470375  0.49942897
   0.99757248  0.50097781  0.75462255
   0.74959664  0.75569546  0.74881939
   0.74582153  0.49887220  0.50194798
   0.49669807  0.75864932  0.49069364
   0.50114010  0.49946722  0.74488037
   0.51998915  0.02023687  0.97577808
   0.00283001  0.51805832  0.97625490
   0.50000064  0.73498184  0.25913583
   0.23228559  0.00737576  0.75481240
   0.47778421  0.98579630  0.49020660
   0.72871971  0.97887155  0.77705654
   0.00501103  0.76974467  0.24995481
   0.73350832  0.50662290  0.24730071
   0.02319874  0.00524419  0.49721905
   0.49710780  0.52019768  0.49315162
   0.74607167  0.51546211  0.76073358
   0.75007327  0.74155395  0.49621866
HECN                                    
           1
     8.706948    0.007818   -0.000894
     0.013750    8.739424    0.009095
     0.030365   -0.006184    8.717664
   Nb   Ta   Ti   N    C    Cr   W 
     7     6     7    13    19     6     6
Direct configuration=    11
   0.00623885  0.99297939  0.99610897
   0.25897897  0.99362988  0.24847643
   0.25483255  0.50572618  0.24666460
   0.50007506  0.48985042  0.00016782
   0.49599628  0.24045595  0.75397534
   0.00168450  0.49776766  0.50810590
   0.49735038  0.76111449  0.74654896
   0.99966597  0.23914564  0.24968534
   0.74879641  0.75061107  0.00569030
   0.00763966  0.24535290  0.75046583
   0.74812970  0.24689790  0.50592044
   0.00299036  0.75373152  0.75229226
   0.25091002  0.49896147  0.75122582
   0.25519031  0.24607951  0.99651939
   0.50331267  0.24625290  0.24810705
   0.73520628  0.99329657  0.26059859
   0.74648533  0.24704468  0.99539865
   0.25366681  0.75123054  0.00139810
   0.25546984  0.24714894  0.50194904
   0.24995438  0.75217862  0.49849958
   0.25186148  0.24902639  0.24913670
   0.26052688  0.00124598  0.99315331
   0.00195947  0.25178422  0.00233624
   0.74747686  0.24477499  0.25015357
   0.74608293  0.00119726  0.00205565
   0.50623008  0.00137511  0.24961326
   0.99351238  0.49283009  0.24636525
   0.49997278  0.75993462  0.00349198
   0.98764129  0.00212750  0.74279437
   0.75425488  0.24680178  0.75282363
   0.74743042  0.00258138  0.50371025
   0.49996131  0.24373119  0.49346457
   0.50448690  0.00161246  0.74505271
   0.99496766  0.00040072  0.25096041
   0.50183015  0.24323571  0.00484071
   0.25781360  0.74977066  0.24859829
   0.24264584  0.49943998  0.99850163
   0.00419140  0.74227655  0.00576308
   0.74673405  0.74965938  0.25262620
   0.76146381  0.49632941  0.00495020
   0.49780198  0.50030475  0.25048562
   0.25110252  0.24546016  0.74999689
   0.25792269  0.99926372  0.51169686
   0.00396461  0.24863038  0.49962962
   0.24822231  0.75864536  0.75136677
   0.25332423  0.49966600  0.49989672
   0.00150549  0.75495470  0.49880813
   0.99758135  0.50060723  0.75445856
   0.75014326  0.75679122  0.74848817
   0.74612634  0.49790528  0.50229420
   0.49694484  0.75929398  0.48975465
   0.50206622  0.49977099  0.74408045
   0.51965523  0.02017212  0.97564587
   0.00286183  0.51939718  0.97522795
   0.49888625  0.73374751  0.26036275
   0.22906023  0.00564480  0.75715097
   0.47759873  0.98685199  0.48896806
   0.72601804  0.97838032  0.77859728
   0.00479660  0.76735160  0.25052648
   0.73400410  0.50767204  0.24645148
   0.02239496  0.00567355  0.49630647
   0.49721541  0.51848181  0.49289854
   0.74686916  0.51470040  0.76211558
   0.75031553  0.74104104  0.49660164
HECN                                    
           1
     8.705665    0.007170   -0.000429
     0.013097    8.740863    0.008933
     0.030826   -0.006352    8.719508
   Nb   Ta   Ti   N    C    Cr   W 