HECN                                    
           1
     3.231200    0.000000    0.000000
    -1.615600    2.798301    0.000000
     0.000000    0.000000    5.147700
   Zr
     2
Direct configuration=     1
   0.33333334  0.66666669  0.25000000
   0.66666666  0.33333331  0.75000000
HECN                                    
           1
     3.215160   -0.000000    0.000000
    -1.607580    2.784410   -0.000000
     0.000000    0.000000    5.209321
   Zr
     2
Direct configuration=     2
   0.33333334  0.66666669  0.25000000
   0.66666666  0.33333331  0.75000000
HECN                                    
           1
     3.198495   -0.000000    0.000000
    -1.599248    2.769978   -0.000000
     0.000000    0.000000    5.273342
   Zr
     2
Direct configuration=     3
   0.33333334  0.66666669  0.25000000
   0.66666666  0.33333331  0.75000000
HECN                                    
           1
     3.168529    0.000000    0.000000
    -1.584264    2.744026   -0.000000
     0.000000    0.000000    5.288568
   Zr
     2
Direct configuration=     4
   0.33333334  0.66666669  0.25000000
   0.66666666  0.33333331  0.75000000
HECN                                    
           1
     3.175746   -0.000000    0.000000
    -1.587873    2.750276   -0.000000
     0.000000    0.000000    5.284901
   Zr
     2
Direct configuration=     5
   0.33333334  0.66666669  0.25000000
   0.66666666  0.33333331  0.75000000
HECN                                    
           1
     3.176153   -0.000000    0.000000
    -1.588077    2.750629   -0.000000
     0.000000    0.000000    5.284694
   Zr
     2
Direct configuration=     6
   0.33333334  0.66666669  0.25000000
   0.66666666  0.33333331  0.75000000
HECN                                    
           1
     3.178087    0.000000    0.000000
    -1.589043    2.752304   -0.000000
     0.000000    0.000000    5.275859
   Zr
     2
Direct configuration=     7
   0.33333334  0.66666669  0.25000000
   0.66666666  0.33333331  0.75000000
HECN                                    
           1
     3.179059    0.000000    0.000000
    -1.589529    2.753146   -0.000000
     0.000000    0.000000    5.271418
   Zr
     2
Direct configuration=     8
   0.33333334  0.66666669  0.25000000
   0.66666666  0.33333331  0.75000000
