  64  64   0   0
  0.1083393E+02  0.8841401E-09  0.8851430E-09  0.8860335E-09  0.5000000E-15
  1.000000000000000E-004
  CAR 
 HECN                                    
     13.43067336    -33.41587765  301      8.40216553      1.00000000
    -33.416  0.0000E+00  0.0000E+00
    -33.260  0.0000E+00  0.0000E+00
    -33.104  0.0000E+00  0.0000E+00
    -32.947  0.0000E+00  0.0000E+00
    -32.791  0.0000E+00  0.0000E+00
    -32.635  0.0000E+00  0.0000E+00
    -32.479  0.0000E+00  0.0000E+00
    -32.323  0.0000E+00  0.0000E+00
    -32.167  0.0000E+00  0.0000E+00
    -32.010  0.0000E+00  0.0000E+00
    -31.854  0.6399E-16  0.9992E-17
    -31.698  0.3676E-09  0.5740E-10
    -31.542  0.1928E-04  0.3010E-05
    -31.386  0.1090E-01  0.1705E-02
    -31.230  0.1596E+00  0.2663E-01
    -31.074  0.3343E+00  0.7883E-01
    -30.917  0.6368E+00  0.1783E+00
    -30.761  0.7688E+00  0.2983E+00
    -30.605  0.4895E+00  0.3748E+00
    -30.449  0.7449E+00  0.4911E+00
    -30.293  0.1452E+01  0.7178E+00
    -30.137  0.3892E+00  0.7785E+00
    -29.980  0.9389E-02  0.7800E+00
    -29.824  0.4865E-05  0.7800E+00
    -29.668  0.2632E-10  0.7800E+00
    -29.512  0.0000E+00  0.7800E+00
    -29.356  0.0000E+00  0.7800E+00
    -29.200  0.0000E+00  0.7800E+00
    -29.044  0.0000E+00  0.7800E+00
    -28.887  0.0000E+00  0.7800E+00
    -28.731  0.0000E+00  0.7800E+00
    -28.575  0.0000E+00  0.7800E+00
    -28.419  0.1359E-13  0.7800E+00
    -28.263  0.2023E-07  0.7800E+00
    -28.107  0.2954E-03  0.7800E+00
    -27.950  0.5759E-01  0.7890E+00
    -27.794  0.3864E+00  0.8494E+00
    -27.638  0.8065E+00  0.9753E+00
    -27.482  0.8837E+00  0.1113E+01
    -27.326  0.2900E+00  0.1159E+01
    -27.170  0.3865E+00  0.1219E+01
    -27.014  0.4352E+00  0.1287E+01
    -26.857  0.5896E+00  0.1379E+01
    -26.701  0.3670E+00  0.1436E+01
    -26.545  0.2992E+00  0.1483E+01
    -26.389  0.1072E+00  0.1500E+01
    -26.233  0.1592E-02  0.1500E+01
    -26.077  0.3483E-06  0.1500E+01
    -25.920  0.7637E-12  0.1500E+01
    -25.764  0.0000E+00  0.1500E+01
    -25.608  0.0000E+00  0.1500E+01
    -25.452  0.0000E+00  0.1500E+01
    -25.296  0.0000E+00  0.1500E+01
    -25.140  0.0000E+00  0.1500E+01
    -24.983  0.0000E+00  0.1500E+01
    -24.827  0.0000E+00  0.1500E+01
    -24.671  0.0000E+00  0.1500E+01
    -24.515  0.0000E+00  0.1500E+01
    -24.359  0.0000E+00  0.1500E+01
    -24.203  0.0000E+00  0.1500E+01
    -24.047  0.0000E+00  0.1500E+01
    -23.890  0.0000E+00  0.1500E+01
    -23.734  0.0000E+00  0.1500E+01
    -23.578  0.0000E+00  0.1500E+01
    -23.422  0.4582E-12  0.1500E+01
    -23.266  0.2177E-06  0.1500E+01
    -23.110  0.9949E-03  0.1500E+01
    -22.953  0.7299E-01  0.1512E+01
    -22.797  0.2524E+00  0.1551E+01
    -22.641  0.7279E-01  0.1562E+01
    -22.485  0.3675E+00  0.1620E+01
    -22.329  0.7779E+00  0.1741E+01
    -22.173  0.4657E+00  0.1814E+01
    -22.017  0.4623E+00  0.1886E+01
    -21.860  0.1896E+00  0.1916E+01
    -21.704  0.2725E-01  0.1920E+01
    -21.548  0.1556E-03  0.1920E+01
    -21.392  0.1026E-07  0.1920E+01
    -21.236  0.6044E-14  0.1920E+01
    -21.080  0.0000E+00  0.1920E+01
    -20.923  0.0000E+00  0.1920E+01
    -20.767  0.0000E+00  0.1920E+01
    -20.611  0.0000E+00  0.1920E+01
    -20.455  0.0000E+00  0.1920E+01
    -20.299  0.0000E+00  0.1920E+01
    -20.143  0.0000E+00  0.1920E+01
    -19.987  0.0000E+00  0.1920E+01
    -19.830  0.0000E+00  0.1920E+01
    -19.674  0.0000E+00  0.1920E+01
    -19.518  0.0000E+00  0.1920E+01
    -19.362  0.0000E+00  0.1920E+01
    -19.206  0.0000E+00  0.1920E+01
    -19.050  0.0000E+00  0.1920E+01
    -18.893  0.0000E+00  0.1920E+01
    -18.737  0.0000E+00  0.1920E+01
    -18.581  0.0000E+00  0.1920E+01
    -18.425  0.0000E+00  0.1920E+01
    -18.269  0.0000E+00  0.1920E+01
    -18.113  0.0000E+00  0.1920E+01
    -17.957  0.0000E+00  0.1920E+01
    -17.800  0.0000E+00  0.1920E+01
    -17.644  0.0000E+00  0.1920E+01
    -17.488  0.0000E+00  0.1920E+01
    -17.332  0.0000E+00  0.1920E+01
    -17.176  0.0000E+00  0.1920E+01
    -17.020  0.0000E+00  0.1920E+01
    -16.863  0.0000E+00  0.1920E+01
    -16.707  0.0000E+00  0.1920E+01
    -16.551  0.0000E+00  0.1920E+01
    -16.395  0.0000E+00  0.1920E+01
    -16.239  0.0000E+00  0.1920E+01
    -16.083  0.0000E+00  0.1920E+01
    -15.926  0.0000E+00  0.1920E+01
    -15.770  0.0000E+00  0.1920E+01
    -15.614  0.0000E+00  0.1920E+01
    -15.458  0.0000E+00  0.1920E+01
    -15.302  0.0000E+00  0.1920E+01
    -15.146  0.0000E+00  0.1920E+01
    -14.990  0.0000E+00  0.1920E+01
    -14.833  0.0000E+00  0.1920E+01
    -14.677  0.0000E+00  0.1920E+01
    -14.521  0.0000E+00  0.1920E+01
    -14.365  0.0000E+00  0.1920E+01
    -14.209  0.0000E+00  0.1920E+01
    -14.053  0.0000E+00  0.1920E+01
    -13.896  0.0000E+00  0.1920E+01
    -13.740  0.0000E+00  0.1920E+01
    -13.584  0.0000E+00  0.1920E+01
    -13.428  0.0000E+00  0.1920E+01
    -13.272  0.0000E+00  0.1920E+01
    -13.116  0.0000E+00  0.1920E+01
    -12.960  0.0000E+00  0.1920E+01
    -12.803  0.0000E+00  0.1920E+01
    -12.647  0.0000E+00  0.1920E+01
    -12.491  0.0000E+00  0.1920E+01
    -12.335  0.0000E+00  0.1920E+01
    -12.179  0.0000E+00  0.1920E+01
    -12.023  0.0000E+00  0.1920E+01
    -11.866  0.0000E+00  0.1920E+01
    -11.710  0.0000E+00  0.1920E+01
    -11.554  0.0000E+00  0.1920E+01
    -11.398  0.0000E+00  0.1920E+01
    -11.242  0.0000E+00  0.1920E+01
    -11.086  0.0000E+00  0.1920E+01
    -10.930  0.0000E+00  0.1920E+01
    -10.773  0.0000E+00  0.1920E+01
    -10.617  0.0000E+00  0.1920E+01
    -10.461  0.0000E+00  0.1920E+01
    -10.305  0.0000E+00  0.1920E+01
    -10.149  0.0000E+00  0.1920E+01
     -9.993  0.0000E+00  0.1920E+01
     -9.836  0.0000E+00  0.1920E+01
     -9.680  0.0000E+00  0.1920E+01
     -9.524  0.0000E+00  0.1920E+01
     -9.368  0.0000E+00  0.1920E+01
     -9.212  0.0000E+00  0.1920E+01
     -9.056  0.2203E-14  0.1920E+01
     -8.900  0.2094E-08  0.1920E+01
     -8.743  0.2044E-04  0.1920E+01
     -8.587  0.3167E-02  0.1920E+01
     -8.431  0.3093E-01  0.1925E+01
     -8.275  0.6493E-01  0.1935E+01
     -8.119  0.3832E-01  0.1941E+01
     -7.963  0.8031E-01  0.1954E+01
     -7.806  0.9517E-01  0.1969E+01
     -7.650  0.1034E+00  0.1985E+01
     -7.494  0.1379E+00  0.2007E+01
     -7.338  0.1785E+00  0.2034E+01
     -7.182  0.1465E+00  0.2057E+01
     -7.026  0.7077E-01  0.2068E+01
     -6.869  0.1198E+00  0.2087E+01
     -6.713  0.1820E+00  0.2115E+01
     -6.557  0.1690E+00  0.2142E+01
     -6.401  0.1184E+00  0.2160E+01
     -6.245  0.9964E-01  0.2176E+01
     -6.089  0.2600E-01  0.2180E+01
     -5.933  0.2667E-03  0.2180E+01
     -5.776  0.4477E-07  0.2180E+01
     -5.620  0.7631E-13  0.2180E+01
     -5.464  0.0000E+00  0.2180E+01
     -5.308  0.6198E-13  0.2180E+01
     -5.152  0.2520E-07  0.2180E+01
     -4.996  0.1071E-03  0.2180E+01
     -4.839  0.8639E-02  0.2181E+01
     -4.683  0.4985E-01  0.2189E+01
     -4.527  0.6190E-01  0.2199E+01
     -4.371  0.2600E-01  0.2203E+01
     -4.215  0.7810E-01  0.2215E+01
     -4.059  0.7576E-01  0.2227E+01
     -3.903  0.1141E+00  0.2245E+01
     -3.746  0.1609E+00  0.2270E+01
     -3.590  0.1926E+00  0.2300E+01
     -3.434  0.2214E+00  0.2334E+01
     -3.278  0.2641E+00  0.2376E+01
     -3.122  0.2710E+00  0.2418E+01
     -2.966  0.2226E+00  0.2453E+01
     -2.809  0.1793E+00  0.2481E+01
     -2.653  0.1981E+00  0.2512E+01
     -2.497  0.1334E+00  0.2533E+01
     -2.341  0.8446E-01  0.2546E+01
     -2.185  0.5360E-01  0.2554E+01
     -2.029  0.2867E-01  0.2559E+01
     -1.873  0.8422E-02  0.2560E+01
     -1.716  0.5321E-03  0.2560E+01
     -1.560  0.8658E-06  0.2560E+01
     -1.404  0.1714E-10  0.2560E+01
     -1.248  0.3160E-17  0.2560E+01
     -1.092  0.0000E+00  0.2560E+01
     -0.936  0.0000E+00  0.2560E+01
     -0.779  0.4213E-17  0.2560E+01
     -0.623  0.2249E-10  0.2560E+01
     -0.467  0.1069E-05  0.2560E+01
     -0.311  0.6305E-03  0.2560E+01
     -0.155  0.8641E-02  0.2561E+01
      0.001  0.1509E-01  0.2564E+01
      0.157  0.5388E-01  0.2572E+01
      0.314  0.9755E-01  0.2587E+01
      0.470  0.9184E-01  0.2602E+01
      0.626  0.1279E+00  0.2622E+01
      0.782  0.1491E+00  0.2645E+01
      0.938  0.1663E+00  0.2671E+01
      1.094  0.1956E+00  0.2702E+01
      1.251  0.2401E+00  0.2739E+01
      1.407  0.2587E+00  0.2779E+01
      1.563  0.2518E+00  0.2819E+01
      1.719  0.2591E+00  0.2859E+01
      1.875  0.2859E+00  0.2904E+01
      2.031  0.3127E+00  0.2953E+01
      2.188  0.3221E+00  0.3003E+01
      2.344  0.3083E+00  0.3051E+01
      2.500  0.3065E+00  0.3099E+01
      2.656  0.3960E+00  0.3161E+01
      2.812  0.4537E+00  0.3232E+01
      2.968  0.5103E+00  0.3311E+01
      3.124  0.5372E+00  0.3395E+01
      3.281  0.6077E+00  0.3490E+01
      3.437  0.6245E+00  0.3588E+01
      3.593  0.6271E+00  0.3686E+01
      3.749  0.6067E+00  0.3780E+01
      3.905  0.5550E+00  0.3867E+01
      4.061  0.5520E+00  0.3953E+01
      4.218  0.4910E+00  0.4030E+01
      4.374  0.4287E+00  0.4097E+01
      4.530  0.3980E+00  0.4159E+01
      4.686  0.3564E+00  0.4215E+01
      4.842  0.3032E+00  0.4262E+01
      4.998  0.2993E+00  0.4309E+01
      5.154  0.2959E+00  0.4355E+01
      5.311  0.2350E+00  0.4392E+01
      5.467  0.1779E+00  0.4419E+01
      5.623  0.1628E+00  0.4445E+01
      5.779  0.1356E+00  0.4466E+01
      5.935  0.8225E-01  0.4479E+01
      6.091  0.1090E+00  0.4496E+01
      6.248  0.1552E+00  0.4520E+01
      6.404  0.1670E+00  0.4546E+01
      6.560  0.1581E+00  0.4571E+01
      6.716  0.1682E+00  0.4597E+01
      6.872  0.2183E+00  0.4631E+01
      7.028  0.2148E+00  0.4665E+01
      7.184  0.1969E+00  0.4696E+01
      7.341  0.1995E+00  0.4727E+01
      7.497  0.2286E+00  0.4762E+01
      7.653  0.2445E+00  0.4801E+01
      7.809  0.2811E+00  0.4844E+01
      7.965  0.2514E+00  0.4884E+01
      8.121  0.2305E+00  0.4920E+01
      8.278  0.2226E+00  0.4954E+01
      8.434  0.2047E+00  0.4986E+01
      8.590  0.2349E+00  0.5023E+01
      8.746  0.2783E+00  0.5067E+01
      8.902  0.3432E+00  0.5120E+01
      9.058  0.4081E+00  0.5184E+01
      9.214  0.4478E+00  0.5254E+01
      9.371  0.4746E+00  0.5328E+01
      9.527  0.4902E+00  0.5404E+01
      9.683  0.4648E+00  0.5477E+01
      9.839  0.4967E+00  0.5555E+01
      9.995  0.4910E+00  0.5631E+01
     10.151  0.4996E+00  0.5709E+01
     10.308  0.4684E+00  0.5782E+01
     10.464  0.4424E+00  0.5851E+01
     10.620  0.4459E+00  0.5921E+01
     10.776  0.4656E+00  0.5994E+01
     10.932  0.4369E+00  0.6062E+01
     11.088  0.3692E+00  0.6120E+01
     11.245  0.2055E+00  0.6152E+01
     11.401  0.5064E-01  0.6160E+01
     11.557  0.1959E-02  0.6160E+01
     11.713  0.2305E-05  0.6160E+01
     11.869  0.3515E-10  0.6160E+01
     12.025  0.4213E-17  0.6160E+01
     12.181  0.0000E+00  0.6160E+01
     12.338  0.0000E+00  0.6160E+01
     12.494  0.0000E+00  0.6160E+01
     12.650  0.0000E+00  0.6160E+01
     12.806  0.0000E+00  0.6160E+01
     12.962  0.0000E+00  0.6160E+01
     13.118  0.0000E+00  0.6160E+01
     13.275  0.0000E+00  0.6160E+01
     13.431  0.0000E+00  0.6160E+01
