  64  64   0   0
  0.1154088E+02  0.9039738E-09  0.9060331E-09  0.9018348E-09  0.5000000E-15
  1.000000000000000E-004
  CAR 
 HEBCN                                   
     14.84626002    -50.17358465  301      8.58626313      1.00000000
    -50.174  0.0000E+00  0.0000E+00
    -49.957  0.0000E+00  0.0000E+00
    -49.740  0.0000E+00  0.0000E+00
    -49.523  0.0000E+00  0.0000E+00
    -49.307  0.0000E+00  0.0000E+00
    -49.090  0.0000E+00  0.0000E+00
    -48.873  0.0000E+00  0.0000E+00
    -48.656  0.0000E+00  0.0000E+00
    -48.440  0.0000E+00  0.0000E+00
    -48.223  0.0000E+00  0.0000E+00
    -48.006  0.0000E+00  0.0000E+00
    -47.790  0.3074E-14  0.6661E-15
    -47.573  0.2924E-05  0.6338E-06
    -47.356  0.3930E+00  0.8518E-01
    -47.139  0.2916E+02  0.6406E+01
    -46.923  0.2445E+02  0.1171E+02
    -46.706  0.1357E+01  0.1200E+02
    -46.489  0.1605E-03  0.1200E+02
    -46.272  0.2682E-11  0.1200E+02
    -46.056  0.0000E+00  0.1200E+02
    -45.839  0.0000E+00  0.1200E+02
    -45.622  0.0000E+00  0.1200E+02
    -45.405  0.0000E+00  0.1200E+02
    -45.189  0.0000E+00  0.1200E+02
    -44.972  0.0000E+00  0.1200E+02
    -44.755  0.0000E+00  0.1200E+02
    -44.539  0.0000E+00  0.1200E+02
    -44.322  0.0000E+00  0.1200E+02
    -44.105  0.0000E+00  0.1200E+02
    -43.888  0.0000E+00  0.1200E+02
    -43.672  0.0000E+00  0.1200E+02
    -43.455  0.0000E+00  0.1200E+02
    -43.238  0.0000E+00  0.1200E+02
    -43.021  0.0000E+00  0.1200E+02
    -42.805  0.0000E+00  0.1200E+02
    -42.588  0.0000E+00  0.1200E+02
    -42.371  0.0000E+00  0.1200E+02
    -42.154  0.0000E+00  0.1200E+02
    -41.938  0.0000E+00  0.1200E+02
    -41.721  0.0000E+00  0.1200E+02
    -41.504  0.0000E+00  0.1200E+02
    -41.288  0.2940E-12  0.1200E+02
    -41.071  0.4247E-04  0.1200E+02
    -40.854  0.7875E+00  0.1217E+02
    -40.637  0.8380E+01  0.1399E+02
    -40.421  0.1334E+02  0.1688E+02
    -40.204  0.2426E+02  0.2213E+02
    -39.987  0.1773E+02  0.2598E+02
    -39.770  0.1014E+00  0.2600E+02
    -39.554  0.1953E-06  0.2600E+02
    -39.337  0.0000E+00  0.2600E+02
    -39.120  0.0000E+00  0.2600E+02
    -38.903  0.0000E+00  0.2600E+02
    -38.687  0.0000E+00  0.2600E+02
    -38.470  0.0000E+00  0.2600E+02
    -38.253  0.0000E+00  0.2600E+02
    -38.037  0.0000E+00  0.2600E+02
    -37.820  0.0000E+00  0.2600E+02
    -37.603  0.0000E+00  0.2600E+02
    -37.386  0.0000E+00  0.2600E+02
    -37.170  0.0000E+00  0.2600E+02
    -36.953  0.0000E+00  0.2600E+02
    -36.736  0.0000E+00  0.2600E+02
    -36.519  0.0000E+00  0.2600E+02
    -36.303  0.0000E+00  0.2600E+02
    -36.086  0.0000E+00  0.2600E+02
    -35.869  0.0000E+00  0.2600E+02
    -35.652  0.0000E+00  0.2600E+02
    -35.436  0.0000E+00  0.2600E+02
    -35.219  0.0000E+00  0.2600E+02
    -35.002  0.0000E+00  0.2600E+02
    -34.786  0.0000E+00  0.2600E+02
    -34.569  0.0000E+00  0.2600E+02
    -34.352  0.0000E+00  0.2600E+02
    -34.135  0.0000E+00  0.2600E+02
    -33.919  0.0000E+00  0.2600E+02
    -33.702  0.0000E+00  0.2600E+02
    -33.485  0.0000E+00  0.2600E+02
    -33.268  0.0000E+00  0.2600E+02
    -33.052  0.0000E+00  0.2600E+02
    -32.835  0.0000E+00  0.2600E+02
    -32.618  0.0000E+00  0.2600E+02
    -32.401  0.0000E+00  0.2600E+02
    -32.185  0.0000E+00  0.2600E+02
    -31.968  0.0000E+00  0.2600E+02
    -31.751  0.0000E+00  0.2600E+02
    -31.535  0.0000E+00  0.2600E+02
    -31.318  0.0000E+00  0.2600E+02
    -31.101  0.0000E+00  0.2600E+02
    -30.884  0.0000E+00  0.2600E+02
    -30.668  0.0000E+00  0.2600E+02
    -30.451  0.0000E+00  0.2600E+02
    -30.234  0.0000E+00  0.2600E+02
    -30.017  0.0000E+00  0.2600E+02
    -29.801  0.0000E+00  0.2600E+02
    -29.584  0.0000E+00  0.2600E+02
    -29.367  0.0000E+00  0.2600E+02
    -29.151  0.0000E+00  0.2600E+02
    -28.934  0.0000E+00  0.2600E+02
    -28.717  0.0000E+00  0.2600E+02
    -28.500  0.0000E+00  0.2600E+02
    -28.284  0.0000E+00  0.2600E+02
    -28.067  0.0000E+00  0.2600E+02
    -27.850  0.9277E-14  0.2600E+02
    -27.633  0.5112E-05  0.2600E+02
    -27.417  0.3988E+00  0.2609E+02
    -27.200  0.2894E+02  0.3236E+02
    -26.983  0.5033E+02  0.4327E+02
    -26.766  0.3851E+02  0.5162E+02
    -26.550  0.4060E+02  0.6041E+02
    -26.333  0.7316E+01  0.6200E+02
    -26.116  0.3914E-02  0.6200E+02
    -25.900  0.4534E-09  0.6200E+02
    -25.683  0.0000E+00  0.6200E+02
    -25.466  0.0000E+00  0.6200E+02
    -25.249  0.0000E+00  0.6200E+02
    -25.033  0.0000E+00  0.6200E+02
    -24.816  0.0000E+00  0.6200E+02
    -24.599  0.0000E+00  0.6200E+02
    -24.382  0.0000E+00  0.6200E+02
    -24.166  0.0000E+00  0.6200E+02
    -23.949  0.3792E-07  0.6200E+02
    -23.732  0.4122E-01  0.6201E+02
    -23.515  0.1512E+02  0.6529E+02
    -23.299  0.6578E+02  0.7954E+02
    -23.082  0.6914E+02  0.9453E+02
    -22.865  0.1622E+02  0.9804E+02
    -22.649  0.1563E+02  0.1014E+03
    -22.432  0.5345E+02  0.1130E+03
    -22.215  0.1747E+02  0.1168E+03
    -21.998  0.5407E+02  0.1285E+03
    -21.782  0.2668E+02  0.1343E+03
    -21.565  0.2405E+02  0.1395E+03
    -21.348  0.2249E+01  0.1400E+03
    -21.131  0.1385E-03  0.1400E+03
    -20.915  0.1244E-11  0.1400E+03
    -20.698  0.0000E+00  0.1400E+03
    -20.481  0.0000E+00  0.1400E+03
    -20.264  0.0000E+00  0.1400E+03
    -20.048  0.0000E+00  0.1400E+03
    -19.831  0.0000E+00  0.1400E+03
    -19.614  0.9672E-12  0.1400E+03
    -19.398  0.9181E-04  0.1400E+03
    -19.181  0.1511E+01  0.1403E+03
    -18.964  0.2451E+02  0.1456E+03
    -18.747  0.4238E+02  0.1548E+03
    -18.531  0.6152E+02  0.1682E+03
    -18.314  0.5426E+02  0.1799E+03
    -18.097  0.9487E+01  0.1820E+03
    -17.880  0.1215E+00  0.1820E+03
    -17.664  0.5782E-06  0.1820E+03
    -17.447  0.0000E+00  0.1820E+03
    -17.230  0.0000E+00  0.1820E+03
    -17.013  0.0000E+00  0.1820E+03
    -16.797  0.0000E+00  0.1820E+03
    -16.580  0.0000E+00  0.1820E+03
    -16.363  0.0000E+00  0.1820E+03
    -16.147  0.0000E+00  0.1820E+03
    -15.930  0.0000E+00  0.1820E+03
    -15.713  0.0000E+00  0.1820E+03
    -15.496  0.0000E+00  0.1820E+03
    -15.280  0.0000E+00  0.1820E+03
    -15.063  0.0000E+00  0.1820E+03
    -14.846  0.0000E+00  0.1820E+03
    -14.629  0.0000E+00  0.1820E+03
    -14.413  0.0000E+00  0.1820E+03
    -14.196  0.0000E+00  0.1820E+03
    -13.979  0.0000E+00  0.1820E+03
    -13.762  0.0000E+00  0.1820E+03
    -13.546  0.0000E+00  0.1820E+03
    -13.329  0.0000E+00  0.1820E+03
    -13.112  0.0000E+00  0.1820E+03
    -12.896  0.0000E+00  0.1820E+03
    -12.679  0.0000E+00  0.1820E+03
    -12.462  0.0000E+00  0.1820E+03
    -12.245  0.0000E+00  0.1820E+03
    -12.029  0.0000E+00  0.1820E+03
    -11.812  0.0000E+00  0.1820E+03
    -11.595  0.0000E+00  0.1820E+03
    -11.378  0.0000E+00  0.1820E+03
    -11.162  0.0000E+00  0.1820E+03
    -10.945  0.0000E+00  0.1820E+03
    -10.728  0.0000E+00  0.1820E+03
    -10.511  0.0000E+00  0.1820E+03
    -10.295  0.0000E+00  0.1820E+03
    -10.078  0.0000E+00  0.1820E+03
     -9.861  0.0000E+00  0.1820E+03
     -9.645  0.0000E+00  0.1820E+03
     -9.428  0.0000E+00  0.1820E+03
     -9.211  0.0000E+00  0.1820E+03
     -8.994  0.0000E+00  0.1820E+03
     -8.778  0.0000E+00  0.1820E+03
     -8.561  0.0000E+00  0.1820E+03
     -8.344  0.1924E-11  0.1820E+03
     -8.127  0.4343E-04  0.1820E+03
     -7.911  0.2258E+00  0.1820E+03
     -7.694  0.4921E+01  0.1831E+03
     -7.477  0.5160E+01  0.1842E+03
     -7.260  0.1457E+02  0.1874E+03
     -7.044  0.1115E+02  0.1898E+03
     -6.827  0.1364E+02  0.1928E+03
     -6.610  0.1338E+02  0.1957E+03
     -6.394  0.2787E+02  0.2017E+03
     -6.177  0.2092E+02  0.2062E+03
     -5.960  0.8042E+01  0.2080E+03
     -5.743  0.8148E-01  0.2080E+03
     -5.527  0.3970E-06  0.2080E+03
     -5.310  0.2277E-15  0.2080E+03
     -5.093  0.0000E+00  0.2080E+03
     -4.876  0.0000E+00  0.2080E+03
     -4.660  0.0000E+00  0.2080E+03
     -4.443  0.2492E-11  0.2080E+03
     -4.226  0.5387E-04  0.2080E+03
     -4.009  0.2268E+00  0.2080E+03
     -3.793  0.4472E+01  0.2090E+03
     -3.576  0.4929E+01  0.2101E+03
     -3.359  0.9027E+01  0.2120E+03
     -3.143  0.1375E+02  0.2150E+03
     -2.926  0.2497E+02  0.2204E+03
     -2.709  0.2624E+02  0.2261E+03
     -2.492  0.2768E+02  0.2321E+03
     -2.276  0.2183E+02  0.2369E+03
     -2.059  0.1879E+02  0.2409E+03
     -1.842  0.1233E+02  0.2436E+03
     -1.625  0.8498E+01  0.2454E+03
     -1.409  0.2427E+01  0.2460E+03
     -1.192  0.1633E+00  0.2460E+03
     -0.975  0.4883E-04  0.2460E+03
     -0.759  0.2251E-11  0.2460E+03
     -0.542  0.0000E+00  0.2460E+03
     -0.325  0.0000E+00  0.2460E+03
     -0.108  0.0000E+00  0.2460E+03
      0.108  0.1343E-09  0.2460E+03
      0.325  0.3809E-03  0.2460E+03
      0.542  0.2973E+00  0.2461E+03
      0.759  0.1854E+01  0.2465E+03
      0.975  0.7617E+01  0.2481E+03
      1.192  0.9947E+01  0.2503E+03
      1.409  0.1429E+02  0.2534E+03
      1.626  0.1618E+02  0.2569E+03
      1.842  0.2162E+02  0.2616E+03
      2.059  0.2791E+02  0.2676E+03
      2.276  0.2635E+02  0.2733E+03
      2.492  0.2804E+02  0.2794E+03
      2.709  0.3333E+02  0.2866E+03
      2.926  0.3672E+02  0.2946E+03
      3.143  0.3931E+02  0.3031E+03
      3.359  0.4559E+02  0.3130E+03
      3.576  0.5151E+02  0.3241E+03
      3.793  0.6049E+02  0.3373E+03
      4.010  0.6741E+02  0.3519E+03
      4.226  0.6880E+02  0.3668E+03
      4.443  0.6519E+02  0.3809E+03
      4.660  0.5753E+02  0.3934E+03
      4.877  0.4791E+02  0.4038E+03
      5.093  0.3762E+02  0.4119E+03
      5.310  0.3210E+02  0.4189E+03
      5.527  0.2552E+02  0.4244E+03
      5.743  0.2236E+02  0.4292E+03
      5.960  0.1653E+02  0.4328E+03
      6.177  0.1609E+02  0.4363E+03
      6.394  0.7745E+01  0.4380E+03
      6.610  0.1107E+02  0.4404E+03
      6.827  0.1800E+02  0.4443E+03
      7.044  0.1416E+02  0.4474E+03
      7.261  0.1602E+02  0.4508E+03
      7.477  0.1623E+02  0.4544E+03
      7.694  0.1760E+02  0.4582E+03
      7.911  0.1689E+02  0.4618E+03
      8.128  0.1894E+02  0.4659E+03
      8.344  0.1990E+02  0.4702E+03
      8.561  0.1959E+02  0.4745E+03
      8.778  0.1930E+02  0.4787E+03
      8.994  0.2271E+02  0.4836E+03
      9.211  0.2744E+02  0.4895E+03
      9.428  0.3106E+02  0.4963E+03
      9.645  0.3463E+02  0.5038E+03
      9.861  0.3706E+02  0.5118E+03
     10.078  0.3820E+02  0.5201E+03
     10.295  0.3959E+02  0.5287E+03
     10.512  0.4052E+02  0.5375E+03
     10.728  0.3885E+02  0.5459E+03
     10.945  0.3986E+02  0.5545E+03
     11.162  0.3683E+02  0.5625E+03
     11.379  0.3014E+02  0.5690E+03
     11.595  0.2125E+02  0.5736E+03
     11.812  0.9075E+01  0.5756E+03
     12.029  0.1791E+01  0.5760E+03
     12.245  0.1981E-01  0.5760E+03
     12.462  0.1822E-06  0.5760E+03
     12.679  0.2277E-15  0.5760E+03
     12.896  0.0000E+00  0.5760E+03
     13.112  0.0000E+00  0.5760E+03
     13.329  0.0000E+00  0.5760E+03
     13.546  0.0000E+00  0.5760E+03
     13.763  0.0000E+00  0.5760E+03
     13.979  0.0000E+00  0.5760E+03
     14.196  0.0000E+00  0.5760E+03
     14.413  0.0000E+00  0.5760E+03
     14.630  0.0000E+00  0.5760E+03
     14.846  0.0000E+00  0.5760E+03
