       N       E                     dE             d eps       ncg     rms          rms(c)
DAV:   1     0.572745025756E+04    0.57275E+04   -0.20468E+05  8708   0.148E+03
DAV:   2     0.110390989411E+03   -0.56171E+04   -0.53893E+04  8820   0.521E+02
DAV:   3    -0.723575894719E+03   -0.83397E+03   -0.78531E+03 12460   0.178E+02
DAV:   4    -0.799714051446E+03   -0.76138E+02   -0.74283E+02 14112   0.629E+01
DAV:   5    -0.802658105939E+03   -0.29441E+01   -0.28962E+01 12516   0.112E+01    0.731E+01
RMM:   6    -0.852439484360E+03   -0.49781E+02   -0.15793E+03 11267   0.129E+02    0.109E+02
RMM:   7    -0.665704561708E+03    0.18673E+03   -0.31028E+02 11732   0.429E+01    0.470E+01
RMM:   8    -0.666016784882E+03   -0.31222E+00   -0.85695E+01 12599   0.161E+01    0.309E+01
RMM:   9    -0.662868772769E+03    0.31480E+01   -0.29589E+01 12502   0.103E+01    0.265E+01
RMM:  10    -0.658957706000E+03    0.39111E+01   -0.12069E+01 12159   0.577E+00    0.109E+01
RMM:  11    -0.659987483746E+03   -0.10298E+01   -0.53564E+00 11636   0.499E+00    0.212E+01
RMM:  12    -0.657822265449E+03    0.21652E+01   -0.43112E+00 11705   0.456E+00    0.869E+00
RMM:  13    -0.658418366546E+03   -0.59610E+00   -0.25508E+00 12185   0.326E+00    0.144E+01
RMM:  14    -0.657788400516E+03    0.62997E+00   -0.17893E+00 11918   0.280E+00    0.635E+00
RMM:  15    -0.657779231288E+03    0.91692E-02   -0.69308E-01 11398   0.198E+00    0.854E+00
RMM:  16    -0.657396885150E+03    0.38235E+00   -0.38268E-01 12054   0.139E+00    0.273E+00
RMM:  17    -0.657345788066E+03    0.51097E-01   -0.41187E-01 12031   0.959E-01    0.291E+00
RMM:  18    -0.657323154717E+03    0.22633E-01   -0.18622E-01 12531   0.649E-01    0.863E-01
RMM:  19    -0.657326553186E+03   -0.33985E-02   -0.96422E-02 12050   0.477E-01    0.491E-01
RMM:  20    -0.657323379835E+03    0.31734E-02   -0.31557E-02 11782   0.305E-01    0.218E-01
RMM:  21    -0.657325045290E+03   -0.16655E-02   -0.17993E-02 12643   0.143E-01    0.101E-01
RMM:  22    -0.657325983047E+03   -0.93776E-03   -0.10668E-02 11419   0.905E-02    0.653E-02
RMM:  23    -0.657326520267E+03   -0.53722E-03   -0.60695E-03 10215   0.667E-02    0.292E-02
RMM:  24    -0.657326811768E+03   -0.29150E-03   -0.30998E-03  9312   0.465E-02    0.175E-02
RMM:  25    -0.657326998825E+03   -0.18706E-03   -0.19622E-03  7864   0.342E-02    0.967E-03
RMM:  26    -0.657327096098E+03   -0.97274E-04   -0.10057E-03  6848   0.230E-02    0.616E-03
RMM:  27    -0.657327158155E+03   -0.62057E-04   -0.64820E-04  6715   0.165E-02    0.396E-03
RMM:  28    -0.657327192708E+03   -0.34553E-04   -0.35441E-04  6235   0.147E-02    0.267E-03
RMM:  29    -0.657327215937E+03   -0.23229E-04   -0.23512E-04  6056   0.101E-02    0.157E-03
RMM:  30    -0.657327229138E+03   -0.13200E-04   -0.13220E-04  5638   0.823E-03    0.151E-03
RMM:  31    -0.657327237930E+03   -0.87919E-05   -0.87627E-05  5392   0.687E-03
   1 F= -.65732724E+03 E0= -.65726329E+03  d E =-.657327E+03
       N       E                     dE             d eps       ncg     rms          rms(c)
DAV:   1    -0.707504090079E+03   -0.50177E+02   -0.14503E+03 11900   0.187E+02    0.561E+01
RMM:   2    -0.807271876265E+03   -0.99768E+02   -0.72399E+02 10101   0.118E+02    0.885E+01
RMM:   3    -0.657374565316E+03    0.14990E+03   -0.10865E+02 10650   0.430E+01    0.273E+01
RMM:   4    -0.665104047193E+03   -0.77295E+01   -0.46414E+01 11561   0.177E+01    0.349E+01
RMM:   5    -0.656451596536E+03    0.86525E+01   -0.18818E+01 11582   0.130E+01    0.168E+01
RMM:   6    -0.655008988084E+03    0.14426E+01   -0.70666E+00 11614   0.604E+00    0.145E+01
RMM:   7    -0.654141991511E+03    0.86700E+00   -0.25989E+00 11655   0.457E+00    0.101E+01
RMM:   8    -0.654331281368E+03   -0.18929E+00   -0.15479E+00 11356   0.353E+00    0.121E+01
RMM:   9    -0.653493757192E+03    0.83752E+00   -0.76208E-01 11215   0.285E+00    0.376E+00
RMM:  10    -0.653605352945E+03   -0.11160E+00   -0.47660E-01 11780   0.171E+00    0.587E+00
RMM:  11    -0.653414139197E+03    0.19121E+00   -0.16973E-01 11456   0.125E+00    0.158E+00
RMM:  12    -0.653423631115E+03   -0.94919E-02   -0.78881E-02 11722   0.633E-01    0.238E+00
RMM:  13    -0.653395719189E+03    0.27912E-01   -0.37279E-02 11817   0.507E-01    0.669E-01
RMM:  14    -0.653394211769E+03    0.15074E-02   -0.20340E-02 11968   0.261E-01    0.297E-01
RMM:  15    -0.653394079435E+03    0.13233E-03   -0.60924E-03 12171   0.158E-01    0.113E-01
RMM:  16    -0.653394017290E+03    0.62144E-04   -0.26456E-03 11322   0.917E-02    0.545E-02
RMM:  17    -0.653394079787E+03   -0.62496E-04   -0.14742E-03 10881   0.632E-02    0.322E-02
RMM:  18    -0.653394114909E+03   -0.35122E-04   -0.60271E-04  9767   0.402E-02    0.313E-02
RMM:  19    -0.653394128592E+03   -0.13684E-04   -0.32719E-04  7664   0.274E-02    0.927E-03
RMM:  20    -0.653394142771E+03   -0.14178E-04   -0.16170E-04  6611   0.188E-02    0.899E-03
RMM:  21    -0.653394148109E+03   -0.53384E-05   -0.76069E-05  6230   0.151E-02
   2 F= -.65339415E+03 E0= -.65334434E+03  d E =0.393309E+01
       N       E                     dE             d eps       ncg     rms          rms(c)
DAV:   1    -0.688722832575E+03   -0.35329E+02   -0.68902E+02 12012   0.118E+02    0.562E+01
RMM:   2    -0.872095506055E+03   -0.18337E+03   -0.18137E+02 12008   0.338E+01    0.759E+01
RMM:   3    -0.680413150853E+03    0.19168E+03   -0.58966E+01 11095   0.240E+01    0.416E+01
RMM:   4    -0.675215268350E+03    0.51979E+01   -0.46517E+01 10145   0.275E+01    0.450E+01
RMM:   5    -0.672923241110E+03    0.22920E+01   -0.21856E+01 11460   0.118E+01    0.400E+01
RMM:   6    -0.660477067678E+03    0.12446E+02   -0.12223E+01 10499   0.120E+01    0.165E+01
RMM:   7    -0.662119872913E+03   -0.16428E+01   -0.54861E+00 11984   0.449E+00    0.197E+01
RMM:   8    -0.659019442099E+03    0.31004E+01   -0.14427E+00 10387   0.459E+00    0.530E+00
RMM:   9    -0.659065388006E+03   -0.45946E-01   -0.72380E-01 12063   0.188E+00    0.667E+00
RMM:  10    -0.658832552690E+03    0.23284E+00   -0.34242E-01 11491   0.147E+00    0.290E+00
RMM:  11    -0.658962419570E+03   -0.12987E+00   -0.24567E-01 11809   0.120E+00    0.614E+00
RMM:  12    -0.658805614200E+03    0.15681E+00   -0.11647E-01 11667   0.953E-01    0.213E+00
RMM:  13    -0.658801569412E+03    0.40448E-02   -0.85551E-02 11261   0.838E-01    0.255E+00
RMM:  14    -0.658769898682E+03    0.31671E-01   -0.32880E-02 11756   0.505E-01    0.661E-01
RMM:  15    -0.658774815296E+03   -0.49166E-02   -0.20235E-02 11689   0.292E-01    0.104E+00
RMM:  16    -0.658768791458E+03    0.60238E-02   -0.12463E-02 11228   0.361E-01    0.466E-01
RMM:  17    -0.658768178862E+03    0.61260E-03   -0.47607E-03 11141   0.202E-01    0.292E-01
RMM:  18    -0.658768076587E+03    0.10227E-03   -0.25673E-03 11032   0.102E-01    0.217E-01
RMM:  19    -0.658767811704E+03    0.26488E-03   -0.11197E-03  9966   0.840E-02    0.488E-02
RMM:  20    -0.658767878531E+03   -0.66828E-04   -0.61624E-04  9188   0.306E-02    0.740E-02
RMM:  21    -0.658767863627E+03    0.14905E-04   -0.28351E-04  8216   0.412E-02    0.137E-02
RMM:  22    -0.658767878953E+03   -0.15327E-04   -0.16734E-04  7161   0.168E-02    0.710E-03
RMM:  23    -0.658767887296E+03   -0.83429E-05   -0.73076E-05  6301   0.142E-02
   3 F= -.65876789E+03 E0= -.65870939E+03  d E =-.144065E+01
       N       E                     dE             d eps       ncg     rms          rms(c)
DAV:   1    -0.658776747545E+03   -0.88686E-02   -0.17642E-01 12908   0.193E+00    0.852E-01
RMM:   2    -0.658872659398E+03   -0.95912E-01   -0.95303E-02 10363   0.123E+00    0.379E+00
RMM:   3    -0.658776752712E+03    0.95907E-01   -0.37917E-02 10203   0.805E-01    0.123E+00
RMM:   4    -0.658771380016E+03    0.53727E-02   -0.74299E-03 11145   0.272E-01    0.582E-01
RMM:   5    -0.658770083155E+03    0.12969E-02   -0.33620E-03 11233   0.149E-01    0.388E-01
RMM:   6    -0.658769797369E+03    0.28579E-03   -0.15946E-03  9979   0.112E-01    0.329E-01
RMM:   7    -0.658769275951E+03    0.52142E-03   -0.91678E-04 10611   0.786E-02    0.114E-01
RMM:   8    -0.658769399748E+03   -0.12380E-03   -0.40792E-04  9704   0.583E-02    0.194E-01
RMM:   9    -0.658769200131E+03    0.19962E-03   -0.19526E-04  8843   0.459E-02    0.494E-02
RMM:  10    -0.658769247168E+03   -0.47036E-04   -0.97707E-05  7300   0.285E-02    0.109E-01
RMM:  11    -0.658769197568E+03    0.49600E-04   -0.44774E-05  6173   0.245E-02    0.202E-02
RMM:  12    -0.658769203599E+03   -0.60303E-05   -0.20794E-05  5678   0.155E-02
   4 F= -.65876920E+03 E0= -.65871086E+03  d E =-.144197E+01
       N       E                     dE             d eps       ncg     rms          rms(c)
DAV:   1    -0.658183505432E+03    0.58569E+00   -0.40608E+01  9828   0.255E+01    0.189E+00
RMM:   2    -0.659147996452E+03   -0.96449E+00   -0.75663E+00 13175   0.634E+00    0.684E+00
RMM:   3    -0.659008378675E+03    0.13962E+00   -0.11138E+00 11913   0.283E+00    0.391E+00
RMM:   4    -0.658974123882E+03    0.34255E-01   -0.25928E-01 12203   0.125E+00    0.257E+00
RMM:   5    -0.658944131474E+03    0.29992E-01   -0.81269E-02 11737   0.752E-01    0.102E+00
RMM:   6    -0.658952059011E+03   -0.79275E-02   -0.42986E-02 11872   0.438E-01    0.166E+00
RMM:   7    -0.658938980554E+03    0.13078E-01   -0.15230E-02 11420   0.318E-01    0.505E-01
RMM:   8    -0.658944057356E+03   -0.50768E-02   -0.11996E-02 11610   0.254E-01    0.112E+00
RMM:   9    -0.658937619615E+03    0.64377E-02   -0.79007E-03 11960   0.222E-01    0.388E-01
RMM:  10    -0.658937497694E+03    0.12192E-03   -0.28787E-03 10933   0.120E-01    0.353E-01
RMM:  11    -0.658936914025E+03    0.58367E-03   -0.13409E-03 10231   0.856E-02    0.822E-02
RMM:  12    -0.658936879622E+03    0.34404E-04   -0.63217E-04 10089   0.439E-02    0.293E-02
RMM:  13    -0.658936924937E+03   -0.45316E-04   -0.35444E-04  8728   0.365E-02    0.642E-02
RMM:  14    -0.658936919342E+03    0.55952E-05   -0.17069E-04  6685   0.216E-02    0.226E-02
RMM:  15    -0.658936924583E+03   -0.52407E-05   -0.10413E-04  6369   0.164E-02    0.820E-03
RMM:  16    -0.658936928891E+03   -0.43081E-05   -0.51468E-05  6023   0.118E-02
   5 F= -.65893693E+03 E0= -.65887965E+03  d E =-.167725E+00
       N       E                     dE             d eps       ncg     rms          rms(c)
DAV:   1    -0.658704455108E+03    0.23247E+00   -0.10479E+01 10052   0.133E+01    0.935E-01
RMM:   2    -0.658987761340E+03   -0.28331E+00   -0.23592E+00 13161   0.362E+00    0.330E+00
RMM:   3    -0.658971368075E+03    0.16393E-01   -0.35794E-01 11955   0.139E+00    0.182E+00
RMM:   4    -0.658967576067E+03    0.37920E-02   -0.70268E-02 12231   0.627E-01    0.128E+00
RMM:   5    -0.658960190364E+03    0.73857E-02   -0.19336E-02 11382   0.380E-01    0.557E-01
RMM:   6    -0.658961382124E+03   -0.11918E-02   -0.10448E-02 11352   0.222E-01    0.750E-01
RMM:   7    -0.658958840102E+03    0.25420E-02   -0.36904E-03 11063   0.157E-01    0.292E-01
RMM:   8    -0.658960316063E+03   -0.14760E-02   -0.32270E-03 10844   0.141E-01    0.617E-01
RMM:   9    -0.658958224356E+03    0.20917E-02   -0.24993E-03 11795   0.132E-01    0.200E-01
RMM:  10    -0.658958174886E+03    0.49470E-04   -0.79565E-04  9922   0.663E-02    0.170E-01
RMM:  11    -0.658958038851E+03    0.13603E-03   -0.35453E-04  9510   0.443E-02    0.386E-02
RMM:  12    -0.658958032054E+03    0.67978E-05   -0.17675E-04  8133   0.257E-02    0.155E-02
RMM:  13    -0.658958042249E+03   -0.10195E-04   -0.96070E-05  6482   0.236E-02    0.284E-02
RMM:  14    -0.658958043407E+03   -0.11579E-05   -0.49719E-05  6105   0.138E-02
   6 F= -.65895804E+03 E0= -.65890130E+03  d E =-.188840E+00
       N       E                     dE             d eps       ncg     rms          rms(c)
DAV:   1    -0.658894219439E+03    0.63823E-01   -0.59061E+00 10024   0.111E+01    0.122E+00
RMM:   2    -0.659154815606E+03   -0.26060E+00   -0.10027E+00 12789   0.322E+00    0.535E+00
RMM:   3    -0.658989334176E+03    0.16548E+00   -0.20354E-01 11071   0.160E+00    0.175E+00
RMM:   4    -0.658984488533E+03    0.48456E-02   -0.68523E-02 12443   0.634E-01    0.110E+00
RMM:   5    -0.658981597563E+03    0.28910E-02   -0.18729E-02 11930   0.333E-01    0.851E-01
RMM:   6    -0.658978929189E+03    0.26684E-02   -0.68539E-03 11157   0.216E-01    0.415E-01
RMM:   7    -0.658978854192E+03    0.74996E-04   -0.40679E-03 11624   0.149E-01    0.444E-01
RMM:   8    -0.658978568474E+03    0.28572E-03   -0.24685E-03 11078   0.131E-01    0.364E-01
RMM:   9    -0.658977995851E+03    0.57262E-03   -0.13560E-03 11459   0.913E-02    0.203E-01
RMM:  10    -0.658977942892E+03    0.52959E-04   -0.64425E-04  9736   0.641E-02    0.159E-01
RMM:  11    -0.658977814214E+03    0.12868E-03   -0.25384E-04  9177   0.354E-02    0.275E-02
RMM:  12    -0.658977817035E+03   -0.28209E-05   -0.12818E-04  7629   0.233E-02    0.220E-02
RMM:  13    -0.658977826979E+03   -0.99438E-05   -0.67260E-05  6469   0.198E-02
   7 F= -.65897783E+03 E0= -.65892073E+03  d E =-.197836E-01
       N       E                     dE             d eps       ncg     rms          rms(c)
DAV:   1    -0.658975841258E+03    0.19758E-02   -0.21857E-01 11564   0.209E+00    0.232E-01
RMM:   2    -0.658984867059E+03   -0.90258E-02   -0.33103E-02 12331   0.588E-01    0.101E+00
RMM:   3    -0.658978889701E+03    0.59774E-02   -0.68125E-03 10862   0.301E-01    0.333E-01
RMM:   4    -0.658978726207E+03    0.16349E-03   -0.25057E-03 11572   0.127E-01    0.204E-01
RMM:   5    -0.658978637709E+03    0.88499E-04   -0.68826E-04 10445   0.733E-02    0.164E-01
RMM:   6    -0.658978537845E+03    0.99864E-04   -0.24196E-04  8808   0.499E-02    0.800E-02
RMM:   7    -0.658978538883E+03   -0.10384E-05   -0.15922E-04  8642   0.347E-02    0.897E-02
RMM:   8    -0.658978519566E+03    0.19317E-04   -0.85936E-05  6988   0.292E-02    0.640E-02
RMM:   9    -0.658978502130E+03    0.17436E-04   -0.49090E-05  6634   0.234E-02    0.415E-02
RMM:  10    -0.658978498186E+03    0.39433E-05   -0.22245E-05  5694   0.185E-02
   8 F= -.65897850E+03 E0= -.65892132E+03  d E =-.204548E-01
       N       E                     dE             d eps       ncg     rms          rms(c)
DAV:   1    -0.658966333567E+03    0.12169E-01   -0.55057E+00 12432   0.121E+01    0.242E+00
RMM:   2    -0.659784618925E+03   -0.81829E+00   -0.13671E+00 10616   0.457E+00    0.105E+01
RMM:   3    -0.659025416849E+03    0.75920E+00   -0.42389E-01 10598   0.269E+00    0.320E+00
RMM:   4    -0.658996973953E+03    0.28443E-01   -0.12066E-01 12833   0.966E-01    0.163E+00
RMM:   5    -0.658983494968E+03    0.13479E-01   -0.41390E-02 11826   0.483E-01    0.638E-01
RMM:   6    -0.658988176503E+03   -0.46815E-02   -0.15338E-02 11752   0.318E-01    0.121E+00
RMM:   7    -0.658981226991E+03    0.69495E-02   -0.77829E-03 11294   0.239E-01    0.296E-01
RMM:   8    -0.658982894691E+03   -0.16677E-02   -0.40504E-03 11500   0.161E-01    0.684E-01
RMM:   9    -0.658980703049E+03    0.21916E-02   -0.17240E-03 10314   0.127E-01    0.149E-01
RMM:  10    -0.658981045122E+03   -0.34207E-03   -0.99656E-04 10220   0.793E-02    0.282E-01
RMM:  11    -0.658980631755E+03    0.41337E-03   -0.44959E-04  9465   0.609E-02    0.457E-02
RMM:  12    -0.658980646244E+03   -0.14488E-04   -0.17412E-04  8816   0.268E-02    0.445E-02
RMM:  13    -0.658980660524E+03   -0.14280E-04   -0.96082E-05  6996   0.237E-02    0.546E-02
RMM:  14    -0.658980651931E+03    0.85930E-05   -0.51674E-05  6467   0.177E-02
   9 F= -.65898065E+03 E0= -.65892400E+03  d E =-.215374E-02
       N       E                     dE             d eps       ncg     rms          rms(c)
DAV:   1    -0.658981557229E+03   -0.89671E-03   -0.10394E+00 12460   0.524E+00    0.106E+00
RMM:   2    -0.659147615820E+03   -0.16606E+00   -0.24332E-01 10857   0.189E+00    0.492E+00
RMM:   3    -0.658996711427E+03    0.15090E+00   -0.81602E-02 10553   0.118E+00    0.163E+00
RMM:   4    -0.658987047464E+03    0.96640E-02   -0.23361E-02 12365   0.443E-01    0.693E-01
RMM:   5    -0.658985491445E+03    0.15560E-02   -0.90147E-03 11725   0.230E-01    0.504E-01
RMM:   6    -0.658984837740E+03    0.65370E-03   -0.29012E-03 10876   0.152E-01    0.378E-01
RMM:   7    -0.658984217600E+03    0.62014E-03   -0.15681E-03 11252   0.105E-01    0.205E-01
RMM:   8    -0.658984251088E+03   -0.33488E-04   -0.76878E-04 10209   0.786E-02    0.228E-01
RMM:   9    -0.658983952183E+03    0.29891E-03   -0.37864E-04 10063   0.578E-02    0.593E-02
RMM:  10    -0.658984033156E+03   -0.80973E-04   -0.18415E-04  8687   0.390E-02    0.144E-01
RMM:  11    -0.658983936331E+03    0.96825E-04   -0.76351E-05  6862   0.281E-02    0.305E-02
RMM:  12    -0.658983942856E+03   -0.65241E-05   -0.35762E-05  6132   0.202E-02
  10 F= -.65898394E+03 E0= -.65892707E+03  d E =-.544467E-02
       N       E                     dE             d eps       ncg     rms          rms(c)
DAV:   1    -0.658960113608E+03    0.23823E-01   -0.12820E+00  9520   0.617E+00    0.482E-01
RMM:   2    -0.659007329519E+03   -0.47216E-01   -0.27786E-01 13275   0.154E+00    0.193E+00
RMM:   3    -0.658988681470E+03    0.18648E-01   -0.46032E-02 11373   0.677E-01    0.687E-01
RMM:   4    -0.658988463774E+03    0.21770E-03   -0.11224E-02 11900   0.280E-01    0.526E-01
RMM:   5    -0.658987516289E+03    0.94749E-03   -0.31644E-03 11297   0.156E-01    0.347E-01
RMM:   6    -0.658987136008E+03    0.38028E-03   -0.13500E-03 10503   0.104E-01    0.195E-01
RMM:   7    -0.658987034578E+03    0.10143E-03   -0.73265E-04 10588   0.667E-02    0.162E-01
RMM:   8    -0.658987105384E+03   -0.70806E-04   -0.50669E-04  9929   0.668E-02    0.203E-01
RMM:   9    -0.658986910809E+03    0.19457E-03   -0.31191E-04 10085   0.507E-02    0.874E-02
RMM:  10    -0.658986894672E+03    0.16137E-04   -0.11394E-04  7300   0.331E-02    0.616E-02
RMM:  11    -0.658986876451E+03    0.18221E-04   -0.47078E-05  6203   0.217E-02    0.188E-02
RMM:  12    -0.658986881429E+03   -0.49780E-05   -0.25958E-05  5844   0.163E-02
  11 F= -.65898688E+03 E0= -.65893018E+03  d E =-.293857E-02
       N       E                     dE             d eps       ncg     rms          rms(c)
DAV:   1    -0.658984962257E+03    0.19142E-02   -0.10199E-01 10248   0.174E+00    0.136E-01
RMM:   2    -0.658988717113E+03   -0.37549E-02   -0.21858E-02 13200   0.435E-01    0.547E-01
RMM:   3    -0.658987200417E+03    0.15167E-02   -0.36169E-03 10962   0.193E-01    0.195E-01
RMM:   4    -0.658987187633E+03    0.12784E-04   -0.99842E-04 10646   0.867E-02    0.144E-01
RMM:   5    -0.658987120225E+03    0.67408E-04   -0.26122E-04  9049   0.509E-02    0.974E-02
RMM:   6    -0.658987090521E+03    0.29704E-04   -0.10841E-04  7029   0.336E-02    0.550E-02
RMM:   7    -0.658987084442E+03    0.60787E-05   -0.62647E-05  6916   0.245E-02
  12 F= -.65898708E+03 E0= -.65893042E+03  d E =-.314159E-02
       N       E                     dE             d eps       ncg     rms          rms(c)
DAV:   1    -0.658984030952E+03    0.30596E-02   -0.39112E-01 10416   0.272E+00    0.339E-01
RMM:   2    -0.659002958162E+03   -0.18927E-01   -0.58067E-02 12468   0.818E-01    0.154E+00
RMM:   3    -0.658989123894E+03    0.13834E-01   -0.12205E-02 10778   0.430E-01    0.519E-01
RMM:   4    -0.658988424480E+03    0.69941E-03   -0.46951E-03 11930   0.176E-01    0.259E-01
RMM:   5    -0.658988311202E+03    0.11328E-03   -0.13142E-03 10984   0.945E-02    0.255E-01
RMM:   6    -0.658988055965E+03    0.25524E-03   -0.46120E-04 10018   0.710E-02    0.107E-01
RMM:   7    -0.658988086776E+03   -0.30811E-04   -0.35807E-04  9977   0.498E-02    0.143E-01
RMM:   8    -0.658988002067E+03    0.84709E-04   -0.17503E-04  8289   0.436E-02    0.653E-02
RMM:   9    -0.658987974724E+03    0.27343E-04   -0.82928E-05  7930   0.246E-02    0.193E-02
RMM:  10    -0.658987986237E+03   -0.11513E-04   -0.35625E-05  6066   0.216E-02    0.505E-02
RMM:  11    -0.658987974159E+03    0.12079E-04   -0.18676E-05  5696   0.154E-02    0.898E-03
RMM:  12    -0.658987975493E+03   -0.13346E-05   -0.10498E-05  5550   0.103E-02
  13 F= -.65898798E+03 E0= -.65893136E+03  d E =-.891051E-03
       N       E                     dE             d eps       ncg     rms          rms(c)
DAV:   1    -0.658987962504E+03    0.11655E-04   -0.12985E-03 11200   0.159E-01    0.201E-02
RMM:   2    -0.658988026256E+03   -0.63753E-04   -0.18496E-04 10286   0.480E-02    0.906E-02
RMM:   3    -0.658987977664E+03    0.48592E-04   -0.38497E-05  5891   0.312E-02    0.292E-02
RMM:   4    -0.658987975943E+03    0.17214E-05   -0.15242E-05  5490   0.166E-02
  14 F= -.65898798E+03 E0= -.65893137E+03  d E =-.891501E-03
       N       E                     dE             d eps       ncg     rms          rms(c)
DAV:   1    -0.658986808576E+03    0.11691E-02   -0.24060E-01 11760   0.256E+00    0.410E-01
RMM:   2    -0.659011843686E+03   -0.25035E-01   -0.45567E-02 10979   0.810E-01    0.188E+00
RMM:   3    -0.658990116678E+03    0.21727E-01   -0.13966E-02 10477   0.483E-01    0.650E-01
RMM:   4    -0.658988742346E+03    0.13743E-02   -0.45388E-03 12123   0.195E-01    0.276E-01
RMM:   5    -0.658988573868E+03    0.16848E-03   -0.15329E-03 11273   0.101E-01    0.237E-01
RMM:   6    -0.658988369964E+03    0.20390E-03   -0.47733E-04  9677   0.703E-02    0.131E-01
RMM:   7    -0.658988325202E+03    0.44762E-04   -0.29017E-04  9676   0.447E-02    0.103E-01
RMM:   8    -0.658988321231E+03    0.39710E-05   -0.14640E-04  8150   0.409E-02    0.102E-01
RMM:   9    -0.658988283537E+03    0.37694E-04   -0.83595E-05  7731   0.283E-02    0.579E-02
RMM:  10    -0.658988274481E+03    0.90553E-05   -0.30487E-05  5898   0.217E-02
  15 F= -.65898827E+03 E0= -.65893180E+03  d E =-.298539E-03
       N       E                     dE             d eps       ncg     rms          rms(c)
DAV:   1    -0.658988188700E+03    0.94836E-04   -0.21679E-02 11900   0.766E-01    0.120E-01
RMM:   2    -0.658990321342E+03   -0.21326E-02   -0.40023E-03 11005   0.238E-01    0.551E-01
RMM:   3    -0.658988472000E+03    0.18493E-02   -0.11849E-03  9728   0.143E-01    0.188E-01
RMM:   4    -0.658988357597E+03    0.11440E-03   -0.38842E-04 10247   0.674E-02    0.827E-02
RMM:   5    -0.658988344703E+03    0.12894E-04   -0.12828E-04  8240   0.350E-02    0.763E-02
RMM:   6    -0.658988319747E+03    0.24956E-04   -0.35030E-05  5731   0.253E-02    0.379E-02
RMM:   7    -0.658988317418E+03    0.23292E-05   -0.27982E-05  5688   0.201E-02
  16 F= -.65898832E+03 E0= -.65893180E+03  d E =-.341475E-03
       N       E                     dE             d eps       ncg     rms          rms(c)
DAV:   1    -0.658987641216E+03    0.67853E-03   -0.50565E-02  9912   0.122E+00    0.540E-02
RMM:   2    -0.658988467544E+03   -0.82633E-03   -0.82782E-03 13154   0.260E-01    0.102E-01
RMM:   3    -0.658988543049E+03   -0.75505E-04   -0.10904E-03 11161   0.926E-02    0.777E-02
RMM:   4    -0.658988564694E+03   -0.21645E-04   -0.20140E-04  8967   0.550E-02    0.916E-02
RMM:   5    -0.658988528475E+03    0.36220E-04   -0.61747E-05  6337   0.303E-02    0.326E-02
RMM:   6    -0.658988528814E+03   -0.33953E-06   -0.36534E-05  6054   0.223E-02
  17 F= -.65898853E+03 E0= -.65893198E+03  d E =-.211396E-03
       N       E                     dE             d eps       ncg     rms          rms(c)
DAV:   1    -0.658988463663E+03    0.64812E-04   -0.64233E-03 11004   0.430E-01    0.331E-02
RMM:   2    -0.658988800953E+03   -0.33729E-03   -0.10780E-03 12351   0.964E-02    0.231E-01
RMM:   3    -0.658988562599E+03    0.23835E-03   -0.17880E-04  8206   0.552E-02    0.294E-02
RMM:   4    -0.658988567344E+03   -0.47449E-05   -0.64918E-05  7063   0.292E-02
  18 F= -.65898857E+03 E0= -.65893204E+03  d E =-.249926E-03
       N       E                     dE             d eps       ncg     rms          rms(c)
DAV:   1    -0.658988562439E+03    0.16041E-06   -0.95389E-04 13328   0.157E-01    0.261E-02
RMM:   2    -0.658988769010E+03   -0.20657E-03   -0.18364E-04  8430   0.482E-02    0.208E-01
RMM:   3    -0.658988574391E+03    0.19462E-03   -0.65385E-05  6279   0.382E-02    0.263E-02
RMM:   4    -0.658988571186E+03    0.32044E-05   -0.16013E-05  5466   0.166E-02
  19 F= -.65898857E+03 E0= -.65893204E+03  d E =-.253768E-03
       N       E                     dE             d eps       ncg     rms          rms(c)
DAV:   1    -0.658988527905E+03    0.46486E-04   -0.32036E-03 10948   0.306E-01    0.262E-02
RMM:   2    -0.658988750176E+03   -0.22227E-03   -0.57673E-04 11776   0.740E-02    0.192E-01
RMM:   3    -0.658988579147E+03    0.17103E-03   -0.10315E-04  7146   0.444E-02    0.241E-02
RMM:   4    -0.658988580233E+03   -0.10864E-05   -0.35309E-05  6126   0.240E-02
  20 F= -.65898858E+03 E0= -.65893206E+03  d E =-.262815E-03
       N       E                     dE             d eps       ncg     rms          rms(c)
DAV:   1    -0.658988555575E+03    0.23571E-04   -0.13706E-03 11116   0.203E-01    0.237E-02
RMM:   2    -0.658988757222E+03   -0.20165E-03   -0.26242E-04  9938   0.536E-02    0.200E-01
RMM:   3    -0.658988576128E+03    0.18109E-03   -0.69620E-05  6410   0.398E-02    0.232E-02
RMM:   4    -0.658988574575E+03    0.15527E-05   -0.20981E-05  5817   0.178E-02
  21 F= -.65898857E+03 E0= -.65893204E+03  d E =-.257157E-03
       N       E                     dE             d eps       ncg     rms          rms(c)
DAV:   1    -0.658988570631E+03    0.54969E-05   -0.65759E-04 11452   0.142E-01    0.202E-02
RMM:   2    -0.658988705110E+03   -0.13448E-03   -0.13895E-04  8325   0.410E-02    0.158E-01
RMM:   3    -0.658988580949E+03    0.12416E-03   -0.43728E-05  5925   0.312E-02    0.252E-02
RMM:   4    -0.658988577691E+03    0.32577E-05   -0.10643E-05  5117   0.140E-02
  22 F= -.65898858E+03 E0= -.65893206E+03  d E =-.260273E-03
       N       E                     dE             d eps       ncg     rms          rms(c)
DAV:   1    -0.658988575301E+03    0.56481E-05   -0.16622E-04 12152   0.729E-02    0.140E-02
RMM:   2    -0.658988649370E+03   -0.74069E-04   -0.41240E-05  6006   0.244E-02    0.126E-01
RMM:   3    -0.658988577500E+03    0.71869E-04   -0.21541E-05  5531   0.250E-02    0.132E-02
RMM:   4    -0.658988576327E+03    0.11728E-05   -0.32441E-06  4426   0.726E-03
  23 F= -.65898858E+03 E0= -.65893205E+03  d E =-.258909E-03
       N       E                     dE             d eps       ncg     rms          rms(c)
DAV:   1    -0.658988576847E+03    0.65296E-06   -0.66199E-05  9772   0.472E-02    0.783E-03
RMM:   2    -0.658988596280E+03   -0.19432E-04   -0.15012E-05  5505   0.148E-02    0.608E-02
RMM:   3    -0.658988577967E+03    0.18313E-04   -0.80020E-06  4850   0.156E-02    0.104E-02
RMM:   4    -0.658988577460E+03    0.50713E-06   -0.16770E-06  4334   0.493E-03
  24 F= -.65898858E+03 E0= -.65893206E+03  d E =-.260042E-03
       N       E                     dE             d eps       ncg     rms          rms(c)
DAV:   1    -0.658988504592E+03    0.73375E-04   -0.10258E-02  9744   0.463E-01    0.206E-02
RMM:   2    -0.658988640671E+03   -0.13608E-03   -0.13084E-03 12736   0.112E-01    0.568E-02
RMM:   3    -0.658988646955E+03   -0.62842E-05   -0.17130E-04  9076   0.419E-02    0.293E-02
RMM:   4    -0.658988648360E+03   -0.14050E-05   -0.31287E-05  5925   0.259E-02
  25 F= -.65898865E+03 E0= -.65893212E+03  d E =-.709000E-04
