  64  64   0   0
  0.1103916E+02  0.8875921E-09  0.8940426E-09  0.8903299E-09  0.5000000E-15
  1.000000000000000E-004
  CAR 
 HEBCN                                   
     15.34640176    -51.65936696  301      9.05098056      1.00000000
    -51.659  0.0000E+00  0.0000E+00
    -51.436  0.0000E+00  0.0000E+00
    -51.213  0.0000E+00  0.0000E+00
    -50.989  0.0000E+00  0.0000E+00
    -50.766  0.0000E+00  0.0000E+00
    -50.543  0.0000E+00  0.0000E+00
    -50.319  0.0000E+00  0.0000E+00
    -50.096  0.0000E+00  0.0000E+00
    -49.873  0.0000E+00  0.0000E+00
    -49.649  0.0000E+00  0.0000E+00
    -49.426  0.0000E+00  0.0000E+00
    -49.202  0.4971E-15  0.1110E-15
    -48.979  0.1048E-05  0.2341E-06
    -48.756  0.2007E+00  0.4483E-01
    -48.532  0.1302E+02  0.2954E+01
    -48.309  0.3298E+02  0.1032E+02
    -48.086  0.1410E+02  0.1347E+02
    -47.862  0.2378E+01  0.1400E+02
    -47.639  0.6801E-03  0.1400E+02
    -47.416  0.1675E-10  0.1400E+02
    -47.192  0.1519E-10  0.1400E+02
    -46.969  0.7323E-03  0.1400E+02
    -46.746  0.4815E+01  0.1508E+02
    -46.522  0.4382E+02  0.2486E+02
    -46.299  0.5087E+01  0.2600E+02
    -46.076  0.1521E-02  0.2600E+02
    -45.852  0.6575E-10  0.2600E+02
    -45.629  0.0000E+00  0.2600E+02
    -45.405  0.0000E+00  0.2600E+02
    -45.182  0.0000E+00  0.2600E+02
    -44.959  0.0000E+00  0.2600E+02
    -44.735  0.0000E+00  0.2600E+02
    -44.512  0.0000E+00  0.2600E+02
    -44.289  0.0000E+00  0.2600E+02
    -44.065  0.0000E+00  0.2600E+02
    -43.842  0.0000E+00  0.2600E+02
    -43.619  0.0000E+00  0.2600E+02
    -43.395  0.0000E+00  0.2600E+02
    -43.172  0.0000E+00  0.2600E+02
    -42.949  0.0000E+00  0.2600E+02
    -42.725  0.0000E+00  0.2600E+02
    -42.502  0.0000E+00  0.2600E+02
    -42.279  0.0000E+00  0.2600E+02
    -42.055  0.0000E+00  0.2600E+02
    -41.832  0.0000E+00  0.2600E+02
    -41.609  0.0000E+00  0.2600E+02
    -41.385  0.0000E+00  0.2600E+02
    -41.162  0.0000E+00  0.2600E+02
    -40.938  0.0000E+00  0.2600E+02
    -40.715  0.0000E+00  0.2600E+02
    -40.492  0.0000E+00  0.2600E+02
    -40.268  0.0000E+00  0.2600E+02
    -40.045  0.0000E+00  0.2600E+02
    -39.822  0.0000E+00  0.2600E+02
    -39.598  0.0000E+00  0.2600E+02
    -39.375  0.0000E+00  0.2600E+02
    -39.152  0.0000E+00  0.2600E+02
    -38.928  0.0000E+00  0.2600E+02
    -38.705  0.0000E+00  0.2600E+02
    -38.482  0.0000E+00  0.2600E+02
    -38.258  0.0000E+00  0.2600E+02
    -38.035  0.0000E+00  0.2600E+02
    -37.812  0.0000E+00  0.2600E+02
    -37.588  0.0000E+00  0.2600E+02
    -37.365  0.0000E+00  0.2600E+02
    -37.141  0.0000E+00  0.2600E+02
    -36.918  0.0000E+00  0.2600E+02
    -36.695  0.0000E+00  0.2600E+02
    -36.471  0.0000E+00  0.2600E+02
    -36.248  0.0000E+00  0.2600E+02
    -36.025  0.0000E+00  0.2600E+02
    -35.801  0.0000E+00  0.2600E+02
    -35.578  0.0000E+00  0.2600E+02
    -35.355  0.0000E+00  0.2600E+02
    -35.131  0.0000E+00  0.2600E+02
    -34.908  0.0000E+00  0.2600E+02
    -34.685  0.0000E+00  0.2600E+02
    -34.461  0.0000E+00  0.2600E+02
    -34.238  0.0000E+00  0.2600E+02
    -34.015  0.0000E+00  0.2600E+02
    -33.791  0.0000E+00  0.2600E+02
    -33.568  0.0000E+00  0.2600E+02
    -33.344  0.0000E+00  0.2600E+02
    -33.121  0.0000E+00  0.2600E+02
    -32.898  0.0000E+00  0.2600E+02
    -32.674  0.0000E+00  0.2600E+02
    -32.451  0.0000E+00  0.2600E+02
    -32.228  0.0000E+00  0.2600E+02
    -32.004  0.0000E+00  0.2600E+02
    -31.781  0.0000E+00  0.2600E+02
    -31.558  0.0000E+00  0.2600E+02
    -31.334  0.0000E+00  0.2600E+02
    -31.111  0.6855E-09  0.2600E+02
    -30.888  0.5380E-02  0.2600E+02
    -30.664  0.5561E+01  0.2724E+02
    -30.441  0.3694E+02  0.3549E+02
    -30.218  0.5076E+02  0.4683E+02
    -29.994  0.6532E+02  0.6142E+02
    -29.771  0.2592E+01  0.6200E+02
    -29.547  0.8176E-04  0.6200E+02
    -29.324  0.3263E-12  0.6200E+02
    -29.101  0.0000E+00  0.6200E+02
    -28.877  0.0000E+00  0.6200E+02
    -28.654  0.0000E+00  0.6200E+02
    -28.431  0.0000E+00  0.6200E+02
    -28.207  0.0000E+00  0.6200E+02
    -27.984  0.0000E+00  0.6200E+02
    -27.761  0.0000E+00  0.6200E+02
    -27.537  0.0000E+00  0.6200E+02
    -27.314  0.0000E+00  0.6200E+02
    -27.091  0.3828E-12  0.6200E+02
    -26.867  0.7706E-04  0.6200E+02
    -26.644  0.1390E+01  0.6231E+02
    -26.421  0.2844E+02  0.6866E+02
    -26.197  0.7610E+02  0.8566E+02
    -25.974  0.3438E+02  0.9334E+02
    -25.750  0.2054E+02  0.9793E+02
    -25.527  0.3150E+00  0.9800E+02
    -25.304  0.4271E-02  0.9800E+02
    -25.080  0.5592E+01  0.9925E+02
    -24.857  0.5795E+02  0.1122E+03
    -24.634  0.8606E+02  0.1314E+03
    -24.410  0.3490E+02  0.1392E+03
    -24.187  0.3536E+01  0.1400E+03
    -23.964  0.4419E-03  0.1400E+03
    -23.740  0.5182E-11  0.1400E+03
    -23.517  0.4642E-09  0.1400E+03
    -23.294  0.4622E-02  0.1400E+03
    -23.070  0.7018E+01  0.1416E+03
    -22.847  0.5670E+02  0.1542E+03
    -22.624  0.7259E+02  0.1704E+03
    -22.400  0.2509E+02  0.1761E+03
    -22.177  0.1990E+02  0.1805E+03
    -21.953  0.4488E+02  0.1905E+03
    -21.730  0.1865E+02  0.1947E+03
    -21.507  0.4717E+02  0.2052E+03
    -21.283  0.3030E+02  0.2120E+03
    -21.060  0.1672E+02  0.2157E+03
    -20.837  0.1018E+02  0.2180E+03
    -20.613  0.1176E-01  0.2180E+03
    -20.390  0.2013E-08  0.2180E+03
    -20.167  0.0000E+00  0.2180E+03
    -19.943  0.0000E+00  0.2180E+03
    -19.720  0.0000E+00  0.2180E+03
    -19.497  0.0000E+00  0.2180E+03
    -19.273  0.0000E+00  0.2180E+03
    -19.050  0.0000E+00  0.2180E+03
    -18.827  0.0000E+00  0.2180E+03
    -18.603  0.0000E+00  0.2180E+03
    -18.380  0.0000E+00  0.2180E+03
    -18.156  0.0000E+00  0.2180E+03
    -17.933  0.0000E+00  0.2180E+03
    -17.710  0.0000E+00  0.2180E+03
    -17.486  0.0000E+00  0.2180E+03
    -17.263  0.0000E+00  0.2180E+03
    -17.040  0.0000E+00  0.2180E+03
    -16.816  0.0000E+00  0.2180E+03
    -16.593  0.0000E+00  0.2180E+03
    -16.370  0.0000E+00  0.2180E+03
    -16.146  0.0000E+00  0.2180E+03
    -15.923  0.0000E+00  0.2180E+03
    -15.700  0.0000E+00  0.2180E+03
    -15.476  0.0000E+00  0.2180E+03
    -15.253  0.0000E+00  0.2180E+03
    -15.030  0.0000E+00  0.2180E+03
    -14.806  0.0000E+00  0.2180E+03
    -14.583  0.0000E+00  0.2180E+03
    -14.359  0.0000E+00  0.2180E+03
    -14.136  0.0000E+00  0.2180E+03
    -13.913  0.0000E+00  0.2180E+03
    -13.689  0.0000E+00  0.2180E+03
    -13.466  0.0000E+00  0.2180E+03
    -13.243  0.0000E+00  0.2180E+03
    -13.019  0.0000E+00  0.2180E+03
    -12.796  0.0000E+00  0.2180E+03
    -12.573  0.0000E+00  0.2180E+03
    -12.349  0.0000E+00  0.2180E+03
    -12.126  0.0000E+00  0.2180E+03
    -11.903  0.0000E+00  0.2180E+03
    -11.679  0.0000E+00  0.2180E+03
    -11.456  0.0000E+00  0.2180E+03
    -11.233  0.0000E+00  0.2180E+03
    -11.009  0.0000E+00  0.2180E+03
    -10.786  0.0000E+00  0.2180E+03
    -10.562  0.0000E+00  0.2180E+03
    -10.339  0.0000E+00  0.2180E+03
    -10.116  0.0000E+00  0.2180E+03
     -9.892  0.0000E+00  0.2180E+03
     -9.669  0.0000E+00  0.2180E+03
     -9.446  0.0000E+00  0.2180E+03
     -9.222  0.0000E+00  0.2180E+03
     -8.999  0.0000E+00  0.2180E+03
     -8.776  0.0000E+00  0.2180E+03
     -8.552  0.0000E+00  0.2180E+03
     -8.329  0.1029E-12  0.2180E+03
     -8.106  0.1197E-04  0.2180E+03
     -7.882  0.1594E+00  0.2180E+03
     -7.659  0.4549E+01  0.2191E+03
     -7.436  0.4315E+01  0.2200E+03
     -7.212  0.7045E+01  0.2216E+03
     -6.989  0.5574E+01  0.2228E+03
     -6.766  0.1233E+02  0.2256E+03
     -6.542  0.1178E+02  0.2282E+03
     -6.319  0.1786E+02  0.2322E+03
     -6.095  0.2442E+02  0.2377E+03
     -5.872  0.2522E+02  0.2433E+03
     -5.649  0.3150E+01  0.2440E+03
     -5.425  0.7388E-03  0.2440E+03
     -5.202  0.1861E-10  0.2440E+03
     -4.979  0.0000E+00  0.2440E+03
     -4.755  0.0000E+00  0.2440E+03
     -4.532  0.0000E+00  0.2440E+03
     -4.309  0.2143E-09  0.2440E+03
     -4.085  0.8891E-03  0.2440E+03
     -3.862  0.7865E+00  0.2442E+03
     -3.639  0.6535E+01  0.2456E+03
     -3.415  0.3996E+01  0.2465E+03
     -3.192  0.8395E+01  0.2484E+03
     -2.969  0.1016E+02  0.2507E+03
     -2.745  0.1994E+02  0.2551E+03
     -2.522  0.2319E+02  0.2603E+03
     -2.298  0.2219E+02  0.2653E+03
     -2.075  0.2420E+02  0.2707E+03
     -1.852  0.1659E+02  0.2744E+03
     -1.628  0.1665E+02  0.2781E+03
     -1.405  0.1255E+02  0.2809E+03
     -1.182  0.4730E+01  0.2820E+03
     -0.958  0.2173E+00  0.2820E+03
     -0.735  0.2621E-03  0.2820E+03
     -0.512  0.4365E-10  0.2820E+03
     -0.288  0.0000E+00  0.2820E+03
     -0.065  0.0000E+00  0.2820E+03
      0.158  0.2379E-09  0.2820E+03
      0.382  0.6776E-03  0.2820E+03
      0.605  0.3200E+00  0.2821E+03
      0.828  0.2336E+01  0.2826E+03
      1.052  0.7205E+01  0.2842E+03
      1.275  0.9711E+01  0.2864E+03
      1.499  0.1003E+02  0.2886E+03
      1.722  0.1333E+02  0.2916E+03
      1.945  0.1769E+02  0.2955E+03
      2.169  0.2490E+02  0.3011E+03
      2.392  0.2607E+02  0.3069E+03
      2.615  0.2610E+02  0.3128E+03
      2.839  0.2788E+02  0.3190E+03
      3.062  0.3376E+02  0.3265E+03
      3.285  0.3252E+02  0.3338E+03
      3.509  0.3734E+02  0.3421E+03
      3.732  0.4309E+02  0.3517E+03
      3.955  0.5195E+02  0.3634E+03
      4.179  0.6073E+02  0.3769E+03
      4.402  0.6228E+02  0.3908E+03
      4.625  0.6141E+02  0.4045E+03
      4.849  0.5749E+02  0.4174E+03
      5.072  0.5361E+02  0.4294E+03
      5.296  0.4600E+02  0.4396E+03
      5.519  0.3568E+02  0.4476E+03
      5.742  0.2960E+02  0.4542E+03
      5.966  0.2965E+02  0.4608E+03
      6.189  0.2096E+02  0.4655E+03
      6.412  0.1471E+02  0.4688E+03
      6.636  0.1691E+02  0.4726E+03
      6.859  0.7984E+01  0.4744E+03
      7.082  0.1204E+02  0.4771E+03
      7.306  0.1348E+02  0.4801E+03
      7.529  0.1412E+02  0.4832E+03
      7.752  0.1547E+02  0.4867E+03
      7.976  0.1887E+02  0.4909E+03
      8.199  0.1588E+02  0.4944E+03
      8.422  0.1557E+02  0.4979E+03
      8.646  0.1644E+02  0.5016E+03
      8.869  0.2347E+02  0.5068E+03
      9.093  0.2252E+02  0.5119E+03
      9.316  0.1979E+02  0.5163E+03
      9.539  0.2636E+02  0.5222E+03
      9.763  0.2688E+02  0.5282E+03
      9.986  0.3456E+02  0.5359E+03
     10.209  0.3989E+02  0.5448E+03
     10.433  0.4357E+02  0.5545E+03
     10.656  0.4542E+02  0.5647E+03
     10.879  0.5063E+02  0.5760E+03
     11.103  0.5072E+02  0.5873E+03
     11.326  0.4696E+02  0.5978E+03
     11.549  0.4099E+02  0.6069E+03
     11.773  0.3587E+02  0.6150E+03
     11.996  0.2589E+02  0.6207E+03
     12.219  0.1258E+02  0.6236E+03
     12.443  0.1975E+01  0.6240E+03
     12.666  0.1742E-01  0.6240E+03
     12.890  0.7994E-07  0.6240E+03
     13.113  0.0000E+00  0.6240E+03
     13.336  0.0000E+00  0.6240E+03
     13.560  0.0000E+00  0.6240E+03
     13.783  0.0000E+00  0.6240E+03
     14.006  0.0000E+00  0.6240E+03
     14.230  0.0000E+00  0.6240E+03
     14.453  0.0000E+00  0.6240E+03
     14.676  0.0000E+00  0.6240E+03
     14.900  0.0000E+00  0.6240E+03
     15.123  0.0000E+00  0.6240E+03
     15.346  0.0000E+00  0.6240E+03
