 running on   24 total cores
 distrk:  each k-point on   24 cores,    1 groups
 distr:  one band on    1 cores,   24 groups
 using from now: INCAR     
 vasp.5.4.4.18Apr17-6-g9f103f2a35 (build Oct 18 2021 20:38:43) complex          
  
 POSCAR found type information on POSCAR  Ti Ta Hf N  C  W  Nb
 POSCAR found :  7 types and      64 ions
 scaLAPACK will be used

 ----------------------------------------------------------------------------- 
|                                                                             |
|           W    W    AA    RRRRR   N    N  II  N    N   GGGG   !!!           |
|           W    W   A  A   R    R  NN   N  II  NN   N  G    G  !!!           |
|           W    W  A    A  R    R  N N  N  II  N N  N  G       !!!           |
|           W WW W  AAAAAA  RRRRR   N  N N  II  N  N N  G  GGG   !            |
|           WW  WW  A    A  R   R   N   NN  II  N   NN  G    G                |
|           W    W  A    A  R    R  N    N  II  N    N   GGGG   !!!           |
|                                                                             |
|      For optimal performance we recommend to set                            |
|        NCORE= 4 - approx SQRT( number of cores)                             |
|      NCORE specifies how many cores store one orbital (NPAR=cpu/NCORE).     |
|      This setting can  greatly improve the performance of VASP for DFT.     |
|      The default,   NCORE=1            might be grossly inefficient         |
|      on modern multi-core architectures or massively parallel machines.     |
|      Do your own testing !!!!                                               |
|      Unfortunately you need to use the default for GW and RPA calculations. |
|      (for HF NCORE is supported but not extensively tested yet)             |
|                                                                             |
 ----------------------------------------------------------------------------- 


 ----------------------------------------------------------------------------- 
|                                                                             |
|  ADVICE TO THIS USER RUNNING 'VASP/VAMP'   (HEAR YOUR MASTER'S VOICE ...):  |
|                                                                             |
|      You have a (more or less) 'large supercell' and for larger cells       |
|      it might be more efficient to use real space projection operators      |
|      So try LREAL= Auto  in the INCAR   file.                               |
|      Mind: If you want to do a very accurate calculations keep the          |
|      reciprocal projection scheme          (i.e. LREAL=.FALSE.)             |
|                                                                             |
 ----------------------------------------------------------------------------- 

 LDA part: xc-table for Pade appr. of Perdew
 POSCAR, INCAR and KPOINTS ok, starting setup
 FFT: planning ...
 WAVECAR not read
 entering main loop
       N       E                     dE             d eps       ncg     rms          rms(c)
DAV:   1     0.580970988213E+04    0.58097E+04   -0.22015E+05  8736   0.148E+03
DAV:   2     0.173121554052E+03   -0.56366E+04   -0.54645E+04  8784   0.613E+02
DAV:   3    -0.700589906870E+03   -0.87371E+03   -0.83806E+03 13824   0.187E+02
DAV:   4    -0.789567785984E+03   -0.88978E+02   -0.87270E+02 14592   0.679E+01
DAV:   5    -0.799390840515E+03   -0.98231E+01   -0.97556E+01 16968   0.207E+01    0.596E+01
RMM:   6    -0.676696645152E+03    0.12269E+03   -0.81603E+02 14095   0.443E+01    0.169E+01
RMM:   7    -0.668585479287E+03    0.81112E+01   -0.75192E+01 11358   0.333E+01    0.960E+00
RMM:   8    -0.671862518826E+03   -0.32770E+01   -0.49435E+01 15068   0.738E+00    0.803E+00
RMM:   9    -0.670683922820E+03    0.11786E+01   -0.55148E+00 12344   0.729E+00    0.522E+00
RMM:  10    -0.670794514623E+03   -0.11059E+00   -0.47353E+00 14623   0.319E+00    0.284E+00
RMM:  11    -0.670772941863E+03    0.21573E-01   -0.10443E+00 13256   0.315E+00    0.174E+00
RMM:  12    -0.670790041523E+03   -0.17100E-01   -0.11426E+00 14909   0.133E+00    0.110E+00
RMM:  13    -0.670825676798E+03   -0.35635E-01   -0.57820E-01 15503   0.118E+00    0.938E-01
RMM:  14    -0.670845172131E+03   -0.19495E-01   -0.33222E-01 15051   0.767E-01    0.832E-01
RMM:  15    -0.670833120336E+03    0.12052E-01   -0.15502E-01 14530   0.695E-01    0.261E-01
RMM:  16    -0.670838761641E+03   -0.56413E-02   -0.88353E-02 15204   0.433E-01    0.135E-01
RMM:  17    -0.670840362611E+03   -0.16010E-02   -0.28350E-02 15972   0.304E-01    0.124E-01
RMM:  18    -0.670841925031E+03   -0.15624E-02   -0.20466E-02 16123   0.169E-01    0.815E-02
RMM:  19    -0.670842614067E+03   -0.68904E-03   -0.95859E-03 16071   0.138E-01    0.406E-02
RMM:  20    -0.670843236487E+03   -0.62242E-03   -0.74033E-03 14942   0.100E-01    0.461E-02
RMM:  21    -0.670843502145E+03   -0.26566E-03   -0.34474E-03 14537   0.772E-02    0.349E-02
RMM:  22    -0.670843730034E+03   -0.22789E-03   -0.26041E-03 14213   0.606E-02    0.916E-03
RMM:  23    -0.670843836529E+03   -0.10650E-03   -0.13179E-03 13408   0.488E-02    0.748E-03
RMM:  24    -0.670843917812E+03   -0.81283E-04   -0.92603E-04 13033   0.379E-02    0.932E-03
RMM:  25    -0.670843964656E+03   -0.46844E-04   -0.55429E-04 12636   0.318E-02    0.475E-03
WARNING in EDDRMM: call to ZHEGV failed, returncode =   6  3      6
RMM:  26    -0.670843997071E+03   -0.32415E-04   -0.37406E-04 12015   0.259E-02    0.125E-03
RMM:  27    -0.670844016276E+03   -0.19205E-04   -0.23260E-04 11443   0.221E-02    0.353E-03
RMM:  28    -0.670844027645E+03   -0.11369E-04   -0.14080E-04 10649   0.186E-02    0.995E-04
RMM:  29    -0.670844034990E+03   -0.73447E-05   -0.94467E-05 10250   0.167E-02
   1 F= -.67084403E+03 E0= -.67079183E+03  d E =-.104412E+00
 writing wavefunctions
