       N       E                     dE             d eps       ncg     rms          rms(c)
DAV:   1     0.539377284824E+04    0.53938E+04   -0.21353E+05  8760   0.149E+03
DAV:   2     0.581422518572E+02   -0.53356E+04   -0.51184E+04  9072   0.512E+02
DAV:   3    -0.726947196448E+03   -0.78509E+03   -0.74369E+03 13200   0.175E+02
DAV:   4    -0.793515072764E+03   -0.66568E+02   -0.65349E+02 15480   0.561E+01
DAV:   5    -0.797109840683E+03   -0.35948E+01   -0.35669E+01 15816   0.116E+01    0.741E+01
RMM:   6    -0.101121413947E+04   -0.21410E+03   -0.26706E+03 11687   0.140E+02    0.130E+02
RMM:   7    -0.661070761320E+03    0.35014E+03   -0.24558E+02 13022   0.360E+01    0.324E+01
RMM:   8    -0.669008609325E+03   -0.79378E+01   -0.42610E+01 14016   0.119E+01    0.347E+01
RMM:   9    -0.664303568651E+03    0.47050E+01   -0.91452E+00 12867   0.779E+00    0.265E+01
RMM:  10    -0.659461927058E+03    0.48416E+01   -0.61150E+00 14155   0.449E+00    0.128E+01
RMM:  11    -0.661356817929E+03   -0.18949E+01   -0.25959E+00 13354   0.387E+00    0.244E+01
RMM:  12    -0.658625376621E+03    0.27314E+01   -0.35620E+00 13108   0.410E+00    0.888E+00
RMM:  13    -0.659058631497E+03   -0.43325E+00   -0.15015E+00 13626   0.243E+00    0.132E+01
RMM:  14    -0.658651409751E+03    0.40722E+00   -0.13621E+00 13652   0.237E+00    0.800E+00
RMM:  15    -0.658583244837E+03    0.68165E-01   -0.43298E-01 13675   0.117E+00    0.680E+00
RMM:  16    -0.658337362977E+03    0.24588E+00   -0.47826E-01 14046   0.106E+00    0.435E+00
RMM:  17    -0.658273507511E+03    0.63855E-01   -0.16370E-01 13912   0.689E-01    0.201E+00
RMM:  18    -0.658275946474E+03   -0.24390E-02   -0.18229E-01 14095   0.554E-01    0.125E+00
RMM:  19    -0.658268231081E+03    0.77154E-02   -0.34795E-02 13779   0.291E-01    0.765E-01
RMM:  20    -0.658262393007E+03    0.58381E-02   -0.34685E-02 13708   0.254E-01    0.194E-01
RMM:  21    -0.658262456369E+03   -0.63362E-04   -0.62756E-03 13421   0.122E-01    0.926E-02
RMM:  22    -0.658262456512E+03   -0.14281E-06   -0.17410E-03 12278   0.536E-02    0.493E-02
RMM:  23    -0.658262490950E+03   -0.34438E-04   -0.87426E-04 11529   0.347E-02    0.300E-02
RMM:  24    -0.658262501295E+03   -0.10345E-04   -0.33419E-04 10186   0.227E-02    0.742E-03
RMM:  25    -0.658262514530E+03   -0.13236E-04   -0.16633E-04  8141   0.162E-02    0.333E-03
RMM:  26    -0.658262521787E+03   -0.72568E-05   -0.83474E-05  7178   0.137E-02
   1 F= -.65826252E+03 E0= -.65818351E+03  d E =-.658263E+03
       N       E                     dE             d eps       ncg     rms          rms(c)
DAV:   1    -0.654263971820E+03    0.39985E+01   -0.66403E+02  9552   0.930E+01    0.928E+00
RMM:   2    -0.668618717512E+03   -0.14355E+02   -0.87449E+01 13804   0.259E+01    0.329E+01
RMM:   3    -0.661285347127E+03    0.73334E+01   -0.81150E+00 12022   0.959E+00    0.146E+01
RMM:   4    -0.661432957937E+03   -0.14761E+00   -0.31238E+00 14027   0.335E+00    0.134E+01
RMM:   5    -0.660670789127E+03    0.76217E+00   -0.81148E-01 12631   0.241E+00    0.769E+00
RMM:   6    -0.660418072932E+03    0.25272E+00   -0.40816E-01 12830   0.166E+00    0.422E+00
RMM:   7    -0.660315482010E+03    0.10259E+00   -0.61536E-01 13225   0.162E+00    0.303E+00
RMM:   8    -0.660420733974E+03   -0.10525E+00   -0.18056E-01 12939   0.108E+00    0.580E+00
RMM:   9    -0.660298561376E+03    0.12217E+00   -0.85448E-02 13143   0.788E-01    0.256E+00
RMM:  10    -0.660277827390E+03    0.20734E-01   -0.63180E-02 14133   0.415E-01    0.946E-01
RMM:  11    -0.660284340873E+03   -0.65135E-02   -0.28036E-02 14273   0.274E-01    0.146E+00
RMM:  12    -0.660276159369E+03    0.81815E-02   -0.11288E-02 13238   0.213E-01    0.363E-01
RMM:  13    -0.660276814319E+03   -0.65495E-03   -0.81566E-03 13895   0.112E-01    0.160E-01
RMM:  14    -0.660277252042E+03   -0.43772E-03   -0.34149E-03 13700   0.695E-02    0.786E-02
RMM:  15    -0.660277402645E+03   -0.15060E-03   -0.13684E-03 12876   0.500E-02    0.400E-02
RMM:  16    -0.660277442537E+03   -0.39892E-04   -0.56116E-04 11374   0.317E-02    0.202E-02
RMM:  17    -0.660277458463E+03   -0.15926E-04   -0.24258E-04 10537   0.255E-02    0.137E-02
RMM:  18    -0.660277464265E+03   -0.58021E-05   -0.11577E-04  9636   0.196E-02    0.514E-03
RMM:  19    -0.660277467908E+03   -0.36427E-05   -0.54476E-05  8215   0.155E-02
   2 F= -.66027747E+03 E0= -.66020542E+03  d E =-.201495E+01
       N       E                     dE             d eps       ncg     rms          rms(c)
DAV:   1    -0.660275978870E+03    0.14854E-02   -0.21273E-01 11088   0.169E+00    0.181E-01
RMM:   2    -0.660281936113E+03   -0.59572E-02   -0.29729E-02 13767   0.464E-01    0.772E-01
RMM:   3    -0.660278354696E+03    0.35814E-02   -0.29439E-03 11817   0.177E-01    0.229E-01
RMM:   4    -0.660278401584E+03   -0.46887E-04   -0.98981E-04 11178   0.740E-02    0.245E-01
RMM:   5    -0.660278225925E+03    0.17566E-03   -0.29766E-04 10057   0.497E-02    0.197E-01
RMM:   6    -0.660278091038E+03    0.13489E-03   -0.13225E-04  7845   0.345E-02    0.750E-02
RMM:   7    -0.660278108610E+03   -0.17572E-04   -0.23061E-04 11630   0.335E-02    0.115E-01
RMM:   8    -0.660278068315E+03    0.40295E-04   -0.54041E-05  6296   0.301E-02    0.608E-02
RMM:   9    -0.660278082847E+03   -0.14532E-04   -0.38124E-05  5870   0.223E-02    0.830E-02
RMM:  10    -0.660278055388E+03    0.27460E-04   -0.18449E-05  5496   0.182E-02    0.119E-02
RMM:  11    -0.660278058740E+03   -0.33519E-05   -0.16224E-05  5687   0.112E-02
   3 F= -.66027806E+03 E0= -.66020618E+03  d E =-.201554E+01
       N       E                     dE             d eps       ncg     rms          rms(c)
DAV:   1    -0.659174927143E+03    0.11031E+01   -0.19290E+02 11616   0.663E+01    0.109E+01
RMM:   2    -0.678815372691E+03   -0.19640E+02   -0.35618E+01 13713   0.158E+01    0.403E+01
RMM:   3    -0.660989524649E+03    0.17826E+02   -0.74277E+00 11222   0.969E+00    0.666E+00
RMM:   4    -0.661264168794E+03   -0.27464E+00   -0.18633E+00 13571   0.305E+00    0.999E+00
RMM:   5    -0.660778788639E+03    0.48538E+00   -0.42600E-01 11914   0.179E+00    0.352E+00
RMM:   6    -0.660821094221E+03   -0.42306E-01   -0.21314E-01 12243   0.121E+00    0.479E+00
RMM:   7    -0.660702396654E+03    0.11870E+00   -0.15036E-01 13461   0.893E-01    0.157E+00
RMM:   8    -0.660750057507E+03   -0.47661E-01   -0.63025E-02 12963   0.623E-01    0.379E+00
RMM:   9    -0.660694342050E+03    0.55715E-01   -0.35290E-02 13218   0.513E-01    0.779E-01
RMM:  10    -0.660697561806E+03   -0.32198E-02   -0.24922E-02 13673   0.248E-01    0.101E+00
RMM:  11    -0.660693714542E+03    0.38473E-02   -0.96943E-03 13976   0.170E-01    0.199E-01
RMM:  12    -0.660694537107E+03   -0.82256E-03   -0.49943E-03 13785   0.899E-02    0.310E-01
RMM:  13    -0.660694405058E+03    0.13205E-03   -0.19711E-03 12323   0.768E-02    0.182E-01
RMM:  14    -0.660694549206E+03   -0.14415E-03   -0.13268E-03 12937   0.507E-02    0.641E-02
RMM:  15    -0.660694607500E+03   -0.58294E-04   -0.75261E-04 12199   0.383E-02    0.248E-02
RMM:  16    -0.660694621025E+03   -0.13526E-04   -0.27794E-04 10785   0.252E-02    0.161E-02
RMM:  17    -0.660694630587E+03   -0.95619E-05   -0.12684E-04 10061   0.211E-02    0.106E-02
RMM:  18    -0.660694634669E+03   -0.40820E-05   -0.52299E-05  8563   0.147E-02
   4 F= -.66069463E+03 E0= -.66062688E+03  d E =-.416576E+00
       N       E                     dE             d eps       ncg     rms          rms(c)
DAV:   1    -0.660694229616E+03    0.40097E-03   -0.69253E-02 11952   0.128E+00    0.201E-01
RMM:   2    -0.660702420769E+03   -0.81912E-02   -0.15370E-02 12379   0.359E-01    0.110E+00
RMM:   3    -0.660695825358E+03    0.65954E-02   -0.30816E-03 10291   0.188E-01    0.482E-01
RMM:   4    -0.660694961755E+03    0.86360E-03   -0.80375E-04  9906   0.923E-02    0.124E-01
RMM:   5    -0.660695033451E+03   -0.71696E-04   -0.28588E-04  9860   0.419E-02    0.203E-01
RMM:   6    -0.660694847082E+03    0.18637E-03   -0.89971E-05  6950   0.341E-02    0.459E-02
RMM:   7    -0.660694897297E+03   -0.50215E-04   -0.85895E-05  7721   0.268E-02    0.129E-01
RMM:   8    -0.660694830098E+03    0.67199E-04   -0.41402E-05  5896   0.247E-02    0.277E-02
RMM:   9    -0.660694844762E+03   -0.14665E-04   -0.31228E-05  5822   0.201E-02    0.617E-02
RMM:  10    -0.660694827179E+03    0.17583E-04   -0.16071E-05  5414   0.180E-02    0.678E-03
RMM:  11    -0.660694827096E+03    0.82779E-07   -0.12531E-05  5473   0.107E-02
   5 F= -.66069483E+03 E0= -.66062715E+03  d E =-.416768E+00
       N       E                     dE             d eps       ncg     rms          rms(c)
DAV:   1    -0.658297629375E+03    0.23972E+01   -0.18441E+02 11160   0.753E+01    0.815E+00
RMM:   2    -0.671034690032E+03   -0.12737E+02   -0.45735E+01 12794   0.190E+01    0.341E+01
RMM:   3    -0.661093310760E+03    0.99414E+01   -0.61696E+00 11527   0.830E+00    0.617E+00
RMM:   4    -0.661319601847E+03   -0.22629E+00   -0.17540E+00 13981   0.255E+00    0.804E+00
RMM:   5    -0.661004634795E+03    0.31497E+00   -0.31063E-01 12338   0.153E+00    0.346E+00
RMM:   6    -0.660988775789E+03    0.15859E-01   -0.15464E-01 12591   0.929E-01    0.333E+00
RMM:   7    -0.660934561229E+03    0.54215E-01   -0.18623E-01 12334   0.108E+00    0.217E+00
RMM:   8    -0.660948296680E+03   -0.13735E-01   -0.78795E-02 12537   0.746E-01    0.281E+00
RMM:   9    -0.660916198839E+03    0.32098E-01   -0.42503E-02 13612   0.479E-01    0.122E+00
RMM:  10    -0.660912011534E+03    0.41873E-02   -0.23116E-02 13768   0.228E-01    0.531E-01
RMM:  11    -0.660911281701E+03    0.72983E-03   -0.90659E-03 14186   0.137E-01    0.224E-01
RMM:  12    -0.660912591060E+03   -0.13094E-02   -0.38598E-03 13508   0.105E-01    0.475E-01
RMM:  13    -0.660911811025E+03    0.78003E-03   -0.18487E-03 12804   0.895E-02    0.122E-01
RMM:  14    -0.660912036377E+03   -0.22535E-03   -0.13097E-03 12488   0.455E-02    0.614E-02
RMM:  15    -0.660912127853E+03   -0.91476E-04   -0.63754E-04 11922   0.335E-02    0.235E-02
RMM:  16    -0.660912139406E+03   -0.11553E-04   -0.20194E-04 10082   0.234E-02    0.133E-02
RMM:  17    -0.660912147022E+03   -0.76155E-05   -0.12890E-04 10344   0.221E-02    0.858E-03
RMM:  18    -0.660912149591E+03   -0.25696E-05   -0.53793E-05  8623   0.145E-02
   6 F= -.66091215E+03 E0= -.66085099E+03  d E =-.217322E+00
       N       E                     dE             d eps       ncg     rms          rms(c)
DAV:   1    -0.660840017221E+03    0.72130E-01   -0.56143E+00 11592   0.133E+01    0.148E+00
RMM:   2    -0.661290187674E+03   -0.45017E+00   -0.13223E+00 13465   0.298E+00    0.739E+00
RMM:   3    -0.660968263907E+03    0.32192E+00   -0.18446E-01 11491   0.144E+00    0.312E+00
RMM:   4    -0.660931177718E+03    0.37086E-01   -0.53716E-02 12897   0.610E-01    0.948E-01
RMM:   5    -0.660926371304E+03    0.48064E-02   -0.16018E-02 13169   0.273E-01    0.644E-01
RMM:   6    -0.660925605670E+03    0.76563E-03   -0.41541E-03 12240   0.177E-01    0.581E-01
RMM:   7    -0.660923981214E+03    0.16245E-02   -0.48712E-03 12468   0.171E-01    0.347E-01
RMM:   8    -0.660923911854E+03    0.69360E-04   -0.15986E-03 11796   0.107E-01    0.327E-01
RMM:   9    -0.660923480540E+03    0.43131E-03   -0.10294E-03 12553   0.661E-02    0.158E-01
RMM:  10    -0.660923422766E+03    0.57774E-04   -0.36092E-04 10675   0.362E-02    0.868E-02
RMM:  11    -0.660923404693E+03    0.18073E-04   -0.18187E-04 10673   0.234E-02    0.419E-02
RMM:  12    -0.660923412237E+03   -0.75438E-05   -0.64283E-05  7272   0.187E-02
   7 F= -.66092341E+03 E0= -.66086119E+03  d E =-.228585E+00
       N       E                     dE             d eps       ncg     rms          rms(c)
DAV:   1    -0.659159027261E+03    0.17644E+01   -0.10172E+02  9096   0.550E+01    0.278E+00
RMM:   2    -0.661583766428E+03   -0.24247E+01   -0.20902E+01 13858   0.104E+01    0.950E+00
RMM:   3    -0.661260297168E+03    0.32347E+00   -0.98318E-01 12592   0.283E+00    0.507E+00
RMM:   4    -0.661251459275E+03    0.88379E-02   -0.25471E-01 12549   0.131E+00    0.445E+00
RMM:   5    -0.661144618838E+03    0.10684E+00   -0.97623E-02 12265   0.793E-01    0.182E+00
RMM:   6    -0.661136251410E+03    0.83674E-02   -0.59837E-02 13209   0.412E-01    0.122E+00
RMM:   7    -0.661140998373E+03   -0.47470E-02   -0.39320E-02 12944   0.400E-01    0.202E+00
RMM:   8    -0.661124063625E+03    0.16935E-01   -0.15797E-02 11659   0.346E-01    0.767E-01
RMM:   9    -0.661122734734E+03    0.13289E-02   -0.16128E-02 13912   0.225E-01    0.572E-01
RMM:  10    -0.661121653629E+03    0.10811E-02   -0.38845E-03 12479   0.134E-01    0.299E-01
RMM:  11    -0.661121458774E+03    0.19486E-03   -0.21664E-03 12741   0.780E-02    0.159E-01
RMM:  12    -0.661121518606E+03   -0.59832E-04   -0.89937E-04 11799   0.516E-02    0.164E-01
RMM:  13    -0.661121430391E+03    0.88216E-04   -0.47085E-04 12168   0.392E-02    0.416E-02
RMM:  14    -0.661121448918E+03   -0.18527E-04   -0.25997E-04 11056   0.256E-02    0.190E-02
RMM:  15    -0.661121452053E+03   -0.31358E-05   -0.84414E-05  8444   0.162E-02
   8 F= -.66112145E+03 E0= -.66106213E+03  d E =-.198040E+00
       N       E                     dE             d eps       ncg     rms          rms(c)
DAV:   1    -0.660866027834E+03    0.25542E+00   -0.13480E+01  9072   0.203E+01    0.105E+00
RMM:   2    -0.661214319196E+03   -0.34829E+00   -0.28882E+00 13822   0.387E+00    0.387E+00
RMM:   3    -0.661158026751E+03    0.56292E-01   -0.15102E-01 12326   0.123E+00    0.206E+00
RMM:   4    -0.661153203800E+03    0.48230E-02   -0.43626E-02 12506   0.535E-01    0.152E+00
RMM:   5    -0.661142328414E+03    0.10875E-01   -0.15145E-02 12269   0.306E-01    0.906E-01
RMM:   6    -0.661139396749E+03    0.29317E-02   -0.78150E-03 11885   0.167E-01    0.430E-01
RMM:   7    -0.661141316461E+03   -0.19197E-02   -0.54535E-03 12513   0.167E-01    0.850E-01
RMM:   8    -0.661137731479E+03    0.35850E-02   -0.32456E-03 11901   0.150E-01    0.208E-01
RMM:   9    -0.661137832393E+03   -0.10091E-03   -0.26016E-03 13535   0.939E-02    0.262E-01
RMM:  10    -0.661137550679E+03    0.28171E-03   -0.69779E-04 11116   0.574E-02    0.849E-02
RMM:  11    -0.661137571376E+03   -0.20697E-04   -0.34567E-04 10944   0.307E-02    0.919E-02
RMM:  12    -0.661137544636E+03    0.26740E-04   -0.13016E-04  8063   0.233E-02    0.448E-02
RMM:  13    -0.661137541531E+03    0.31047E-05   -0.83965E-05  7723   0.195E-02
   9 F= -.66113754E+03 E0= -.66107933E+03  d E =-.214129E+00
       N       E                     dE             d eps       ncg     rms          rms(c)
DAV:   1    -0.660553205924E+03    0.58434E+00   -0.40632E+01  9072   0.320E+01    0.180E+00
RMM:   2    -0.661337309901E+03   -0.78410E+00   -0.75849E+00 13766   0.655E+00    0.444E+00
RMM:   3    -0.661298952151E+03    0.38358E-01   -0.38074E-01 13237   0.166E+00    0.321E+00
RMM:   4    -0.661295177818E+03    0.37743E-02   -0.81884E-02 12544   0.771E-01    0.290E+00
RMM:   5    -0.661254049549E+03    0.41128E-01   -0.36594E-02 11643   0.578E-01    0.168E+00
RMM:   6    -0.661246314596E+03    0.77350E-02   -0.25716E-02 12765   0.348E-01    0.103E+00
RMM:   7    -0.661255836395E+03   -0.95218E-02   -0.24519E-02 12624   0.376E-01    0.186E+00
RMM:   8    -0.661238343242E+03    0.17493E-01   -0.95590E-03 11555   0.287E-01    0.253E-01
RMM:   9    -0.661239459744E+03   -0.11165E-02   -0.70887E-03 13025   0.136E-01    0.464E-01
RMM:  10    -0.661238510707E+03    0.94904E-03   -0.22394E-03 11621   0.923E-02    0.118E-01
RMM:  11    -0.661238510656E+03    0.51252E-07   -0.11726E-03 12157   0.419E-02    0.616E-02
RMM:  12    -0.661238591539E+03   -0.80883E-04   -0.38168E-04 10325   0.370E-02    0.121E-01
RMM:  13    -0.661238527345E+03    0.64194E-04   -0.16822E-04  9607   0.275E-02    0.192E-02
RMM:  14    -0.661238533757E+03   -0.64115E-05   -0.95006E-05  7971   0.158E-02
  10 F= -.66123853E+03 E0= -.66118226E+03  d E =-.100992E+00
       N       E                     dE             d eps       ncg     rms          rms(c)
DAV:   1    -0.661177811327E+03    0.60716E-01   -0.39407E+00  9216   0.100E+01    0.571E-01
RMM:   2    -0.661259656448E+03   -0.81845E-01   -0.74474E-01 13750   0.206E+00    0.174E+00
RMM:   3    -0.661250495502E+03    0.91609E-02   -0.40866E-02 13071   0.567E-01    0.940E-01
RMM:   4    -0.661250789192E+03   -0.29369E-03   -0.91979E-03 12346   0.263E-01    0.901E-01
RMM:   5    -0.661247042058E+03    0.37471E-02   -0.40223E-03 11337   0.192E-01    0.593E-01
RMM:   6    -0.661245866079E+03    0.11760E-02   -0.24041E-03 11003   0.120E-01    0.299E-01
RMM:   7    -0.661246553317E+03   -0.68724E-03   -0.28419E-03 12920   0.120E-01    0.523E-01
RMM:   8    -0.661245168101E+03    0.13852E-02   -0.83969E-04 10236   0.854E-02    0.745E-02
RMM:   9    -0.661245242001E+03   -0.73901E-04   -0.69267E-04 10672   0.435E-02    0.114E-01
RMM:  10    -0.661245193027E+03    0.48974E-04   -0.19409E-04  8778   0.276E-02    0.425E-02
RMM:  11    -0.661245187919E+03    0.51086E-05   -0.10672E-04  8353   0.169E-02    0.128E-02
RMM:  12    -0.661245197038E+03   -0.91189E-05   -0.30403E-05  5889   0.146E-02
  11 F= -.66124520E+03 E0= -.66118949E+03  d E =-.107656E+00
       N       E                     dE             d eps       ncg     rms          rms(c)
DAV:   1    -0.660767611585E+03    0.47758E+00   -0.30421E+01 11088   0.306E+01    0.261E+00
RMM:   2    -0.662257250378E+03   -0.14896E+01   -0.71453E+00 13656   0.641E+00    0.115E+01
RMM:   3    -0.661393349694E+03    0.86390E+00   -0.62707E-01 11638   0.254E+00    0.452E+00
RMM:   4    -0.661330724129E+03    0.62626E-01   -0.21373E-01 13291   0.982E-01    0.200E+00
RMM:   5    -0.661318136219E+03    0.12588E-01   -0.57401E-02 13303   0.454E-01    0.176E+00
RMM:   6    -0.661305623994E+03    0.12512E-01   -0.15118E-02 12044   0.345E-01    0.954E-01
RMM:   7    -0.661316394993E+03   -0.10771E-01   -0.19222E-02 12068   0.366E-01    0.190E+00
RMM:   8    -0.661299274075E+03    0.17121E-01   -0.12251E-02 11677   0.341E-01    0.394E-01
RMM:   9    -0.661302111202E+03   -0.28371E-02   -0.84162E-03 13550   0.195E-01    0.829E-01
RMM:  10    -0.661298692644E+03    0.34186E-02   -0.25564E-03 11816   0.131E-01    0.987E-02
RMM:  11    -0.661298859903E+03   -0.16726E-03   -0.23009E-03 12600   0.515E-02    0.755E-02
RMM:  12    -0.661298958148E+03   -0.98244E-04   -0.54674E-04 11460   0.395E-02    0.124E-01
RMM:  13    -0.661298923462E+03    0.34686E-04   -0.26042E-04 11501   0.305E-02    0.317E-02
RMM:  14    -0.661298951192E+03   -0.27731E-04   -0.15428E-04 10191   0.203E-02    0.141E-02
RMM:  15    -0.661298957536E+03   -0.63440E-05   -0.49669E-05  7864   0.156E-02
  12 F= -.66129896E+03 E0= -.66124521E+03  d E =-.537605E-01
       N       E                     dE             d eps       ncg     rms          rms(c)
DAV:   1    -0.661276116814E+03    0.22834E-01   -0.12797E+00 11088   0.635E+00    0.539E-01
RMM:   2    -0.661338656213E+03   -0.62539E-01   -0.31371E-01 13707   0.134E+00    0.230E+00
RMM:   3    -0.661304789613E+03    0.33867E-01   -0.27974E-02 11373   0.531E-01    0.957E-01
RMM:   4    -0.661301946196E+03    0.28434E-02   -0.87282E-03 12108   0.208E-01    0.423E-01
RMM:   5    -0.661301496416E+03    0.44978E-03   -0.25996E-03 12819   0.102E-01    0.396E-01
RMM:   6    -0.661300844262E+03    0.65215E-03   -0.65911E-04 10045   0.766E-02    0.182E-01
RMM:   7    -0.661301225864E+03   -0.38160E-03   -0.84504E-04 11653   0.777E-02    0.357E-01
RMM:   8    -0.661300622096E+03    0.60377E-03   -0.46592E-04 10596   0.728E-02    0.845E-02
RMM:   9    -0.661300725402E+03   -0.10331E-03   -0.35907E-04 11545   0.432E-02    0.156E-01
RMM:  10    -0.661300605004E+03    0.12040E-03   -0.11519E-04  8483   0.318E-02    0.208E-02
RMM:  11    -0.661300614605E+03   -0.96010E-05   -0.97384E-05  7571   0.162E-02
  13 F= -.66130061E+03 E0= -.66124724E+03  d E =-.554176E-01
       N       E                     dE             d eps       ncg     rms          rms(c)
DAV:   1    -0.660890050576E+03    0.41055E+00   -0.23114E+01 11568   0.282E+01    0.259E+00
RMM:   2    -0.662109103073E+03   -0.12191E+01   -0.60089E+00 13499   0.559E+00    0.992E+00
RMM:   3    -0.661363498597E+03    0.74560E+00   -0.56407E-01 11465   0.244E+00    0.213E+00
RMM:   4    -0.661389058107E+03   -0.25560E-01   -0.15901E-01 13315   0.806E-01    0.308E+00
RMM:   5    -0.661342671462E+03    0.46387E-01   -0.34379E-02 12055   0.507E-01    0.974E-01
RMM:   6    -0.661345934697E+03   -0.32632E-02   -0.19916E-02 12485   0.332E-01    0.133E+00
RMM:   7    -0.661339228534E+03    0.67062E-02   -0.13448E-02 12555   0.293E-01    0.825E-01
RMM:   8    -0.661338440603E+03    0.78793E-03   -0.62068E-03 11728   0.210E-01    0.732E-01
RMM:   9    -0.661337905072E+03    0.53553E-03   -0.48109E-03 13467   0.162E-01    0.613E-01
RMM:  10    -0.661336167961E+03    0.17371E-02   -0.24014E-03 11385   0.993E-02    0.983E-02
RMM:  11    -0.661336273386E+03   -0.10542E-03   -0.13917E-03 11868   0.420E-02    0.980E-02
RMM:  12    -0.661336290169E+03   -0.16784E-04   -0.36937E-04 11356   0.347E-02    0.910E-02
RMM:  13    -0.661336276584E+03    0.13585E-04   -0.20158E-04 11527   0.253E-02    0.313E-02
RMM:  14    -0.661336288150E+03   -0.11566E-04   -0.13352E-04 10394   0.198E-02    0.133E-02
RMM:  15    -0.661336288984E+03   -0.83417E-06   -0.43846E-05  7707   0.160E-02
  14 F= -.66133629E+03 E0= -.66128374E+03  d E =-.356744E-01
       N       E                     dE             d eps       ncg     rms          rms(c)
DAV:   1    -0.661314155425E+03    0.22133E-01   -0.12951E+00 11856   0.672E+00    0.614E-01
RMM:   2    -0.661383042204E+03   -0.68887E-01   -0.33147E-01 13153   0.134E+00    0.239E+00
RMM:   3    -0.661339577257E+03    0.43465E-01   -0.31300E-02 11216   0.580E-01    0.582E-01
RMM:   4    -0.661340238527E+03   -0.66127E-03   -0.92044E-03 12405   0.197E-01    0.652E-01
RMM:   5    -0.661338312391E+03    0.19261E-02   -0.19601E-03 11703   0.121E-01    0.306E-01
RMM:   6    -0.661338117217E+03    0.19517E-03   -0.96922E-04 10231   0.824E-02    0.249E-01
RMM:   7    -0.661338144749E+03   -0.27532E-04   -0.89248E-04 11964   0.759E-02    0.295E-01
RMM:   8    -0.661337787800E+03    0.35695E-03   -0.37233E-04  9943   0.648E-02    0.114E-01
RMM:   9    -0.661337851829E+03   -0.64030E-04   -0.35056E-04 11637   0.420E-02    0.153E-01
RMM:  10    -0.661337737390E+03    0.11444E-03   -0.10866E-04  8418   0.288E-02    0.215E-02
RMM:  11    -0.661337742071E+03   -0.46811E-05   -0.78447E-05  7286   0.160E-02
  15 F= -.66133774E+03 E0= -.66128539E+03  d E =-.371275E-01
       N       E                     dE             d eps       ncg     rms          rms(c)
DAV:   1    -0.661037400976E+03    0.30034E+00   -0.15280E+01 10176   0.230E+01    0.120E+00
RMM:   2    -0.661572588019E+03   -0.53519E+00   -0.37942E+00 13336   0.423E+00    0.625E+00
RMM:   3    -0.661377562518E+03    0.19503E+00   -0.18552E-01 11515   0.126E+00    0.129E+00
RMM:   4    -0.661381897346E+03   -0.43348E-02   -0.61169E-02 12340   0.504E-01    0.136E+00
RMM:   5    -0.661368807448E+03    0.13090E-01   -0.12803E-02 11405   0.316E-01    0.424E-01
RMM:   6    -0.661371399684E+03   -0.25922E-02   -0.90770E-03 11856   0.190E-01    0.802E-01
RMM:   7    -0.661369210477E+03    0.21892E-02   -0.70336E-03 12463   0.173E-01    0.588E-01
RMM:   8    -0.661367775014E+03    0.14355E-02   -0.21637E-03 11216   0.101E-01    0.185E-01
RMM:   9    -0.661367817369E+03   -0.42354E-04   -0.12587E-03 11626   0.596E-02    0.186E-01
RMM:  10    -0.661367692870E+03    0.12450E-03   -0.41449E-04  9623   0.417E-02    0.756E-02
RMM:  11    -0.661367689008E+03    0.38617E-05   -0.22693E-04  9868   0.255E-02    0.450E-02
RMM:  12    -0.661367701404E+03   -0.12396E-04   -0.76305E-05  6588   0.221E-02    0.575E-02
RMM:  13    -0.661367690112E+03    0.11292E-04   -0.41337E-05  6106   0.180E-02    0.948E-03
RMM:  14    -0.661367693357E+03   -0.32446E-05   -0.25696E-05  5891   0.123E-02
  16 F= -.66136769E+03 E0= -.66131650E+03  d E =-.299513E-01
       N       E                     dE             d eps       ncg     rms          rms(c)
DAV:   1    -0.661159835029E+03    0.20786E+00   -0.10313E+01 10272   0.189E+01    0.944E-01
RMM:   2    -0.661486428991E+03   -0.32659E+00   -0.24456E+00 13356   0.338E+00    0.457E+00
RMM:   3    -0.661383165739E+03    0.10326E+00   -0.11474E-01 11562   0.993E-01    0.106E+00
RMM:   4    -0.661386035623E+03   -0.28699E-02   -0.37141E-02 12280   0.405E-01    0.111E+00
RMM:   5    -0.661377829912E+03    0.82057E-02   -0.85135E-03 11347   0.254E-01    0.483E-01
RMM:   6    -0.661378153285E+03   -0.32337E-03   -0.55648E-03 11170   0.146E-01    0.514E-01
RMM:   7    -0.661378905869E+03   -0.75258E-03   -0.42891E-03 12308   0.146E-01    0.683E-01
RMM:   8    -0.661376505141E+03    0.24007E-02   -0.15311E-03 10687   0.112E-01    0.972E-02
RMM:   9    -0.661376558885E+03   -0.53744E-04   -0.11817E-03 11798   0.511E-02    0.915E-02
RMM:  10    -0.661376564729E+03   -0.58438E-05   -0.29567E-04  8478   0.336E-02    0.801E-02
RMM:  11    -0.661376545275E+03    0.19454E-04   -0.12681E-04  8006   0.238E-02    0.352E-02
RMM:  12    -0.661376553722E+03   -0.84467E-05   -0.53177E-05  6283   0.190E-02
  17 F= -.66137655E+03 E0= -.66132635E+03  d E =-.388117E-01
       N       E                     dE             d eps       ncg     rms          rms(c)
DAV:   1    -0.661180091518E+03    0.19645E+00   -0.10149E+01  9600   0.184E+01    0.834E-01
RMM:   2    -0.661439734639E+03   -0.25964E+00   -0.23106E+00 13413   0.341E+00    0.314E+00
RMM:   3    -0.661400249199E+03    0.39485E-01   -0.11832E-01 11944   0.100E+00    0.798E-01
RMM:   4    -0.661403594651E+03   -0.33455E-02   -0.30218E-02 12721   0.360E-01    0.101E+00
RMM:   5    -0.661398250615E+03    0.53440E-02   -0.70945E-03 10672   0.217E-01    0.385E-01
RMM:   6    -0.661398760973E+03   -0.51036E-03   -0.44090E-03 11187   0.136E-01    0.478E-01
RMM:   7    -0.661399184959E+03   -0.42399E-03   -0.34368E-03 12109   0.135E-01    0.628E-01
RMM:   8    -0.661397210409E+03    0.19745E-02   -0.13804E-03 10283   0.113E-01    0.122E-01
RMM:   9    -0.661397367226E+03   -0.15682E-03   -0.10162E-03 11309   0.643E-02    0.202E-01
RMM:  10    -0.661397187064E+03    0.18016E-03   -0.33701E-04  8996   0.423E-02    0.517E-02
RMM:  11    -0.661397191709E+03   -0.46447E-05   -0.18067E-04  7874   0.240E-02    0.530E-02
RMM:  12    -0.661397184362E+03    0.73476E-05   -0.64871E-05  6437   0.205E-02
  18 F= -.66139718E+03 E0= -.66134776E+03  d E =-.206306E-01
       N       E                     dE             d eps       ncg     rms          rms(c)
DAV:   1    -0.661323682300E+03    0.73509E-01   -0.35850E+00  9552   0.109E+01    0.492E-01
RMM:   2    -0.661414662579E+03   -0.90980E-01   -0.83000E-01 13417   0.205E+00    0.172E+00
RMM:   3    -0.661402971214E+03    0.11691E-01   -0.39729E-02 11990   0.561E-01    0.515E-01
RMM:   4    -0.661403678140E+03   -0.70693E-03   -0.10196E-02 12432   0.201E-01    0.552E-01
RMM:   5    -0.661401982708E+03    0.16954E-02   -0.22975E-03  9997   0.130E-01    0.228E-01
RMM:   6    -0.661402183846E+03   -0.20114E-03   -0.15901E-03 10538   0.812E-02    0.287E-01
RMM:   7    -0.661402199096E+03   -0.15249E-04   -0.12860E-03 11783   0.805E-02    0.342E-01
RMM:   8    -0.661401632543E+03    0.56655E-03   -0.44080E-04  9197   0.678E-02    0.784E-02
RMM:   9    -0.661401672448E+03   -0.39904E-04   -0.33061E-04 10234   0.367E-02    0.110E-01
RMM:  10    -0.661401620697E+03    0.51751E-04   -0.10920E-04  6879   0.264E-02    0.315E-02
RMM:  11    -0.661401619469E+03    0.12278E-05   -0.61434E-05  6585   0.176E-02
  19 F= -.66140162E+03 E0= -.66135269E+03  d E =-.250657E-01
       N       E                     dE             d eps       ncg     rms          rms(c)
DAV:   1    -0.661347551042E+03    0.54070E-01   -0.38187E+00  9480   0.102E+01    0.456E-01
RMM:   2    -0.661416508363E+03   -0.68957E-01   -0.69148E-01 13127   0.196E+00    0.974E-01
RMM:   3    -0.661415172917E+03    0.13354E-02   -0.40950E-02 12672   0.587E-01    0.762E-01
RMM:   4    -0.661413950980E+03    0.12219E-02   -0.83256E-03 12234   0.227E-01    0.483E-01
RMM:   5    -0.661412365591E+03    0.15854E-02   -0.26116E-03 10341   0.142E-01    0.164E-01
RMM:   6    -0.661413540687E+03   -0.11751E-02   -0.20819E-03 11589   0.104E-01    0.535E-01
RMM:   7    -0.661412169388E+03    0.13713E-02   -0.11923E-03 11634   0.897E-02    0.137E-01
RMM:   8    -0.661412206078E+03   -0.36690E-04   -0.60857E-04  9865   0.512E-02    0.144E-01
RMM:   9    -0.661412106520E+03    0.99558E-04   -0.22186E-04  9060   0.314E-02    0.308E-02
RMM:  10    -0.661412135255E+03   -0.28735E-04   -0.95730E-05  7233   0.223E-02    0.777E-02
RMM:  11    -0.661412107342E+03    0.27913E-04   -0.46220E-05  6208   0.207E-02    0.128E-02
RMM:  12    -0.661412116113E+03   -0.87710E-05   -0.33612E-05  6124   0.142E-02
  20 F= -.66141212E+03 E0= -.66136372E+03  d E =-.104966E-01
       N       E                     dE             d eps       ncg     rms          rms(c)
DAV:   1    -0.661380277589E+03    0.31830E-01   -0.20581E+00  9456   0.746E+00    0.336E-01
RMM:   2    -0.661417748892E+03   -0.37471E-01   -0.37536E-01 13131   0.145E+00    0.727E-01
RMM:   3    -0.661417081957E+03    0.66694E-03   -0.22778E-02 12695   0.431E-01    0.555E-01
RMM:   4    -0.661416323373E+03    0.75858E-03   -0.44748E-03 11997   0.165E-01    0.326E-01
RMM:   5    -0.661415610828E+03    0.71254E-03   -0.13984E-03  9903   0.106E-01    0.118E-01
RMM:   6    -0.661416209842E+03   -0.59901E-03   -0.11358E-03 11605   0.764E-02    0.384E-01
RMM:   7    -0.661415488768E+03    0.72107E-03   -0.58574E-04 10717   0.697E-02    0.855E-02
RMM:   8    -0.661415547289E+03   -0.58521E-04   -0.33225E-04  9022   0.391E-02    0.128E-01
RMM:   9    -0.661415471297E+03    0.75992E-04   -0.11500E-04  7634   0.282E-02    0.237E-02
RMM:  10    -0.661415487780E+03   -0.16483E-04   -0.59342E-05  6626   0.190E-02    0.578E-02
RMM:  11    -0.661415472564E+03    0.15216E-04   -0.28776E-05  5896   0.179E-02    0.849E-03
RMM:  12    -0.661415476798E+03   -0.42343E-05   -0.26281E-05  5986   0.112E-02
  21 F= -.66141548E+03 E0= -.66136743E+03  d E =-.138573E-01
       N       E                     dE             d eps       ncg     rms          rms(c)
DAV:   1    -0.661410841229E+03    0.46313E-02   -0.28615E-01 10128   0.279E+00    0.126E-01
RMM:   2    -0.661416160226E+03   -0.53190E-02   -0.52889E-02 13157   0.540E-01    0.289E-01
RMM:   3    -0.661415975362E+03    0.18486E-03   -0.29965E-03 12275   0.151E-01    0.196E-01
RMM:   4    -0.661415866139E+03    0.10922E-03   -0.58100E-04 10370   0.607E-02    0.110E-01
RMM:   5    -0.661415790081E+03    0.76058E-04   -0.16353E-04  7440   0.387E-02    0.484E-02
RMM:   6    -0.661415863404E+03   -0.73323E-04   -0.13303E-04  8299   0.304E-02    0.133E-01
RMM:   7    -0.661415776228E+03    0.87176E-04   -0.10110E-04  8463   0.283E-02    0.444E-02
RMM:   8    -0.661415774423E+03    0.18045E-05   -0.42341E-05  6171   0.198E-02
  22 F= -.66141577E+03 E0= -.66136786E+03  d E =-.141550E-01
       N       E                     dE             d eps       ncg     rms          rms(c)
DAV:   1    -0.661341103542E+03    0.74673E-01   -0.48290E+00  9408   0.115E+01    0.642E-01
RMM:   2    -0.661452907373E+03   -0.11180E+00   -0.90333E-01 13732   0.211E+00    0.205E+00
RMM:   3    -0.661427602196E+03    0.25305E-01   -0.48688E-02 11626   0.716E-01    0.904E-01
RMM:   4    -0.661428061269E+03   -0.45907E-03   -0.14593E-02 12599   0.275E-01    0.873E-01
RMM:   5    -0.661424203311E+03    0.38580E-02   -0.40869E-03 11536   0.184E-01    0.357E-01
RMM:   6    -0.661423858073E+03    0.34524E-03   -0.24209E-03 11229   0.955E-02    0.254E-01
RMM:   7    -0.661423458605E+03    0.39947E-03   -0.22583E-03 12987   0.104E-01    0.174E-01
RMM:   8    -0.661423457897E+03    0.70745E-06   -0.62285E-04 11279   0.648E-02    0.170E-01
RMM:   9    -0.661423330668E+03    0.12723E-03   -0.38193E-04 11371   0.407E-02    0.597E-02
RMM:  10    -0.661423337935E+03   -0.72666E-05   -0.12710E-04  8700   0.247E-02    0.633E-02
RMM:  11    -0.661423321407E+03    0.16528E-04   -0.65970E-05  7617   0.203E-02    0.275E-02
RMM:  12    -0.661423325664E+03   -0.42576E-05   -0.30354E-05  6022   0.157E-02
  23 F= -.66142333E+03 E0= -.66137557E+03  d E =-.755124E-02
       N       E                     dE             d eps       ncg     rms          rms(c)
DAV:   1    -0.661404791294E+03    0.18530E-01   -0.11717E+00  9408   0.564E+00    0.318E-01
RMM:   2    -0.661432263331E+03   -0.27472E-01   -0.21976E-01 13654   0.105E+00    0.103E+00
RMM:   3    -0.661425765174E+03    0.64982E-02   -0.11866E-02 11301   0.366E-01    0.453E-01
RMM:   4    -0.661425830662E+03   -0.65488E-04   -0.38103E-03 11883   0.141E-01    0.420E-01
RMM:   5    -0.661424944402E+03    0.88626E-03   -0.10097E-03 10123   0.946E-02    0.177E-01
RMM:   6    -0.661424859926E+03    0.84476E-04   -0.60136E-04 10054   0.515E-02    0.125E-01
RMM:   7    -0.661424778747E+03    0.81179E-04   -0.60514E-04 12835   0.538E-02    0.981E-02
RMM:   8    -0.661424763017E+03    0.15730E-04   -0.14554E-04  8814   0.381E-02    0.804E-02
RMM:   9    -0.661424742289E+03    0.20729E-04   -0.93294E-05  8495   0.224E-02    0.463E-02
RMM:  10    -0.661424735642E+03    0.66465E-05   -0.32529E-05  5972   0.173E-02
  24 F= -.66142474E+03 E0= -.66137705E+03  d E =-.896122E-02
       N       E                     dE             d eps       ncg     rms          rms(c)
DAV:   1    -0.661365233789E+03    0.59509E-01   -0.50535E+00 10200   0.118E+01    0.129E+00
RMM:   2    -0.661636155646E+03   -0.27092E+00   -0.10987E+00 13237   0.269E+00    0.500E+00
RMM:   3    -0.661441578027E+03    0.19458E+00   -0.12981E-01 11529   0.120E+00    0.147E+00
RMM:   4    -0.661437049375E+03    0.45287E-02   -0.37519E-02 13311   0.403E-01    0.983E-01
RMM:   5    -0.661431780711E+03    0.52687E-02   -0.88332E-03 12660   0.231E-01    0.527E-01
RMM:   6    -0.661431488822E+03    0.29189E-03   -0.37407E-03 12004   0.169E-01    0.514E-01
RMM:   7    -0.661430172848E+03    0.13160E-02   -0.41610E-03 12626   0.150E-01    0.323E-01
RMM:   8    -0.661430183120E+03   -0.10272E-04   -0.13674E-03 11432   0.108E-01    0.326E-01
RMM:   9    -0.661429911338E+03    0.27178E-03   -0.86535E-04 11951   0.705E-02    0.214E-01
RMM:  10    -0.661429717669E+03    0.19367E-03   -0.40960E-04 10424   0.398E-02    0.418E-02
RMM:  11    -0.661429746667E+03   -0.28998E-04   -0.17210E-04 10304   0.228E-02    0.589E-02
RMM:  12    -0.661429740325E+03    0.63415E-05   -0.61196E-05  7150   0.184E-02
  25 F= -.66142974E+03 E0= -.66138234E+03  d E =-.500468E-02
       N       E                     dE             d eps       ncg     rms          rms(c)
DAV:   1    -0.661429570571E+03    0.17610E-03   -0.16747E-02 10992   0.680E-01    0.729E-02
RMM:   2    -0.661430423095E+03   -0.85252E-03   -0.35418E-03 13419   0.151E-01    0.282E-01
RMM:   3    -0.661429823731E+03    0.59936E-03   -0.41968E-04  9855   0.730E-02    0.780E-02
RMM:   4    -0.661429817533E+03    0.61982E-05   -0.13036E-04  9341   0.320E-02    0.631E-02
RMM:   5    -0.661429797516E+03    0.20016E-04   -0.28400E-05  5941   0.187E-02    0.344E-02
RMM:   6    -0.661429795196E+03    0.23207E-05   -0.15669E-05  5396   0.178E-02
  26 F= -.66142980E+03 E0= -.66138238E+03  d E =-.505955E-02
       N       E                     dE             d eps       ncg     rms          rms(c)
DAV:   1    -0.661402107662E+03    0.27690E-01   -0.21837E+00  9408   0.756E+00    0.364E-01
RMM:   2    -0.661437857884E+03   -0.35750E-01   -0.29689E-01 13397   0.136E+00    0.115E+00
RMM:   3    -0.661434370101E+03    0.34878E-02   -0.37782E-02 11535   0.730E-01    0.582E-01
RMM:   4    -0.661434655617E+03   -0.28552E-03   -0.72991E-03 11719   0.265E-01    0.485E-01
RMM:   5    -0.661433539557E+03    0.11161E-02   -0.32709E-03 10565   0.148E-01    0.184E-01
RMM:   6    -0.661433552002E+03   -0.12445E-04   -0.10590E-03 10426   0.652E-02    0.181E-01
RMM:   7    -0.661433512020E+03    0.39983E-04   -0.83882E-04 12237   0.651E-02    0.211E-01
RMM:   8    -0.661433312013E+03    0.20001E-03   -0.25872E-04  9565   0.492E-02    0.772E-02
RMM:   9    -0.661433329634E+03   -0.17621E-04   -0.18964E-04  9103   0.299E-02    0.884E-02
RMM:  10    -0.661433293907E+03    0.35727E-04   -0.59870E-05  6344   0.217E-02    0.256E-02
RMM:  11    -0.661433293636E+03    0.27103E-06   -0.38289E-05  6181   0.172E-02
  27 F= -.66143329E+03 E0= -.66138588E+03  d E =-.349844E-02
       N       E                     dE             d eps       ncg     rms          rms(c)
DAV:   1    -0.661404785209E+03    0.28509E-01   -0.20798E+00  9408   0.738E+00    0.354E-01
RMM:   2    -0.661438611334E+03   -0.33826E-01   -0.28441E-01 13359   0.133E+00    0.108E+00
RMM:   3    -0.661435557231E+03    0.30541E-02   -0.35816E-02 11522   0.711E-01    0.550E-01
RMM:   4    -0.661436003330E+03   -0.44610E-03   -0.70169E-03 11681   0.258E-01    0.490E-01
RMM:   5    -0.661434889572E+03    0.11138E-02   -0.31358E-03 10431   0.145E-01    0.179E-01
RMM:   6    -0.661434903088E+03   -0.13516E-04   -0.10552E-03 10388   0.633E-02    0.176E-01
RMM:   7    -0.661434907596E+03   -0.45086E-05   -0.77250E-04 12283   0.645E-02    0.223E-01
RMM:   8    -0.661434682817E+03    0.22478E-03   -0.26698E-04  9698   0.504E-02    0.727E-02
RMM:   9    -0.661434690118E+03   -0.73010E-05   -0.19949E-04  9441   0.276E-02    0.683E-02
RMM:  10    -0.661434671443E+03    0.18675E-04   -0.57237E-05  6363   0.205E-02    0.293E-02
RMM:  11    -0.661434670794E+03    0.64896E-06   -0.37887E-05  6144   0.179E-02
  28 F= -.66143467E+03 E0= -.66138724E+03  d E =-.487560E-02
       N       E                     dE             d eps       ncg     rms          rms(c)
DAV:   1    -0.661432366650E+03    0.23048E-02   -0.33201E-01 10656   0.308E+00    0.316E-01
RMM:   2    -0.661449117997E+03   -0.16751E-01   -0.68692E-02 13434   0.668E-01    0.123E+00
RMM:   3    -0.661437451413E+03    0.11667E-01   -0.79541E-03 10863   0.301E-01    0.338E-01
RMM:   4    -0.661437300175E+03    0.15124E-03   -0.24316E-03 11686   0.107E-01    0.250E-01
RMM:   5    -0.661436995777E+03    0.30440E-03   -0.55085E-04 10845   0.604E-02    0.154E-01
RMM:   6    -0.661436921725E+03    0.74052E-04   -0.21766E-04  8887   0.472E-02    0.113E-01
RMM:   7    -0.661436882944E+03    0.38781E-04   -0.31077E-04 11803   0.433E-02    0.102E-01
RMM:   8    -0.661436846415E+03    0.36529E-04   -0.86564E-05  7129   0.340E-02    0.597E-02
RMM:   9    -0.661436841312E+03    0.51036E-05   -0.61265E-05  6471   0.229E-02
  29 F= -.66143684E+03 E0= -.66138945E+03  d E =-.217052E-02
       N       E                     dE             d eps       ncg     rms          rms(c)
DAV:   1    -0.661426838919E+03    0.10007E-01   -0.82100E-01 10440   0.485E+00    0.499E-01
RMM:   2    -0.661468375321E+03   -0.41536E-01   -0.17023E-01 13438   0.105E+00    0.193E+00
RMM:   3    -0.661439359497E+03    0.29016E-01   -0.19926E-02 11126   0.476E-01    0.514E-01
RMM:   4    -0.661439147293E+03    0.21220E-03   -0.61110E-03 12390   0.159E-01    0.410E-01
RMM:   5    -0.661438250885E+03    0.89641E-03   -0.13384E-03 11993   0.919E-02    0.202E-01
RMM:   6    -0.661438222493E+03    0.28392E-04   -0.57388E-04 10465   0.674E-02    0.210E-01
RMM:   7    -0.661438052985E+03    0.16951E-03   -0.68158E-04 12161   0.659E-02    0.155E-01
RMM:   8    -0.661437990324E+03    0.62660E-04   -0.24350E-04  9912   0.479E-02    0.105E-01
RMM:   9    -0.661437966212E+03    0.24112E-04   -0.17686E-04  9767   0.279E-02    0.751E-02
RMM:  10    -0.661437941071E+03    0.25141E-04   -0.55456E-05  6625   0.180E-02    0.184E-02
RMM:  11    -0.661437941480E+03   -0.40847E-06   -0.29411E-05  5954   0.164E-02
  30 F= -.66143794E+03 E0= -.66139054E+03  d E =-.327069E-02
       N       E                     dE             d eps       ncg     rms          rms(c)
DAV:   1    -0.661436045322E+03    0.18957E-02   -0.20747E-01 10728   0.249E+00    0.222E-01
RMM:   2    -0.661444688576E+03   -0.86433E-02   -0.42765E-02 13781   0.496E-01    0.823E-01
RMM:   3    -0.661439398890E+03    0.52897E-02   -0.40068E-03 11150   0.208E-01    0.214E-01
RMM:   4    -0.661439433829E+03   -0.34939E-04   -0.13665E-03 11249   0.800E-02    0.201E-01
RMM:   5    -0.661439219670E+03    0.21416E-03   -0.28124E-04 10575   0.459E-02    0.109E-01
RMM:   6    -0.661439194696E+03    0.24975E-04   -0.13139E-04  7796   0.367E-02    0.895E-02
RMM:   7    -0.661439179557E+03    0.15138E-04   -0.18017E-04 10334   0.339E-02    0.932E-02
RMM:   8    -0.661439148402E+03    0.31155E-04   -0.48606E-05  5921   0.300E-02    0.486E-02
RMM:   9    -0.661439152191E+03   -0.37886E-05   -0.39318E-05  5936   0.196E-02
  31 F= -.66143915E+03 E0= -.66139177E+03  d E =-.121071E-02
       N       E                     dE             d eps       ncg     rms          rms(c)
DAV:   1    -0.661415945069E+03    0.23203E-01   -0.16081E+00 10248   0.695E+00    0.627E-01
RMM:   2    -0.661485718629E+03   -0.69774E-01   -0.33616E-01 13622   0.140E+00    0.237E+00
RMM:   3    -0.661442268746E+03    0.43450E-01   -0.32669E-02 11414   0.594E-01    0.638E-01
RMM:   4    -0.661442114063E+03    0.15468E-03   -0.10785E-02 12661   0.209E-01    0.526E-01
RMM:   5    -0.661440650833E+03    0.14632E-02   -0.21930E-03 12484   0.121E-01    0.308E-01
RMM:   6    -0.661440405650E+03    0.24518E-03   -0.98037E-04 10887   0.852E-02    0.233E-01
RMM:   7    -0.661440250980E+03    0.15467E-03   -0.11905E-03 12263   0.833E-02    0.228E-01
RMM:   8    -0.661440106183E+03    0.14480E-03   -0.39310E-04 10565   0.613E-02    0.144E-01
RMM:   9    -0.661440077356E+03    0.28826E-04   -0.29377E-04 11310   0.371E-02    0.101E-01
RMM:  10    -0.661440030151E+03    0.47206E-04   -0.95287E-05  7936   0.228E-02    0.233E-02
RMM:  11    -0.661440041005E+03   -0.10854E-04   -0.46691E-05  6450   0.169E-02    0.345E-02
RMM:  12    -0.661440039122E+03    0.18827E-05   -0.19142E-05  5631   0.154E-02
  32 F= -.66144004E+03 E0= -.66139282E+03  d E =-.209764E-02
       N       E                     dE             d eps       ncg     rms          rms(c)
DAV:   1    -0.661438662704E+03    0.13783E-02   -0.10192E-01 10704   0.175E+00    0.157E-01
RMM:   2    -0.661442993778E+03   -0.43311E-02   -0.21061E-02 13776   0.350E-01    0.591E-01
RMM:   3    -0.661440310486E+03    0.26833E-02   -0.20131E-03 10802   0.151E-01    0.152E-01
RMM:   4    -0.661440318894E+03   -0.84077E-05   -0.65983E-04 11020   0.616E-02    0.138E-01
RMM:   5    -0.661440215657E+03    0.10324E-03   -0.12168E-04  8708   0.331E-02    0.786E-02
RMM:   6    -0.661440197455E+03    0.18202E-04   -0.52282E-05  6288   0.269E-02    0.578E-02
RMM:   7    -0.661440182891E+03    0.14565E-04   -0.70187E-05  7318   0.248E-02    0.564E-02
RMM:   8    -0.661440174223E+03    0.86676E-05   -0.24691E-05  5522   0.207E-02
  33 F= -.66144017E+03 E0= -.66139291E+03  d E =-.223274E-02
       N       E                     dE             d eps       ncg     rms          rms(c)
DAV:   1    -0.661438583240E+03    0.15997E-02   -0.18576E-01  9168   0.217E+00    0.897E-02
RMM:   2    -0.661441762710E+03   -0.31795E-02   -0.30150E-02 12981   0.400E-01    0.247E-01
RMM:   3    -0.661441444370E+03    0.31834E-03   -0.13892E-03 11106   0.951E-02    0.114E-01
RMM:   4    -0.661441464986E+03   -0.20616E-04   -0.27220E-04  8916   0.417E-02    0.137E-01
RMM:   5    -0.661441368187E+03    0.96799E-04   -0.66095E-05  6197   0.270E-02    0.344E-02
RMM:   6    -0.661441390249E+03   -0.22062E-04   -0.76822E-05  6835   0.231E-02    0.780E-02
RMM:   7    -0.661441370302E+03    0.19948E-04   -0.57476E-05  6967   0.233E-02    0.575E-02
RMM:   8    -0.661441355231E+03    0.15071E-04   -0.26046E-05  5652   0.175E-02    0.162E-02
RMM:   9    -0.661441357088E+03   -0.18569E-05   -0.13025E-05  5419   0.143E-02
  34 F= -.66144136E+03 E0= -.66139408E+03  d E =-.118286E-02
       N       E                     dE             d eps       ncg     rms          rms(c)
DAV:   1    -0.661418283801E+03    0.23071E-01   -0.16674E+00  9072   0.651E+00    0.258E-01
RMM:   2    -0.661444738565E+03   -0.26455E-01   -0.27011E-01 13000   0.121E+00    0.408E-01
RMM:   3    -0.661444827658E+03   -0.89093E-04   -0.13069E-02 12694   0.261E-01    0.520E-01
RMM:   4    -0.661443614589E+03    0.12131E-02   -0.18193E-03 11215   0.996E-02    0.212E-01
RMM:   5    -0.661443459580E+03    0.15501E-03   -0.76732E-04 10097   0.557E-02    0.123E-01
RMM:   6    -0.661443545620E+03   -0.86040E-04   -0.64283E-04 11113   0.553E-02    0.202E-01
RMM:   7    -0.661443342926E+03    0.20269E-03   -0.31187E-04  9479   0.541E-02    0.961E-02
RMM:   8    -0.661443337922E+03    0.50044E-05   -0.14625E-04  7764   0.336E-02    0.806E-02
RMM:   9    -0.661443317173E+03    0.20748E-04   -0.65406E-05  6407   0.234E-02    0.597E-02
RMM:  10    -0.661443301285E+03    0.15889E-04   -0.32222E-05  5845   0.175E-02    0.186E-02
RMM:  11    -0.661443299840E+03    0.14446E-05   -0.34598E-05  6267   0.116E-02
  35 F= -.66144330E+03 E0= -.66139590E+03  d E =-.312562E-02
       N       E                     dE             d eps       ncg     rms          rms(c)
DAV:   1    -0.661442304142E+03    0.99714E-03   -0.72071E-02  9696   0.135E+00    0.580E-02
RMM:   2    -0.661443599315E+03   -0.12952E-02   -0.11814E-02 13008   0.251E-01    0.179E-01
RMM:   3    -0.661443425470E+03    0.17385E-03   -0.57113E-04 10307   0.634E-02    0.623E-02
RMM:   4    -0.661443429882E+03   -0.44118E-05   -0.10951E-04  7371   0.267E-02    0.753E-02
RMM:   5    -0.661443404736E+03    0.25146E-04   -0.29288E-05  5797   0.206E-02    0.236E-02
RMM:   6    -0.661443409827E+03   -0.50917E-05   -0.36908E-05  6243   0.170E-02
  36 F= -.66144341E+03 E0= -.66139598E+03  d E =-.323560E-02
       N       E                     dE             d eps       ncg     rms          rms(c)
DAV:   1    -0.661436612711E+03    0.67920E-02   -0.50822E-01  9072   0.353E+00    0.184E-01
RMM:   2    -0.661446370814E+03   -0.97581E-02   -0.88364E-02 13465   0.656E-01    0.458E-01
RMM:   3    -0.661445003623E+03    0.13672E-02   -0.41347E-03 11544   0.178E-01    0.237E-01
RMM:   4    -0.661445119998E+03   -0.11638E-03   -0.11926E-03 10398   0.818E-02    0.264E-01
RMM:   5    -0.661444688141E+03    0.43186E-03   -0.33350E-04  9097   0.546E-02    0.703E-02
RMM:   6    -0.661444763425E+03   -0.75284E-04   -0.22405E-04  8534   0.381E-02    0.143E-01
RMM:   7    -0.661444671640E+03    0.91785E-04   -0.29665E-04 10926   0.396E-02    0.752E-02
RMM:   8    -0.661444649559E+03    0.22081E-04   -0.68091E-05  6312   0.270E-02    0.361E-02
RMM:   9    -0.661444647087E+03    0.24715E-05   -0.30938E-05  5894   0.180E-02
  37 F= -.66144465E+03 E0= -.66139713E+03  d E =-.123726E-02
       N       E                     dE             d eps       ncg     rms          rms(c)
DAV:   1    -0.661433142656E+03    0.11507E-01   -0.76313E-01  9072   0.432E+00    0.228E-01
RMM:   2    -0.661447933530E+03   -0.14791E-01   -0.13364E-01 13492   0.800E-01    0.559E-01
RMM:   3    -0.661445792877E+03    0.21407E-02   -0.62188E-03 11627   0.225E-01    0.277E-01
RMM:   4    -0.661446074391E+03   -0.28151E-03   -0.18167E-03 10855   0.990E-02    0.348E-01
RMM:   5    -0.661445372388E+03    0.70200E-03   -0.51418E-04  9484   0.660E-02    0.914E-02
RMM:   6    -0.661445465092E+03   -0.92704E-04   -0.34621E-04  9108   0.448E-02    0.164E-01
RMM:   7    -0.661445346885E+03    0.11821E-03   -0.43329E-04 11552   0.469E-02    0.962E-02
RMM:   8    -0.661445311400E+03    0.35485E-04   -0.10416E-04  7071   0.316E-02    0.459E-02
RMM:   9    -0.661445310576E+03    0.82375E-06   -0.50935E-05  6241   0.203E-02
  38 F= -.66144531E+03 E0= -.66139768E+03  d E =-.190075E-02
       N       E                     dE             d eps       ncg     rms          rms(c)
DAV:   1    -0.661440151666E+03    0.51597E-02   -0.39334E-01  9792   0.332E+00    0.320E-01
RMM:   2    -0.661458010357E+03   -0.17859E-01   -0.88897E-02 13455   0.680E-01    0.117E+00
RMM:   3    -0.661446719009E+03    0.11291E-01   -0.83515E-03 11010   0.298E-01    0.242E-01
RMM:   4    -0.661447121053E+03   -0.40204E-03   -0.26627E-03 11614   0.108E-01    0.350E-01
RMM:   5    -0.661446491142E+03    0.62991E-03   -0.54306E-04 10600   0.676E-02    0.127E-01
RMM:   6    -0.661446501798E+03   -0.10657E-04   -0.29183E-04  9309   0.487E-02    0.145E-01
RMM:   7    -0.661446402962E+03    0.98837E-04   -0.30951E-04 11415   0.438E-02    0.855E-02
RMM:   8    -0.661446406286E+03   -0.33247E-05   -0.91106E-05  7057   0.366E-02
  39 F= -.66144641E+03 E0= -.66139867E+03  d E =-.109571E-02
       N       E                     dE             d eps       ncg     rms          rms(c)
DAV:   1    -0.661433848228E+03    0.12555E-01   -0.82444E-01  9768   0.481E+00    0.471E-01
RMM:   2    -0.661472613762E+03   -0.38766E-01   -0.18617E-01 13269   0.980E-01    0.175E+00
RMM:   3    -0.661447442936E+03    0.25171E-01   -0.17972E-02 11027   0.437E-01    0.335E-01
RMM:   4    -0.661448267626E+03   -0.82469E-03   -0.57095E-03 12049   0.151E-01    0.484E-01
RMM:   5    -0.661446984833E+03    0.12828E-02   -0.11820E-03 11154   0.962E-02    0.171E-01
RMM:   6    -0.661447082082E+03   -0.97249E-04   -0.68224E-04 10398   0.648E-02    0.231E-01
RMM:   7    -0.661446816010E+03    0.26607E-03   -0.53377E-04 12267   0.602E-02    0.983E-02
RMM:   8    -0.661446878037E+03   -0.62027E-04   -0.22181E-04  9745   0.456E-02    0.145E-01
RMM:   9    -0.661446771110E+03    0.10693E-03   -0.15275E-04  9663   0.291E-02    0.206E-02
RMM:  10    -0.661446783094E+03   -0.11984E-04   -0.69674E-05  6881   0.172E-02    0.493E-02
RMM:  11    -0.661446772536E+03    0.10558E-04   -0.22686E-05  5708   0.180E-02    0.119E-02
RMM:  12    -0.661446774698E+03   -0.21619E-05   -0.16432E-05  5512   0.119E-02
  40 F= -.66144677E+03 E0= -.66139885E+03  d E =-.146412E-02
       N       E                     dE             d eps       ncg     rms          rms(c)
DAV:   1    -0.661446174455E+03    0.59808E-03   -0.39353E-02 10464   0.105E+00    0.102E-01
RMM:   2    -0.661447978654E+03   -0.18042E-02   -0.89020E-03 13504   0.215E-01    0.372E-01
RMM:   3    -0.661446827937E+03    0.11507E-02   -0.83619E-04  9748   0.992E-02    0.719E-02
RMM:   4    -0.661446875376E+03   -0.47439E-04   -0.26466E-04 10173   0.391E-02    0.114E-01
RMM:   5    -0.661446804130E+03    0.71247E-04   -0.42923E-05  5937   0.239E-02    0.309E-02
RMM:   6    -0.661446812581E+03   -0.84514E-05   -0.24022E-05  5561   0.200E-02
  41 F= -.66144681E+03 E0= -.66139894E+03  d E =-.150201E-02
       N       E                     dE             d eps       ncg     rms          rms(c)
DAV:   1    -0.661440938124E+03    0.58660E-02   -0.35303E-01  9240   0.324E+00    0.123E-01
RMM:   2    -0.661447868413E+03   -0.69303E-02   -0.70056E-02 12671   0.547E-01    0.205E-01
RMM:   3    -0.661447841999E+03    0.26414E-04   -0.33588E-03 11232   0.128E-01    0.254E-01
RMM:   4    -0.661447579478E+03    0.26252E-03   -0.39678E-04  8866   0.548E-02    0.106E-01
RMM:   5    -0.661447528260E+03    0.51218E-04   -0.16141E-04  6988   0.272E-02    0.491E-02
RMM:   6    -0.661447541871E+03   -0.13611E-04   -0.76706E-05  7150   0.260E-02    0.765E-02
RMM:   7    -0.661447513945E+03    0.27926E-04   -0.11090E-04  8204   0.256E-02    0.513E-02
RMM:   8    -0.661447506356E+03    0.75893E-05   -0.26326E-05  5689   0.186E-02
  42 F= -.66144751E+03 E0= -.66139955E+03  d E =-.693775E-03
       N       E                     dE             d eps       ncg     rms          rms(c)
DAV:   1    -0.661388753370E+03    0.58761E-01   -0.31658E+00  9072   0.971E+00    0.368E-01
RMM:   2    -0.661452033120E+03   -0.63280E-01   -0.64170E-01 12692   0.166E+00    0.598E-01
RMM:   3    -0.661451552291E+03    0.48083E-03   -0.31725E-02 12264   0.373E-01    0.766E-01
RMM:   4    -0.661449010058E+03    0.25422E-02   -0.38326E-03 10946   0.145E-01    0.301E-01
RMM:   5    -0.661448673652E+03    0.33641E-03   -0.16505E-03 10394   0.725E-02    0.164E-01
RMM:   6    -0.661448818404E+03   -0.14475E-03   -0.71684E-04 10336   0.623E-02    0.250E-01
RMM:   7    -0.661448562964E+03    0.25544E-03   -0.85734E-04 10600   0.707E-02    0.183E-01
RMM:   8    -0.661448415305E+03    0.14766E-03   -0.26306E-04  8589   0.453E-02    0.627E-02
RMM:   9    -0.661448447188E+03   -0.31883E-04   -0.12497E-04  7043   0.275E-02    0.101E-01
RMM:  10    -0.661448397849E+03    0.49339E-04   -0.53023E-05  5985   0.234E-02    0.214E-02
RMM:  11    -0.661448405818E+03   -0.79689E-05   -0.42196E-05  6084   0.150E-02
  43 F= -.66144841E+03 E0= -.66140022E+03  d E =-.159324E-02
       N       E                     dE             d eps       ncg     rms          rms(c)
DAV:   1    -0.661448034592E+03    0.36326E-03   -0.10909E-01 12024   0.177E+00    0.255E-01
RMM:   2    -0.661457179528E+03   -0.91449E-02   -0.26632E-02 12595   0.455E-01    0.994E-01
RMM:   3    -0.661449458868E+03    0.77207E-02   -0.46373E-03 10741   0.241E-01    0.256E-01
RMM:   4    -0.661449353873E+03    0.10500E-03   -0.12273E-03 11045   0.895E-02    0.189E-01
RMM:   5    -0.661449180404E+03    0.17347E-03   -0.31781E-04 10749   0.471E-02    0.118E-01
RMM:   6    -0.661449145668E+03    0.34736E-04   -0.11161E-04  7370   0.394E-02    0.952E-02
RMM:   7    -0.661449137245E+03    0.84226E-05   -0.15868E-04  9917   0.335E-02    0.978E-02
RMM:   8    -0.661449097370E+03    0.39875E-04   -0.45841E-05  5884   0.295E-02    0.368E-02
RMM:   9    -0.661449105124E+03   -0.77542E-05   -0.36539E-05  5951   0.193E-02
  44 F= -.66144911E+03 E0= -.66140088E+03  d E =-.699306E-03
       N       E                     dE             d eps       ncg     rms          rms(c)
DAV:   1    -0.661447918737E+03    0.11786E-02   -0.14154E-01 12072   0.201E+00    0.292E-01
RMM:   2    -0.661459954423E+03   -0.12036E-01   -0.34435E-02 12429   0.516E-01    0.114E+00
RMM:   3    -0.661449742983E+03    0.10211E-01   -0.60913E-03 10639   0.279E-01    0.287E-01
RMM:   4    -0.661449622204E+03    0.12078E-03   -0.16177E-03 11254   0.998E-02    0.215E-01
RMM:   5    -0.661449387048E+03    0.23516E-03   -0.40591E-04 10915   0.516E-02    0.121E-01
RMM:   6    -0.661449367503E+03    0.19545E-04   -0.14120E-04  7745   0.424E-02    0.115E-01
RMM:   7    -0.661449339020E+03    0.28482E-04   -0.19737E-04 11194   0.365E-02    0.985E-02
RMM:   8    -0.661449302391E+03    0.36629E-04   -0.57275E-05  6307   0.315E-02    0.453E-02
RMM:   9    -0.661449306161E+03   -0.37696E-05   -0.44716E-05  6128   0.205E-02
  45 F= -.66144931E+03 E0= -.66140105E+03  d E =-.900342E-03
       N       E                     dE             d eps       ncg     rms          rms(c)
DAV:   1    -0.661447582561E+03    0.17198E-02   -0.13334E-01 11160   0.196E+00    0.193E-01
RMM:   2    -0.661453976451E+03   -0.63939E-02   -0.30835E-02 13634   0.429E-01    0.719E-01
RMM:   3    -0.661449919478E+03    0.40570E-02   -0.31871E-03 11070   0.188E-01    0.158E-01
RMM:   4    -0.661449996939E+03   -0.77461E-04   -0.10090E-03 11262   0.687E-02    0.178E-01
RMM:   5    -0.661449810836E+03    0.18610E-03   -0.21929E-04 10209   0.400E-02    0.746E-02
RMM:   6    -0.661449824844E+03   -0.14008E-04   -0.10873E-04  7151   0.313E-02    0.971E-02
RMM:   7    -0.661449786490E+03    0.38354E-04   -0.11037E-04  8779   0.301E-02    0.652E-02
RMM:   8    -0.661449774760E+03    0.11730E-04   -0.40101E-05  5858   0.265E-02    0.440E-02
RMM:   9    -0.661449766418E+03    0.83417E-05   -0.28501E-05  5738   0.181E-02
  46 F= -.66144977E+03 E0= -.66140141E+03  d E =-.460258E-03
       N       E                     dE             d eps       ncg     rms          rms(c)
DAV:   1    -0.661448667426E+03    0.11073E-02   -0.69599E-02 11160   0.142E+00    0.144E-01
RMM:   2    -0.661452239112E+03   -0.35717E-02   -0.16510E-02 13431   0.313E-01    0.544E-01
RMM:   3    -0.661449898734E+03    0.23404E-02   -0.17480E-03 10299   0.142E-01    0.112E-01
RMM:   4    -0.661449948578E+03   -0.49844E-04   -0.56293E-04 10345   0.564E-02    0.130E-01
RMM:   5    -0.661449849177E+03    0.99402E-04   -0.10887E-04  7586   0.305E-02    0.520E-02
RMM:   6    -0.661449853033E+03   -0.38563E-05   -0.57466E-05  6071   0.228E-02
  47 F= -.66144985E+03 E0= -.66140141E+03  d E =-.546872E-03
       N       E                     dE             d eps       ncg     rms          rms(c)
DAV:   1    -0.661449991136E+03   -0.14196E-03   -0.49622E-02 12792   0.110E+00    0.239E-01
RMM:   2    -0.661457325602E+03   -0.73345E-02   -0.13747E-02 11508   0.373E-01    0.970E-01
RMM:   3    -0.661450465378E+03    0.68602E-02   -0.35740E-03 10101   0.221E-01    0.296E-01
RMM:   4    -0.661450161241E+03    0.30414E-03   -0.71081E-04 10515   0.797E-02    0.144E-01
RMM:   5    -0.661450104573E+03    0.56669E-04   -0.25792E-04 10413   0.428E-02    0.129E-01
RMM:   6    -0.661450018833E+03    0.85740E-04   -0.83094E-05  6737   0.381E-02    0.574E-02
RMM:   7    -0.661450004419E+03    0.14414E-04   -0.11827E-04  9504   0.250E-02    0.495E-02
RMM:   8    -0.661449997853E+03    0.65658E-05   -0.25289E-05  5644   0.232E-02
  48 F= -.66145000E+03 E0= -.66140152E+03  d E =-.144820E-03
       N       E                     dE             d eps       ncg     rms          rms(c)
DAV:   1    -0.661449992139E+03    0.12280E-04   -0.10499E-03 12888   0.156E-01    0.352E-02
RMM:   2    -0.661450205146E+03   -0.21301E-03   -0.28519E-04  9355   0.544E-02    0.187E-01
RMM:   3    -0.661450004233E+03    0.20091E-03   -0.78288E-05  6571   0.390E-02    0.508E-02
RMM:   4    -0.661449991091E+03    0.13143E-04   -0.17798E-05  5486   0.188E-02    0.199E-02
RMM:   5    -0.661449992680E+03   -0.15894E-05   -0.88898E-06  5024   0.137E-02
  49 F= -.66144999E+03 E0= -.66140153E+03  d E =-.139647E-03
       N       E                     dE             d eps       ncg     rms          rms(c)
DAV:   1    -0.661449869420E+03    0.12167E-03   -0.11479E-02  9648   0.563E-01    0.311E-02
RMM:   2    -0.661450178752E+03   -0.30933E-03   -0.25397E-03 13173   0.114E-01    0.111E-01
RMM:   3    -0.661450119012E+03    0.59741E-04   -0.12144E-04  7317   0.380E-02    0.536E-02
RMM:   4    -0.661450114532E+03    0.44799E-05   -0.33579E-05  5817   0.210E-02
  50 F= -.66145011E+03 E0= -.66140165E+03  d E =-.121852E-03
       N       E                     dE             d eps       ncg     rms          rms(c)
DAV:   1    -0.661449864436E+03    0.25458E-03   -0.15170E-02  9504   0.641E-01    0.391E-02
RMM:   2    -0.661450353518E+03   -0.48908E-03   -0.34024E-03 13289   0.132E-01    0.176E-01
RMM:   3    -0.661450198948E+03    0.15457E-03   -0.20510E-04  8346   0.506E-02    0.628E-02
RMM:   4    -0.661450190573E+03    0.83751E-05   -0.71298E-05  6839   0.228E-02
  51 F= -.66145019E+03 E0= -.66140173E+03  d E =-.197893E-03
       N       E                     dE             d eps       ncg     rms          rms(c)
DAV:   1    -0.661450553011E+03   -0.35406E-03   -0.75121E-03 12624   0.418E-01    0.177E-01
RMM:   2    -0.661454324262E+03   -0.37713E-02   -0.44751E-03 10753   0.235E-01    0.712E-01
RMM:   3    -0.661450458731E+03    0.38655E-02   -0.16890E-03  9390   0.168E-01    0.192E-01
RMM:   4    -0.661450324718E+03    0.13401E-03   -0.26861E-04  9605   0.561E-02    0.104E-01
RMM:   5    -0.661450303254E+03    0.21464E-04   -0.10607E-04  8375   0.307E-02    0.102E-01
RMM:   6    -0.661450257837E+03    0.45417E-04   -0.40744E-05  5848   0.286E-02    0.488E-02
RMM:   7    -0.661450269539E+03   -0.11702E-04   -0.43733E-05  6084   0.240E-02    0.700E-02
RMM:   8    -0.661450246684E+03    0.22855E-04   -0.19047E-05  5426   0.224E-02    0.124E-02
RMM:   9    -0.661450252512E+03   -0.58273E-05   -0.12128E-05  5224   0.124E-02
  52 F= -.66145025E+03 E0= -.66140180E+03  d E =-.619390E-04
       N       E                     dE             d eps       ncg     rms          rms(c)
DAV:   1    -0.661450252810E+03   -0.61259E-05   -0.14191E-04 11352   0.653E-02    0.222E-02
RMM:   2    -0.661450320320E+03   -0.67510E-04   -0.68139E-05  6509   0.297E-02    0.922E-02
RMM:   3    -0.661450253912E+03    0.66408E-04   -0.27250E-05  5750   0.267E-02    0.211E-02
RMM:   4    -0.661450252709E+03    0.12023E-05   -0.42461E-06  4524   0.765E-03
  53 F= -.66145025E+03 E0= -.66140181E+03  d E =-.621369E-04
       N       E                     dE             d eps       ncg     rms          rms(c)
DAV:   1    -0.661450268712E+03   -0.14800E-04   -0.55050E-04 12360   0.116E-01    0.477E-02
RMM:   2    -0.661450548303E+03   -0.27959E-03   -0.30931E-04  7813   0.625E-02    0.196E-01
RMM:   3    -0.661450270631E+03    0.27767E-03   -0.11855E-04  6922   0.476E-02    0.655E-02
RMM:   4    -0.661450252829E+03    0.17802E-04   -0.17424E-05  5423   0.173E-02    0.253E-02
RMM:   5    -0.661450252938E+03   -0.10962E-06   -0.80123E-06  4430   0.133E-02
  54 F= -.66145025E+03 E0= -.66140181E+03  d E =-.623657E-04
       N       E                     dE             d eps       ncg     rms          rms(c)
DAV:   1    -0.661450302343E+03   -0.49514E-04   -0.21335E-03 12432   0.232E-01    0.944E-02
RMM:   2    -0.661451391917E+03   -0.10896E-02   -0.12613E-03  9856   0.123E-01    0.387E-01
RMM:   3    -0.661450283338E+03    0.11086E-02   -0.48216E-04  8197   0.929E-02    0.105E-01
RMM:   4    -0.661450238586E+03    0.44752E-04   -0.75634E-05  6873   0.322E-02    0.530E-02
RMM:   5    -0.661450223967E+03    0.14619E-04   -0.23857E-05  5462   0.183E-02    0.332E-02
RMM:   6    -0.661450226483E+03   -0.25151E-05   -0.16205E-05  5337   0.193E-02
  55 F= -.66145023E+03 E0= -.66140181E+03  d E =-.359100E-04
       N       E                     dE             d eps       ncg     rms          rms(c)
DAV:   1    -0.661450245077E+03   -0.21110E-04   -0.37162E-04 12576   0.848E-02    0.316E-02
RMM:   2    -0.661450443972E+03   -0.19889E-03   -0.14814E-04  7676   0.415E-02    0.191E-01
RMM:   3    -0.661450249712E+03    0.19426E-03   -0.59533E-05  6147   0.345E-02    0.467E-02
RMM:   4    -0.661450238673E+03    0.11039E-04   -0.11648E-05  4986   0.142E-02    0.190E-02
RMM:   5    -0.661450241082E+03   -0.24085E-05   -0.54885E-06  4408   0.108E-02
  56 F= -.66145024E+03 E0= -.66140180E+03  d E =-.505092E-04
       N       E                     dE             d eps       ncg     rms          rms(c)
DAV:   1    -0.661450284775E+03   -0.46101E-04   -0.68488E-04 12576   0.129E-01    0.531E-02
RMM:   2    -0.661450615130E+03   -0.33036E-03   -0.39019E-04  8757   0.691E-02    0.215E-01
RMM:   3    -0.661450276440E+03    0.33869E-03   -0.14975E-04  7469   0.528E-02    0.612E-02
RMM:   4    -0.661450261657E+03    0.14782E-04   -0.22910E-05  5620   0.192E-02    0.323E-02
RMM:   5    -0.661450257993E+03    0.36645E-05   -0.10119E-05  4521   0.157E-02
  57 F= -.66145026E+03 E0= -.66140183E+03  d E =-.674204E-04
       N       E                     dE             d eps       ncg     rms          rms(c)
DAV:   1    -0.661450258395E+03    0.32628E-05   -0.56575E-05  7080   0.364E-02    0.209E-02
RMM:   2    -0.661450369731E+03   -0.11134E-03   -0.54432E-05  6135   0.279E-02    0.152E-01
RMM:   3    -0.661450257365E+03    0.11237E-03   -0.28084E-05  5725   0.241E-02    0.226E-02
RMM:   4    -0.661450254830E+03    0.25349E-05   -0.42683E-06  4355   0.752E-03
  58 F= -.66145025E+03 E0= -.66140183E+03  d E =-.642572E-04
       N       E                     dE             d eps       ncg     rms          rms(c)
DAV:   1    -0.661450255418E+03    0.19470E-05   -0.14756E-05  5376   0.155E-02    0.146E-02
RMM:   2    -0.661450311217E+03   -0.55800E-04   -0.26452E-05  5629   0.195E-02    0.102E-01
RMM:   3    -0.661450255891E+03    0.55326E-04   -0.14489E-05  5075   0.181E-02    0.200E-02
RMM:   4    -0.661450253368E+03    0.25224E-05   -0.20567E-06  3570   0.538E-03
  59 F= -.66145025E+03 E0= -.66140182E+03  d E =-.627959E-04
       N       E                     dE             d eps       ncg     rms          rms(c)
DAV:   1    -0.661450253519E+03    0.23723E-05   -0.30954E-06  5376   0.764E-03    0.666E-03
RMM:   2    -0.661450266887E+03   -0.13369E-04   -0.57482E-06  4028   0.935E-03    0.533E-02
RMM:   3    -0.661450253258E+03    0.13630E-04   -0.32280E-06  3457   0.855E-03    0.724E-03
RMM:   4    -0.661450252985E+03    0.27288E-06   -0.52091E-07  2901   0.251E-03
  60 F= -.66145025E+03 E0= -.66140182E+03  d E =-.624123E-04
       N       E                     dE             d eps       ncg     rms          rms(c)
DAV:   1    -0.661450253023E+03    0.23499E-06   -0.92375E-07  5328   0.415E-03    0.301E-03
RMM:   2    -0.661450255132E+03   -0.21087E-05   -0.11648E-06  3244   0.466E-03
  61 F= -.66145026E+03 E0= -.66140182E+03  d E =-.645589E-04
       N       E                     dE             d eps       ncg     rms          rms(c)
DAV:   1    -0.661450252887E+03    0.13582E-06   -0.12122E-05  5304   0.121E-02    0.391E-03
RMM:   2    -0.661450257591E+03   -0.47037E-05   -0.19533E-06  3178   0.518E-03
  62 F= -.66145026E+03 E0= -.66140184E+03  d E =-.670181E-04
       N       E                     dE             d eps       ncg     rms          rms(c)
DAV:   1    -0.661450253037E+03   -0.15016E-06   -0.26637E-05  5304   0.164E-02    0.628E-03
RMM:   2    -0.661450264625E+03   -0.11588E-04   -0.44315E-06  3559   0.802E-03    0.482E-02
RMM:   3    -0.661450253371E+03    0.11254E-04   -0.29666E-06  3364   0.777E-03    0.108E-02
RMM:   4    -0.661450252688E+03    0.68267E-06   -0.39187E-07  2922   0.261E-03
  63 F= -.66145025E+03 E0= -.66140182E+03  d E =-.621155E-04
       N       E                     dE             d eps       ncg     rms          rms(c)
DAV:   1    -0.661450252686E+03    0.68435E-06   -0.37064E-07  5232   0.258E-03    0.234E-03
RMM:   2    -0.661450254563E+03   -0.18767E-05   -0.82542E-07  3032   0.352E-03
  64 F= -.66145025E+03 E0= -.66140181E+03  d E =-.639905E-04
       N       E                     dE             d eps       ncg     rms          rms(c)
DAV:   1    -0.661450252631E+03    0.54999E-07   -0.89612E-06  5232   0.104E-02    0.985E-04
RMM:   2    -0.661450252869E+03   -0.23712E-06   -0.95144E-08  2179   0.148E-03
  65 F= -.66145025E+03 E0= -.66140182E+03  d E =-.622960E-04
       N       E                     dE             d eps       ncg     rms          rms(c)
DAV:   1    -0.661450252620E+03    0.11576E-07   -0.13826E-06  5160   0.349E-03    0.700E-04
RMM:   2    -0.661450252711E+03   -0.91582E-07   -0.48711E-08  1885   0.119E-03
  66 F= -.66145025E+03 E0= -.66140182E+03  d E =-.621389E-04
       N       E                     dE             d eps       ncg     rms          rms(c)
DAV:   1    -0.661450252611E+03    0.84838E-08   -0.61555E-07  5160   0.256E-03    0.104E-03
RMM:   2    -0.661450252985E+03   -0.37357E-06   -0.14377E-07  2652   0.162E-03
  67 F= -.66145025E+03 E0= -.66140182E+03  d E =-.624124E-04
       N       E                     dE             d eps       ncg     rms          rms(c)
DAV:   1    -0.661450252639E+03   -0.27241E-07   -0.18588E-06  5160   0.435E-03    0.156E-03
RMM:   2    -0.661450253271E+03   -0.63229E-06   -0.24362E-07  2700   0.202E-03
  68 F= -.66145025E+03 E0= -.66140182E+03  d E =-.626983E-04
       N       E                     dE             d eps       ncg     rms          rms(c)
DAV:   1    -0.661450251966E+03    0.67252E-06   -0.11904E-03  9552   0.204E-01    0.942E-03
RMM:   2    -0.661450283424E+03   -0.31458E-04   -0.30012E-04 10422   0.395E-02    0.231E-02
RMM:   3    -0.661450281909E+03    0.15155E-05   -0.12986E-05  5002   0.166E-02
  69 F= -.66145028E+03 E0= -.66140183E+03  d E =-.286378E-04
       N       E                     dE             d eps       ncg     rms          rms(c)
DAV:   1    -0.661450245387E+03    0.38037E-04   -0.29082E-03  9504   0.317E-01    0.205E-02
RMM:   2    -0.661450378241E+03   -0.13285E-03   -0.75035E-04 11761   0.623E-02    0.109E-01
RMM:   3    -0.661450321884E+03    0.56357E-04   -0.68921E-05  5947   0.384E-02    0.334E-02
RMM:   4    -0.661450318330E+03    0.35540E-05   -0.16571E-05  5445   0.173E-02
  70 F= -.66145032E+03 E0= -.66140186E+03  d E =-.650591E-04
       N       E                     dE             d eps       ncg     rms          rms(c)
DAV:   1    -0.661450086316E+03    0.23557E-03   -0.11505E-02  9408   0.630E-01    0.305E-02
RMM:   2    -0.661450432641E+03   -0.34633E-03   -0.28906E-03 12977   0.123E-01    0.124E-01
RMM:   3    -0.661450368373E+03    0.64268E-04   -0.14912E-04  7657   0.423E-02    0.376E-02
RMM:   4    -0.661450371809E+03   -0.34358E-05   -0.38873E-05  5993   0.211E-02
  71 F= -.66145037E+03 E0= -.66140190E+03  d E =-.118538E-03
       N       E                     dE             d eps       ncg     rms          rms(c)
DAV:   1    -0.661450355506E+03    0.12867E-04   -0.15158E-03 12696   0.215E-01    0.464E-02
RMM:   2    -0.661450676594E+03   -0.32109E-03   -0.53953E-04  9199   0.682E-02    0.212E-01
RMM:   3    -0.661450387955E+03    0.28864E-03   -0.12888E-04  7140   0.478E-02    0.727E-02
RMM:   4    -0.661450364804E+03    0.23150E-04   -0.26420E-05  5638   0.212E-02    0.276E-02
RMM:   5    -0.661450368975E+03   -0.41704E-05   -0.12390E-05  5321   0.163E-02
  72 F= -.66145037E+03 E0= -.66140192E+03  d E =0.283417E-05
       N       E                     dE             d eps       ncg     rms          rms(c)
DAV:   1    -0.661450358676E+03    0.61284E-05   -0.22207E-04 13176   0.832E-02    0.187E-02
RMM:   2    -0.661450414116E+03   -0.55440E-04   -0.66673E-05  6181   0.247E-02    0.949E-02
RMM:   3    -0.661450362735E+03    0.51381E-04   -0.20830E-05  5556   0.221E-02    0.254E-02
RMM:   4    -0.661450360012E+03    0.27227E-05   -0.49008E-06  4460   0.863E-03
  73 F= -.66145036E+03 E0= -.66140190E+03  d E =0.117968E-04
       N       E                     dE             d eps       ncg     rms          rms(c)
DAV:   1    -0.661450349689E+03    0.13046E-04   -0.70664E-04 13080   0.150E-01    0.341E-02
RMM:   2    -0.661450567155E+03   -0.21747E-03   -0.27518E-04  7807   0.508E-02    0.189E-01
RMM:   3    -0.661450374980E+03    0.19218E-03   -0.73442E-05  6272   0.371E-02    0.640E-02
RMM:   4    -0.661450354365E+03    0.20615E-04   -0.15243E-05  5365   0.164E-02    0.141E-02
RMM:   5    -0.661450356210E+03   -0.18446E-05   -0.56481E-06  4417   0.114E-02
  74 F= -.66145036E+03 E0= -.66140188E+03  d E =0.155994E-04
       N       E                     dE             d eps       ncg     rms          rms(c)
DAV:   1    -0.661450315828E+03    0.38537E-04   -0.21424E-03 10656   0.268E-01    0.163E-02
RMM:   2    -0.661450390572E+03   -0.74744E-04   -0.57171E-04 10385   0.489E-02    0.579E-02
RMM:   3    -0.661450371881E+03    0.18691E-04   -0.32168E-05  5685   0.254E-02    0.254E-02
RMM:   4    -0.661450371199E+03    0.68244E-06   -0.85429E-06  4860   0.122E-02
  75 F= -.66145037E+03 E0= -.66140191E+03  d E =-.149891E-04
       N       E                     dE             d eps       ncg     rms          rms(c)
DAV:   1    -0.661450338835E+03    0.33046E-04   -0.17278E-03 10032   0.240E-01    0.182E-02
RMM:   2    -0.661450446784E+03   -0.10795E-03   -0.48798E-04 10243   0.457E-02    0.109E-01
RMM:   3    -0.661450386154E+03    0.60630E-04   -0.37175E-05  5713   0.278E-02    0.255E-02
RMM:   4    -0.661450383919E+03    0.22347E-05   -0.10163E-05  5172   0.122E-02
  76 F= -.66145038E+03 E0= -.66140191E+03  d E =-.277095E-04
       N       E                     dE             d eps       ncg     rms          rms(c)
DAV:   1    -0.661450227756E+03    0.15840E-03   -0.67580E-03  9672   0.478E-01    0.316E-02
RMM:   2    -0.661450541379E+03   -0.31362E-03   -0.19379E-03 11740   0.907E-02    0.155E-01
RMM:   3    -0.661450416053E+03    0.12533E-03   -0.11565E-04  6709   0.423E-02    0.507E-02
RMM:   4    -0.661450407776E+03    0.82774E-05   -0.33938E-05  5840   0.199E-02
  77 F= -.66145041E+03 E0= -.66140194E+03  d E =-.515665E-04
       N       E                     dE             d eps       ncg     rms          rms(c)
DAV:   1    -0.661449721402E+03    0.69465E-03   -0.26777E-02  9072   0.953E-01    0.601E-02
RMM:   2    -0.661450911268E+03   -0.11899E-02   -0.76381E-03 13150   0.175E-01    0.291E-01
RMM:   3    -0.661450475002E+03    0.43627E-03   -0.48767E-04  8647   0.757E-02    0.945E-02
RMM:   4    -0.661450452249E+03    0.22752E-04   -0.14390E-04  7706   0.349E-02    0.571E-02
RMM:   5    -0.661450443212E+03    0.90377E-05   -0.39647E-05  5831   0.206E-02
  78 F= -.66145044E+03 E0= -.66140196E+03  d E =-.870023E-04
       N       E                     dE             d eps       ncg     rms          rms(c)
DAV:   1    -0.661447592780E+03    0.28595E-02   -0.10633E-01  9072   0.191E+00    0.102E-01
RMM:   2    -0.661451055574E+03   -0.34628E-02   -0.29900E-02 13710   0.342E-01    0.304E-01
RMM:   3    -0.661450541768E+03    0.51381E-03   -0.14023E-03 10354   0.102E-01    0.155E-01
RMM:   4    -0.661450527722E+03    0.14046E-04   -0.37782E-04  9400   0.486E-02    0.127E-01
RMM:   5    -0.661450436512E+03    0.91209E-04   -0.89234E-05  6589   0.298E-02    0.563E-02
RMM:   6    -0.661450433793E+03    0.27198E-05   -0.59350E-05  6248   0.197E-02
  79 F= -.66145043E+03 E0= -.66140191E+03  d E =-.775830E-04
       N       E                     dE             d eps       ncg     rms          rms(c)
DAV:   1    -0.661450288026E+03    0.14849E-03   -0.18600E-02 12312   0.772E-01    0.115E-01
RMM:   2    -0.661453249178E+03   -0.29612E-02   -0.55545E-03 11890   0.195E-01    0.671E-01
RMM:   3    -0.661450706259E+03    0.25429E-02   -0.10957E-03  9069   0.116E-01    0.172E-01
RMM:   4    -0.661450563765E+03    0.14249E-03   -0.24511E-04  9316   0.478E-02    0.639E-02
RMM:   5    -0.661450575751E+03   -0.11986E-04   -0.75398E-05  6656   0.238E-02    0.828E-02
RMM:   6    -0.661450538777E+03    0.36974E-04   -0.25007E-05  5542   0.226E-02    0.264E-02
RMM:   7    -0.661450547655E+03   -0.88784E-05   -0.18913E-05  5527   0.144E-02
  80 F= -.66145055E+03 E0= -.66140198E+03  d E =-.113863E-03
       N       E                     dE             d eps       ncg     rms          rms(c)
DAV:   1    -0.661448148919E+03    0.23899E-02   -0.16521E-01 11832   0.230E+00    0.278E-01
RMM:   2    -0.661460033624E+03   -0.11885E-01   -0.42976E-02 12487   0.508E-01    0.107E+00
RMM:   3    -0.661450870930E+03    0.91627E-02   -0.59214E-03 10626   0.254E-01    0.209E-01
RMM:   4    -0.661450989746E+03   -0.11882E-03   -0.16042E-03 11036   0.885E-02    0.239E-01
RMM:   5    -0.661450677549E+03    0.31220E-03   -0.33689E-04 10505   0.508E-02    0.108E-01
RMM:   6    -0.661450678186E+03   -0.63736E-06   -0.14995E-04  7575   0.399E-02    0.117E-01
RMM:   7    -0.661450625939E+03    0.52248E-04   -0.16260E-04 10322   0.329E-02    0.832E-02
RMM:   8    -0.661450604097E+03    0.21842E-04   -0.47394E-05  5999   0.282E-02    0.517E-02
RMM:   9    -0.661450597780E+03    0.63167E-05   -0.38735E-05  5927   0.200E-02
  81 F= -.66145060E+03 E0= -.66140199E+03  d E =-.163988E-03
       N       E                     dE             d eps       ncg     rms          rms(c)
DAV:   1    -0.661450394924E+03    0.20917E-03   -0.14656E-02 11832   0.685E-01    0.793E-02
RMM:   2    -0.661451363017E+03   -0.96809E-03   -0.37599E-03 12627   0.149E-01    0.302E-01
RMM:   3    -0.661450649174E+03    0.71384E-03   -0.48963E-04  9399   0.770E-02    0.719E-02
RMM:   4    -0.661450649444E+03   -0.27039E-06   -0.13255E-04  8908   0.302E-02    0.658E-02
RMM:   5    -0.661450623943E+03    0.25502E-04   -0.26888E-05  5569   0.192E-02    0.343E-02
RMM:   6    -0.661450624382E+03   -0.43880E-06   -0.14693E-05  5432   0.174E-02
  82 F= -.66145062E+03 E0= -.66140204E+03  d E =-.190589E-03
       N       E                     dE             d eps       ncg     rms          rms(c)
DAV:   1    -0.661450290508E+03    0.33344E-03   -0.20259E-02 11808   0.809E-01    0.103E-01
RMM:   2    -0.661452079039E+03   -0.17885E-02   -0.56120E-03 12094   0.187E-01    0.447E-01
RMM:   3    -0.661450703169E+03    0.13759E-02   -0.83292E-04  9100   0.992E-02    0.141E-01
RMM:   4    -0.661450627894E+03    0.75276E-04   -0.20833E-04  9227   0.401E-02    0.595E-02
RMM:   5    -0.661450632853E+03   -0.49587E-05   -0.52416E-05  6049   0.212E-02
  83 F= -.66145063E+03 E0= -.66140202E+03  d E =-.199060E-03
       N       E                     dE             d eps       ncg     rms          rms(c)
DAV:   1    -0.661450517972E+03    0.10992E-03   -0.45258E-03 11472   0.383E-01    0.575E-02
RMM:   2    -0.661450992030E+03   -0.47406E-03   -0.13117E-03 10312   0.920E-02    0.243E-01
RMM:   3    -0.661450611458E+03    0.38057E-03   -0.21967E-04  7626   0.584E-02    0.839E-02
RMM:   4    -0.661450583892E+03    0.27566E-04   -0.50146E-05  6161   0.246E-02    0.409E-02
RMM:   5    -0.661450587828E+03   -0.39357E-05   -0.22764E-05  5545   0.195E-02
  84 F= -.66145059E+03 E0= -.66140203E+03  d E =-.154035E-03
       N       E                     dE             d eps       ncg     rms          rms(c)
DAV:   1    -0.661450560675E+03    0.23218E-04   -0.23995E-03 12312   0.274E-01    0.293E-02
RMM:   2    -0.661450727427E+03   -0.16675E-03   -0.55566E-04 10332   0.563E-02    0.134E-01
RMM:   3    -0.661450605218E+03    0.12221E-03   -0.67437E-05  6126   0.352E-02    0.430E-02
RMM:   4    -0.661450598276E+03    0.69418E-05   -0.18075E-05  5434   0.170E-02
  85 F= -.66145060E+03 E0= -.66140204E+03  d E =-.164483E-03
       N       E                     dE             d eps       ncg     rms          rms(c)
DAV:   1    -0.661450604938E+03    0.27996E-06   -0.24580E-04 12696   0.850E-02    0.300E-02
RMM:   2    -0.661450875853E+03   -0.27091E-03   -0.17508E-04  7421   0.406E-02    0.229E-01
RMM:   3    -0.661450612416E+03    0.26344E-03   -0.64598E-05  6221   0.344E-02    0.367E-02
RMM:   4    -0.661450603966E+03    0.84495E-05   -0.72252E-06  4613   0.122E-02
  86 F= -.66145060E+03 E0= -.66140204E+03  d E =-.170174E-03
