       N       E                     dE             d eps       ncg     rms          rms(c)
DAV:   1     0.545756776027E+04    0.54576E+04   -0.22197E+05  8624   0.149E+03
DAV:   2     0.121748819006E+03   -0.53358E+04   -0.51827E+04  9128   0.609E+02
DAV:   3    -0.695506387649E+03   -0.81726E+03   -0.78886E+03 13636   0.182E+02
DAV:   4    -0.779886378579E+03   -0.84380E+02   -0.83129E+02 14700   0.667E+01
DAV:   5    -0.789033433939E+03   -0.91471E+01   -0.90977E+01 16744   0.203E+01    0.602E+01
RMM:   6    -0.642627984722E+03    0.14641E+03   -0.63026E+02 12359   0.449E+01    0.150E+01
RMM:   7    -0.652409337864E+03   -0.97814E+01   -0.17811E+02 13397   0.278E+01    0.106E+01
RMM:   8    -0.658467845800E+03   -0.60585E+01   -0.81062E+01 14173   0.150E+01    0.106E+01
RMM:   9    -0.657497245807E+03    0.97060E+00   -0.15830E+01 12351   0.105E+01    0.460E+00
RMM:  10    -0.658301703169E+03   -0.80446E+00   -0.92261E+00 13684   0.505E+00    0.243E+00
RMM:  11    -0.658732698465E+03   -0.43100E+00   -0.68931E+00 13670   0.374E+00    0.188E+00
RMM:  12    -0.659068264758E+03   -0.33557E+00   -0.37981E+00 15303   0.298E+00    0.215E+00
RMM:  13    -0.659232950951E+03   -0.16469E+00   -0.22493E+00 14911   0.228E+00    0.206E+00
RMM:  14    -0.659233187190E+03   -0.23624E-03   -0.12907E+00 13430   0.209E+00    0.837E-01
RMM:  15    -0.659318065775E+03   -0.84879E-01   -0.10769E+00 15290   0.157E+00    0.412E-01
RMM:  16    -0.659382036220E+03   -0.63970E-01   -0.72408E-01 15683   0.130E+00    0.441E-01
RMM:  17    -0.659431985933E+03   -0.49950E-01   -0.56631E-01 15659   0.114E+00    0.379E-01
RMM:  18    -0.659469791274E+03   -0.37805E-01   -0.43096E-01 15743   0.101E+00    0.392E-01
RMM:  19    -0.659501595062E+03   -0.31804E-01   -0.36241E-01 15716   0.910E-01    0.378E-01
RMM:  20    -0.659527097483E+03   -0.25502E-01   -0.28862E-01 15520   0.829E-01    0.533E-01
RMM:  21    -0.659551110149E+03   -0.24013E-01   -0.26856E-01 15229   0.762E-01    0.723E-01
RMM:  22    -0.659567367134E+03   -0.16257E-01   -0.19534E-01 15212   0.701E-01    0.746E-01
RMM:  23    -0.659583007362E+03   -0.15640E-01   -0.18148E-01 15281   0.636E-01    0.807E-01
RMM:  24    -0.659595088090E+03   -0.12081E-01   -0.13920E-01 15025   0.588E-01    0.910E-01
RMM:  25    -0.659605470121E+03   -0.10382E-01   -0.12519E-01 15127   0.538E-01    0.953E-01
RMM:  26    -0.659613445514E+03   -0.79754E-02   -0.98801E-02 15309   0.500E-01    0.972E-01
RMM:  27    -0.659621215675E+03   -0.77702E-02   -0.93606E-02 15387   0.457E-01    0.970E-01
RMM:  28    -0.659627137103E+03   -0.59214E-02   -0.71505E-02 15285   0.419E-01    0.100E+00
RMM:  29    -0.659632741330E+03   -0.56042E-02   -0.65430E-02 14864   0.383E-01    0.107E+00
RMM:  30    -0.659636887263E+03   -0.41459E-02   -0.51872E-02 15018   0.354E-01    0.108E+00
RMM:  31    -0.659640322013E+03   -0.34347E-02   -0.46306E-02 15142   0.327E-01    0.106E+00
RMM:  32    -0.659642919143E+03   -0.25971E-02   -0.38165E-02 15084   0.302E-01    0.101E+00
RMM:  33    -0.659645309383E+03   -0.23902E-02   -0.32915E-02 14975   0.278E-01    0.988E-01
RMM:  34    -0.659647411858E+03   -0.21025E-02   -0.28450E-02 14918   0.254E-01    0.976E-01
RMM:  35    -0.659648733579E+03   -0.13217E-02   -0.23810E-02 14923   0.238E-01    0.894E-01
RMM:  36    -0.659649327931E+03   -0.59435E-03   -0.22229E-02 15150   0.229E-01    0.678E-01
RMM:  37    -0.659649469958E+03   -0.14203E-03   -0.20463E-02 15251   0.243E-01    0.214E-01
RMM:  38    -0.659650733820E+03   -0.12639E-02   -0.16299E-02 14971   0.183E-01    0.154E-01
RMM:  39    -0.659651691664E+03   -0.95784E-03   -0.11683E-02 14182   0.159E-01    0.158E-01
RMM:  40    -0.659652568139E+03   -0.87647E-03   -0.10653E-02 13677   0.142E-01    0.171E-01
RMM:  41    -0.659653253768E+03   -0.68563E-03   -0.85261E-03 13483   0.131E-01    0.184E-01
RMM:  42    -0.659653868607E+03   -0.61484E-03   -0.80125E-03 13655   0.123E-01    0.140E-01
RMM:  43    -0.659654384139E+03   -0.51553E-03   -0.63693E-03 13342   0.114E-01    0.159E-01
RMM:  44    -0.659654795185E+03   -0.41105E-03   -0.62933E-03 14427   0.123E-01    0.673E-02
RMM:  45    -0.659655211566E+03   -0.41638E-03   -0.52528E-03 13634   0.102E-01    0.898E-02
RMM:  46    -0.659655542129E+03   -0.33056E-03   -0.45929E-03 13143   0.924E-02    0.286E-02
RMM:  47    -0.659655838981E+03   -0.29685E-03   -0.40160E-03 12965   0.848E-02    0.273E-02
RMM:  48    -0.659656124691E+03   -0.28571E-03   -0.37484E-03 12610   0.772E-02    0.316E-02
RMM:  49    -0.659656362837E+03   -0.23815E-03   -0.31961E-03 12400   0.712E-02    0.256E-02
RMM:  50    -0.659656601724E+03   -0.23889E-03   -0.31283E-03 12403   0.678E-02    0.880E-03
RMM:  51    -0.659656798397E+03   -0.19667E-03   -0.26393E-03 12282   0.641E-02    0.150E-02
RMM:  52    -0.659656998106E+03   -0.19971E-03   -0.26740E-03 11760   0.592E-02    0.130E-02
RMM:  53    -0.659657163290E+03   -0.16518E-03   -0.22254E-03 11808   0.570E-02    0.321E-02
RMM:  54    -0.659657331801E+03   -0.16851E-03   -0.22975E-03 11370   0.536E-02    0.266E-02
RMM:  55    -0.659657464037E+03   -0.13224E-03   -0.18970E-03 10852   0.490E-02    0.238E-02
RMM:  56    -0.659657616265E+03   -0.15223E-03   -0.20492E-03 10820   0.466E-02    0.203E-02
RMM:  57    -0.659657731897E+03   -0.11563E-03   -0.16818E-03 10609   0.440E-02    0.194E-02
RMM:  58    -0.659657864727E+03   -0.13283E-03   -0.18265E-03 10574   0.415E-02    0.148E-02
RMM:  59    -0.659657967717E+03   -0.10299E-03   -0.14969E-03 10392   0.395E-02    0.153E-02
RMM:  60    -0.659658090599E+03   -0.12288E-03   -0.16603E-03  9905   0.373E-02
   1 F= -.65965809E+03 E0= -.65960680E+03  d E =-.659658E+03
       N       E                     dE             d eps       ncg     rms          rms(c)
DAV:   1    -0.659663920984E+03   -0.59533E-02   -0.22993E-01 12320   0.156E+00    0.492E-01
RMM:   2    -0.659660451692E+03    0.34693E-02   -0.27232E-02 12844   0.534E-01    0.286E-01
RMM:   3    -0.659659141927E+03    0.13098E-02   -0.74284E-03 12712   0.261E-01    0.192E-01
RMM:   4    -0.659658750125E+03    0.39180E-03   -0.49913E-03 13638   0.169E-01    0.898E-02
RMM:   5    -0.659658772712E+03   -0.22587E-04   -0.17014E-03 14520   0.103E-01    0.474E-02
RMM:   6    -0.659658815223E+03   -0.42511E-04   -0.48689E-04 13901   0.547E-02    0.280E-02
RMM:   7    -0.659658866146E+03   -0.50923E-04   -0.29511E-04 12336   0.366E-02    0.179E-02
RMM:   8    -0.659658898478E+03   -0.32332E-04   -0.19312E-04 11467   0.302E-02    0.112E-02
RMM:   9    -0.659658917152E+03   -0.18674E-04   -0.14599E-04 10394   0.267E-02    0.610E-03
RMM:  10    -0.659658929922E+03   -0.12770E-04   -0.12025E-04 10204   0.243E-02    0.499E-03
RMM:  11    -0.659658937720E+03   -0.77975E-05   -0.85718E-05  8736   0.216E-02
   2 F= -.65965894E+03 E0= -.65960783E+03  d E =-.847121E-03
       N       E                     dE             d eps       ncg     rms          rms(c)
DAV:   1    -0.659662267427E+03   -0.33375E-02   -0.96353E-02 12656   0.103E+00    0.335E-01
RMM:   2    -0.659660674306E+03    0.15931E-02   -0.11630E-02 12773   0.353E-01    0.192E-01
RMM:   3    -0.659660075170E+03    0.59914E-03   -0.33090E-03 12373   0.177E-01    0.132E-01
RMM:   4    -0.659659860609E+03    0.21456E-03   -0.22191E-03 13276   0.113E-01    0.602E-02
RMM:   5    -0.659659844382E+03    0.16227E-04   -0.73231E-04 13841   0.687E-02    0.305E-02
RMM:   6    -0.659659837729E+03    0.66531E-05   -0.18400E-04 12092   0.351E-02    0.169E-02
RMM:   7    -0.659659833388E+03    0.43402E-05   -0.94380E-05 10633   0.228E-02
   3 F= -.65965983E+03 E0= -.65960860E+03  d E =-.174279E-02
