 vasp.6.4.3 19Mar24 (build Sep 18 2024 11:30:23) complex                        
  
 executed on             LinuxIFC date 2026.07.03  19:22:58
 running   28 mpi-ranks, on    1 nodes
 distrk:  each k-point on   28 cores,    1 groups
 distr:  one band on NCORE=   1 cores,   28 groups


--------------------------------------------------------------------------------------------------------


 INCAR:
   SYSTEM = HECN
   ISTART = 0
   ICHARG = 2
   PREC = Normal
   LREAL = .F.
   IBRION = 2
   ISIF = 3
   NSW = 100
   POTIM = 0.5
   EDIFFG = -0.01
   ENCUT = 400
   NELM = 60
   EDIFF = 1E-5
   LCHARG = .F.
   LWAVE = .F.
   ISMEAR = 0
   SIGMA = 0.1
   ALGO = Fast

 POTCAR:   PAW_PBE Ti_sv 07Sep2000                
 POTCAR:   PAW_PBE Nb_sv 17Jan2003                
 POTCAR:   PAW_PBE Hf_pv 06Sep2000                
 POTCAR:   PAW_PBE N 08Apr2002                    
 POTCAR:   PAW_PBE C 08Apr2002                    
 POTCAR:   PAW_PBE Zr_sv 07Sep2000                
 POTCAR:   PAW_PBE Ta_pv 07Sep2000                
 -----------------------------------------------------------------------------
|                                                                             |
|           W    W    AA    RRRRR   N    N  II  N    N   GGGG   !!!           |
|           W    W   A  A   R    R  NN   N  II  NN   N  G    G  !!!           |
|           W    W  A    A  R    R  N N  N  II  N N  N  G       !!!           |
|           W WW W  AAAAAA  RRRRR   N  N N  II  N  N N  G  GGG   !            |
|           WW  WW  A    A  R   R   N   NN  II  N   NN  G    G                |
|           W    W  A    A  R    R  N    N  II  N    N   GGGG   !!!           |
|                                                                             |
|     For optimal performance we recommend to set                             |
|       NCORE = 2 up to number-of-cores-per-socket                            |
|     NCORE specifies how many cores store one orbital (NPAR=cpu/NCORE).      |
|     This setting can greatly improve the performance of VASP for DFT.       |
|     The default, NCORE=1 might be grossly inefficient on modern             |
|     multi-core architectures or massively parallel machines. Do your        |
|     own testing! More info at https://www.vasp.at/wiki/index.php/NCORE      |
|     Unfortunately you need to use the default for GW and RPA                |
|     calculations (for HF NCORE is supported but not extensively tested      |
|     yet).                                                                   |
|                                                                             |
 -----------------------------------------------------------------------------

 POTCAR:   PAW_PBE Ti_sv 07Sep2000                
   VRHFIN =Ti: 3p4s3d                                                                               
   LEXCH  = PE                                                                                      
   EATOM  =  1587.5048 eV,  116.6783 Ry                                                             
                                                                                                    
   TITEL  = PAW_PBE Ti_sv 07Sep2000                                                                 
   LULTRA =        F    use ultrasoft PP ?                                                          
   IUNSCR =        1    unscreen: 0-lin 1-nonlin 2-no                                               
   RPACOR =    2.000    partial core radius                                                         
   POMASS =   47.880; ZVAL   =   12.000    mass and valenz                                          
   RCORE  =    2.300    outmost cutoff radius                                                       
   RWIGS  =    2.300; RWIGS  =    1.217    wigner-seitz radius (au A)                               
   ENMAX  =  274.574; ENMIN  =  205.930 eV                                                          
   RCLOC  =    1.701    cutoff for local pot                                                        
   LCOR   =        T    correct aug charges                                                         
   LPAW   =        T    paw PP                                                                      
   EAUG   =  482.848                                                                                
   DEXC   =     .000                                                                                
   RMAX   =    2.783    core radius for proj-oper                                                   
   RAUG   =    1.300    factor for augmentation sphere                                              
   RDEP   =    2.381    radius for radial grids                                                     
   QCUT   =   -4.492; QGAM   =    8.985    optimization parameters                                  
                                                                                                    
   Description                                                                                      
     l     E      TYP  RCUT    TYP  RCUT                                                            
     0   .000     23  1.800                                                                         
     0   .000     23  2.300                                                                         
     0   .000     23  1.800                                                                         
     0   .000     23  2.300                                                                         
     1   .000     23  2.300                                                                         
     1  -.100     23  2.300                                                                         
     2   .000     23  2.300                                                                         
     2   .000     23  2.300                                                                         
     3   .000      7   .000                                                                         
  local pseudopotential read in
  partial core-charges read in
  atomic valenz-charges read in
  non local Contribution for L=           0  read in
    real space projection operators read in
  non local Contribution for L=           0  read in
    real space projection operators read in
  non local Contribution for L=           1  read in
    real space projection operators read in
  non local Contribution for L=           1  read in
    real space projection operators read in
  non local Contribution for L=           2  read in
    real space projection operators read in
  non local Contribution for L=           2  read in
    real space projection operators read in
    PAW grid and wavefunctions read in
 
   number of l-projection  operators is LMAX  =           6
   number of lm-projection operators is LMMAX =          18
 
 POTCAR:   PAW_PBE Nb_sv 17Jan2003                
   VRHFIN =Nb: 4p5s4d                                                                               
   LEXCH  = PE                                                                                      
   EATOM  =  1555.1913 eV,  114.3033 Ry                                                             
                                                                                                    
   TITEL  = PAW_PBE Nb_sv 17Jan2003                                                                 
   LULTRA =        F    use ultrasoft PP ?                                                          
   IUNSCR =        1    unscreen: 0-lin 1-nonlin 2-no                                               
   RPACOR =    1.800    partial core radius                                                         
   POMASS =   92.910; ZVAL   =   13.000    mass and valenz                                          
   RCORE  =    2.200    outmost cutoff radius                                                       
   RWIGS  =    2.400; RWIGS  =    1.270    wigner-seitz radius (au A)                               
   ENMAX  =  293.235; ENMIN  =  219.927 eV                                                          
   RCLOC  =    1.411    cutoff for local pot                                                        
   LCOR   =        T    correct aug charges                                                         
   LPAW   =        T    paw PP                                                                      
   EAUG   =  455.659                                                                                
   DEXC   =     .000                                                                                
   RMAX   =    2.693    core radius for proj-oper                                                   
   RAUG   =    1.300    factor for augmentation sphere                                              
   RDEP   =    2.299    radius for radial grids                                                     
   QCUT   =   -4.642; QGAM   =    9.285    optimization parameters                                  
                                                                                                    
   Description                                                                                      
     l     E      TYP  RCUT    TYP  RCUT                                                            
     0   .000     23  2.200                                                                         
     0   .000     23  2.200                                                                         
     0   .000     23  2.200                                                                         
     0   .000     23  2.200                                                                         
     1   .000     23  2.200                                                                         
     1  1.000     23  2.200                                                                         
     2   .000     23  2.200                                                                         
     2   .000     23  2.200                                                                         
     3   .000      7   .000                                                                         
  local pseudopotential read in
  partial core-charges read in
  atomic valenz-charges read in
  non local Contribution for L=           0  read in
    real space projection operators read in
  non local Contribution for L=           0  read in
    real space projection operators read in
  non local Contribution for L=           1  read in
    real space projection operators read in
  non local Contribution for L=           1  read in
    real space projection operators read in
  non local Contribution for L=           2  read in
    real space projection operators read in
  non local Contribution for L=           2  read in
    real space projection operators read in
    PAW grid and wavefunctions read in
 
   number of l-projection  operators is LMAX  =           6
   number of lm-projection operators is LMMAX =          18
 
 POTCAR:   PAW_PBE Hf_pv 06Sep2000                
   VRHFIN =Hf: 5p6s5d                                                                               
   LEXCH  = PE                                                                                      
   EATOM  =   859.6195 eV,   63.1803 Ry                                                             
                                                                                                    
   TITEL  = PAW_PBE Hf_pv 06Sep2000                                                                 
   LULTRA =        F    use ultrasoft PP ?                                                          
   IUNSCR =        1    unscreen: 0-lin 1-nonlin 2-no                                               
   RPACOR =    2.500    partial core radius                                                         
   POMASS =  178.490; ZVAL   =   10.000    mass and valenz                                          
   RCORE  =    2.600    outmost cutoff radius                                                       
   RWIGS  =    3.050; RWIGS  =    1.614    wigner-seitz radius (au A)                               
   ENMAX  =  220.342; ENMIN  =  165.256 eV                                                          
   RCLOC  =    2.212    cutoff for local pot                                                        
   LCOR   =        T    correct aug charges                                                         
   LPAW   =        T    paw PP                                                                      
   EAUG   =  380.878                                                                                
   DEXC   =    -.057                                                                                
   RMAX   =    3.106    core radius for proj-oper                                                   
   RAUG   =    1.300    factor for augmentation sphere                                              
   RDEP   =    2.681    radius for radial grids                                                     
   QCUT   =   -4.024; QGAM   =    8.049    optimization parameters                                  
                                                                                                    
   Description                                                                                      
     l     E      TYP  RCUT    TYP  RCUT                                                            
     1   .000     23  2.500                                                                         
     1   .000     23  2.500                                                                         
     2   .000     23  2.500                                                                         
     2   .000     23  2.500                                                                         
     0   .000     23  2.600                                                                         
     0   .000     23  2.600                                                                         
     3   .000      7   .000                                                                         
  local pseudopotential read in
  partial core-charges read in
  atomic valenz-charges read in
  non local Contribution for L=           1  read in
    real space projection operators read in
  non local Contribution for L=           1  read in
    real space projection operators read in
  non local Contribution for L=           2  read in
    real space projection operators read in
  non local Contribution for L=           2  read in
    real space projection operators read in
  non local Contribution for L=           0  read in
    real space projection operators read in
  non local Contribution for L=           0  read in
    real space projection operators read in
    PAW grid and wavefunctions read in
 
   number of l-projection  operators is LMAX  =           6
   number of lm-projection operators is LMMAX =          18
 
 POTCAR:   PAW_PBE N 08Apr2002                    
   VRHFIN =N: s2p3                                                                                  
   LEXCH  = PE                                                                                      
   EATOM  =   264.5486 eV,   19.4438 Ry                                                             
                                                                                                    
   TITEL  = PAW_PBE N 08Apr2002                                                                     
   LULTRA =        F    use ultrasoft PP ?                                                          
   IUNSCR =        0    unscreen: 0-lin 1-nonlin 2-no                                               
   RPACOR =     .000    partial core radius                                                         
   POMASS =   14.001; ZVAL   =    5.000    mass and valenz                                          
   RCORE  =    1.500    outmost cutoff radius                                                       
   RWIGS  =    1.400; RWIGS  =     .741    wigner-seitz radius (au A)                               
   ENMAX  =  400.000; ENMIN  =  300.000 eV                                                          
   ICORE  =        2    local potential                                                             
   LCOR   =        T    correct aug charges                                                         
   LPAW   =        T    paw PP                                                                      
   EAUG   =  627.112                                                                                
   DEXC   =     .000                                                                                
   RMAX   =    2.247    core radius for proj-oper                                                   
   RAUG   =    1.300    factor for augmentation sphere                                              
   RDEP   =    1.514    radius for radial grids                                                     
   QCUT   =   -5.562; QGAM   =   11.124    optimization parameters                                  
                                                                                                    
   Description                                                                                      
     l     E      TYP  RCUT    TYP  RCUT                                                            
     0   .000     23  1.200                                                                         
     0   .000     23  1.200                                                                         
     1   .000     23  1.500                                                                         
     1   .700     23  1.500                                                                         
     2   .000      7  1.500                                                                         
  local pseudopotential read in
  atomic valenz-charges read in
  non local Contribution for L=           0  read in
    real space projection operators read in
  non local Contribution for L=           0  read in
    real space projection operators read in
  non local Contribution for L=           1  read in
    real space projection operators read in
  non local Contribution for L=           1  read in
    real space projection operators read in
    PAW grid and wavefunctions read in
 
   number of l-projection  operators is LMAX  =           4
   number of lm-projection operators is LMMAX =           8
 
 POTCAR:   PAW_PBE C 08Apr2002                    
   VRHFIN =C: s2p2                                                                                  
   LEXCH  = PE                                                                                      
   EATOM  =   147.1560 eV,   10.8157 Ry                                                             
                                                                                                    
   TITEL  = PAW_PBE C 08Apr2002                                                                     
   LULTRA =        F    use ultrasoft PP ?                                                          
   IUNSCR =        0    unscreen: 0-lin 1-nonlin 2-no                                               
   RPACOR =     .000    partial core radius                                                         
   POMASS =   12.011; ZVAL   =    4.000    mass and valenz                                          
   RCORE  =    1.500    outmost cutoff radius                                                       
   RWIGS  =    1.630; RWIGS  =     .863    wigner-seitz radius (au A)                               
   ENMAX  =  400.000; ENMIN  =  300.000 eV                                                          
   ICORE  =        2    local potential                                                             
   LCOR   =        T    correct aug charges                                                         
   LPAW   =        T    paw PP                                                                      
   EAUG   =  644.873                                                                                
   DEXC   =     .000                                                                                
   RMAX   =    2.266    core radius for proj-oper                                                   
   RAUG   =    1.300    factor for augmentation sphere                                              
   RDEP   =    1.501    radius for radial grids                                                     
   RDEPT  =    1.300    core radius for aug-charge                                                  
   QCUT   =   -5.516; QGAM   =   11.032    optimization parameters                                  
                                                                                                    
   Description                                                                                      
     l     E      TYP  RCUT    TYP  RCUT                                                            
     0   .000     23  1.200                                                                         
     0   .000     23  1.200                                                                         
     1   .000     23  1.500                                                                         
     1  2.500     23  1.500                                                                         
     2   .000      7  1.500                                                                         
  local pseudopotential read in
  atomic valenz-charges read in
  non local Contribution for L=           0  read in
    real space projection operators read in
  non local Contribution for L=           0  read in
    real space projection operators read in
  non local Contribution for L=           1  read in
    real space projection operators read in
  non local Contribution for L=           1  read in
    real space projection operators read in
    PAW grid and wavefunctions read in
 
   number of l-projection  operators is LMAX  =           4
   number of lm-projection operators is LMMAX =           8
 
 POTCAR:   PAW_PBE Zr_sv 07Sep2000                
   VRHFIN =Zr: 4s4p5s4d                                                                             
   LEXCH  = PE                                                                                      
   EATOM  =  1283.3934 eV,   94.3268 Ry                                                             
                                                                                                    
   TITEL  = PAW_PBE Zr_sv 07Sep2000                                                                 
   LULTRA =        F    use ultrasoft PP ?                                                          
   IUNSCR =        1    unscreen: 0-lin 1-nonlin 2-no                                               
   RPACOR =    2.200    partial core radius                                                         
   POMASS =   91.224; ZVAL   =   12.000    mass and valenz                                          
   RCORE  =    2.500    outmost cutoff radius                                                       
   RWIGS  =    3.070; RWIGS  =    1.625    wigner-seitz radius (au A)                               
   ENMAX  =  229.839; ENMIN  =  172.379 eV                                                          
   RCLOC  =    2.213    cutoff for local pot                                                        
   LCOR   =        T    correct aug charges                                                         
   LPAW   =        T    paw PP                                                                      
   EAUG   =  357.078                                                                                
   DEXC   =     .000                                                                                
   RMAX   =    3.041    core radius for proj-oper                                                   
   RAUG   =    1.300    factor for augmentation sphere                                              
   RDEP   =    2.597    radius for radial grids                                                     
   QCUT   =   -4.110; QGAM   =    8.220    optimization parameters                                  
                                                                                                    
   Description                                                                                      
     l     E      TYP  RCUT    TYP  RCUT                                                            
     0   .000     23  2.500                                                                         
     0   .000     23  2.500                                                                         
     1   .000     23  2.500                                                                         
     1   .000     23  2.500                                                                         
     2   .000     23  2.500                                                                         
     2   .000     23  2.500                                                                         
     3   .000      7   .000                                                                         
  local pseudopotential read in
  partial core-charges read in
  atomic valenz-charges read in
  non local Contribution for L=           0  read in
    real space projection operators read in
  non local Contribution for L=           0  read in
    real space projection operators read in
  non local Contribution for L=           1  read in
    real space projection operators read in
  non local Contribution for L=           1  read in
    real space projection operators read in
  non local Contribution for L=           2  read in
    real space projection operators read in
  non local Contribution for L=           2  read in
    real space projection operators read in
    PAW grid and wavefunctions read in
 
   number of l-projection  operators is LMAX  =           6
   number of lm-projection operators is LMMAX =          18
 
 POTCAR:   PAW_PBE Ta_pv 07Sep2000                
   VRHFIN =Ta:  5p6s5d                                                                              
   LEXCH  = PE                                                                                      
   EATOM  =  1045.8051 eV,   76.8645 Ry                                                             
                                                                                                    
   TITEL  = PAW_PBE Ta_pv 07Sep2000                                                                 
   LULTRA =        F    use ultrasoft PP ?                                                          
   IUNSCR =        1    unscreen: 0-lin 1-nonlin 2-no                                               
   RPACOR =    2.330    partial core radius                                                         
   POMASS =  180.948; ZVAL   =   11.000    mass and valenz                                          
   RCORE  =    2.500    outmost cutoff radius                                                       
   RWIGS  =    2.840; RWIGS  =    1.503    wigner-seitz radius (au A)                               
   ENMAX  =  223.675; ENMIN  =  167.756 eV                                                          
   RCLOC  =    2.205    cutoff for local pot                                                        
   LCOR   =        T    correct aug charges                                                         
   LPAW   =        T    paw PP                                                                      
   EAUG   =  377.421                                                                                
   DEXC   =    -.043                                                                                
   RMAX   =    3.083    core radius for proj-oper                                                   
   RAUG   =    1.300    factor for augmentation sphere                                              
   RDEP   =    2.526    radius for radial grids                                                     
   QCUT   =   -4.055; QGAM   =    8.109    optimization parameters                                  
                                                                                                    
   Description                                                                                      
     l     E      TYP  RCUT    TYP  RCUT                                                            
     1   .000     23  2.500                                                                         
     1   .100     23  2.500                                                                         
     2   .000     23  2.500                                                                         
     2   .000     23  2.500                                                                         
     0   .000     23  2.500                                                                         
     0   .000     23  2.500                                                                         
     3   .000      7   .000                                                                         
  local pseudopotential read in
  partial core-charges read in
  atomic valenz-charges read in
  non local Contribution for L=           1  read in
    real space projection operators read in
  non local Contribution for L=           1  read in
    real space projection operators read in
  non local Contribution for L=           2  read in
    real space projection operators read in
  non local Contribution for L=           2  read in
    real space projection operators read in
  non local Contribution for L=           0  read in
    real space projection operators read in
  non local Contribution for L=           0  read in
    real space projection operators read in
    PAW grid and wavefunctions read in
 
   number of l-projection  operators is LMAX  =           6
   number of lm-projection operators is LMMAX =          18
 
 -----------------------------------------------------------------------------
|                                                                             |
|               ----> ADVICE to this user running VASP <----                  |
|                                                                             |
|     You have a (more or less) 'large supercell' and for larger cells it     |
|     might be more efficient to use real-space projection operators.         |
|     Therefore, try LREAL= Auto in the INCAR file.                           |
|     Mind: If you want to do very accurate calculations, keep the            |
|     reciprocal projection scheme (i.e. LREAL=.FALSE.).                      |
|                                                                             |
 -----------------------------------------------------------------------------

 PAW_PBE Ti_sv 07Sep2000                :
 energy of atom  1       EATOM=-1587.5048
 kinetic energy error for atom=    0.0139 (will be added to EATOM!!)
 PAW_PBE Nb_sv 17Jan2003                :
 energy of atom  2       EATOM=-1555.1913
 kinetic energy error for atom=    0.0212 (will be added to EATOM!!)
 PAW_PBE Hf_pv 06Sep2000                :
 energy of atom  3       EATOM= -859.6195
 kinetic energy error for atom=    0.0038 (will be added to EATOM!!)
 PAW_PBE N 08Apr2002                    :
 energy of atom  4       EATOM= -264.5486
 kinetic energy error for atom=    0.0736 (will be added to EATOM!!)
 PAW_PBE C 08Apr2002                    :
 energy of atom  5       EATOM= -147.1560
 kinetic energy error for atom=    0.0288 (will be added to EATOM!!)
 PAW_PBE Zr_sv 07Sep2000                :
 energy of atom  6       EATOM=-1283.3934
 kinetic energy error for atom=    0.0044 (will be added to EATOM!!)
 PAW_PBE Ta_pv 07Sep2000                :
 energy of atom  7       EATOM=-1045.8051
 kinetic energy error for atom=    0.0046 (will be added to EATOM!!)
 
 
 POSCAR: TiZrHfNbTa
  positions in direct lattice
  velocities in cartesian coordinates


 exchange-correlation table for PE
   RHO(1)=    0.500       N(1)  =     2000
   RHO(2)=  100.500       N(2)  =     4000
 


--------------------------------------------------------------------------------------------------------


 ion  position               nearest neighbor table
   1  0.000  0.998  0.012-  33 2.12  21 2.19  37 2.19  24 2.19  22 2.21  59 3.05  16 3.07  18 3.17
                            14 3.19  55 3.22  17 3.22  57 3.23
   2  0.243  0.996  0.251-  33 2.16  42 2.18  21 2.20  35 2.24  20 2.29  25 2.32  61 3.04  59 3.06
                            18 3.18  58 3.19  54 3.21  19 3.21  56 3.22  14 3.22  52 3.24  15 3.26
   3  0.256  0.505  0.249-  40 2.19  36 2.19  35 2.20  45 2.22  20 2.31  26 2.33  54 3.10  18 3.14
                            62 3.14  58 3.15  15 3.15  53 3.18  14 3.19  19 3.20  59 3.24
   4  0.499  0.500  0.999-  36 2.20  39 2.21  27 2.23  51 2.23  34 2.24  40 2.25  63 3.14  60 3.14
                            15 3.16  17 3.17  18 3.18  54 3.18  14 3.19
   5  0.491  0.259  0.754-  41 2.14  51 2.17  34 2.18  31 2.28  29 2.30  32 2.32  14 3.12  62 3.16
                            19 3.17  63 3.18  17 3.19  52 3.19  55 3.22  56 3.27  57 3.36
   6  0.004  0.500  0.498-  26 2.17  45 2.21  47 2.21  43 2.23  49 2.24  46 2.26  64 3.12  19 3.12
                            58 3.13  59 3.22  60 3.23  63 3.25
   7  0.499  0.740  0.750-  51 2.18  50 2.19  27 2.20  44 2.21  48 2.22  63 3.09  62 3.11  58 3.17
                            64 3.17  18 3.18  56 3.22  52 3.24  57 3.26  55 3.28
   8  0.999  0.239  0.260-  43 2.16  33 2.18  23 2.25  20 2.26  22 2.33  26 2.36  61 2.99  19 3.09
                            16 3.10  14 3.21  17 3.26  53 3.31  60 3.32
   9  0.754  0.744  0.997-  37 2.20  39 2.21  48 2.23  38 2.28  27 2.30  24 2.34  63 3.11  53 3.12
                            60 3.13  57 3.18  59 3.18  16 3.23  54 3.23  52 3.26
  10  0.005  0.264  0.738-  47 2.14  43 2.15  41 2.23  29 2.32  22 2.36  28 2.37  19 3.07  63 3.17
                            53 3.20  14 3.22  55 3.22  17 3.25  61 3.26  57 3.31
  11  0.759  0.264  0.502-  49 2.14  43 2.17  29 2.23  23 2.27  31 2.32  30 2.38  63 3.11  60 3.15
                            62 3.17  61 3.24  15 3.28  57 3.29  16 3.31  56 3.36
  12  0.999  0.737  0.749-  47 2.14  46 2.25  37 2.27  48 2.27  44 2.29  28 2.41  63 3.11  53 3.13
                            64 3.14  58 3.16  18 3.18  57 3.21  55 3.25
  13  0.254  0.499  0.752-  51 2.23  41 2.23  44 2.24  36 2.27  47 2.30  45 2.31  62 3.15  18 3.16
                            14 3.17  58 3.17  19 3.19  53 3.20
  14  0.247  0.252  0.002-  22 2.22  20 2.22  36 2.24  41 2.26  21 2.27  34 2.27   5 3.12  53 3.15
                            15 3.15  13 3.17   3 3.19   4 3.19   1 3.19  52 3.21   8 3.21  55 3.21
  15  0.498  0.253  0.247-  40 2.22  20 2.23  25 2.24  34 2.25  23 2.26  31 2.28   3 3.15  14 3.15
                             4 3.16  19 3.18  60 3.18  62 3.19  52 3.20  17 3.21  56 3.25   2 3.26
  16  0.754  0.997  0.250-  30 2.23  33 2.23  24 2.23  38 2.27  25 2.27  23 2.29   1 3.07  59 3.09
                             8 3.10  61 3.11  54 3.21   9 3.23  52 3.23  56 3.23  17 3.26  15 3.26
  17  0.751  0.254  0.996-  29 2.21  39 2.23  22 2.24  34 2.26  24 2.27  23 2.28  63 3.13  53 3.17
                             4 3.17   5 3.19  15 3.21  60 3.21  57 3.22  52 3.22   1 3.22  10 3.25
  18  0.249  0.748  1.000-  44 2.22  35 2.23  27 2.25  37 2.25  36 2.25  21 2.29   3 3.14  53 3.16
                            13 3.16  59 3.17   1 3.17  54 3.18   4 3.18   7 3.18  12 3.18   2 3.18
  19  0.248  0.253  0.498-  45 2.21  43 2.22  20 2.23  42 2.26  41 2.27  31 2.28  10 3.07   8 3.09
                             6 3.12  61 3.17  62 3.17   5 3.17  15 3.18  13 3.19   3 3.20   2 3.21
  20  0.250  0.249  0.249-  14 2.22  15 2.23  19 2.23   8 2.26   2 2.29   3 2.31
  21  0.243  0.001  0.006-   1 2.19   2 2.20  14 2.27  18 2.29  52 2.30  55 2.31
  22  1.000  0.242  0.000-   1 2.21  14 2.22  17 2.24   8 2.33  53 2.34  10 2.36
  23  0.749  0.251  0.249-   8 2.25  15 2.26  11 2.27  17 2.28  60 2.29  16 2.29
  24  0.756  0.004  0.002-   1 2.19  16 2.23  57 2.27  17 2.27  52 2.31   9 2.34
  25  0.501  0.005  0.250-  15 2.24  52 2.27  16 2.27  56 2.28  54 2.32   2 2.32
  26  0.997  0.500  0.256-   6 2.17  60 2.27  53 2.27   3 2.33  59 2.34   8 2.36
  27  0.499  0.747  0.995-   7 2.20   4 2.23  18 2.25  54 2.29   9 2.30  52 2.30
  28  0.997  0.003  0.749-  57 2.18  55 2.22  61 2.32  10 2.37  12 2.41
  29  0.747  0.252  0.749-  17 2.21  11 2.23  63 2.26   5 2.30  57 2.32  10 2.32
  30  0.755  0.001  0.498-  16 2.23  61 2.23  57 2.26  56 2.31  11 2.38  64 2.40
  31  0.502  0.253  0.502-  62 2.24   5 2.28  19 2.28  15 2.28  56 2.30  11 2.32
  32  0.503  0.002  0.750-  52 2.22  56 2.22  57 2.27  55 2.31   5 2.32
  33  0.003  0.998  0.248-   1 2.12   2 2.16  59 2.16  61 2.18   8 2.18  16 2.23
  34  0.499  0.253  0.997-   5 2.18   4 2.24  15 2.25  17 2.26  14 2.27  52 2.28
  35  0.246  0.749  0.248-  59 2.20   3 2.20  18 2.23   2 2.24  54 2.27  58 2.28
  36  0.254  0.499  0.005-   3 2.19   4 2.20  14 2.24  18 2.25  13 2.27  53 2.27
  37  0.999  0.756  0.001-   1 2.19   9 2.20  59 2.24  18 2.25  12 2.27  53 2.30
  38  0.753  0.747  0.251-  60 2.19  59 2.22  64 2.26  16 2.27   9 2.28  54 2.29
  39  0.746  0.500  0.001-   9 2.21   4 2.21  17 2.23  60 2.23  63 2.24  53 2.29
  40  0.500  0.498  0.250-   3 2.19  60 2.20  15 2.22  62 2.25   4 2.25  54 2.26
  41  0.252  0.253  0.750-   5 2.14  10 2.23  13 2.23  14 2.26  19 2.27  55 2.29
  42  0.245  0.003  0.494-  61 2.17   2 2.18  19 2.26  56 2.27  55 2.30  58 2.32
  43  0.001  0.253  0.500-  10 2.15   8 2.16  11 2.17  19 2.22   6 2.23  61 2.28
  44  0.253  0.747  0.753-   7 2.21  18 2.22  13 2.24  58 2.26  12 2.29  55 2.29
  45  0.250  0.498  0.495-   6 2.21  19 2.21   3 2.22  62 2.24  58 2.25  13 2.31
  46  0.996  0.749  0.499-  64 2.20  59 2.23  12 2.25   6 2.26  58 2.27  61 2.27
  47  0.998  0.500  0.743-  12 2.14  10 2.14   6 2.21  63 2.27  13 2.30  53 2.34
  48  0.746  0.746  0.749-  63 2.20  64 2.22   7 2.22   9 2.23  57 2.26  12 2.27
  49  0.754  0.501  0.499-  64 2.13  11 2.14   6 2.24  60 2.25  63 2.27  62 2.29
  50  0.504  0.745  0.506-   7 2.19  62 2.22  64 2.22  56 2.29  58 2.30  54 2.31
  51  0.502  0.499  0.751-   5 2.17   7 2.18  63 2.19  13 2.23   4 2.23  62 2.25
  52  0.499  0.001  0.997-  32 2.22  25 2.27  34 2.28  21 2.30  27 2.30  24 2.31  55 3.18   5 3.19
                            57 3.20  15 3.20  14 3.21  18 3.21  54 3.22  17 3.22  16 3.23   2 3.24
  53  0.001  0.501  0.004-  26 2.27  36 2.27  39 2.29  37 2.30  47 2.34  22 2.34   9 3.12  12 3.13
                            14 3.15  18 3.16  17 3.17   3 3.18  60 3.19  13 3.20  10 3.20  59 3.22
  54  0.499  0.749  0.250-  40 2.26  35 2.27  38 2.29  27 2.29  50 2.31  25 2.32   3 3.10  60 3.12
                            18 3.18   4 3.18  62 3.18  58 3.19  56 3.20   2 3.21  64 3.21  16 3.21
  55  0.245  1.000  0.750-  28 2.22  41 2.29  44 2.29  42 2.30  21 2.31  32 2.31  56 3.18  61 3.18
                            52 3.18  18 3.20  58 3.20  14 3.21  10 3.22   5 3.22  19 3.22   1 3.22
  56  0.498  0.998  0.503-  32 2.22  42 2.27  25 2.28  50 2.29  31 2.30  30 2.31  55 3.18  58 3.20
                            57 3.20  54 3.20   2 3.22  19 3.22   7 3.22  16 3.23  15 3.25   5 3.27
  57  0.755  0.996  0.749-  28 2.18  30 2.26  48 2.26  32 2.27  24 2.27  29 2.32   9 3.18  52 3.20
                            56 3.20  12 3.21  17 3.22  61 3.23  64 3.23   1 3.23   7 3.26  11 3.29
  58  0.248  0.746  0.501-  45 2.25  44 2.26  46 2.27  35 2.28  50 2.30  42 2.32   6 3.13   3 3.15
                            62 3.16  12 3.16  59 3.16   7 3.17  13 3.17  61 3.18   2 3.19  54 3.19
  59  0.001  0.758  0.251-  33 2.16  35 2.20  38 2.22  46 2.23  37 2.24  26 2.34   1 3.05   2 3.06
                            61 3.07  16 3.09  58 3.16  18 3.17   9 3.18  64 3.19  53 3.22   6 3.22
  60  0.745  0.505  0.249-  38 2.19  40 2.20  39 2.23  49 2.25  26 2.27  23 2.29  64 3.10  54 3.12
                             9 3.13   4 3.14  11 3.15  62 3.17  15 3.18  53 3.19  17 3.21   6 3.23
  61  0.004  0.001  0.491-  42 2.17  33 2.18  30 2.23  46 2.27  43 2.28  28 2.32   8 2.99   2 3.04
                            59 3.07  16 3.11  19 3.17  55 3.18  58 3.18  57 3.23  11 3.24  10 3.26
  62  0.498  0.500  0.501-  50 2.22  45 2.24  31 2.24  51 2.25  40 2.25  49 2.29   7 3.11  64 3.12
                             3 3.14  13 3.15   5 3.16  58 3.16  63 3.16  11 3.17  60 3.17  19 3.17
  63  0.746  0.502  0.752-  51 2.19  48 2.20  39 2.24  29 2.26  47 2.27  49 2.27  64 3.08   7 3.09
                             9 3.11  11 3.11  12 3.11  17 3.13   4 3.14  62 3.16  10 3.17   5 3.18
  64  0.751  0.736  0.503-  49 2.13  46 2.20  48 2.22  50 2.22  38 2.26  30 2.40  63 3.08  60 3.10
                             6 3.12  62 3.12  12 3.14   7 3.17  59 3.19  54 3.21  57 3.23  16 3.28
 
  LATTYP: Found a triclinic cell.
 ALAT       =     8.9817410808
 B/A-ratio  =     1.4145981549
 C/A-ratio  =     1.7362984778
 COS(alpha) =     0.0000124546
 COS(beta)  =     0.5761538802
 COS(gamma) =     0.7071226236
  
  Lattice vectors:
  
 A1 = (   8.9817404822,   0.0030024208,  -0.0013183021)
 A2 = (   8.9830659185,   0.0023632742,  -8.9853009260)
 A3 = (   8.9834059097,   9.0444836543,   8.9832755652)


Analysis of symmetry for initial positions (statically):
=====================================================================
 Subroutine PRICEL returns:
 Original cell was already a primitive cell.
 

 Routine SETGRP: Setting up the symmetry group for a 
 triclinic supercell.


 Subroutine GETGRP returns: Found  1 space group operations
 (whereof  1 operations were pure point group operations)
 out of a pool of  2 trial point group operations.


The static configuration has the point symmetry C_1 .


Analysis of symmetry for dynamics (positions and initial velocities):
=====================================================================
 Subroutine PRICEL returns:
 Original cell was already a primitive cell.
 

 Routine SETGRP: Setting up the symmetry group for a 
 triclinic supercell.


 Subroutine GETGRP returns: Found  1 space group operations
 (whereof  1 operations were pure point group operations)
 out of a pool of  2 trial point group operations.


The dynamic configuration has the point symmetry C_1 .


 Subroutine INISYM returns: Found  1 space group operations
 (whereof  1 operations are pure point group operations),
 and found     1 'primitive' translations


----------------------------------------------------------------------------------------

                                     Primitive cell                                     

  volume of cell :     729.5217

  direct lattice vectors                    reciprocal lattice vectors
     8.981740482  0.003002421 -0.001318302     0.111337010 -0.000036833  0.000016429
     0.002990864  9.040842087  0.000611243    -0.000036976  0.110609178 -0.000007875
    -0.001325436  0.000639147  8.983982624     0.000016340 -0.000007531  0.111309212

  length of vectors
     8.981741081  9.040842602  8.983982744     0.111337018  0.110609185  0.111309213

  position of ions in fractional coordinates (direct lattice)
     0.000201978  0.997763977  0.011999786
     0.243350966  0.996459243  0.251220346
     0.256364499  0.505376130  0.248603127
     0.499370415  0.500154614  0.999373610
     0.490684992  0.258788732  0.754435224
     0.003794173  0.499621732  0.497604738
     0.498938008  0.739836140  0.749774145
     0.999030616  0.238603088  0.259897545
     0.754322753  0.744347196  0.996930733
     0.004853402  0.264095929  0.738446316
     0.759318746  0.264314603  0.501564585
     0.999005703  0.736679096  0.749097373
     0.253949341  0.499466881  0.752280086
     0.246749410  0.251950140  0.002088097
     0.497927762  0.252754767  0.247491505
     0.754418661  0.997395950  0.250138125
     0.751129817  0.254284587  0.995639673
     0.248746019  0.748435387  0.999777636
     0.247771472  0.253181730  0.497686147
     0.250204704  0.249493760  0.249456906
     0.243401500  0.001205629  0.006365997
     0.999876173  0.242015769  0.000173351
     0.749203651  0.251155230  0.249348998
     0.756336644  0.003539432  0.001804312
     0.501281556  0.004899561  0.249691064
     0.997219777  0.499708134  0.256360430
     0.498707349  0.746685271  0.994672546
     0.997239487  0.002697629  0.748614175
     0.746813122  0.252460085  0.749351192
     0.755121586  0.001438487  0.498166000
     0.501648519  0.252760579  0.501503504
     0.502544139  0.002196653  0.750100721
     0.002780199  0.997583679  0.248140793
     0.499410879  0.252813155  0.996949660
     0.245624922  0.749026149  0.247727023
     0.254132451  0.499445695  0.004915030
     0.998661057  0.755736944  0.001184790
     0.753342561  0.746613696  0.251163056
     0.745583475  0.500445262  0.000723247
     0.499741891  0.498374872  0.250214744
     0.252400382  0.252728919  0.750450091
     0.245308766  0.002691732  0.494079360
     0.001135810  0.252618044  0.499584728
     0.253263371  0.746902216  0.752888503
     0.249623385  0.497954071  0.495332222
     0.995843992  0.749455340  0.498512860
     0.997869419  0.500462748  0.743469983
     0.745973966  0.745698880  0.749262667
     0.753936003  0.500549684  0.499304722
     0.504160153  0.745329363  0.506311630
     0.501869222  0.498760086  0.751107633
     0.499051494  0.001130718  0.996945789
     0.001001094  0.500982374  0.003621339
     0.498875547  0.748567458  0.249619703
     0.244859218  0.999890163  0.749772514
     0.497982841  0.998194490  0.502810201
     0.754732704  0.995791020  0.749476377
     0.248326146  0.746279252  0.500985876
     0.000774962  0.758348109  0.250874006
     0.744776046  0.504666631  0.248689123
     0.003750158  0.000670422  0.490770535
     0.498485483  0.500312922  0.501040257
     0.745739290  0.501961918  0.751538693
     0.751456848  0.736248521  0.502875523

  ion indices of the primitive-cell ions
   primitive index   ion index
                 1           1
                 2           2
                 3           3
                 4           4
                 5           5
                 6           6
                 7           7
                 8           8
                 9           9
                10          10
                11          11
                12          12
                13          13
                14          14
                15          15
                16          16
                17          17
                18          18
                19          19
                20          20
                21          21
                22          22
                23          23
                24          24
                25          25
                26          26
                27          27
                28          28
                29          29
                30          30
                31          31
                32          32
                33          33
                34          34
                35          35
                36          36
                37          37
                38          38
                39          39
                40          40
                41          41
                42          42
                43          43
                44          44
                45          45
                46          46
                47          47
                48          48
                49          49
                50          50
                51          51
                52          52
                53          53
                54          54
                55          55
                56          56
                57          57
                58          58
                59          59
                60          60
                61          61
                62          62
                63          63
                64          64

----------------------------------------------------------------------------------------

 
 
 KPOINTS: HECN                                    

Automatic generation of k-mesh.
 Grid dimensions read from file:
 generate k-points for:    3    3    3

 Generating k-lattice:

  Cartesian coordinates                     Fractional coordinates (reciprocal lattice)
     0.037112337 -0.000012278  0.000005476     0.333333333  0.000000000  0.000000000
    -0.000012325  0.036869726 -0.000002625     0.000000000  0.333333333  0.000000000
     0.000005447 -0.000002510  0.037103071     0.000000000  0.000000000  0.333333333

  Length of vectors
     0.037112339  0.036869728  0.037103071

  Shift w.r.t. Gamma in fractional coordinates (k-lattice)
     0.000000000  0.000000000  0.000000000

 
 Subroutine IBZKPT returns following result:
 ===========================================
 
 Found     14 irreducible k-points:
 
 Following reciprocal coordinates:
            Coordinates               Weight
  0.000000  0.000000  0.000000      1.000000
  0.333333  0.000000  0.000000      2.000000
  0.000000  0.333333 -0.000000      2.000000
  0.333333  0.333333  0.000000      2.000000
 -0.333333  0.333333 -0.000000      2.000000
 -0.000000 -0.000000  0.333333      2.000000
  0.333333  0.000000  0.333333      2.000000
 -0.333333  0.000000  0.333333      2.000000
  0.000000  0.333333  0.333333      2.000000
  0.333333  0.333333  0.333333      2.000000
 -0.333333  0.333333  0.333333      2.000000
 -0.000000 -0.333333  0.333333      2.000000
  0.333333 -0.333333  0.333333      2.000000
 -0.333333 -0.333333  0.333333      2.000000
 
 Following cartesian coordinates:
            Coordinates               Weight
  0.000000  0.000000  0.000000      1.000000
  0.037112 -0.000012  0.000005      2.000000
 -0.000012  0.036870 -0.000003      2.000000
  0.037100  0.036857  0.000003      2.000000
 -0.037125  0.036882 -0.000008      2.000000
  0.000005 -0.000003  0.037103      2.000000
  0.037118 -0.000015  0.037109      2.000000
 -0.037107  0.000010  0.037098      2.000000
 -0.000007  0.036867  0.037100      2.000000
  0.037105  0.036855  0.037106      2.000000
 -0.037119  0.036879  0.037095      2.000000
  0.000018 -0.036872  0.037106      2.000000
  0.037130 -0.036885  0.037111      2.000000
 -0.037095 -0.036860  0.037100      2.000000
 


--------------------------------------------------------------------------------------------------------




 Dimension of arrays:
   k-points           NKPTS =     14   k-points in BZ     NKDIM =     14   number of bands    NBANDS=    308
   number of dos      NEDOS =    301   number of ions     NIONS =     64
   non local maximal  LDIM  =      6   non local SUM 2l+1 LMDIM =     18
   total plane-waves  NPLWV = 110592
   max r-space proj   IRMAX =      1   max aug-charges    IRDMAX=   9453
   dimension x,y,z NGX =    48 NGY =   48 NGZ =   48
   dimension x,y,z NGXF=    96 NGYF=   96 NGZF=   96
   support grid    NGXF=    96 NGYF=   96 NGZF=   96
   ions per type =               7   6   6  13  19   7   6
   NGX,Y,Z   is equivalent  to a cutoff of   8.88,  8.83,  8.88 a.u.
   NGXF,Y,Z  is equivalent  to a cutoff of  17.77, 17.65, 17.76 a.u.

 SYSTEM =  HECN                                    
 POSCAR =  TiZrHfNbTa                              

 Startparameter for this run:
   NWRITE =      2    write-flag & timer
   PREC   = normal    normal or accurate (medium, high low for compatibility)
   ISTART =      0    job   : 0-new  1-cont  2-samecut
   ICHARG =      2    charge: 1-file 2-atom 10-const
   ISPIN  =      1    spin polarized calculation?
   LNONCOLLINEAR =      F non collinear calculations
   LSORBIT =      F    spin-orbit coupling
   INIWAV =      1    electr: 0-lowe 1-rand  2-diag
   LASPH  =      F    aspherical Exc in radial PAW
 Electronic Relaxation 1
   ENCUT  =  400.0 eV  29.40 Ry    5.42 a.u.  14.65 14.74 14.65*2*pi/ulx,y,z
   ENINI  =  400.0     initial cutoff
   ENAUG  =  644.9 eV  augmentation charge cutoff
   NELM   =     60;   NELMIN=  2; NELMDL= -5     # of ELM steps 
   EDIFF  = 0.1E-04   stopping-criterion for ELM
   LREAL  =      F    real-space projection
   NLSPLINE    = F    spline interpolate recip. space projectors
   LCOMPAT=      F    compatible to vasp.4.4
   GGA_COMPAT  = T    GGA compatible to vasp.4.4-vasp.4.6
   LMAXPAW     = -100 max onsite density
   LMAXMIX     =    2 max onsite mixed and CHGCAR
   VOSKOWN=      0    Vosko Wilk Nusair interpolation
   ROPT   =    0.00000   0.00000   0.00000   0.00000
   ROPT   =    0.00000   0.00000   0.00000
 Ionic relaxation
   EDIFFG = -.1E-01   stopping-criterion for IOM
   NSW    =    100    number of steps for IOM
   NBLOCK =      1;   KBLOCK =    100    inner block; outer block 
   IBRION =      2    ionic relax: 0-MD 1-quasi-New 2-CG
   NFREE  =      1    steps in history (QN), initial steepest desc. (CG)
   ISIF   =      3    stress and relaxation
   IWAVPR =     11    prediction:  0-non 1-charg 2-wave 3-comb
   ISYM   =      2    0-nonsym 1-usesym 2-fastsym
   LCORR  =      T    Harris-Foulkes like correction to forces

   POTIM  = 0.5000    time-step for ionic-motion
   TEIN   =    0.0    initial temperature
   TEBEG  =    0.0;   TEEND  =   0.0 temperature during run
   SMASS  =  -3.00    Nose mass-parameter (am)
   estimated Nose-frequenzy (Omega)   =  0.10E-29 period in steps = 0.13E+47 mass=  -0.184E-26a.u.
   SCALEE = 1.0000    scale energy and forces
   NPACO  =    256;   APACO  = 10.0  distance and # of slots for P.C.
   PSTRESS=    0.0 pullay stress

  Mass of Ions in am
   POMASS =  47.88 92.91178.49 14.00 12.01 91.22180.95
  Ionic Valenz
   ZVAL   =  12.00 13.00 10.00  5.00  4.00 12.00 11.00
  Atomic Wigner-Seitz radii
   RWIGS  =  -1.00 -1.00 -1.00 -1.00 -1.00 -1.00 -1.00
  virtual crystal weights 
   VCA    =   1.00  1.00  1.00  1.00  1.00  1.00  1.00
   NELECT =     513.0000    total number of electrons
   NUPDOWN=      -1.0000    fix difference up-down

 DOS related values:
   EMIN   =  10.00;   EMAX   =-10.00  energy-range for DOS
   EFERMI =   0.00;   METHOD = LEGACY      
   ISMEAR =     0;   SIGMA  =   0.10  broadening in eV -4-tet -1-fermi 0-gaus

 Electronic relaxation 2 (details)
   IALGO  =     68    algorithm
   LDIAG  =      T    sub-space diagonalisation (order eigenvalues)
   LSUBROT=      F    optimize rotation matrix (better conditioning)
   TURBO    =      0    0=normal 1=particle mesh
   IRESTART =      0    0=no restart 2=restart with 2 vectors
   NREBOOT  =      0    no. of reboots
   NMIN     =      0    reboot dimension
   EREF     =   0.00    reference energy to select bands
   IMIX   =      4    mixing-type and parameters
     AMIX     =   0.40;   BMIX     =  1.00
     AMIX_MAG =   1.60;   BMIX_MAG =  1.00
     AMIN     =   0.10
     WC   =   100.;   INIMIX=   1;  MIXPRE=   1;  MAXMIX= -45

 Intra band minimization:
   WEIMIN = 0.0010     energy-eigenvalue tresh-hold
   EBREAK =  0.81E-08  absolut break condition
   DEPER  =   0.30     relativ break condition  

   TIME   =   0.40     timestep for ELM

  volume/ion in A,a.u.               =      11.40        76.92
  Fermi-wavevector in a.u.,A,eV,Ry     =   1.455798  2.751060 28.835490  2.119349
  Thomas-Fermi vector in A             =   2.572791
 
 Write flags
   LWAVE        =      F    write WAVECAR
   LDOWNSAMPLE  =      F    k-point downsampling of WAVECAR
   LCHARG       =      F    write CHGCAR
   LVTOT        =      F    write LOCPOT, total local potential
   LVHAR        =      F    write LOCPOT, Hartree potential only
   WRT_POTENTIAL= false  ! write potential to hdf5 file
   LELF         =      F    write electronic localiz. function (ELF)
   LORBIT       =      0    0 simple, 1 ext, 2 COOP (PROOUT), +10 PAW based schemes


 Dipole corrections
   LMONO      =      F    monopole corrections only (constant potential shift)
   LDIPOL     =      F    correct potential (dipole corrections)
   IDIPOL     =      0    1-x, 2-y, 3-z, 4-all directions 
   EPSILON    =  1.0000000 bulk dielectric constant
   LVACPOTAV  =      F  vacuum potentials using an averaging scheme for the charge density
   VACPOTFLAT =  0.1000000 required flatness to determine vacuum potential
 Exchange correlation treatment:
   GGA     = PE    functional components
   XC_C    = 1    coefficients multiplying the functional components
   LIBXC   =     F    Libxc                    
   VOSKOWN =     0    Vosko Wilk Nusair interpolation
   LHFCALC =     F    Hartree Fock is set to
   LHFONE  =     F    Hartree Fock one center treatment
   AEXX    =    0.0000 exact exchange contribution

 Parameters of functionals:
   PE:
     No parameter
 
 Van der Waals corrections
   IVDW    =     0    specifies the selected vdW correction

 Linear response parameters
   LEPSILON=     F    determine dielectric tensor
   LRPA    =     F    only Hartree local field effects (RPA)
   LNABLA  =     F    use nabla operator in PAW spheres
   LVEL    =     F    velocity operator in full k-point grid
   CSHIFT  =0.1000    complex shift for real part using Kramers Kronig
   OMEGAMAX=  -1.0    maximum frequency
   DEG_THRESHOLD= 0.2000000E-02 threshold for treating states as degnerate
   RTIME   =   -0.100 relaxation time in fs
  (WPLASMAI=    0.000 imaginary part of plasma frequency in eV, 0.658/RTIME)
   DFIELD  = 0.0000000 0.0000000 0.0000000 field for delta impulse in time
 
  Optional k-point grid parameters
   LKPOINTS_OPT  =     F    use optional k-point grid
   KPOINTS_OPT_MODE=     1    mode for optional k-point grid
 
 Orbital magnetization related:
   ORBITALMAG=     F  switch on orbital magnetization
   LCHIMAG   =     F  perturbation theory with respect to B field
   DQ        =  0.001000  dq finite difference perturbation B field
   LLRAUG    =     F  two centre corrections for induced B field
   LBONE     =     F  B-component reconstruction in AE one-centre
   LVGVCALC  =     T  calculate vGv susceptibility
   LVGVAPPL  =     F  apply vGv susceptibility instead of pGv for G=0

 Random number generation:
   RANDOM_GENERATOR = DEFAULT
   PCG_SEED         = not used


--------------------------------------------------------------------------------------------------------


 conjugate gradient relaxation of ions
 charge density and potential will be updated during run
 non-spin polarized calculation
 RMM-DIIS sequential band-by-band and
  variant of blocked Davidson during initial phase
 perform sub-space diagonalisation
    before iterative eigenvector-optimisation
 modified Broyden-mixing scheme, WC =      100.0
 initial mixing is a Kerker type mixing with AMIX =  0.4000 and BMIX =      1.0000
 Hartree-type preconditioning will be used
 using additional bands           51
 reciprocal scheme for non local part
 use partial core corrections
 calculate Harris-corrections to forces 
   (improved forces if not selfconsistent)
 use gradient corrections 
 use of overlap-Matrix (Vanderbilt PP)
 Gauss-broadening in eV      SIGMA  =   0.10


--------------------------------------------------------------------------------------------------------


  energy-cutoff  :      400.00
  volume of cell :      729.52
      direct lattice vectors                 reciprocal lattice vectors
     8.981740482  0.003002421 -0.001318302     0.111337010 -0.000036833  0.000016429
     0.002990864  9.040842087  0.000611243    -0.000036976  0.110609178 -0.000007875
    -0.001325436  0.000639147  8.983982624     0.000016340 -0.000007531  0.111309212

  length of vectors
     8.981741081  9.040842602  8.983982744     0.111337018  0.110609185  0.111309213


 
 k-points in units of 2pi/SCALE and weight: HECN                                    
   0.00000000  0.00000000  0.00000000       0.037
   0.03711234 -0.00001228  0.00000548       0.074
  -0.00001233  0.03686973 -0.00000262       0.074
   0.03710001  0.03685745  0.00000285       0.074
  -0.03712466  0.03688200 -0.00000810       0.074
   0.00000545 -0.00000251  0.03710307       0.074
   0.03711778 -0.00001479  0.03710855       0.074
  -0.03710689  0.00000977  0.03709759       0.074
  -0.00000688  0.03686722  0.03710045       0.074
   0.03710546  0.03685494  0.03710592       0.074
  -0.03711922  0.03687949  0.03709497       0.074
   0.00001777 -0.03687224  0.03710570       0.074
   0.03713011 -0.03688451  0.03711117       0.074
  -0.03709456 -0.03685996  0.03710022       0.074
 
 k-points in reciprocal lattice and weights: HECN                                    
   0.00000000  0.00000000  0.00000000       0.037
   0.33333333  0.00000000  0.00000000       0.074
   0.00000000  0.33333333 -0.00000000       0.074
   0.33333333  0.33333333  0.00000000       0.074
  -0.33333333  0.33333333 -0.00000000       0.074
  -0.00000000 -0.00000000  0.33333333       0.074
   0.33333333  0.00000000  0.33333333       0.074
  -0.33333333  0.00000000  0.33333333       0.074
   0.00000000  0.33333333  0.33333333       0.074
   0.33333333  0.33333333  0.33333333       0.074
  -0.33333333  0.33333333  0.33333333       0.074
  -0.00000000 -0.33333333  0.33333333       0.074
   0.33333333 -0.33333333  0.33333333       0.074
  -0.33333333 -0.33333333  0.33333333       0.074
 
 position of ions in fractional coordinates (direct lattice) 
   0.00020198  0.99776398  0.01199979
   0.24335097  0.99645924  0.25122035
   0.25636450  0.50537613  0.24860313
   0.49937042  0.50015461  0.99937361
   0.49068499  0.25878873  0.75443522
   0.00379417  0.49962173  0.49760474
   0.49893801  0.73983614  0.74977415
   0.99903062  0.23860309  0.25989754
   0.75432275  0.74434720  0.99693073
   0.00485340  0.26409593  0.73844632
   0.75931875  0.26431460  0.50156459
   0.99900570  0.73667910  0.74909737
   0.25394934  0.49946688  0.75228009
   0.24674941  0.25195014  0.00208810
   0.49792776  0.25275477  0.24749151
   0.75441866  0.99739595  0.25013812
   0.75112982  0.25428459  0.99563967
   0.24874602  0.74843539  0.99977764
   0.24777147  0.25318173  0.49768615
   0.25020470  0.24949376  0.24945691
   0.24340150  0.00120563  0.00636600
   0.99987617  0.24201577  0.00017335
   0.74920365  0.25115523  0.24934900
   0.75633664  0.00353943  0.00180431
   0.50128156  0.00489956  0.24969106
   0.99721978  0.49970813  0.25636043
   0.49870735  0.74668527  0.99467255
   0.99723949  0.00269763  0.74861418
   0.74681312  0.25246008  0.74935119
   0.75512159  0.00143849  0.49816600
   0.50164852  0.25276058  0.50150350
   0.50254414  0.00219665  0.75010072
   0.00278020  0.99758368  0.24814079
   0.49941088  0.25281315  0.99694966
   0.24562492  0.74902615  0.24772702
   0.25413245  0.49944570  0.00491503
   0.99866106  0.75573694  0.00118479
   0.75334256  0.74661370  0.25116306
   0.74558348  0.50044526  0.00072325
   0.49974189  0.49837487  0.25021474
   0.25240038  0.25272892  0.75045009
   0.24530877  0.00269173  0.49407936
   0.00113581  0.25261804  0.49958473
   0.25326337  0.74690222  0.75288850
   0.24962339  0.49795407  0.49533222
   0.99584399  0.74945534  0.49851286
   0.99786942  0.50046275  0.74346998
   0.74597397  0.74569888  0.74926267
   0.75393600  0.50054968  0.49930472
   0.50416015  0.74532936  0.50631163
   0.50186922  0.49876009  0.75110763
   0.49905149  0.00113072  0.99694579
   0.00100109  0.50098237  0.00362134
   0.49887555  0.74856746  0.24961970
   0.24485922  0.99989016  0.74977251
   0.49798284  0.99819449  0.50281020
   0.75473270  0.99579102  0.74947638
   0.24832615  0.74627925  0.50098588
   0.00077496  0.75834811  0.25087401
   0.74477605  0.50466663  0.24868912
   0.00375016  0.00067042  0.49077054
   0.49848548  0.50031292  0.50104026
   0.74573929  0.50196192  0.75153869
   0.75145685  0.73624852  0.50287552
 
 position of ions in cartesian coordinates  (Angst):
   0.00478239  9.02063483  0.10841548
   2.18836252  9.00972187  2.25724749
   2.30378140  4.56995439  2.23341712
   4.48538676  4.52395695  8.97800255
   4.40697930  2.34162350  6.77734426
   0.03491304  4.51733062  4.47077271
   4.48255067  6.69071895  6.73575236
   8.97340288  2.16033846  2.33374385
   6.77603608  6.73242743  8.95586893
   0.04340311  2.38813614  6.63434390
   6.82012966  2.39222696  4.50520807
   8.97402039  6.66367759  6.72901108
   2.28140381  4.51684448  6.75844173
   2.21698994  2.27858361  0.01858814
   4.47268585  2.28676911  2.22295746
   6.77864416  9.01972424  2.24685167
   6.74589396  2.30183836  8.94397474
   2.23508552  6.76787199  8.98211447
   2.22551664  2.29003805  4.47103181
   2.24768928  2.25654435  2.24093916
   2.18616427  0.01163477  0.05687187
   8.98135190  2.19102851  0.00038718
   6.72957344  2.27306356  2.23931290
   6.79322765  0.03427144  0.01521499
   4.50206455  0.04596080  2.24256233
   8.95792401  4.52094026  2.30212846
   4.48017485  6.75279670  8.93591983
   8.95596210  0.02786144  6.72422373
   6.70744350  2.28517295  6.73132788
   6.78165014  0.01559073  4.47452009
   4.50576807  2.28699517  4.50499194
   4.51273340  0.02184786  6.73823068
   0.02762576  9.01916345  2.22989868
   4.48501365  2.28778045  8.95607458
   2.20805119  6.77272294  2.22570930
   2.28403898  4.51617582  0.04412680
   8.97197318  6.83549752  0.00978953
   6.76822750  6.75243890  2.25590776
   6.69813309  4.52668561  0.00582062
   4.48971090  4.50738888  2.24757073
   2.26675593  2.28611971  6.74185232
   2.20265286  0.02538784  4.43847864
   0.01029493  2.28420256  4.48841343
   2.27598185  6.75386660  6.76405989
   2.24288525  4.50299019  4.45003137
   8.94599307  6.77901594  4.47777615
   8.96311555  4.52807589  6.67831182
   6.70138175  6.74446443  6.73083517
   6.77249280  4.52797341  4.48505699
   4.52979375  6.74024239  4.54848582
   4.50815529  4.51119807  6.74758117
   4.48103300  0.01235820  8.95588643
   0.01048514  4.52930785  0.03283895
   4.48267870  6.76933755  2.24237897
   2.20125871  9.04106345  6.73623161
   4.47507166  9.02633528  4.51719176
   6.78079817  9.00553441  6.73289645
   2.23196899  6.74805866  4.50097719
   0.00889611  6.85626817  2.25431023
   6.69056493  4.56500640  2.23354539
   0.03303447  0.00638611  4.40906943
   4.47809951  4.52506702  4.50098562
   6.69854195  4.54087780  6.75113427
   6.75092589  6.65888422  4.51728434
 


--------------------------------------------------------------------------------------------------------


 k-point     1 :   0.0000 0.0000 0.0000  plane waves:   13229
 k-point     2 :   0.3333 0.0000 0.0000  plane waves:   13269
 k-point     3 :   0.0000 0.3333-0.0000  plane waves:   13280
 k-point     4 :   0.3333 0.3333 0.0000  plane waves:   13246
 k-point     5 :  -0.3333 0.3333-0.0000  plane waves:   13250
 k-point     6 :  -0.0000-0.0000 0.3333  plane waves:   13268
 k-point     7 :   0.3333 0.0000 0.3333  plane waves:   13259
 k-point     8 :  -0.3333 0.0000 0.3333  plane waves:   13260
 k-point     9 :   0.0000 0.3333 0.3333  plane waves:   13251
 k-point    10 :   0.3333 0.3333 0.3333  plane waves:   13240
 k-point    11 :  -0.3333 0.3333 0.3333  plane waves:   13240
 k-point    12 :  -0.0000-0.3333 0.3333  plane waves:   13247
 k-point    13 :   0.3333-0.3333 0.3333  plane waves:   13244
 k-point    14 :  -0.3333-0.3333 0.3333  plane waves:   13238

 maximum and minimum number of plane-waves per node :     13280    13229

 maximum number of plane-waves:     13280
 maximum index in each direction: 
   IXMAX=   14   IYMAX=   15   IZMAX=   14
   IXMIN=  -14   IYMIN=  -15   IZMIN=  -14


 serial   3D FFT for wavefunctions
 parallel 3D FFT for charge:
    minimum data exchange during FFTs selected (reduces bandwidth)


 total amount of memory used by VASP MPI-rank0   276883. kBytes
=======================================================================

   base      :      30000. kBytes
   nonl-proj :     201308. kBytes
   fftplans  :       1680. kBytes
   grid      :       8060. kBytes
   one-center:        995. kBytes
   wavefun   :      34840. kBytes
 
     INWAV:  cpu time      0.0000: real time      0.0003
 Broyden mixing: mesh for mixing (old mesh)
   NGX = 29   NGY = 29   NGZ = 29
  (NGX  = 96   NGY  = 96   NGZ  = 96)
  gives a total of  24389 points

 initial charge density was supplied:
 charge density of overlapping atoms calculated
 number of electron     513.0000000 magnetization 
 keeping initial charge density in first step


--------------------------------------------------------------------------------------------------------


 Maximum index for augmentation-charges          583 (set IRDMAX)


--------------------------------------------------------------------------------------------------------


 First call to EWALD:  gamma=   0.197
 Maximum number of real-space cells 3x 3x 3
 Maximum number of reciprocal cells 3x 3x 3

    FEWALD:  cpu time      0.0020: real time      0.0022


--------------------------------------- Ionic step        1  -------------------------------------------




--------------------------------------- Iteration      1(   1)  ---------------------------------------


    POTLOK:  cpu time      0.0231: real time      0.0307
    SETDIJ:  cpu time      0.0058: real time      0.0087
     EDDAV:  cpu time     20.4052: real time     20.4800
       DOS:  cpu time      0.0018: real time      0.0063
    --------------------------------------------
      LOOP:  cpu time     20.4359: real time     20.5257

 eigenvalue-minimisations  :  8624
 total energy-change (2. order) : 0.5457568E+04  (-0.2219686E+05)
 number of electron     513.0000000 magnetization 
 augmentation part      513.0000000 magnetization 

 Free energy of the ion-electron system (eV)
  ---------------------------------------------------
  alpha Z        PSCENC =      4317.66593060
  Ewald energy   TEWEN  =    -42079.68132153
  -Hartree energ DENC   =     -7285.47408565
  -exchange      EXHF   =         0.00000000
  -V(xc)+E(xc)   XCENC  =      1929.03547850
  PAW double counting   =     28773.94016443   -28258.60863024
  entropy T*S    EENTRO =        -0.06506742
  eigenvalues    EBANDS =       967.48619180
  atomic energy  EATOM  =     47093.26909977
  Solvation  Ediel_sol  =         0.00000000
  ---------------------------------------------------
  free energy    TOTEN  =      5457.56776027 eV

  energy without entropy =     5457.63282768  energy(sigma->0) =     5457.60029398


--------------------------------------------------------------------------------------------------------




--------------------------------------- Iteration      1(   2)  ---------------------------------------


     EDDAV:  cpu time     21.0971: real time     21.5822
       DOS:  cpu time      0.0009: real time      0.0009
    --------------------------------------------
      LOOP:  cpu time     21.0980: real time     21.5831

 eigenvalue-minimisations  :  9128
 total energy-change (2. order) :-0.5335819E+04  (-0.5182697E+04)
 number of electron     513.0000000 magnetization 
 augmentation part      513.0000000 magnetization 

 Free energy of the ion-electron system (eV)
  ---------------------------------------------------
  alpha Z        PSCENC =      4317.66593060
  Ewald energy   TEWEN  =    -42079.68132153
  -Hartree energ DENC   =     -7285.47408565
  -exchange      EXHF   =         0.00000000
  -V(xc)+E(xc)   XCENC  =      1929.03547850
  PAW double counting   =     28773.94016443   -28258.60863024
  entropy T*S    EENTRO =        -0.09338756
  eigenvalues    EBANDS =     -4368.30442933
  atomic energy  EATOM  =     47093.26909977
  Solvation  Ediel_sol  =         0.00000000
  ---------------------------------------------------
  free energy    TOTEN  =       121.74881901 eV

  energy without entropy =      121.84220656  energy(sigma->0) =      121.79551278


--------------------------------------------------------------------------------------------------------




--------------------------------------- Iteration      1(   3)  ---------------------------------------


     EDDAV:  cpu time     29.8698: real time     30.0914
       DOS:  cpu time      0.0009: real time      0.0009
    --------------------------------------------
      LOOP:  cpu time     29.8707: real time     30.0923

 eigenvalue-minimisations  : 13636
 total energy-change (2. order) :-0.8172552E+03  (-0.7888560E+03)
 number of electron     513.0000000 magnetization 
 augmentation part      513.0000000 magnetization 

 Free energy of the ion-electron system (eV)
  ---------------------------------------------------
  alpha Z        PSCENC =      4317.66593060
  Ewald energy   TEWEN  =    -42079.68132153
  -Hartree energ DENC   =     -7285.47408565
  -exchange      EXHF   =         0.00000000
  -V(xc)+E(xc)   XCENC  =      1929.03547850
  PAW double counting   =     28773.94016443   -28258.60863024
  entropy T*S    EENTRO =        -0.06499615
  eigenvalues    EBANDS =     -5185.58802738
  atomic energy  EATOM  =     47093.26909977
  Solvation  Ediel_sol  =         0.00000000
  ---------------------------------------------------
  free energy    TOTEN  =      -695.50638765 eV

  energy without entropy =     -695.44139149  energy(sigma->0) =     -695.47388957


--------------------------------------------------------------------------------------------------------




--------------------------------------- Iteration      1(   4)  ---------------------------------------


     EDDAV:  cpu time     31.6168: real time     31.8557
       DOS:  cpu time      0.0009: real time      0.0027
    --------------------------------------------
      LOOP:  cpu time     31.6177: real time     31.8584

 eigenvalue-minimisations  : 14700
 total energy-change (2. order) :-0.8437999E+02  (-0.8312920E+02)
 number of electron     513.0000000 magnetization 
 augmentation part      513.0000000 magnetization 

 Free energy of the ion-electron system (eV)
  ---------------------------------------------------
  alpha Z        PSCENC =      4317.66593060
  Ewald energy   TEWEN  =    -42079.68132153
  -Hartree energ DENC   =     -7285.47408565
  -exchange      EXHF   =         0.00000000
  -V(xc)+E(xc)   XCENC  =      1929.03547850
  PAW double counting   =     28773.94016443   -28258.60863024
  entropy T*S    EENTRO =        -0.09026406
  eigenvalues    EBANDS =     -5269.94275041
  atomic energy  EATOM  =     47093.26909977
  Solvation  Ediel_sol  =         0.00000000
  ---------------------------------------------------
  free energy    TOTEN  =      -779.88637858 eV

  energy without entropy =     -779.79611452  energy(sigma->0) =     -779.84124655


--------------------------------------------------------------------------------------------------------




--------------------------------------- Iteration      1(   5)  ---------------------------------------


     EDDAV:  cpu time     35.4253: real time     36.0371
       DOS:  cpu time      0.0008: real time      0.0008
    CHARGE:  cpu time      0.1770: real time      0.1814
    MIXING:  cpu time      0.0018: real time      0.0062
    --------------------------------------------
      LOOP:  cpu time     35.6050: real time     36.2255

 eigenvalue-minimisations  : 16744
 total energy-change (2. order) :-0.9147055E+01  (-0.9097678E+01)
 number of electron     512.9999989 magnetization 
 augmentation part       91.2383464 magnetization 

 Broyden mixing:
  rms(total) = 0.60203E+01    rms(broyden)= 0.60187E+01
  rms(prec ) = 0.94270E+01
  weight for this iteration     100.00

 Free energy of the ion-electron system (eV)
  ---------------------------------------------------
  alpha Z        PSCENC =      4317.66593060
  Ewald energy   TEWEN  =    -42079.68132153
  -Hartree energ DENC   =     -7285.47408565
  -exchange      EXHF   =         0.00000000
  -V(xc)+E(xc)   XCENC  =      1929.03547850
  PAW double counting   =     28773.94016443   -28258.60863024
  entropy T*S    EENTRO =        -0.09676006
  eigenvalues    EBANDS =     -5279.08330977
  atomic energy  EATOM  =     47093.26909977
  Solvation  Ediel_sol  =         0.00000000
  ---------------------------------------------------
  free energy    TOTEN  =      -789.03343394 eV

  energy without entropy =     -788.93667388  energy(sigma->0) =     -788.98505391


--------------------------------------------------------------------------------------------------------




--------------------------------------- Iteration      1(   6)  ---------------------------------------


    POTLOK:  cpu time      0.0195: real time      0.0197
    SETDIJ:  cpu time      0.0052: real time      0.0052
    EDDIAG:  cpu time      1.3717: real time      1.3975
  RMM-DIIS:  cpu time     18.2430: real time     18.5625
    ORTHCH:  cpu time      0.3380: real time      0.3418
       DOS:  cpu time      0.0008: real time      0.0008
    CHARGE:  cpu time      0.1720: real time      0.1728
    MIXING:  cpu time      0.0018: real time      0.0021
    --------------------------------------------
      LOOP:  cpu time     20.1521: real time     20.5024

 eigenvalue-minimisations  : 12359
 total energy-change (2. order) : 0.1464054E+03  (-0.6302640E+02)
 number of electron     513.0000002 magnetization 
 augmentation part       97.3343403 magnetization 

 Broyden mixing:
  rms(total) = 0.15034E+01    rms(broyden)= 0.15018E+01
  rms(prec ) = 0.22734E+01
  weight for this iteration     100.00

 eigenvalues of (default mixing * dielectric matrix)
  average eigenvalue GAMMA=   0.9294
  0.9294

 Free energy of the ion-electron system (eV)
  ---------------------------------------------------
  alpha Z        PSCENC =      4317.66593060
  Ewald energy   TEWEN  =    -42079.68132153
  -Hartree energ DENC   =     -6854.38495613
  -exchange      EXHF   =         0.00000000
  -V(xc)+E(xc)   XCENC  =      1925.60262020
  PAW double counting   =     28177.43725780   -27729.24634195
  entropy T*S    EENTRO =        -0.10029682
  eigenvalues    EBANDS =     -5493.18997665
  atomic energy  EATOM  =     47093.26909977
  Solvation  Ediel_sol  =         0.00000000
  ---------------------------------------------------
  free energy    TOTEN  =      -642.62798472 eV

  energy without entropy =     -642.52768790  energy(sigma->0) =     -642.57783631


--------------------------------------------------------------------------------------------------------




--------------------------------------- Iteration      1(   7)  ---------------------------------------


    POTLOK:  cpu time      0.0176: real time      0.0177
    SETDIJ:  cpu time      0.0051: real time      0.0052
    EDDIAG:  cpu time      1.4013: real time      1.4165
  RMM-DIIS:  cpu time     19.7392: real time     20.1608
    ORTHCH:  cpu time      0.3527: real time      0.3597
       DOS:  cpu time      0.0008: real time      0.0008
    CHARGE:  cpu time      0.1711: real time      0.1725
    MIXING:  cpu time      0.0010: real time      0.0010
    --------------------------------------------
      LOOP:  cpu time     21.6887: real time     22.1343

 eigenvalue-minimisations  : 13397
 total energy-change (2. order) :-0.9781353E+01  (-0.1781100E+02)
 number of electron     513.0000005 magnetization 
 augmentation part       94.6795858 magnetization 

 Broyden mixing:
  rms(total) = 0.10590E+01    rms(broyden)= 0.10583E+01
  rms(prec ) = 0.14860E+01
  weight for this iteration     100.00

 eigenvalues of (default mixing * dielectric matrix)
  average eigenvalue GAMMA=   0.8144
  0.8144  0.8144

 Free energy of the ion-electron system (eV)
  ---------------------------------------------------
  alpha Z        PSCENC =      4317.66593060
[...]
  0.012  -0.022   0.000  -0.002   0.000   0.001  -0.005   0.004   0.009   0.006  -0.004   0.520  -0.008   0.001   0.002   0.002
  0.031  -0.053   0.011   0.001   0.000   0.038   0.005   0.003   0.012  -0.006   0.037  -0.008   0.568   0.002  -0.003  -0.007
  0.001  -0.001   0.002  -0.000  -0.006   0.001   0.000  -0.002  -0.196  -0.001   0.000   0.001   0.002   0.171  -0.001   0.000
 -0.004   0.005   0.003  -0.004  -0.000  -0.008   0.004  -0.000  -0.001  -0.203   0.001   0.002  -0.003  -0.001   0.172  -0.002
 -0.008   0.003  -0.001  -0.029  -0.000  -0.006  -0.082   0.002   0.000   0.001  -0.473   0.002  -0.007   0.000  -0.002   0.496
  0.001   0.002  -0.000   0.002   0.006   0.000   0.002  -0.002   0.001   0.002   0.002  -0.197   0.000  -0.001  -0.000   0.000
 -0.000   0.005  -0.005   0.001   0.002  -0.016   0.002  -0.000   0.002  -0.003  -0.006   0.000  -0.482  -0.003   0.002  -0.007


------------------------ aborting loop because EDIFF is reached ----------------------------------------


    CHARGE:  cpu time      0.1704: real time      0.1718
    FORLOC:  cpu time      0.0075: real time      0.0075
    FORNL :  cpu time      6.3987: real time      6.4588
    STRESS:  cpu time     25.9458: real time     26.3070
    FORCOR:  cpu time      0.0211: real time      0.0213
    FORHAR:  cpu time      0.0153: real time      0.0153
    MIXING:  cpu time      0.0013: real time      0.0013
    OFIELD:  cpu time      0.0001: real time      0.0001

  FORCE on cell =-STRESS in cart. coord.  units (eV):
  Direction    XX          YY          ZZ          XY          YZ          ZX
  --------------------------------------------------------------------------------------
  Alpha Z  4319.79387  4319.79387  4319.79387
  Ewald  -13955.67245-14166.71713-13964.36372     4.73735    10.46371    -6.73942
  Hartree  2311.44666  2224.94497  2309.28644    12.35767    10.51138    -6.19626
  E(xc)   -2243.45143 -2243.89648 -2243.38262    -0.02498     0.02568     0.01774
  Local    2356.90890  2648.39076  2362.65290   -16.15118   -22.63085    12.16542
  n-local -1444.47201 -1452.20959 -1448.22645    -0.30800    -0.95868    -0.00271
  augment   851.59704   852.16402   852.89872    -0.25235     0.26364     0.13218
  Kinetic  7804.01037  7817.70712  7811.58063    -0.34736     2.31815     0.61187
  Fock        0.00000     0.00000     0.00000     0.00000     0.00000     0.00000
  -------------------------------------------------------------------------------------
  Total       0.16096     0.17754     0.23977     0.01115    -0.00697    -0.01118
  in kB       0.35367     0.39011     0.52683     0.02451    -0.01532    -0.02457
  external pressure =        0.42 kB  Pullay stress =        0.00 kB


 VOLUME and BASIS-vectors are now :
 -----------------------------------------------------------------------------
  energy-cutoff  :      400.00
  volume of cell :      729.16
      direct lattice vectors                 reciprocal lattice vectors
     8.979801144  0.003031103 -0.001320775     0.111361056 -0.000037202  0.000016462
     0.003019607  9.039280141  0.000589045    -0.000037343  0.110628291 -0.000007604
    -0.001327753  0.000617034  8.983048350     0.000016376 -0.000007260  0.111320789

  length of vectors
     8.979801753  9.039280665  8.983048469     0.111361063  0.110628298  0.111320790


 FORCES acting on ions
    electron-ion (+dipol)            ewald-force                    non-local-force                 convergence-correction
 -----------------------------------------------------------------------------------------------
   0.316E+01 0.644E+01 0.416E+02   -.282E+01 -.719E+01 -.406E+02   -.344E+00 0.745E+00 -.105E+01   0.939E-02 0.172E-02 0.588E-02
   -.858E+02 0.993E+01 -.222E+02   0.850E+02 -.114E+02 0.232E+02   0.842E+00 0.145E+01 -.976E+00   -.186E-02 0.415E-02 0.670E-02
   -.169E+02 0.848E+01 0.868E+01   0.181E+02 -.689E+01 -.900E+01   -.112E+01 -.158E+01 0.324E+00   -.448E-03 -.401E-02 0.173E-02
   -.268E+01 0.569E+02 -.578E+02   0.190E+01 -.580E+02 0.579E+02   0.785E+00 0.114E+01 -.684E-01   -.466E-02 -.923E-02 -.891E-02
   -.446E+01 0.455E+02 -.715E+01   0.277E+01 -.444E+02 0.886E+01   0.170E+01 -.110E+01 -.172E+01   -.523E-02 0.125E-02 -.625E-03
   -.106E+02 -.495E+02 0.291E+02   0.118E+02 0.498E+02 -.294E+02   -.122E+01 -.278E+00 0.229E+00   0.751E-02 -.212E-02 0.301E-02
   0.954E+01 -.510E+02 0.384E+02   -.103E+02 0.498E+02 -.390E+02   0.775E+00 0.121E+01 0.654E+00   -.207E-02 -.915E-03 -.128E-03
   0.425E+01 -.352E+02 0.522E+02   -.416E+01 0.351E+02 -.520E+02   -.104E+00 0.138E+00 -.185E+00   0.140E-01 -.115E-01 0.926E-02
   0.930E+01 -.166E+02 -.585E+02   -.909E+01 0.161E+02 0.582E+02   -.213E+00 0.483E+00 0.214E+00   0.445E-02 -.907E-02 -.375E-02
   -.211E+02 0.578E+02 -.656E+02   0.215E+02 -.574E+02 0.652E+02   -.368E+00 -.411E+00 0.385E+00   0.965E-02 0.115E-01 -.103E-01
   0.933E+02 0.523E+02 0.405E+02   -.933E+02 -.519E+02 -.403E+02   -.801E-01 -.454E+00 -.244E+00   0.617E-02 0.435E-02 0.673E-02
   -.210E+02 -.617E+02 0.424E+01   0.210E+02 0.612E+02 -.429E+01   -.799E-01 0.598E+00 0.494E-01   0.367E-02 -.124E-01 -.164E-02
   -.447E+01 0.161E+01 -.102E+02   0.473E+01 -.158E+01 0.104E+02   -.268E+00 -.192E-01 -.149E+00   0.847E-02 -.818E-02 -.523E-03
   -.427E+02 -.352E+01 -.274E+01   0.439E+02 0.481E+01 0.202E+01   -.113E+01 -.130E+01 0.720E+00   0.531E-02 -.598E-03 -.533E-03
   -.145E+02 0.101E+02 0.149E+02   0.140E+02 -.906E+01 -.166E+02   0.517E+00 -.101E+01 0.169E+01   -.947E-02 -.475E-02 -.133E-02
   0.595E+02 0.154E+02 -.151E+02   -.586E+02 -.168E+02 0.151E+02   -.918E+00 0.134E+01 0.495E-01   0.422E-03 0.132E-02 0.197E-02
   0.414E+02 -.195E+01 -.386E+02   -.425E+02 0.315E+01 0.383E+02   0.110E+01 -.121E+01 0.309E+00   -.488E-02 0.281E-02 -.486E-02
   0.748E+01 -.259E+01 -.149E+02   -.845E+01 0.106E+01 0.151E+02   0.971E+00 0.152E+01 -.137E+00   -.527E-03 0.797E-03 0.233E-02
   -.562E+02 0.271E+02 0.245E+01   0.551E+02 -.268E+02 -.167E+01   0.107E+01 -.368E+00 -.783E+00   0.863E-03 -.477E-02 0.395E-03
   -.443E+02 -.804E+01 0.377E+01   0.447E+02 0.852E+01 -.361E+01   -.325E+00 -.473E+00 -.167E+00   -.115E-02 -.755E-02 0.877E-03
   -.312E+02 -.110E+01 0.174E+02   0.307E+02 0.915E+00 -.171E+02   0.457E+00 0.183E+00 -.277E+00   0.568E-02 0.208E-02 0.757E-02
   0.650E+01 -.190E+02 0.666E+01   -.674E+01 0.184E+02 -.742E+01   0.239E+00 0.659E+00 0.752E+00   0.249E-02 0.555E-02 0.789E-03
   0.521E+02 0.105E+02 0.377E+02   -.529E+02 -.112E+02 -.386E+02   0.740E+00 0.746E+00 0.891E+00   0.952E-03 -.719E-03 -.206E-02
   0.317E+02 -.257E+02 -.221E+02   -.312E+02 0.259E+02 0.219E+02   -.446E+00 -.152E+00 0.152E+00   -.607E-02 0.110E-02 -.159E-02
   -.200E+02 -.156E+02 -.442E+01   0.188E+02 0.152E+02 0.462E+01   0.121E+01 0.430E+00 -.197E+00   -.953E-02 0.109E-02 0.470E-03
   0.474E+01 -.182E+02 0.263E+02   -.258E+01 0.176E+02 -.256E+02   -.216E+01 0.541E+00 -.707E+00   0.325E-02 -.197E-02 -.101E-02
   0.201E+02 -.218E+02 -.248E+02   -.206E+02 0.210E+02 0.244E+02   0.470E+00 0.796E+00 0.436E+00   -.143E-02 0.226E-02 -.711E-03
   -.111E+02 0.483E+01 0.608E+01   0.114E+02 -.480E+01 -.382E+01   -.289E+00 -.286E-01 -.225E+01   0.159E-02 0.663E-03 -.566E-02
   0.192E+02 0.149E+02 -.342E+02   -.207E+02 -.167E+02 0.348E+02   0.160E+01 0.179E+01 -.635E+00   -.690E-02 0.571E-03 0.217E-02
   0.167E+02 0.256E+02 0.237E+02   -.183E+02 -.255E+02 -.237E+02   0.160E+01 -.133E+00 -.112E-01   0.407E-03 -.821E-03 0.150E-02
   0.177E+02 0.124E+02 0.318E+02   -.179E+02 -.142E+02 -.308E+02   0.159E+00 0.178E+01 -.105E+01   -.571E-02 -.113E-02 0.709E-02
   0.751E+01 -.140E+01 0.563E+01   -.772E+01 0.125E+01 -.592E+01   0.211E+00 0.134E+00 0.290E+00   -.193E-02 0.722E-02 -.247E-03
   0.261E+02 0.210E+02 -.161E+02   -.256E+02 -.210E+02 0.149E+02   -.471E+00 -.224E-01 0.114E+01   0.900E-02 0.214E-02 0.592E-02
   -.514E+01 0.120E+02 -.337E+02   0.506E+01 -.117E+02 0.334E+02   0.913E-01 -.368E+00 0.245E+00   -.212E-02 -.133E-02 -.576E-02
   -.537E+01 -.112E+01 0.723E+01   0.616E+01 0.833E+00 -.702E+01   -.790E+00 0.285E+00 -.214E+00   -.115E-03 0.621E-02 0.151E-02
   0.745E+01 0.307E+01 -.855E+01   -.732E+01 -.292E+01 0.929E+01   -.132E+00 -.151E+00 -.737E+00   -.148E-02 -.190E-02 -.593E-03
   -.278E+02 0.105E+02 -.129E+02   0.285E+02 -.104E+02 0.125E+02   -.778E+00 -.952E-01 0.369E+00   0.780E-03 -.467E-02 -.790E-03
   0.582E+01 -.182E+02 -.197E+02   -.650E+01 0.189E+02 0.196E+02   0.675E+00 -.669E+00 0.119E+00   0.155E-03 0.462E-03 -.298E-03
   -.576E+01 0.325E+02 -.130E+02   0.548E+01 -.331E+02 0.130E+02   0.281E+00 0.562E+00 0.426E-01   0.151E-02 -.455E-03 -.214E-02
   -.116E+02 0.176E+02 -.103E+02   0.104E+02 -.173E+02 0.926E+01   0.119E+01 -.243E+00 0.108E+01   -.255E-02 -.119E-02 0.857E-03
   -.377E+01 0.266E+02 -.231E+01   0.460E+01 -.271E+02 0.218E+01   -.841E+00 0.556E+00 0.129E+00   0.582E-02 0.375E-03 -.630E-03
   -.164E+02 -.677E+01 -.139E+02   0.174E+02 0.650E+01 0.139E+02   -.938E+00 0.262E+00 0.546E-01   -.566E-03 0.946E-03 -.614E-02
   -.293E+02 0.233E+02 0.758E+00   0.302E+02 -.222E+02 -.623E+00   -.900E+00 -.110E+01 -.134E+00   0.416E-02 -.186E-02 -.666E-03
   0.481E+00 -.258E+02 -.831E+01   0.273E+00 0.264E+02 0.810E+01   -.753E+00 -.564E+00 0.206E+00   -.392E-03 -.225E-03 -.134E-02
   -.216E+02 0.103E+02 0.798E+01   0.204E+02 -.100E+02 -.874E+01   0.122E+01 -.289E+00 0.757E+00   0.522E-03 -.109E-02 0.480E-03
   0.712E+01 -.221E+02 0.158E+02   -.609E+01 0.211E+02 -.155E+02   -.103E+01 0.104E+01 -.344E+00   0.248E-02 0.151E-02 0.800E-03
   0.948E+01 -.262E+01 -.215E+02   -.907E+01 0.276E+01 0.212E+02   -.418E+00 -.143E+00 0.342E+00   0.908E-03 -.459E-03 0.880E-03
   0.532E+01 -.121E+02 0.214E+02   -.616E+01 0.129E+02 -.212E+02   0.835E+00 -.817E+00 -.223E+00   0.270E-03 -.688E-03 0.400E-03
   0.251E+02 -.238E+02 0.123E+02   -.239E+02 0.238E+02 -.123E+02   -.123E+01 0.145E-01 -.385E-01   -.324E-03 0.554E-03 0.205E-02
   -.619E+01 -.114E+02 0.230E+02   0.503E+01 0.122E+02 -.229E+02   0.116E+01 -.891E+00 -.136E+00   -.244E-02 0.867E-03 0.475E-03
   -.124E+02 0.467E+01 0.126E+02   0.120E+02 -.465E+01 -.115E+02   0.411E+00 -.134E-01 -.110E+01   -.141E-02 -.666E-02 -.964E-03
   -.218E+01 -.421E+02 -.445E+02   0.186E+01 0.438E+02 0.440E+02   0.318E+00 -.161E+01 0.498E+00   -.791E-02 0.725E-02 -.806E-03
   -.411E+01 0.946E+01 -.246E+02   0.494E+01 -.810E+01 0.244E+02   -.838E+00 -.136E+01 0.166E+00   0.285E-02 -.175E-02 -.340E-02
   -.183E+02 -.247E+02 -.384E+02   0.174E+02 0.232E+02 0.394E+02   0.948E+00 0.150E+01 -.100E+01   -.909E-02 0.622E-02 0.135E-02
   -.225E+02 -.492E+00 0.170E+02   0.221E+02 0.320E+00 -.184E+02   0.394E+00 0.166E+00 0.137E+01   0.600E-02 0.652E-02 -.575E-02
   -.191E+00 0.458E+01 0.425E+02   -.184E+01 -.602E+01 -.419E+02   0.204E+01 0.144E+01 -.547E+00   -.112E-01 0.491E-02 0.504E-03
   0.268E+02 -.222E+01 0.155E+02   -.263E+02 0.920E+00 -.155E+02   -.513E+00 0.130E+01 -.168E-01   -.546E-02 0.269E-02 -.209E-02
   -.260E+02 -.382E+02 0.202E+02   0.261E+02 0.378E+02 -.204E+02   -.158E+00 0.419E+00 0.203E+00   -.131E-02 0.573E-02 -.294E-02
   0.177E+02 0.294E+02 -.114E+02   -.167E+02 -.287E+02 0.113E+02   -.985E+00 -.740E+00 0.789E-01   0.938E-02 0.491E-02 0.312E-02
   0.301E+02 0.302E+01 0.114E+02   -.311E+02 -.160E+01 -.120E+02   0.102E+01 -.142E+01 0.588E+00   0.854E-03 -.108E-02 -.215E-02
   0.312E+01 0.448E+02 -.282E+02   -.128E+01 -.451E+02 0.273E+02   -.185E+01 0.333E+00 0.933E+00   0.120E-01 0.222E-02 -.536E-02
   -.288E+01 -.166E+01 0.484E+02   0.158E+01 0.310E+01 -.486E+02   0.130E+01 -.143E+01 0.165E+00   -.652E-02 -.429E-02 0.743E-02
   0.975E+01 0.616E+01 -.120E+02   -.102E+02 -.501E+01 0.127E+02   0.480E+00 -.115E+01 -.653E+00   -.290E-02 -.270E-02 0.208E-02
   0.248E+02 -.558E+02 0.505E+02   -.249E+02 0.545E+02 -.504E+02   0.906E-01 0.126E+01 -.705E-01   0.169E-02 0.115E-02 0.369E-02
 -----------------------------------------------------------------------------------------------
   -.523E+01 -.322E+01 0.198E+00   -.199E-12 -.313E-12 -.412E-12   0.521E+01 0.323E+01 -.204E+00   0.250E-01 -.700E-02 0.439E-02
 
 
 POSITION                                       TOTAL-FORCE (eV/Angst)
 -----------------------------------------------------------------------------------
      0.00482      9.01907      0.10835         0.000405     -0.000766     -0.001262
      2.18787      9.00817      2.25700        -0.000716      0.000709      0.000273
      2.30339      4.56915      2.23318         0.004678     -0.001584     -0.000597
      4.48438      4.52314      8.97704        -0.002616     -0.002280     -0.001153
      4.40604      2.34127      6.77656         0.001277      0.002495     -0.004912
      0.03494      4.51651      4.47027         0.002924     -0.000311     -0.002347
      4.48161      6.68958      6.73511         0.000043      0.002741      0.004548
      8.97146      2.15978      2.33369         0.000158      0.001869     -0.001276
      6.77469      6.73114      8.95493        -0.000980      0.000047      0.002737
      0.04350      2.38804      6.63334        -0.004102     -0.000473     -0.000804
      6.81898      2.39208      4.50476        -0.000133     -0.001789      0.001377
      8.97213      6.66235      6.72831        -0.001137     -0.000447      0.000571
      2.28101      4.51605      6.75775         0.000819      0.000722      0.000459
      2.21651      2.27818      0.01856        -0.000499     -0.001425     -0.000915
      4.47176      2.28640      2.22274         0.002410      0.000266      0.001618
      6.77722      9.01813      2.24658        -0.001071     -0.002024     -0.001150
      6.74438      2.30143      8.94305        -0.002046     -0.001773      0.000108
      2.23456      6.76670      8.98118        -0.002556      0.001477      0.000866
      2.22502      2.28964      4.47055         0.001417      0.000071     -0.001442
      2.24725      2.25616      2.24067         0.000809     -0.000112     -0.001611
      2.18568      0.01164      0.05684        -0.001951      0.000181      0.000151
      8.97938      2.19070      0.00037        -0.001423     -0.001226     -0.000793
      6.72810      2.27269      2.23900         0.000673     -0.000017      0.001125
      6.79166      0.03433      0.01520        -0.004008     -0.001581     -0.000728
      4.50115      0.04598      2.24234         0.000904      0.000800      0.000981
      8.95597      4.52020      2.30184         0.000955     -0.000092     -0.000024
      4.47914      6.75167      8.93499        -0.001679      0.000962     -0.001037
      8.95397      0.02784      6.72352        -0.001783     -0.001419      0.001429
      6.70597      2.28477      6.73070        -0.001417     -0.001209     -0.001675
      6.78018      0.01554      4.47406        -0.000085     -0.000046      0.001601
      4.50473      2.28662      4.50451         0.001305      0.001067      0.002203
      4.51175      0.02184      6.73755        -0.000589     -0.000256      0.000996
      0.02758      9.01755      2.22968        -0.000743     -0.001903     -0.001667
      4.48405      2.28737      8.95517        -0.000177      0.001576     -0.001453
      2.20759      6.77154      2.22548         0.000817     -0.000794      0.001020
      2.28349      4.51540      0.04409        -0.001049     -0.000227     -0.000006
      8.97007      6.83425      0.00979        -0.000855     -0.002876     -0.000354
      6.76677      6.75129      2.25569        -0.000313      0.000833     -0.000753
      6.69674      4.52586      0.00579         0.000668     -0.001092     -0.001277
      4.48881      4.50664      2.24731        -0.000501      0.001562     -0.002504
      2.26623      2.28571      6.74118        -0.001107     -0.000002      0.000997
      2.20218      0.02538      4.43804         0.002378     -0.000130     -0.000088
      0.01035      2.28378      4.48795         0.002092      0.000947     -0.000359
      2.27549      6.75268      6.76335         0.000034     -0.000017      0.000596
      2.24248      4.50222      4.44956         0.001665      0.001578     -0.001176
      8.94410      6.77786      4.47731         0.002871     -0.001461      0.001702
      8.96118      4.52726      6.67762         0.000985     -0.001450     -0.000769
      6.69996      6.74330      6.73010         0.000295      0.001047      0.001372
      6.77102      4.52725      4.48458         0.001111     -0.000569     -0.000028
      4.52885      6.73912      4.54796         0.000984      0.003503     -0.000077
      4.50718      4.51047      6.74686        -0.000985      0.002567      0.001456
      4.48000      0.01238      8.95499        -0.002319      0.001037      0.001725
      0.01044      4.52850      0.03278        -0.001472     -0.003502     -0.001183
      4.48178      6.76814      2.24209         0.001873      0.000466     -0.002496
      2.20082      9.03950      6.73553         0.001192      0.000163      0.001851
      4.47411      9.02478      4.51670         0.001191      0.000778     -0.000016
      6.77933      9.00394      6.73221        -0.001687     -0.001398      0.002614
      2.23154      6.74690      4.50050         0.001912      0.000652      0.000355
      0.00890      6.85509      2.25404        -0.000346     -0.002480     -0.000929
      6.68903      4.56424      2.23330        -0.002517     -0.001483     -0.000828
      0.03310      0.00642      4.40864         0.001720      0.000880      0.004120
      4.47713      4.52434      4.50054        -0.000151      0.002130      0.002372
      6.69710      4.54011      6.75041        -0.000153     -0.000810     -0.000409
      6.74953      6.65778      4.51674         0.002603      0.005895     -0.003128
 -----------------------------------------------------------------------------------
    total drift:                                0.006534      0.007739     -0.001713


--------------------------------------------------------------------------------------------------------



  FREE ENERGIE OF THE ION-ELECTRON SYSTEM (eV)
  ---------------------------------------------------
  free  energy   TOTEN  =      -659.65983339 eV

  energy  without entropy=     -659.55736256  energy(sigma->0) =     -659.60859797
 
 d Force = 0.3504433E-04[-0.983E-05, 0.799E-04]  d Energy = 0.8956687E-03-0.861E-03
 d Force = 0.1416388E+00[ 0.141E+00, 0.142E+00]  d Ewald  =-0.1331514E+02 0.135E+02


--------------------------------------------------------------------------------------------------------


    POTLOK:  cpu time      0.0287: real time      0.0287


--------------------------------------------------------------------------------------------------------




--------------------------------------------------------------------------------------------------------


  
 reached required accuracy - stopping structural energy minimisation
     LOOP+:  cpu time    185.0649: real time    187.8073
    4ORBIT:  cpu time      0.0000: real time      0.0000

 total amount of memory used by VASP MPI-rank0   276883. kBytes
=======================================================================

   base      :      30000. kBytes
   nonl-proj :     201308. kBytes
   fftplans  :       1680. kBytes
   grid      :       8060. kBytes
   one-center:        995. kBytes
   wavefun   :      34840. kBytes
 
  
  
 General timing and accounting informations for this job:
 ========================================================
  
                  Total CPU time used (sec):     1867.613
                            User time (sec):     1858.345
                          System time (sec):        9.267
                         Elapsed time (sec):     1896.967
  
                   Maximum memory used (kb):      369412.
                   Average memory used (kb):          N/A
  
                          Minor page faults:       532112
                          Major page faults:            3
                 Voluntary context switches:         1201
