<?xml version="1.0" encoding="ISO-8859-1"?>
<modeling>
 <generator>
  <i name="program" type="string">vasp </i>
  <i name="version" type="string">6.4.3  </i>
  <i name="subversion" type="string">19Mar24 (build Sep 18 2024 11:30:23) complex                          parallel </i>
  <i name="platform" type="string">LinuxIFC </i>
  <i name="date" type="string">2026 07 03 </i>
  <i name="time" type="string">19:22:58 </i>
 </generator>
 <incar>
  <i type="string" name="SYSTEM">HECN</i>
  <i type="int" name="ISTART">     0</i>
  <i type="string" name="PREC">Normal</i>
  <i type="string" name="ALGO">Fast</i>
  <i type="int" name="ICHARG">     2</i>
  <i type="int" name="NELM">    60</i>
  <i type="int" name="IBRION">     2</i>
  <i name="EDIFF">      0.00001000</i>
  <i name="EDIFFG">     -0.01000000</i>
  <i type="int" name="NSW">   100</i>
  <i type="int" name="ISIF">     3</i>
  <i name="ENCUT">    400.00000000</i>
  <i name="POTIM">      0.50000000</i>
  <i type="logical" name="LREAL"> F  </i>
  <i type="int" name="ISMEAR">     0</i>
  <i name="SIGMA">      0.10000000</i>
  <i type="logical" name="LWAVE"> F  </i>
  <i type="logical" name="LCHARG"> F  </i>
 </incar>
 <primitive_cell>
  <structure name="primitive_cell" >
   <crystal>
    <varray name="basis" >
     <v>       8.98174048       0.00300242      -0.00131830 </v>
     <v>       0.00299086       9.04084209       0.00061124 </v>
     <v>      -0.00132544       0.00063915       8.98398262 </v>
    </varray>
    <i name="volume">    729.52172537 </i>
    <varray name="rec_basis" >
     <v>       0.11133701      -0.00003683       0.00001643 </v>
     <v>      -0.00003698       0.11060918      -0.00000787 </v>
     <v>       0.00001634      -0.00000753       0.11130921 </v>
    </varray>
   </crystal>
   <varray name="positions" >
    <v>       0.00020198       0.99776398       0.01199979 </v>
    <v>       0.24335097       0.99645924       0.25122035 </v>
    <v>       0.25636450       0.50537613       0.24860313 </v>
    <v>       0.49937042       0.50015461       0.99937361 </v>
    <v>       0.49068499       0.25878873       0.75443522 </v>
    <v>       0.00379417       0.49962173       0.49760474 </v>
    <v>       0.49893801       0.73983614       0.74977415 </v>
    <v>       0.99903062       0.23860309       0.25989754 </v>
    <v>       0.75432275       0.74434720       0.99693073 </v>
    <v>       0.00485340       0.26409593       0.73844632 </v>
    <v>       0.75931875       0.26431460       0.50156459 </v>
    <v>       0.99900570       0.73667910       0.74909737 </v>
    <v>       0.25394934       0.49946688       0.75228009 </v>
    <v>       0.24674941       0.25195014       0.00208810 </v>
    <v>       0.49792776       0.25275477       0.24749151 </v>
    <v>       0.75441866       0.99739595       0.25013812 </v>
    <v>       0.75112982       0.25428459       0.99563967 </v>
    <v>       0.24874602       0.74843539       0.99977764 </v>
    <v>       0.24777147       0.25318173       0.49768615 </v>
    <v>       0.25020470       0.24949376       0.24945691 </v>
    <v>       0.24340150       0.00120563       0.00636600 </v>
    <v>       0.99987617       0.24201577       0.00017335 </v>
    <v>       0.74920365       0.25115523       0.24934900 </v>
    <v>       0.75633664       0.00353943       0.00180431 </v>
    <v>       0.50128156       0.00489956       0.24969106 </v>
    <v>       0.99721978       0.49970813       0.25636043 </v>
    <v>       0.49870735       0.74668527       0.99467255 </v>
    <v>       0.99723949       0.00269763       0.74861418 </v>
    <v>       0.74681312       0.25246008       0.74935119 </v>
    <v>       0.75512159       0.00143849       0.49816600 </v>
    <v>       0.50164852       0.25276058       0.50150350 </v>
    <v>       0.50254414       0.00219665       0.75010072 </v>
    <v>       0.00278020       0.99758368       0.24814079 </v>
    <v>       0.49941088       0.25281315       0.99694966 </v>
    <v>       0.24562492       0.74902615       0.24772702 </v>
    <v>       0.25413245       0.49944570       0.00491503 </v>
    <v>       0.99866106       0.75573694       0.00118479 </v>
    <v>       0.75334256       0.74661370       0.25116306 </v>
    <v>       0.74558348       0.50044526       0.00072325 </v>
    <v>       0.49974189       0.49837487       0.25021474 </v>
    <v>       0.25240038       0.25272892       0.75045009 </v>
    <v>       0.24530877       0.00269173       0.49407936 </v>
    <v>       0.00113581       0.25261804       0.49958473 </v>
    <v>       0.25326337       0.74690222       0.75288850 </v>
    <v>       0.24962339       0.49795407       0.49533222 </v>
    <v>       0.99584399       0.74945534       0.49851286 </v>
    <v>       0.99786942       0.50046275       0.74346998 </v>
    <v>       0.74597397       0.74569888       0.74926267 </v>
    <v>       0.75393600       0.50054968       0.49930472 </v>
    <v>       0.50416015       0.74532936       0.50631163 </v>
    <v>       0.50186922       0.49876009       0.75110763 </v>
    <v>       0.49905149       0.00113072       0.99694579 </v>
    <v>       0.00100109       0.50098237       0.00362134 </v>
    <v>       0.49887555       0.74856746       0.24961970 </v>
    <v>       0.24485922       0.99989016       0.74977251 </v>
    <v>       0.49798284       0.99819449       0.50281020 </v>
    <v>       0.75473270       0.99579102       0.74947638 </v>
    <v>       0.24832615       0.74627925       0.50098588 </v>
    <v>       0.00077496       0.75834811       0.25087401 </v>
    <v>       0.74477605       0.50466663       0.24868912 </v>
    <v>       0.00375016       0.00067042       0.49077054 </v>
    <v>       0.49848548       0.50031292       0.50104026 </v>
    <v>       0.74573929       0.50196192       0.75153869 </v>
    <v>       0.75145685       0.73624852       0.50287552 </v>
   </varray>
  </structure>
  <varray name="primitive_index" >
   <v type="int" >        1 </v>
   <v type="int" >        2 </v>
   <v type="int" >        3 </v>
   <v type="int" >        4 </v>
   <v type="int" >        5 </v>
   <v type="int" >        6 </v>
   <v type="int" >        7 </v>
   <v type="int" >        8 </v>
   <v type="int" >        9 </v>
   <v type="int" >       10 </v>
   <v type="int" >       11 </v>
   <v type="int" >       12 </v>
   <v type="int" >       13 </v>
   <v type="int" >       14 </v>
   <v type="int" >       15 </v>
   <v type="int" >       16 </v>
   <v type="int" >       17 </v>
   <v type="int" >       18 </v>
   <v type="int" >       19 </v>
   <v type="int" >       20 </v>
   <v type="int" >       21 </v>
   <v type="int" >       22 </v>
   <v type="int" >       23 </v>
   <v type="int" >       24 </v>
   <v type="int" >       25 </v>
   <v type="int" >       26 </v>
   <v type="int" >       27 </v>
   <v type="int" >       28 </v>
   <v type="int" >       29 </v>
   <v type="int" >       30 </v>
   <v type="int" >       31 </v>
   <v type="int" >       32 </v>
   <v type="int" >       33 </v>
   <v type="int" >       34 </v>
   <v type="int" >       35 </v>
   <v type="int" >       36 </v>
   <v type="int" >       37 </v>
   <v type="int" >       38 </v>
   <v type="int" >       39 </v>
   <v type="int" >       40 </v>
   <v type="int" >       41 </v>
   <v type="int" >       42 </v>
   <v type="int" >       43 </v>
   <v type="int" >       44 </v>
   <v type="int" >       45 </v>
   <v type="int" >       46 </v>
   <v type="int" >       47 </v>
   <v type="int" >       48 </v>
   <v type="int" >       49 </v>
   <v type="int" >       50 </v>
   <v type="int" >       51 </v>
   <v type="int" >       52 </v>
   <v type="int" >       53 </v>
   <v type="int" >       54 </v>
   <v type="int" >       55 </v>
   <v type="int" >       56 </v>
   <v type="int" >       57 </v>
   <v type="int" >       58 </v>
   <v type="int" >       59 </v>
   <v type="int" >       60 </v>
   <v type="int" >       61 </v>
   <v type="int" >       62 </v>
   <v type="int" >       63 </v>
   <v type="int" >       64 </v>
  </varray>
 </primitive_cell>
 <kpoints>
  <generation param="Gamma">
   <v type="int" name="divisions">       3        3        3 </v>
   <v name="usershift">      0.00000000       0.00000000       0.00000000 </v>
   <v name="genvec1">      0.33333333       0.00000000       0.00000000 </v>
   <v name="genvec2">      0.00000000       0.33333333       0.00000000 </v>
   <v name="genvec3">      0.00000000       0.00000000       0.33333333 </v>
   <v name="shift">      0.00000000       0.00000000       0.00000000 </v>
  </generation>
  <varray name="kpointlist" >
   <v>       0.00000000       0.00000000       0.00000000 </v>
   <v>       0.33333333       0.00000000       0.00000000 </v>
   <v>       0.00000000       0.33333333      -0.00000000 </v>
   <v>       0.33333333       0.33333333       0.00000000 </v>
   <v>      -0.33333333       0.33333333      -0.00000000 </v>
   <v>      -0.00000000      -0.00000000       0.33333333 </v>
   <v>       0.33333333       0.00000000       0.33333333 </v>
   <v>      -0.33333333       0.00000000       0.33333333 </v>
   <v>       0.00000000       0.33333333       0.33333333 </v>
   <v>       0.33333333       0.33333333       0.33333333 </v>
   <v>      -0.33333333       0.33333333       0.33333333 </v>
   <v>      -0.00000000      -0.33333333       0.33333333 </v>
   <v>       0.33333333      -0.33333333       0.33333333 </v>
   <v>      -0.33333333      -0.33333333       0.33333333 </v>
  </varray>
  <varray name="weights" >
   <v>       0.03703704 </v>
   <v>       0.07407407 </v>
   <v>       0.07407407 </v>
   <v>       0.07407407 </v>
   <v>       0.07407407 </v>
   <v>       0.07407407 </v>
   <v>       0.07407407 </v>
   <v>       0.07407407 </v>
   <v>       0.07407407 </v>
   <v>       0.07407407 </v>
   <v>       0.07407407 </v>
   <v>       0.07407407 </v>
   <v>       0.07407407 </v>
   <v>       0.07407407 </v>
  </varray>
 </kpoints>
 <parameters>
  <separator name="general" >
   <i type="string" name="SYSTEM">HECN</i>
   <i type="logical" name="LCOMPAT"> F  </i>
  </separator>
  <separator name="electronic" >
   <i type="string" name="PREC">normal</i>
   <i name="ENMAX">    400.00000000</i>
   <i name="ENAUG">    644.87300000</i>
   <i name="EDIFF">      0.00001000</i>
   <i type="int" name="IALGO">    68</i>
   <i type="int" name="IWAVPR">    11</i>
   <i type="int" name="NBANDS">   308</i>
   <i type="int" name="NBANDSLOW">    -1</i>
   <i type="int" name="NBANDSHIGH">    -1</i>
   <i name="NELECT">    513.00000000</i>
   <i type="int" name="TURBO">     0</i>
   <i type="int" name="IRESTART">     0</i>
   <i type="int" name="NREBOOT">     0</i>
   <i type="int" name="NMIN">     0</i>
   <i name="EREF">      0.00000000</i>
   <separator name="electronic smearing" >
    <i type="int" name="ISMEAR">     0</i>
    <i name="SIGMA">      0.10000000</i>
    <i name="KSPACING">      0.50000000</i>
    <i type="logical" name="KGAMMA"> T  </i>
    <i type="logical" name="KBLOWUP"> T  </i>
   </separator>
   <separator name="electronic projectors" >
    <i type="logical" name="LREAL"> F  </i>
    <v name="ROPT">      0.00000000      0.00000000      0.00000000      0.00000000      0.00000000      0.00000000      0.00000000</v>
    <i type="int" name="LMAXPAW">  -100</i>
    <i type="int" name="LMAXMIX">     2</i>
    <i type="logical" name="NLSPLINE"> F  </i>
   </separator>
   <separator name="electronic startup" >
    <i type="int" name="ISTART">     0</i>
    <i type="int" name="ICHARG">     2</i>
    <i type="int" name="INIWAV">     1</i>
   </separator>
   <separator name="electronic spin" >
    <i type="int" name="ISPIN">     1</i>
    <i type="logical" name="LNONCOLLINEAR"> F  </i>
    <v name="MAGMOM">      1.00000000      1.00000000      1.00000000      1.00000000      1.00000000      1.00000000      1.00000000      1.00000000      1.00000000      1.00000000      1.00000000      1.00000000      1.00000000      1.00000000      1.00000000      1.00000000      1.00000000      1.00000000      1.00000000      1.00000000
      1.00000000      1.00000000      1.00000000      1.00000000      1.00000000      1.00000000      1.00000000      1.00000000      1.00000000      1.00000000      1.00000000      1.00000000      1.00000000      1.00000000      1.00000000      1.00000000      1.00000000      1.00000000      1.00000000      1.00000000
      1.00000000      1.00000000      1.00000000      1.00000000      1.00000000      1.00000000      1.00000000      1.00000000      1.00000000      1.00000000      1.00000000      1.00000000      1.00000000      1.00000000      1.00000000      1.00000000      1.00000000      1.00000000      1.00000000      1.00000000
      1.00000000      1.00000000      1.00000000      1.00000000</v>
    <i name="NUPDOWN">     -1.00000000</i>
    <i type="logical" name="LSORBIT"> F  </i>
    <v name="SAXIS">      0.00000000      0.00000000      1.00000000</v>
    <i type="logical" name="LSPIRAL"> F  </i>
    <v name="QSPIRAL">      0.00000000      0.00000000      0.00000000</v>
    <i type="logical" name="LZEROZ"> F  </i>
   </separator>
   <separator name="electronic exchange-correlation" >
    <i type="logical" name="LASPH"> F  </i>
   </separator>
   <separator name="electronic convergence" >
    <i type="int" name="NELM">    60</i>
    <i type="int" name="NELMDL">    -5</i>
    <i type="int" name="NELMIN">     2</i>
    <i name="ENINI">    400.00000000</i>
    <separator name="electronic convergence detail" >
     <i type="logical" name="LDIAG"> T  </i>
     <i type="logical" name="LSUBROT"> F  </i>
     <i name="WEIMIN">      0.00100000</i>
     <i name="EBREAK">      0.00000001</i>
     <i name="DEPER">      0.30000000</i>
     <i type="int" name="NRMM">     4</i>
     <i name="TIME">      0.40000000</i>
    </separator>
   </separator>
   <separator name="electronic mixer" >
    <i name="AMIX">      0.40000000</i>
    <i name="BMIX">      1.00000000</i>
    <i name="AMIN">      0.10000000</i>
    <i name="AMIX_MAG">      1.60000000</i>
    <i name="BMIX_MAG">      1.00000000</i>
    <separator name="electronic mixer details" >
     <i type="int" name="IMIX">     4</i>
     <i type="logical" name="MIXFIRST"> F  </i>
     <i type="int" name="MAXMIX">   -45</i>
     <i name="WC">    100.00000000</i>
     <i type="int" name="INIMIX">     1</i>
     <i type="int" name="MIXPRE">     1</i>
     <i type="int" name="MREMOVE">     5</i>
    </separator>
   </separator>
   <separator name="electronic dipolcorrection" >
    <i type="logical" name="LDIPOL"> F  </i>
    <i type="logical" name="LMONO"> F  </i>
    <i type="int" name="IDIPOL">     0</i>
    <i name="EPSILON">      1.00000000</i>
    <v name="DIPOL">   -100.00000000   -100.00000000   -100.00000000</v>
    <i name="EFIELD">      0.00000000</i>
    <i type="logical" name="LVACPOTAV"> F  </i>
   </separator>
  </separator>
  <separator name="grids" >
   <i type="int" name="NGX">    48</i>
   <i type="int" name="NGY">    48</i>
   <i type="int" name="NGZ">    48</i>
   <i type="int" name="NGXF">    96</i>
   <i type="int" name="NGYF">    96</i>
   <i type="int" name="NGZF">    96</i>
   <i type="logical" name="ADDGRID"> F  </i>
  </separator>
  <separator name="ionic" >
   <i type="int" name="NSW">   100</i>
   <i type="int" name="IBRION">     2</i>
   <i type="int" name="MDALGO">     0</i>
   <i type="int" name="ISIF">     3</i>
   <i name="PSTRESS">      0.00000000</i>
   <i name="EDIFFG">     -0.01000000</i>
   <i type="int" name="NFREE">     1</i>
   <i name="POTIM">      0.50000000</i>
   <i name="SMASS">     -3.00000000</i>
   <i name="SCALEE">      1.00000000</i>
  </separator>
  <separator name="ionic md" >
   <i name="TEBEG">      0.00010000</i>
   <i name="TEEND">      0.00010000</i>
   <i type="int" name="NBLOCK">     1</i>
   <i type="int" name="KBLOCK">   100</i>
   <i type="int" name="NPACO">   256</i>
   <i name="APACO">     10.00000000</i>
  </separator>
  <separator name="symmetry" >
   <i type="int" name="ISYM">     2</i>
   <i name="SYMPREC">      0.00001000</i>
  </separator>
  <separator name="dos" >
   <i type="int" name="LORBIT">     0</i>
   <v name="RWIGS">     -1.00000000     -1.00000000     -1.00000000     -1.00000000     -1.00000000     -1.00000000     -1.00000000</v>
   <i type="int" name="NEDOS">   301</i>
   <i name="EMIN">     10.00000000</i>
   <i name="EMAX">    -10.00000000</i>
   <i name="EFERMI">      0.00000000</i>
  </separator>
  <separator name="writing" >
   <i type="int" name="NWRITE">     2</i>
   <i type="logical" name="LWAVE"> F  </i>
   <i type="logical" name="LDOWNSAMPLE"> F  </i>
   <i type="logical" name="LCHARG"> F  </i>
   <i type="logical" name="LPARD"> F  </i>
   <i type="logical" name="LVTOT"> F  </i>
   <i type="logical" name="LVHAR"> F  </i>
   <i type="logical" name="LELF"> F  </i>
   <i type="logical" name="LOPTICS"> F  </i>
   <v name="STM">      0.00000000      0.00000000      0.00000000      0.00000000      0.00000000      0.00000000      0.00000000</v>
  </separator>
  <separator name="performance" >
   <i type="int" name="NPAR">    28</i>
   <i type="int" name="NSIM">     4</i>
   <i type="int" name="NBLK">    -1</i>
   <i type="logical" name="LPLANE"> T  </i>
   <i type="logical" name="LSCALAPACK"> T  </i>
   <i type="logical" name="LSCAAWARE"> F  </i>
   <i type="logical" name="LSCALU"> F  </i>
   <i type="logical" name="LASYNC"> F  </i>
   <i type="logical" name="LORBITALREAL"> F  </i>
  </separator>
  <separator name="miscellaneous" >
   <i type="int" name="IDIOT">     3</i>
   <i type="int" name="PHON_NSTRUCT">    -1</i>
   <i type="logical" name="LMUSIC"> F  </i>
   <v name="POMASS">     47.88000000     92.91000000    178.49000000     14.00100000     12.01100000     91.22400000    180.94800000</v>
   <v name="DARWINR">      0.00000000      0.00000000      0.00000000      0.00000000      0.00000000      0.00000000      0.00000000</v>
   <v name="DARWINV">      1.00000000      1.00000000      1.00000000      1.00000000      1.00000000      1.00000000      1.00000000</v>
   <i type="logical" name="LCORR"> T  </i>
  </separator>
  <i type="logical" name="GGA_COMPAT"> T  </i>
  <i type="logical" name="LBERRY"> F  </i>
  <i type="int" name="ICORELEVEL">     0</i>
  <i type="logical" name="LDAU"> F  </i>
  <i type="int" name="I_CONSTRAINED_M">     0</i>
  <separator name="electronic exchange-correlation" >
   <i type="string" name="GGA    ">PE</i>
   <i type="string" name="XC_C">1</i>
   <i type="int" name="VOSKOWN">     0</i>
   <i type="logical" name="LHFCALC"> F  </i>
   <i type="string" name="PRECFOCK"></i>
   <i type="logical" name="LSYMGRAD"> F  </i>
   <i type="logical" name="LHFONE"> F  </i>
   <i type="logical" name="LRHFCALC"> F  </i>
   <i type="logical" name="LTHOMAS"> F  </i>
   <i type="logical" name="LMODELHF"> F  </i>
   <i type="logical" name="LFOCKACE"> F  </i>
   <i name="ENCUT4O">     -1.00000000</i>
   <i type="int" name="EXXOEP">     0</i>
   <i type="int" name="FOURORBIT">     0</i>
   <i name="AEXX">      0.00000000</i>
   <i name="HFALPHA">      0.00000000</i>
   <i name="MCALPHA">      0.00000000</i>
   <i name="ALDAX">      1.00000000</i>
   <i name="AGGAX">      1.00000000</i>
   <i name="AMGGAX">      1.00000000</i>
   <i name="ALDAC">      1.00000000</i>
   <i name="AGGAC">      1.00000000</i>
   <i name="AMGGAC">      1.00000000</i>
   <i type="int" name="NKREDX">     1</i>
   <i type="int" name="NKREDY">     1</i>
   <i type="int" name="NKREDZ">     1</i>
   <i type="logical" name="SHIFTRED"> F  </i>
   <i type="logical" name="ODDONLY"> F  </i>
   <i type="logical" name="EVENONLY"> F  </i>
   <i type="int" name="LMAXFOCK">     0</i>
   <i type="int" name="NMAXFOCKAE">     0</i>
   <i type="logical" name="LFOCKAEDFT"> F  </i>
   <i name="HFSCREEN">      0.00000000</i>
   <i name="HFSCREENC">      0.00000000</i>
   <i type="int" name="NBANDSGWLOW">     0</i>
  </separator>
  <separator name="vdW DFT" >
   <i type="logical" name="LUSE_VDW"> F  </i>
   <i type="int" name="IVDW_NL">    -1</i>
   <i type="logical" name="LSPIN_VDW"> F  </i>
   <i name="ZAB_VDW">     -0.84910000</i>
   <i name="GAMMA_VDW">      1.39626340</i>
   <i name="ALPHA_VDW">      0.00000000</i>
   <i name="PARAM1">      0.12340000</i>
   <i name="PARAM2">      1.00000000</i>
   <i name="BPARAM">      6.30000000</i>
   <i name="CPARAM">      0.00930000</i>
  </separator>
  <separator name="model GW" >
   <i type="int" name="MODEL_GW">     0</i>
   <i name="MODEL_EPS0">      6.83926618</i>
   <i name="MODEL_ALPHA">      1.00000000</i>
  </separator>
  <separator name="linear response parameters" >
   <i type="logical" name="LEPSILON"> F  </i>
   <i type="logical" name="LRPA"> F  </i>
   <i type="logical" name="LNABLA"> F  </i>
   <i type="logical" name="LVEL"> F  </i>
   <i name="CSHIFT">      0.10000000</i>
   <i name="OMEGAMAX">     -1.00000000</i>
   <i name="DEG_THRESHOLD">      0.00200000</i>
   <i name="RTIME">     -0.10000000</i>
   <i name="WPLASMAI">      0.00000000</i>
   <v name="DFIELD">      0.00000000      0.00000000      0.00000000</v>
   <v name="WPLASMA">      0.00000000      0.00000000      0.00000000      0.00000000      0.00000000      0.00000000      0.00000000      0.00000000      0.00000000</v>
  </separator>
  <separator name="orbital magnetization" >
   <i type="logical" name="NUCIND"> F  </i>
   <v name="MAGPOS">      0.00000000      0.00000000      0.00000000</v>
   <i type="logical" name="LNICSALL"> T  </i>
   <i type="logical" name="ORBITALMAG"> F  </i>
   <i type="logical" name="LMAGBLOCH"> F  </i>
   <i type="logical" name="LCHIMAG"> F  </i>
   <i type="logical" name="LGAUGE"> T  </i>
   <i type="int" name="MAGATOM">     0</i>
   <v name="MAGDIPOL">      0.00000000      0.00000000      0.00000000</v>
   <v name="AVECCONST">      0.00000000      0.00000000      0.00000000</v>
  </separator>
  <separator name="response functions" >
   <i type="logical" name="LALL_IN_ONE"> F  </i>
   <i type="int" name="IALL_IN_ONE">    -1</i>
   <i type="int" name="NBANDS_WAVE">    -1</i>
   <i type="logical" name="LFINITE_TEMPERATURE"> F  </i>
   <i type="logical" name="LADDER"> F  </i>
   <i type="logical" name="LRPAFORCE"> F  </i>
   <i type="logical" name="LFXC"> F  </i>
   <i type="logical" name="LHARTREE"> T  </i>
   <i type="int" name="IBSE">     0</i>
   <v type="int" name="KPOINT">    -1     0     0     0</v>
   <i type="logical" name="LTCTC"> F  </i>
   <i type="logical" name="LTCTE"> F  </i>
   <i type="logical" name="LTETE"> F  </i>
   <i type="logical" name="LTRIPLET"> F  </i>
   <i type="logical" name="LFXCEPS"> F  </i>
   <i type="logical" name="LFXHEG"> F  </i>
   <i type="int" name="NATURALO">     2</i>
   <i type="logical" name="LHOLEGF"> F  </i>
   <i type="logical" name="L2ORDER"> F  </i>
   <i type="logical" name="LDMP1"> F  </i>
   <i type="logical" name="LMP2LT"> F  </i>
   <i type="logical" name="LSMP2LT"> F  </i>
   <i type="logical" name="LGWLF"> F  </i>
   <i name="ENCUTGW">     -1.60000002</i>
   <i name="ENCUTGWSOFT">     -1.60000002</i>
   <i name="ENCUTLF">     -1.00000000</i>
   <i type="logical" name="ESF_SPLINES"> F  </i>
   <i name="ESF_CONV">      0.01000000</i>
   <i type="int" name="ESF_NINTER">    15</i>
   <i type="int" name="LMAXMP2">    -1</i>
   <i name="SCISSOR">      0.00000000</i>
   <i type="int" name="NOMEGA">     0</i>
   <i type="int" name="NOMEGAR">     0</i>
   <i type="int" name="NBANDSGW">    -1</i>
   <i type="int" name="NBANDSO">    -1</i>
   <i type="int" name="NBANDSV">    -1</i>
   <i type="int" name="NELMGW">     1</i>
   <i type="int" name="NELMHF">     1</i>
   <i type="int" name="DIM">     3</i>
   <i type="int" name="IESPILON">     4</i>
   <i type="int" name="ANTIRES">     0</i>
   <i name="OMEGAMAX">    -30.00000000</i>
   <i name="OMEGAMIN">    -30.00000000</i>
   <i name="OMEGATL">   -200.00000000</i>
   <i type="int" name="OMEGAGRID">     0</i>
   <i name="CSHIFT">     -0.10000000</i>
   <i type="logical" name="LSELFENERGY"> F  </i>
   <i type="logical" name="LSPECTRAL"> F  </i>
   <i type="logical" name="LSPECTRALGW"> F  </i>
   <i type="logical" name="LSINGLES"> F  </i>
   <i type="logical" name="LFERMIGW"> F  </i>
   <i type="logical" name="ODDONLYGW"> F  </i>
   <i type="logical" name="EVENONLYGW"> F  </i>
   <i type="int" name="NKREDLFX">     1</i>
   <i type="int" name="NKREDLFY">     1</i>
   <i type="int" name="NKREDLFZ">     1</i>
   <i type="int" name="MAXMEM">  2800</i>
   <i type="int" name="TELESCOPE">     0</i>
   <i type="int" name="NTAUPAR">    -1</i>
   <i type="int" name="NOMEGAPAR">    -1</i>
   <i name="DAMP_NEWTON">      0.80000001</i>
   <i name="LAMBDA">      1.00000000</i>
  </separator>
  <separator name="External order field" >
   <i name="OFIELD_KAPPA">      0.00000000</i>
   <v name="OFIELD_K">      0.00000000      0.00000000      0.00000000</v>
   <i name="OFIELD_Q6_NEAR">      0.00000000</i>
   <i name="OFIELD_Q6_FAR">      0.00000000</i>
   <i name="OFIELD_A">      0.00000000</i>
  </separator>
  <separator name="optional k-points parameters" >
   <i type="int" name="KPOINTS_OPT_MODE">     1</i>
   <i type="logical" name="LKPOINTS_OPT"> F  </i>
  </separator>
  <separator name="solvation model" >
   <i type="logical" name="LSOL"> F  </i>
  </separator>
 </parameters>
 <atominfo>
  <atoms>      64 </atoms>
  <types>       7 </types>
  <array name="atoms" >
   <dimension dim="1">ion</dimension>
   <field type="string">element</field>
   <field type="int">atomtype</field>
   <set>
    <rc><c>Ti</c><c>   1</c></rc>
    <rc><c>Ti</c><c>   1</c></rc>
    <rc><c>Ti</c><c>   1</c></rc>
    <rc><c>Ti</c><c>   1</c></rc>
    <rc><c>Ti</c><c>   1</c></rc>
    <rc><c>Ti</c><c>   1</c></rc>
    <rc><c>Ti</c><c>   1</c></rc>
    <rc><c>Nb</c><c>   2</c></rc>
    <rc><c>Nb</c><c>   2</c></rc>
    <rc><c>Nb</c><c>   2</c></rc>
    <rc><c>Nb</c><c>   2</c></rc>
    <rc><c>Nb</c><c>   2</c></rc>
    <rc><c>Nb</c><c>   2</c></rc>
    <rc><c>Hf</c><c>   3</c></rc>
    <rc><c>Hf</c><c>   3</c></rc>
    <rc><c>Hf</c><c>   3</c></rc>
    <rc><c>Hf</c><c>   3</c></rc>
    <rc><c>Hf</c><c>   3</c></rc>
    <rc><c>Hf</c><c>   3</c></rc>
    <rc><c>N </c><c>   4</c></rc>
    <rc><c>N </c><c>   4</c></rc>
    <rc><c>N </c><c>   4</c></rc>
    <rc><c>N </c><c>   4</c></rc>
    <rc><c>N </c><c>   4</c></rc>
    <rc><c>N </c><c>   4</c></rc>
    <rc><c>N </c><c>   4</c></rc>
    <rc><c>N </c><c>   4</c></rc>
    <rc><c>N </c><c>   4</c></rc>
    <rc><c>N </c><c>   4</c></rc>
    <rc><c>N </c><c>   4</c></rc>
    <rc><c>N </c><c>   4</c></rc>
    <rc><c>N </c><c>   4</c></rc>
    <rc><c>C </c><c>   5</c></rc>
    <rc><c>C </c><c>   5</c></rc>
    <rc><c>C </c><c>   5</c></rc>
    <rc><c>C </c><c>   5</c></rc>
    <rc><c>C </c><c>   5</c></rc>
    <rc><c>C </c><c>   5</c></rc>
    <rc><c>C </c><c>   5</c></rc>
    <rc><c>C </c><c>   5</c></rc>
    <rc><c>C </c><c>   5</c></rc>
    <rc><c>C </c><c>   5</c></rc>
    <rc><c>C </c><c>   5</c></rc>
    <rc><c>C </c><c>   5</c></rc>
    <rc><c>C </c><c>   5</c></rc>
    <rc><c>C </c><c>   5</c></rc>
    <rc><c>C </c><c>   5</c></rc>
    <rc><c>C </c><c>   5</c></rc>
    <rc><c>C </c><c>   5</c></rc>
    <rc><c>C </c><c>   5</c></rc>
    <rc><c>C </c><c>   5</c></rc>
    <rc><c>Zr</c><c>   6</c></rc>
    <rc><c>Zr</c><c>   6</c></rc>
    <rc><c>Zr</c><c>   6</c></rc>
    <rc><c>Zr</c><c>   6</c></rc>
    <rc><c>Zr</c><c>   6</c></rc>
    <rc><c>Zr</c><c>   6</c></rc>
    <rc><c>Zr</c><c>   6</c></rc>
    <rc><c>Ta</c><c>   7</c></rc>
    <rc><c>Ta</c><c>   7</c></rc>
    <rc><c>Ta</c><c>   7</c></rc>
    <rc><c>Ta</c><c>   7</c></rc>
    <rc><c>Ta</c><c>   7</c></rc>
    <rc><c>Ta</c><c>   7</c></rc>
   </set>
  </array>
  <array name="atomtypes" >
   <dimension dim="1">type</dimension>
   <field type="int">atomspertype</field>
   <field type="string">element</field>
   <field>mass</field>
   <field>valence</field>
   <field type="string">pseudopotential</field>
   <set>
    <rc><c>   7</c><c>Ti</c><c>     47.88000000</c><c>     12.00000000</c><c> PAW_PBE Ti_sv 07Sep2000                </c></rc>
    <rc><c>   6</c><c>Nb</c><c>     92.91000000</c><c>     13.00000000</c><c> PAW_PBE Nb_sv 17Jan2003                </c></rc>
    <rc><c>   6</c><c>Hf</c><c>    178.49000000</c><c>     10.00000000</c><c> PAW_PBE Hf_pv 06Sep2000                </c></rc>
    <rc><c>  13</c><c>N </c><c>     14.00100000</c><c>      5.00000000</c><c> PAW_PBE N 08Apr2002                    </c></rc>
    <rc><c>  19</c><c>C </c><c>     12.01100000</c><c>      4.00000000</c><c> PAW_PBE C 08Apr2002                    </c></rc>
    <rc><c>   7</c><c>Zr</c><c>     91.22400000</c><c>     12.00000000</c><c> PAW_PBE Zr_sv 07Sep2000                </c></rc>
    <rc><c>   6</c><c>Ta</c><c>    180.94800000</c><c>     11.00000000</c><c> PAW_PBE Ta_pv 07Sep2000                </c></rc>
   </set>
  </array>
 </atominfo>
 <structure name="initialpos" >
  <crystal>
   <varray name="basis" >
    <v>       8.98174048       0.00300242      -0.00131830 </v>
    <v>       0.00299086       9.04084209       0.00061124 </v>
    <v>      -0.00132544       0.00063915       8.98398262 </v>
   </varray>
   <i name="volume">    729.52172537 </i>
   <varray name="rec_basis" >
    <v>       0.11133701      -0.00003683       0.00001643 </v>
    <v>      -0.00003698       0.11060918      -0.00000787 </v>
    <v>       0.00001634      -0.00000753       0.11130921 </v>
   </varray>
  </crystal>
  <varray name="positions" >
   <v>       0.00020198       0.99776398       0.01199979 </v>
   <v>       0.24335097       0.99645924       0.25122035 </v>
   <v>       0.25636450       0.50537613       0.24860313 </v>
   <v>       0.49937042       0.50015461       0.99937361 </v>
   <v>       0.49068499       0.25878873       0.75443522 </v>
   <v>       0.00379417       0.49962173       0.49760474 </v>
   <v>       0.49893801       0.73983614       0.74977415 </v>
   <v>       0.99903062       0.23860309       0.25989754 </v>
   <v>       0.75432275       0.74434720       0.99693073 </v>
   <v>       0.00485340       0.26409593       0.73844632 </v>
   <v>       0.75931875       0.26431460       0.50156459 </v>
   <v>       0.99900570       0.73667910       0.74909737 </v>
   <v>       0.25394934       0.49946688       0.75228009 </v>
   <v>       0.24674941       0.25195014       0.00208810 </v>
   <v>       0.49792776       0.25275477       0.24749151 </v>
   <v>       0.75441866       0.99739595       0.25013812 </v>
   <v>       0.75112982       0.25428459       0.99563967 </v>
   <v>       0.24874602       0.74843539       0.99977764 </v>
   <v>       0.24777147       0.25318173       0.49768615 </v>
   <v>       0.25020470       0.24949376       0.24945691 </v>
   <v>       0.24340150       0.00120563       0.00636600 </v>
   <v>       0.99987617       0.24201577       0.00017335 </v>
   <v>       0.74920365       0.25115523       0.24934900 </v>
   <v>       0.75633664       0.00353943       0.00180431 </v>
   <v>       0.50128156       0.00489956       0.24969106 </v>
   <v>       0.99721978       0.49970813       0.25636043 </v>
   <v>       0.49870735       0.74668527       0.99467255 </v>
   <v>       0.99723949       0.00269763       0.74861418 </v>
   <v>       0.74681312       0.25246008       0.74935119 </v>
   <v>       0.75512159       0.00143849       0.49816600 </v>
   <v>       0.50164852       0.25276058       0.50150350 </v>
   <v>       0.50254414       0.00219665       0.75010072 </v>
   <v>       0.00278020       0.99758368       0.24814079 </v>
   <v>       0.49941088       0.25281315       0.99694966 </v>
   <v>       0.24562492       0.74902615       0.24772702 </v>
   <v>       0.25413245       0.49944570       0.00491503 </v>
   <v>       0.99866106       0.75573694       0.00118479 </v>
   <v>       0.75334256       0.74661370       0.25116306 </v>
   <v>       0.74558348       0.50044526       0.00072325 </v>
   <v>       0.49974189       0.49837487       0.25021474 </v>
   <v>       0.25240038       0.25272892       0.75045009 </v>
   <v>       0.24530877       0.00269173       0.49407936 </v>
   <v>       0.00113581       0.25261804       0.49958473 </v>
   <v>       0.25326337       0.74690222       0.75288850 </v>
   <v>       0.24962339       0.49795407       0.49533222 </v>
   <v>       0.99584399       0.74945534       0.49851286 </v>
   <v>       0.99786942       0.50046275       0.74346998 </v>
   <v>       0.74597397       0.74569888       0.74926267 </v>
   <v>       0.75393600       0.50054968       0.49930472 </v>
   <v>       0.50416015       0.74532936       0.50631163 </v>
   <v>       0.50186922       0.49876009       0.75110763 </v>
   <v>       0.49905149       0.00113072       0.99694579 </v>
   <v>       0.00100109       0.50098237       0.00362134 </v>
   <v>       0.49887555       0.74856746       0.24961970 </v>
   <v>       0.24485922       0.99989016       0.74977251 </v>
   <v>       0.49798284       0.99819449       0.50281020 </v>
   <v>       0.75473270       0.99579102       0.74947638 </v>
   <v>       0.24832615       0.74627925       0.50098588 </v>
   <v>       0.00077496       0.75834811       0.25087401 </v>
   <v>       0.74477605       0.50466663       0.24868912 </v>
   <v>       0.00375016       0.00067042       0.49077054 </v>
   <v>       0.49848548       0.50031292       0.50104026 </v>
   <v>       0.74573929       0.50196192       0.75153869 </v>
   <v>       0.75145685       0.73624852       0.50287552 </v>
  </varray>
 </structure>
 <calculation>
  <scstep>
   <time name="dav">   20.41   20.48</time>
   <time name="total">   20.44   20.53</time>
   <energy>
    <i name="alphaZ">   4317.66593060 </i>
    <i name="ewald"> -42079.68132153 </i>
    <i name="hartreedc">  -7285.47408565 </i>
    <i name="XCdc">   1929.03547850 </i>
    <i name="pawpsdc">  28773.94016443 </i>
    <i name="pawaedc"> -28258.60863024 </i>
    <i name="eentropy">     -0.06506742 </i>
    <i name="bandstr">    967.48619180 </i>
    <i name="atom">  47093.26909977 </i>
    <i name="e_fr_energy">   5457.56776027 </i>
    <i name="e_wo_entrp">   5457.63282768 </i>
    <i name="e_0_energy">   5457.60029398 </i>
   </energy>
  </scstep>
  <scstep>
   <time name="dav">   21.10   21.58</time>
   <time name="total">   21.10   21.58</time>
   <energy>
    <i name="e_fr_energy">    121.74881901 </i>
    <i name="e_wo_entrp">    121.84220656 </i>
    <i name="e_0_energy">    121.79551278 </i>
   </energy>
  </scstep>
  <scstep>
   <time name="dav">   29.87   30.09</time>
   <time name="total">   29.87   30.09</time>
   <energy>
    <i name="e_fr_energy">   -695.50638765 </i>
    <i name="e_wo_entrp">   -695.44139149 </i>
    <i name="e_0_energy">   -695.47388957 </i>
   </energy>
  </scstep>
  <scstep>
   <time name="dav">   31.62   31.86</time>
   <time name="total">   31.62   31.86</time>
   <energy>
    <i name="e_fr_energy">   -779.88637858 </i>
    <i name="e_wo_entrp">   -779.79611452 </i>
    <i name="e_0_energy">   -779.84124655 </i>
   </energy>
  </scstep>
  <scstep>
   <time name="dav">   35.43   36.04</time>
   <time name="total">   35.60   36.23</time>
   <energy>
    <i name="e_fr_energy">   -789.03343394 </i>
    <i name="e_wo_entrp">   -788.93667388 </i>
    <i name="e_0_energy">   -788.98505391 </i>
   </energy>
  </scstep>
  <scstep>
   <time name="diag">    1.37    1.40</time>
   <time name="diis">   18.24   18.56</time>
   <time name="orth">    0.34    0.34</time>
   <time name="total">   20.15   20.50</time>
   <energy>
    <i name="e_fr_energy">   -642.62798472 </i>
    <i name="e_wo_entrp">   -642.52768790 </i>
    <i name="e_0_energy">   -642.57783631 </i>
   </energy>
  </scstep>
  <scstep>
   <time name="diag">    1.40    1.42</time>
   <time name="diis">   19.74   20.16</time>
   <time name="orth">    0.35    0.36</time>
   <time name="total">   21.69   22.13</time>
   <energy>
    <i name="e_fr_energy">   -652.40933786 </i>
    <i name="e_wo_entrp">   -652.32838715 </i>
    <i name="e_0_energy">   -652.36886251 </i>
   </energy>
  </scstep>
  <scstep>
   <time name="diag">    1.38    1.40</time>
   <time name="diis">   20.98   21.25</time>
   <time name="orth">    0.34    0.34</time>
   <time name="total">   22.89   23.19</time>
   <energy>
    <i name="e_fr_energy">   -658.46784580 </i>
    <i name="e_wo_entrp">   -658.36340857 </i>
    <i name="e_0_energy">   -658.41562719 </i>
   </energy>
  </scstep>
  <scstep>
   <time name="diag">    1.39    1.41</time>
   <time name="diis">   18.20   18.53</time>
   <time name="orth">    0.33    0.34</time>
   <time name="total">   20.12   20.48</time>
   <energy>
    <i name="e_fr_energy">   -657.49724581 </i>
    <i name="e_wo_entrp">   -657.40981041 </i>
    <i name="e_0_energy">   -657.45352811 </i>
   </energy>
  </scstep>
  <scstep>
   <time name="diag">    1.45    1.47</time>
   <time name="diis">   20.24   20.64</time>
   <time name="orth">    0.33    0.34</time>
   <time name="total">   22.22   22.64</time>
   <energy>
    <i name="e_fr_energy">   -658.30170317 </i>
    <i name="e_wo_entrp">   -658.20247732 </i>
    <i name="e_0_energy">   -658.25209024 </i>
   </energy>
  </scstep>
  <scstep>
   <time name="diag">    1.37    1.38</time>
   <time name="diis">   20.25   20.51</time>
   <time name="orth">    0.34    0.34</time>
   <time name="total">   22.16   22.44</time>
   <energy>
    <i name="e_fr_energy">   -658.73269847 </i>
    <i name="e_wo_entrp">   -658.63352117 </i>
    <i name="e_0_energy">   -658.68310982 </i>
   </energy>
  </scstep>
  <scstep>
   <time name="diag">    1.43    1.46</time>
   <time name="diis">   22.42   22.81</time>
   <time name="orth">    0.33    0.34</time>
   <time name="total">   24.39   24.81</time>
   <energy>
    <i name="e_fr_energy">   -659.06826476 </i>
    <i name="e_wo_entrp">   -658.96742478 </i>
    <i name="e_0_energy">   -659.01784477 </i>
   </energy>
  </scstep>
  <scstep>
   <time name="diag">    1.33    1.35</time>
   <time name="diis">   22.29   22.62</time>
   <time name="orth">    0.34    0.34</time>
   <time name="total">   24.18   24.53</time>
   <energy>
    <i name="e_fr_energy">   -659.23295095 </i>
    <i name="e_wo_entrp">   -659.13229535 </i>
    <i name="e_0_energy">   -659.18262315 </i>
   </energy>
  </scstep>
  <scstep>
   <time name="diag">    1.34    1.35</time>
   <time name="diis">   20.15   20.40</time>
   <time name="orth">    0.34    0.34</time>
   <time name="total">   22.05   22.33</time>
   <energy>
    <i name="e_fr_energy">   -659.23318719 </i>
    <i name="e_wo_entrp">   -659.13137397 </i>
    <i name="e_0_energy">   -659.18228058 </i>
   </energy>
  </scstep>
  <scstep>
   <time name="diag">    1.33    1.40</time>
   <time name="diis">   22.40   22.81</time>
   <time name="orth">    0.34    0.34</time>
   <time name="total">   24.27   24.75</time>
   <energy>
    <i name="e_fr_energy">   -659.31806578 </i>
    <i name="e_wo_entrp">   -659.21705350 </i>
    <i name="e_0_energy">   -659.26755964 </i>
   </energy>
  </scstep>
  <scstep>
   <time name="diag">    1.33    1.34</time>
   <time name="diis">   23.08   23.38</time>
   <time name="orth">    0.40    0.41</time>
   <time name="total">   25.04   25.36</time>
   <energy>
    <i name="e_fr_energy">   -659.38203622 </i>
    <i name="e_wo_entrp">   -659.28090080 </i>
    <i name="e_0_energy">   -659.33146851 </i>
   </energy>
  </scstep>
  <scstep>
   <time name="diag">    1.39    1.40</time>
   <time name="diis">   23.01   23.34</time>
   <time name="orth">    0.34    0.34</time>
   <time name="total">   24.94   25.29</time>
   <energy>
    <i name="e_fr_energy">   -659.43198593 </i>
    <i name="e_wo_entrp">   -659.33068958 </i>
    <i name="e_0_energy">   -659.38133776 </i>
   </energy>
  </scstep>
  <scstep>
   <time name="diag">    1.35    1.37</time>
   <time name="diis">   23.26   23.56</time>
   <time name="orth">    0.33    0.34</time>
   <time name="total">   25.13   25.47</time>
   <energy>
    <i name="e_fr_energy">   -659.46979127 </i>
    <i name="e_wo_entrp">   -659.36816718 </i>
    <i name="e_0_energy">   -659.41897923 </i>
   </energy>
  </scstep>
  <scstep>
   <time name="diag">    1.38    1.40</time>
   <time name="diis">   23.27   23.56</time>
   <time name="orth">    0.35    0.35</time>
   <time name="total">   25.19   25.50</time>
   <energy>
    <i name="e_fr_energy">   -659.50159506 </i>
    <i name="e_wo_entrp">   -659.39976931 </i>
    <i name="e_0_energy">   -659.45068219 </i>
   </energy>
  </scstep>
  <scstep>
   <time name="diag">    1.33    1.35</time>
   <time name="diis">   22.81   23.28</time>
   <time name="orth">    0.37    0.37</time>
   <time name="total">   24.71   25.20</time>
   <energy>
    <i name="e_fr_energy">   -659.52709748 </i>
    <i name="e_wo_entrp">   -659.42516362 </i>
    <i name="e_0_energy">   -659.47613055 </i>
   </energy>
  </scstep>
  <scstep>
   <time name="diag">    1.33    1.35</time>
   <time name="diis">   22.55   22.87</time>
   <time name="orth">    0.38    0.39</time>
   <time name="total">   24.47   24.81</time>
   <energy>
    <i name="e_fr_energy">   -659.55111015 </i>
    <i name="e_wo_entrp">   -659.44890417 </i>
    <i name="e_0_energy">   -659.50000716 </i>
   </energy>
  </scstep>
  <scstep>
   <time name="diag">    1.37    1.38</time>
   <time name="diis">   22.45   22.79</time>
   <time name="orth">    0.35    0.36</time>
   <time name="total">   24.38   24.73</time>
   <energy>
    <i name="e_fr_energy">   -659.56736713 </i>
    <i name="e_wo_entrp">   -659.46508769 </i>
    <i name="e_0_energy">   -659.51622741 </i>
   </energy>
  </scstep>
  <scstep>
   <time name="diag">    1.44    1.46</time>
   <time name="diis">   22.58   22.87</time>
   <time name="orth">    0.34    0.34</time>
   <time name="total">   24.55   24.87</time>
   <energy>
    <i name="e_fr_energy">   -659.58300736 </i>
    <i name="e_wo_entrp">   -659.48066300 </i>
    <i name="e_0_energy">   -659.53183518 </i>
   </energy>
  </scstep>
  <scstep>
   <time name="diag">    1.40    1.42</time>
   <time name="diis">   22.02   22.39</time>
   <time name="orth">    0.34    0.34</time>
   <time name="total">   23.95   24.38</time>
   <energy>
    <i name="e_fr_energy">   -659.59508809 </i>
    <i name="e_wo_entrp">   -659.49271538 </i>
    <i name="e_0_energy">   -659.54390174 </i>
   </energy>
  </scstep>
  <scstep>
   <time name="diag">    1.61    1.68</time>
   <time name="diis">   22.51   22.82</time>
   <time name="orth">    0.34    0.34</time>
   <time name="total">   24.65   25.03</time>
   <energy>
    <i name="e_fr_energy">   -659.60547012 </i>
    <i name="e_wo_entrp">   -659.50307205 </i>
    <i name="e_0_energy">   -659.55427109 </i>
   </energy>
  </scstep>
  <scstep>
   <time name="diag">    1.36    1.37</time>
   <time name="diis">   22.48   22.86</time>
   <time name="orth">    0.34    0.34</time>
   <time name="total">   24.37   24.77</time>
   <energy>
    <i name="e_fr_energy">   -659.61344551 </i>
    <i name="e_wo_entrp">   -659.51099685 </i>
    <i name="e_0_energy">   -659.56222118 </i>
   </energy>
  </scstep>
  <scstep>
   <time name="diag">    1.37    1.39</time>
   <time name="diis">   22.69   23.05</time>
   <time name="orth">    0.34    0.34</time>
   <time name="total">   24.63   25.01</time>
   <energy>
    <i name="e_fr_energy">   -659.62121567 </i>
    <i name="e_wo_entrp">   -659.51870379 </i>
    <i name="e_0_energy">   -659.56995973 </i>
   </energy>
  </scstep>
  <scstep>
   <time name="diag">    1.35    1.36</time>
   <time name="diis">   22.41   22.78</time>
   <time name="orth">    0.39    0.39</time>
   <time name="total">   24.35   24.75</time>
   <energy>
    <i name="e_fr_energy">   -659.62713710 </i>
    <i name="e_wo_entrp">   -659.52453854 </i>
    <i name="e_0_energy">   -659.57583782 </i>
   </energy>
  </scstep>
  <scstep>
   <time name="diag">    1.44    1.45</time>
   <time name="diis">   21.75   22.21</time>
   <time name="orth">    0.33    0.34</time>
   <time name="total">   23.72   24.20</time>
   <energy>
    <i name="e_fr_energy">   -659.63274133 </i>
    <i name="e_wo_entrp">   -659.53012922 </i>
    <i name="e_0_energy">   -659.58143527 </i>
   </energy>
  </scstep>
  <scstep>
   <time name="diag">    1.38    1.40</time>
   <time name="diis">   22.12   22.49</time>
   <time name="orth">    0.33    0.34</time>
   <time name="total">   24.03   24.43</time>
   <energy>
    <i name="e_fr_energy">   -659.63688726 </i>
    <i name="e_wo_entrp">   -659.53424439 </i>
    <i name="e_0_energy">   -659.58556583 </i>
   </energy>
  </scstep>
  <scstep>
   <time name="diag">    1.33    1.34</time>
   <time name="diis">   22.27   22.69</time>
   <time name="orth">    0.36    0.36</time>
   <time name="total">   24.15   24.60</time>
   <energy>
    <i name="e_fr_energy">   -659.64032201 </i>
    <i name="e_wo_entrp">   -659.53766350 </i>
    <i name="e_0_energy">   -659.58899276 </i>
   </energy>
  </scstep>
  <scstep>
   <time name="diag">    1.36    1.38</time>
   <time name="diis">   22.27   22.58</time>
   <time name="orth">    0.38    0.38</time>
   <time name="total">   24.21   24.53</time>
   <energy>
    <i name="e_fr_energy">   -659.64291914 </i>
    <i name="e_wo_entrp">   -659.54024281 </i>
    <i name="e_0_energy">   -659.59158098 </i>
   </energy>
  </scstep>
  <scstep>
   <time name="diag">    1.35    1.36</time>
   <time name="diis">   21.92   22.26</time>
   <time name="orth">    0.33    0.34</time>
   <time name="total">   23.81   24.17</time>
   <energy>
    <i name="e_fr_energy">   -659.64530938 </i>
    <i name="e_wo_entrp">   -659.54263225 </i>
    <i name="e_0_energy">   -659.59397082 </i>
   </energy>
  </scstep>
  <scstep>
   <time name="diag">    1.42    1.44</time>
   <time name="diis">   21.87   22.18</time>
   <time name="orth">    0.34    0.34</time>
   <time name="total">   23.82   24.16</time>
   <energy>
    <i name="e_fr_energy">   -659.64741186 </i>
    <i name="e_wo_entrp">   -659.54473713 </i>
    <i name="e_0_energy">   -659.59607450 </i>
   </energy>
  </scstep>
  <scstep>
   <time name="diag">    1.33    1.34</time>
   <time name="diis">   22.06   22.34</time>
   <time name="orth">    0.34    0.34</time>
   <time name="total">   23.95   24.25</time>
   <energy>
    <i name="e_fr_energy">   -659.64873358 </i>
    <i name="e_wo_entrp">   -659.54606535 </i>
    <i name="e_0_energy">   -659.59739946 </i>
   </energy>
  </scstep>
  <scstep>
   <time name="diag">    1.37    1.38</time>
   <time name="diis">   22.32   22.59</time>
   <time name="orth">    0.36    0.36</time>
   <time name="total">   24.26   24.55</time>
   <energy>
    <i name="e_fr_energy">   -659.64932793 </i>
    <i name="e_wo_entrp">   -659.54667381 </i>
    <i name="e_0_energy">   -659.59800087 </i>
   </energy>
  </scstep>
  <scstep>
   <time name="diag">    1.34    1.35</time>
   <time name="diis">   22.39   22.70</time>
   <time name="orth">    0.34    0.34</time>
   <time name="total">   24.27   24.60</time>
   <energy>
    <i name="e_fr_energy">   -659.64946996 </i>
    <i name="e_wo_entrp">   -659.54682302 </i>
    <i name="e_0_energy">   -659.59814649 </i>
   </energy>
  </scstep>
  <scstep>
   <time name="diag">    1.46    1.49</time>
   <time name="diis">   22.12   22.44</time>
   <time name="orth">    0.34    0.34</time>
   <time name="total">   24.11   24.46</time>
   <energy>
    <i name="e_fr_energy">   -659.65073382 </i>
    <i name="e_wo_entrp">   -659.54808994 </i>
    <i name="e_0_energy">   -659.59941188 </i>
   </energy>
  </scstep>
  <scstep>
   <time name="diag">    1.34    1.35</time>
   <time name="diis">   21.32   21.61</time>
   <time name="orth">    0.34    0.34</time>
   <time name="total">   23.19   23.50</time>
   <energy>
    <i name="e_fr_energy">   -659.65169166 </i>
    <i name="e_wo_entrp">   -659.54905002 </i>
    <i name="e_0_energy">   -659.60037084 </i>
   </energy>
  </scstep>
  <scstep>
   <time name="diag">    1.35    1.37</time>
   <time name="diis">   20.71   20.99</time>
   <time name="orth">    0.33    0.34</time>
   <time name="total">   22.62   22.91</time>
   <energy>
    <i name="e_fr_energy">   -659.65256814 </i>
    <i name="e_wo_entrp">   -659.54992584 </i>
    <i name="e_0_energy">   -659.60124699 </i>
   </energy>
  </scstep>
  <scstep>
   <time name="diag">    1.41    1.42</time>
   <time name="diis">   20.17   20.49</time>
   <time name="orth">    0.36    0.36</time>
   <time name="total">   22.13   22.48</time>
   <energy>
    <i name="e_fr_energy">   -659.65325377 </i>
    <i name="e_wo_entrp">   -659.55060514 </i>
    <i name="e_0_energy">   -659.60192946 </i>
   </energy>
  </scstep>
  <scstep>
   <time name="diag">    1.33    1.34</time>
   <time name="diis">   20.64   20.99</time>
   <time name="orth">    0.35    0.36</time>
   <time name="total">   22.52   22.89</time>
   <energy>
    <i name="e_fr_energy">   -659.65386861 </i>
    <i name="e_wo_entrp">   -659.55121828 </i>
    <i name="e_0_energy">   -659.60254345 </i>
   </energy>
  </scstep>
  <scstep>
   <time name="diag">    1.33    1.35</time>
   <time name="diis">   20.12   20.40</time>
   <time name="orth">    0.34    0.34</time>
   <time name="total">   22.02   22.32</time>
   <energy>
    <i name="e_fr_energy">   -659.65438414 </i>
    <i name="e_wo_entrp">   -659.55174589 </i>
    <i name="e_0_energy">   -659.60306501 </i>
   </energy>
  </scstep>
  <scstep>
   <time name="diag">    1.39    1.43</time>
   <time name="diis">   21.68   21.96</time>
   <time name="orth">    0.34    0.34</time>
   <time name="total">   23.60   23.92</time>
   <energy>
    <i name="e_fr_energy">   -659.65479519 </i>
    <i name="e_wo_entrp">   -659.55217961 </i>
    <i name="e_0_energy">   -659.60348740 </i>
   </energy>
  </scstep>
  <scstep>
   <time name="diag">    1.33    1.35</time>
   <time name="diis">   20.40   20.80</time>
   <time name="orth">    0.36    0.36</time>
   <time name="total">   22.30   22.71</time>
   <energy>
    <i name="e_fr_energy">   -659.65521157 </i>
    <i name="e_wo_entrp">   -659.55260337 </i>
    <i name="e_0_energy">   -659.60390747 </i>
   </energy>
  </scstep>
  <scstep>
   <time name="diag">    1.43    1.44</time>
   <time name="diis">   20.26   20.62</time>
   <time name="orth">    0.34    0.34</time>
   <time name="total">   22.22   22.60</time>
   <energy>
    <i name="e_fr_energy">   -659.65554213 </i>
    <i name="e_wo_entrp">   -659.55293919 </i>
    <i name="e_0_energy">   -659.60424066 </i>
   </energy>
  </scstep>
  <scstep>
   <time name="diag">    1.33    1.35</time>
   <time name="diis">   20.15   20.47</time>
   <time name="orth">    0.36    0.36</time>
   <time name="total">   22.04   22.38</time>
   <energy>
    <i name="e_fr_energy">   -659.65583898 </i>
    <i name="e_wo_entrp">   -659.55323983 </i>
    <i name="e_0_energy">   -659.60453940 </i>
   </energy>
  </scstep>
  <scstep>
   <time name="diag">    1.45    1.50</time>
   <time name="diis">   18.77   19.11</time>
   <time name="orth">    0.38    0.39</time>
   <time name="total">   20.84   21.23</time>
   <energy>
    <i name="e_fr_energy">   -659.65612469 </i>
    <i name="e_wo_entrp">   -659.55352447 </i>
    <i name="e_0_energy">   -659.60482458 </i>
   </energy>
  </scstep>
  <scstep>
   <time name="diag">    1.35    1.40</time>
   <time name="diis">   18.59   18.86</time>
   <time name="orth">    0.37    0.41</time>
   <time name="total">   20.52   20.86</time>
   <energy>
    <i name="e_fr_energy">   -659.65636284 </i>
    <i name="e_wo_entrp">   -659.55376213 </i>
    <i name="e_0_energy">   -659.60506249 </i>
   </energy>
  </scstep>
  <scstep>
   <time name="diag">    1.34    1.36</time>
   <time name="diis">   18.70   19.09</time>
   <time name="orth">    0.34    0.34</time>
   <time name="total">   20.58   20.99</time>
   <energy>
    <i name="e_fr_energy">   -659.65660172 </i>
    <i name="e_wo_entrp">   -659.55400394 </i>
    <i name="e_0_energy">   -659.60530283 </i>
   </energy>
  </scstep>
  <scstep>
   <time name="diag">    1.36    1.38</time>
   <time name="diis">   18.58   18.80</time>
   <time name="orth">    0.33    0.34</time>
   <time name="total">   20.49   20.74</time>
   <energy>
    <i name="e_fr_energy">   -659.65679840 </i>
    <i name="e_wo_entrp">   -659.55420173 </i>
    <i name="e_0_energy">   -659.60550006 </i>
   </energy>
  </scstep>
  <scstep>
   <time name="diag">    1.33    1.35</time>
   <time name="diis">   17.78   17.99</time>
   <time name="orth">    0.34    0.34</time>
   <time name="total">   19.65   19.88</time>
   <energy>
    <i name="e_fr_energy">   -659.65699811 </i>
    <i name="e_wo_entrp">   -659.55439914 </i>
    <i name="e_0_energy">   -659.60569862 </i>
   </energy>
  </scstep>
  <scstep>
   <time name="diag">    1.36    1.41</time>
   <time name="diis">   17.67   17.97</time>
   <time name="orth">    0.38    0.38</time>
   <time name="total">   19.62   19.97</time>
   <energy>
    <i name="e_fr_energy">   -659.65716329 </i>
    <i name="e_wo_entrp">   -659.55457083 </i>
    <i name="e_0_energy">   -659.60586706 </i>
   </energy>
  </scstep>
  <scstep>
   <time name="diag">    1.35    1.37</time>
   <time name="diis">   16.98   17.38</time>
   <time name="orth">    0.33    0.34</time>
   <time name="total">   18.86   19.28</time>
   <energy>
    <i name="e_fr_energy">   -659.65733180 </i>
    <i name="e_wo_entrp">   -659.55473947 </i>
    <i name="e_0_energy">   -659.60603564 </i>
   </energy>
  </scstep>
  <scstep>
   <time name="diag">    1.43    1.45</time>
   <time name="diis">   16.23   16.57</time>
   <time name="orth">    0.34    0.34</time>
   <time name="total">   18.21   18.57</time>
   <energy>
    <i name="e_fr_energy">   -659.65746404 </i>
    <i name="e_wo_entrp">   -659.55487161 </i>
    <i name="e_0_energy">   -659.60616782 </i>
   </energy>
  </scstep>
  <scstep>
   <time name="diag">    1.36    1.37</time>
   <time name="diis">   16.19   16.54</time>
   <time name="orth">    0.41    0.41</time>
   <time name="total">   18.15   18.53</time>
   <energy>
    <i name="e_fr_energy">   -659.65761627 </i>
    <i name="e_wo_entrp">   -659.55502457 </i>
    <i name="e_0_energy">   -659.60632042 </i>
   </energy>
  </scstep>
  <scstep>
   <time name="diag">    1.36    1.37</time>
   <time name="diis">   16.00   16.23</time>
   <time name="orth">    0.34    0.34</time>
   <time name="total">   17.89   18.14</time>
   <energy>
    <i name="e_fr_energy">   -659.65773190 </i>
    <i name="e_wo_entrp">   -659.55514198 </i>
    <i name="e_0_energy">   -659.60643694 </i>
   </energy>
  </scstep>
  <scstep>
   <time name="diag">    1.34    1.35</time>
   <time name="diis">   15.64   15.91</time>
   <time name="orth">    0.33    0.34</time>
   <time name="total">   17.51   17.80</time>
   <energy>
    <i name="e_fr_energy">   -659.65786473 </i>
    <i name="e_wo_entrp">   -659.55527574 </i>
    <i name="e_0_energy">   -659.60657024 </i>
   </energy>
  </scstep>
  <scstep>
   <time name="diag">    1.34    1.36</time>
   <time name="diis">   15.61   15.88</time>
   <time name="orth">    0.34    0.34</time>
   <time name="total">   17.49   17.78</time>
   <energy>
    <i name="e_fr_energy">   -659.65796772 </i>
    <i name="e_wo_entrp">   -659.55537788 </i>
    <i name="e_0_energy">   -659.60667280 </i>
   </energy>
  </scstep>
  <scstep>
   <time name="diag">    1.36    1.38</time>
   <time name="diis">   15.01   15.19</time>
   <time name="orth">    0.39    0.41</time>
   <time name="total">   16.79   17.00</time>
   <energy>
    <i name="alphaZ">   4317.66593060 </i>
    <i name="ewald"> -42079.68132153 </i>
    <i name="hartreedc">  -6847.44339609 </i>
    <i name="XCdc">   1920.58095579 </i>
    <i name="pawpsdc">  30041.03742479 </i>
    <i name="pawaedc"> -29546.05644429 </i>
    <i name="eentropy">     -0.10259025 </i>
    <i name="bandstr">  -5558.92774939 </i>
    <i name="atom">  47093.26909977 </i>
    <i name="e_fr_energy">   -659.65809060 </i>
    <i name="e_wo_entrp">   -659.55550035 </i>
    <i name="e_0_energy">   -659.60679548 </i>
   </energy>
  </scstep>
  <structure>
   <crystal>
    <varray name="basis" >
     <v>       8.98174048       0.00300242      -0.00131830 </v>
     <v>       0.00299086       9.04084209       0.00061124 </v>
     <v>      -0.00132544       0.00063915       8.98398262 </v>
    </varray>
    <i name="volume">    729.52172537 </i>
    <varray name="rec_basis" >
     <v>       0.11133701      -0.00003683       0.00001643 </v>
     <v>      -0.00003698       0.11060918      -0.00000787 </v>
     <v>       0.00001634      -0.00000753       0.11130921 </v>
    </varray>
   </crystal>
   <varray name="positions" >
    <v>       0.00020198       0.99776398       0.01199979 </v>
    <v>       0.24335097       0.99645924       0.25122035 </v>
    <v>       0.25636450       0.50537613       0.24860313 </v>
    <v>       0.49937042       0.50015461       0.99937361 </v>
    <v>       0.49068499       0.25878873       0.75443522 </v>
    <v>       0.00379417       0.49962173       0.49760474 </v>
    <v>       0.49893801       0.73983614       0.74977415 </v>
    <v>       0.99903062       0.23860309       0.25989754 </v>
    <v>       0.75432275       0.74434720       0.99693073 </v>
    <v>       0.00485340       0.26409593       0.73844632 </v>
    <v>       0.75931875       0.26431460       0.50156459 </v>
    <v>       0.99900570       0.73667910       0.74909737 </v>
    <v>       0.25394934       0.49946688       0.75228009 </v>
    <v>       0.24674941       0.25195014       0.00208810 </v>
    <v>       0.49792776       0.25275477       0.24749151 </v>
    <v>       0.75441866       0.99739595       0.25013812 </v>
    <v>       0.75112982       0.25428459       0.99563967 </v>
    <v>       0.24874602       0.74843539       0.99977764 </v>
    <v>       0.24777147       0.25318173       0.49768615 </v>
    <v>       0.25020470       0.24949376       0.24945691 </v>
    <v>       0.24340150       0.00120563       0.00636600 </v>
    <v>       0.99987617       0.24201577       0.00017335 </v>
    <v>       0.74920365       0.25115523       0.24934900 </v>
    <v>       0.75633664       0.00353943       0.00180431 </v>
    <v>       0.50128156       0.00489956       0.24969106 </v>
    <v>       0.99721978       0.49970813       0.25636043 </v>
    <v>       0.49870735       0.74668527       0.99467255 </v>
    <v>       0.99723949       0.00269763       0.74861418 </v>
    <v>       0.74681312       0.25246008       0.74935119 </v>
    <v>       0.75512159       0.00143849       0.49816600 </v>
    <v>       0.50164852       0.25276058       0.50150350 </v>
    <v>       0.50254414       0.00219665       0.75010072 </v>
    <v>       0.00278020       0.99758368       0.24814079 </v>
    <v>       0.49941088       0.25281315       0.99694966 </v>
    <v>       0.24562492       0.74902615       0.24772702 </v>
    <v>       0.25413245       0.49944570       0.00491503 </v>
    <v>       0.99866106       0.75573694       0.00118479 </v>
    <v>       0.75334256       0.74661370       0.25116306 </v>
    <v>       0.74558348       0.50044526       0.00072325 </v>
    <v>       0.49974189       0.49837487       0.25021474 </v>
    <v>       0.25240038       0.25272892       0.75045009 </v>
    <v>       0.24530877       0.00269173       0.49407936 </v>
    <v>       0.00113581       0.25261804       0.49958473 </v>
    <v>       0.25326337       0.74690222       0.75288850 </v>
    <v>       0.24962339       0.49795407       0.49533222 </v>
    <v>       0.99584399       0.74945534       0.49851286 </v>
    <v>       0.99786942       0.50046275       0.74346998 </v>
    <v>       0.74597397       0.74569888       0.74926267 </v>
    <v>       0.75393600       0.50054968       0.49930472 </v>
    <v>       0.50416015       0.74532936       0.50631163 </v>
    <v>       0.50186922       0.49876009       0.75110763 </v>
    <v>       0.49905149       0.00113072       0.99694579 </v>
    <v>       0.00100109       0.50098237       0.00362134 </v>
    <v>       0.49887555       0.74856746       0.24961970 </v>
    <v>       0.24485922       0.99989016       0.74977251 </v>
    <v>       0.49798284       0.99819449       0.50281020 </v>
    <v>       0.75473270       0.99579102       0.74947638 </v>
    <v>       0.24832615       0.74627925       0.50098588 </v>
    <v>       0.00077496       0.75834811       0.25087401 </v>
    <v>       0.74477605       0.50466663       0.24868912 </v>
    <v>       0.00375016       0.00067042       0.49077054 </v>
    <v>       0.49848548       0.50031292       0.50104026 </v>
    <v>       0.74573929       0.50196192       0.75153869 </v>
    <v>       0.75145685       0.73624852       0.50287552 </v>
   </varray>
  </structure>
  <varray name="forces" >
   <v>       0.00060917      -0.00021877      -0.00182920 </v>
   <v>      -0.00314635       0.00012771       0.00083849 </v>
   <v>       0.00573324      -0.00118103       0.00035513 </v>
   <v>      -0.00283351      -0.00190304      -0.00119800 </v>
   <v>       0.00031740       0.00325875      -0.00471802 </v>
   <v>       0.00109284      -0.00165439      -0.00160502 </v>
   <v>       0.00020840       0.00089295       0.00466664 </v>
   <v>      -0.00063705      -0.01260417       0.01213135 </v>
   <v>       0.00577306      -0.00775163       0.00092989 </v>
   <v>       0.00608736       0.02039569      -0.01892388 </v>
   <v>       0.01920669       0.01564736       0.00156880 </v>
   <v>       0.00188765      -0.01142115       0.00101178 </v>
   <v>       0.00504662      -0.00010191       0.00142227 </v>
   <v>      -0.00038499      -0.00131601      -0.00148809 </v>
   <v>       0.00197977       0.00084661       0.00119884 </v>
   <v>       0.00049932      -0.00334017      -0.00060683 </v>
   <v>      -0.00405198      -0.00067450       0.00051168 </v>
   <v>      -0.00405832       0.00075522       0.00081779 </v>
   <v>      -0.00166164       0.00006772      -0.00088425 </v>
   <v>       0.00247078       0.00002637      -0.00166423 </v>
   <v>      -0.00073615       0.00001565      -0.00180565 </v>
   <v>      -0.00224430       0.00127785      -0.00084224 </v>
   <v>      -0.00182886      -0.00008861      -0.00455448 </v>
   <v>      -0.00638290       0.00253869      -0.00066405 </v>
   <v>       0.00356339       0.00110574       0.00076238 </v>
   <v>      -0.00208838       0.00129790      -0.00195592 </v>
   <v>      -0.00526973       0.00266659       0.00132306 </v>
   <v>      -0.00320282      -0.00176996       0.00003222 </v>
   <v>      -0.00163906      -0.00100282       0.00494267 </v>
   <v>      -0.00001561      -0.00369252       0.00070279 </v>
   <v>      -0.00420145       0.00115787      -0.00045885 </v>
   <v>      -0.00022519      -0.00042862       0.00139153 </v>
   <v>      -0.00412100      -0.00319026       0.00207460 </v>
   <v>       0.00014378      -0.00034960       0.00177726 </v>
   <v>      -0.00044190      -0.00061165       0.00099100 </v>
   <v>      -0.00452869      -0.00038802      -0.00130348 </v>
   <v>       0.00068859      -0.00573785       0.00102127 </v>
   <v>      -0.00087269      -0.00011760       0.00190248 </v>
   <v>       0.00226870      -0.00376698      -0.00134030 </v>
   <v>       0.00305727       0.00146736      -0.00069199 </v>
   <v>      -0.00279417      -0.00017050       0.00184470 </v>
   <v>      -0.00001163       0.00029164       0.00123962 </v>
   <v>       0.00321301      -0.00115586       0.00082406 </v>
   <v>      -0.00153820      -0.00049663       0.00070754 </v>
   <v>       0.00376904       0.00083068       0.00008041 </v>
   <v>       0.00128238       0.00002352       0.00115012 </v>
   <v>      -0.00071859      -0.00275220       0.00077447 </v>
   <v>       0.00030470      -0.00047133      -0.00072131 </v>
   <v>      -0.00143827       0.00283225       0.00026739 </v>
   <v>       0.00091989       0.00242867      -0.00231359 </v>
   <v>      -0.00110557       0.00295730      -0.00050876 </v>
   <v>      -0.00373706       0.00177814       0.00221521 </v>
   <v>      -0.00359889      -0.00176110      -0.00287255 </v>
   <v>       0.00278422      -0.00199704      -0.00223882 </v>
   <v>       0.00045016       0.00067023       0.00115758 </v>
   <v>      -0.00160826      -0.00026008       0.00014518 </v>
   <v>      -0.00193304      -0.00289571       0.00260550 </v>
   <v>       0.00186144       0.00056439       0.00045548 </v>
   <v>      -0.00085188       0.00073271      -0.00125686 </v>
   <v>      -0.00663582       0.00011532      -0.00024436 </v>
   <v>       0.00423157       0.00251376       0.00206778 </v>
   <v>      -0.00091765       0.00301564       0.00240099 </v>
   <v>      -0.00027062       0.00074768      -0.00048060 </v>
   <v>       0.00228180       0.00222376      -0.00313862 </v>
  </varray>
  <varray name="stress" >
   <v>      -1.85309491       0.02789868      -0.00248733 </v>
   <v>       0.02789833      -1.48272892      -0.02101158 </v>
   <v>      -0.00248880      -0.02101378      -0.89249785 </v>
  </varray>
  <energy>
   <i name="e_fr_energy">   -659.65809060 </i>
   <i name="e_wo_entrp">   -659.55550035 </i>
   <i name="e_0_energy">   -659.60679548 </i>
  </energy>
  <time name="totalsc"> 1408.56 1430.17</time>
 </calculation>
 <calculation>
  <scstep>
   <time name="dav">   27.09   27.58</time>
   <time name="total">   27.29   27.78</time>
   <energy>
    <i name="alphaZ">   4323.93819809 </i>
    <i name="ewald"> -42099.83754914 </i>
    <i name="hartreedc">  -6850.94040635 </i>
    <i name="XCdc">   1921.54270295 </i>
    <i name="pawpsdc">  30040.99022582 </i>
    <i name="pawaedc"> -29546.01973576 </i>
    <i name="eentropy">     -0.10204519 </i>
    <i name="bandstr">  -5542.50441118 </i>
    <i name="atom">  47093.26909977 </i>
    <i name="e_fr_energy">   -659.66392098 </i>
    <i name="e_wo_entrp">   -659.56187579 </i>
    <i name="e_0_energy">   -659.61289839 </i>
   </energy>
  </scstep>
  <scstep>
   <time name="diag">    1.33    1.35</time>
   <time name="diis">   19.12   19.36</time>
   <time name="orth">    0.33    0.34</time>
   <time name="total">   20.99   21.59</time>
   <energy>
    <i name="e_fr_energy">   -659.66045169 </i>
    <i name="e_wo_entrp">   -659.55771570 </i>
    <i name="e_0_energy">   -659.60908370 </i>
   </energy>
  </scstep>
  <scstep>
   <time name="diag">    1.42    1.44</time>
   <time name="diis">   19.18   19.43</time>
   <time name="orth">    0.33    0.34</time>
   <time name="total">   21.14   21.42</time>
   <energy>
    <i name="e_fr_energy">   -659.65914193 </i>
    <i name="e_wo_entrp">   -659.55732443 </i>
    <i name="e_0_energy">   -659.60823318 </i>
   </energy>
  </scstep>
  <scstep>
   <time name="diag">    1.38    1.40</time>
   <time name="diis">   20.31   20.58</time>
   <time name="orth">    0.34    0.35</time>
   <time name="total">   22.24   22.52</time>
   <energy>
    <i name="e_fr_energy">   -659.65875012 </i>
    <i name="e_wo_entrp">   -659.55643732 </i>
    <i name="e_0_energy">   -659.60759372 </i>
   </energy>
  </scstep>
  <scstep>
   <time name="diag">    1.36    1.37</time>
   <time name="diis">   21.68   21.98</time>
   <time name="orth">    0.39    0.40</time>
   <time name="total">   23.67   23.99</time>
   <energy>
    <i name="e_fr_energy">   -659.65877271 </i>
    <i name="e_wo_entrp">   -659.55648942 </i>
    <i name="e_0_energy">   -659.60763106 </i>
   </energy>
  </scstep>
  <scstep>
   <time name="diag">    1.35    1.37</time>
   <time name="diis">   20.65   20.96</time>
   <time name="orth">    0.34    0.34</time>
   <time name="total">   22.56   22.89</time>
   <energy>
    <i name="e_fr_energy">   -659.65881522 </i>
    <i name="e_wo_entrp">   -659.55661690 </i>
    <i name="e_0_energy">   -659.60771606 </i>
   </energy>
  </scstep>
  <scstep>
   <time name="diag">    1.34    1.36</time>
   <time name="diis">   18.81   19.08</time>
   <time name="orth">    0.34    0.34</time>
   <time name="total">   20.69   20.97</time>
   <energy>
    <i name="e_fr_energy">   -659.65886615 </i>
    <i name="e_wo_entrp">   -659.55663334 </i>
    <i name="e_0_energy">   -659.60774974 </i>
   </energy>
  </scstep>
  <scstep>
   <time name="diag">    1.36    1.37</time>
   <time name="diis">   18.10   18.29</time>
   <time name="orth">    0.33    0.34</time>
   <time name="total">   19.98   20.19</time>
   <energy>
    <i name="e_fr_energy">   -659.65889848 </i>
    <i name="e_wo_entrp">   -659.55667515 </i>
    <i name="e_0_energy">   -659.60778681 </i>
   </energy>
  </scstep>
  <scstep>
   <time name="diag">    1.34    1.36</time>
   <time name="diis">   16.20   16.42</time>
   <time name="orth">    0.34    0.34</time>
   <time name="total">   18.07   18.32</time>
   <energy>
    <i name="e_fr_energy">   -659.65891715 </i>
    <i name="e_wo_entrp">   -659.55669564 </i>
    <i name="e_0_energy">   -659.60780639 </i>
   </energy>
  </scstep>
  <scstep>
   <time name="diag">    1.34    1.36</time>
   <time name="diis">   15.64   15.86</time>
   <time name="orth">    0.35    0.36</time>
   <time name="total">   17.53   17.77</time>
   <energy>
    <i name="e_fr_energy">   -659.65892992 </i>
    <i name="e_wo_entrp">   -659.55671280 </i>
    <i name="e_0_energy">   -659.60782136 </i>
   </energy>
  </scstep>
  <scstep>
   <time name="diag">    1.33    1.37</time>
   <time name="diis">   14.15   14.30</time>
   <time name="orth">    0.37    0.37</time>
   <time name="total">   15.87   16.06</time>
   <energy>
    <i name="alphaZ">   4323.93819809 </i>
    <i name="ewald"> -42099.83754914 </i>
    <i name="hartreedc">  -6841.49029229 </i>
    <i name="XCdc">   1920.99112946 </i>
    <i name="pawpsdc">  30056.96194732 </i>
    <i name="pawaedc"> -29561.47048958 </i>
    <i name="eentropy">     -0.10221950 </i>
    <i name="bandstr">  -5551.91876187 </i>
    <i name="atom">  47093.26909977 </i>
    <i name="e_fr_energy">   -659.65893772 </i>
    <i name="e_wo_entrp">   -659.55671822 </i>
    <i name="e_0_energy">   -659.60782797 </i>
   </energy>
  </scstep>
  <structure>
   <crystal>
    <varray name="basis" >
     <v>       8.97602787       0.00308691      -0.00132559 </v>
     <v>       0.00307553       9.03624114       0.00054585 </v>
     <v>      -0.00133226       0.00057401       8.98123058 </v>
    </varray>
    <i name="volume">    728.46348744 </i>
    <varray name="rec_basis" >
     <v>       0.11140787      -0.00003792       0.00001653 </v>
     <v>      -0.00003806       0.11066550      -0.00000708 </v>
     <v>       0.00001645      -0.00000673       0.11134332 </v>
    </varray>
   </crystal>
   <varray name="positions" >
    <v>       0.00020525       0.99776281       0.01198996 </v>
    <v>       0.24333407       0.99645993       0.25122485 </v>
    <v>       0.25639530       0.50536982       0.24860504 </v>
    <v>       0.49935520       0.50014446       0.99936718 </v>
    <v>       0.49068669       0.25880612       0.75440989 </v>
    <v>       0.00380004       0.49961290       0.49759612 </v>
    <v>       0.49893913       0.73984090       0.74979920 </v>
    <v>       0.99902723       0.23853583       0.25996269 </v>
    <v>       0.75435378       0.74430582       0.99693573 </v>
    <v>       0.00488605       0.26420476       0.73834469 </v>
    <v>       0.75942188       0.26439806       0.50157302 </v>
    <v>       0.99901586       0.73661815       0.74910281 </v>
    <v>       0.25397645       0.49946633       0.75228773 </v>
    <v>       0.24674734       0.25194312       0.00208011 </v>
    <v>       0.49793839       0.25275928       0.24749794 </v>
    <v>       0.75442135       0.99737813       0.25013487 </v>
    <v>       0.75110805       0.25428099       0.99564242 </v>
    <v>       0.24872422       0.74843942       0.99978202 </v>
    <v>       0.24776255       0.25318209       0.49768140 </v>
    <v>       0.25021797       0.24949390       0.24944797 </v>
    <v>       0.24339754       0.00120572       0.00635630 </v>
    <v>       0.99986412       0.24202259       0.00016883 </v>
    <v>       0.74919382       0.25115476       0.24932454 </v>
    <v>       0.75630236       0.00355299       0.00180074 </v>
    <v>       0.50130069       0.00490545       0.24969516 </v>
    <v>       0.99720856       0.49971506       0.25634992 </v>
    <v>       0.49867904       0.74669951       0.99467965 </v>
    <v>       0.99722229       0.00268819       0.74861435 </v>
    <v>       0.74680432       0.25245473       0.74937773 </v>
    <v>       0.75512151       0.00141878       0.49816977 </v>
    <v>       0.50162595       0.25276676       0.50150104 </v>
    <v>       0.50254293       0.00219437       0.75010819 </v>
    <v>       0.00275807       0.99756666       0.24815193 </v>
    <v>       0.49941165       0.25281129       0.99695920 </v>
    <v>       0.24562255       0.74902289       0.24773234 </v>
    <v>       0.25410813       0.49944363       0.00490803 </v>
    <v>       0.99866477       0.75570632       0.00119028 </v>
    <v>       0.75333788       0.74661307       0.25117327 </v>
    <v>       0.74559567       0.50042516       0.00071605 </v>
    <v>       0.49975831       0.49838270       0.25021103 </v>
    <v>       0.25238538       0.25272801       0.75045999 </v>
    <v>       0.24530870       0.00269329       0.49408602 </v>
    <v>       0.00115307       0.25261187       0.49958916 </v>
    <v>       0.25325511       0.74689957       0.75289230 </v>
    <v>       0.24964363       0.49795850       0.49533266 </v>
    <v>       0.99585088       0.74945546       0.49851904 </v>
    <v>       0.99786556       0.50044806       0.74347414 </v>
    <v>       0.74597560       0.74569636       0.74925879 </v>
    <v>       0.75392827       0.50056480       0.49930616 </v>
    <v>       0.50416509       0.74534232       0.50629921 </v>
    <v>       0.50186328       0.49877587       0.75110490 </v>
    <v>       0.49903142       0.00114021       0.99695768 </v>
    <v>       0.00098176       0.50097298       0.00360591 </v>
    <v>       0.49889050       0.74855680       0.24960768 </v>
    <v>       0.24486164       0.99989374       0.74977873 </v>
    <v>       0.49797420       0.99819311       0.50281098 </v>
    <v>       0.75472233       0.99577557       0.74949037 </v>
    <v>       0.24833614       0.74628226       0.50098832 </v>
    <v>       0.00077038       0.75835202       0.25086726 </v>
    <v>       0.74474040       0.50466726       0.24868781 </v>
    <v>       0.00377288       0.00068383       0.49078164 </v>
    <v>       0.49848055       0.50032901       0.50105315 </v>
    <v>       0.74573783       0.50196591       0.75153611 </v>
    <v>       0.75146910       0.73626038       0.50285867 </v>
   </varray>
  </structure>
  <varray name="forces" >
   <v>      -0.00018262       0.00214398      -0.00522008 </v>
   <v>       0.00850681       0.00266364      -0.00033206 </v>
   <v>      -0.00703089      -0.00288824      -0.00200949 </v>
   <v>       0.00102207       0.00077218      -0.00016910 </v>
   <v>       0.00577260      -0.00388810      -0.00073390 </v>
   <v>       0.00201031       0.00429073      -0.00324168 </v>
   <v>      -0.00015915       0.00726991       0.00050170 </v>
   <v>       0.00206956       0.01550271      -0.01374876 </v>
   <v>      -0.00966442       0.00829998       0.00300814 </v>
   <v>      -0.01251287      -0.02063822       0.01635758 </v>
   <v>      -0.01937412      -0.01909819      -0.00046714 </v>
   <v>      -0.00030846       0.01234275      -0.00008656 </v>
   <v>      -0.00286815       0.00207047      -0.00023387 </v>
   <v>      -0.00240207      -0.00158268       0.00089533 </v>
   <v>       0.00121316      -0.00268383       0.00242734 </v>
   <v>      -0.00661326       0.00163679      -0.00046082 </v>
   <v>       0.00191251      -0.00371780      -0.00036750 </v>
   <v>       0.00104784       0.00252074       0.00049025 </v>
   <v>       0.00784705      -0.00064343      -0.00141723 </v>
   <v>      -0.00318138      -0.00043332      -0.00027074 </v>
   <v>      -0.00437860      -0.00010845       0.00114840 </v>
   <v>      -0.00114207      -0.00409587      -0.00074988 </v>
   <v>       0.00429484       0.00011930       0.00521305 </v>
   <v>       0.00015133      -0.00503762      -0.00069612 </v>
   <v>      -0.00425427      -0.00101963       0.00106980 </v>
   <v>       0.00529970      -0.00200911       0.00060190 </v>
   <v>       0.00265872      -0.00172579      -0.00088233 </v>
   <v>       0.00158360      -0.00049815       0.00208782 </v>
   <v>      -0.00051089      -0.00101922      -0.00653858 </v>
   <v>      -0.00132772       0.00192889       0.00245306 </v>
   <v>       0.00658137       0.00055319       0.00259606 </v>
   <v>      -0.00176299      -0.00027435       0.00016242 </v>
   <v>       0.00471229      -0.00136494      -0.00294876 </v>
   <v>      -0.00149475       0.00337380      -0.00244850 </v>
   <v>       0.00253825      -0.00077829       0.00070540 </v>
   <v>       0.00435624      -0.00026049       0.00077365 </v>
   <v>      -0.00154797       0.00094291      -0.00110247 </v>
   <v>      -0.00030302       0.00115342      -0.00254533 </v>
   <v>      -0.00489278       0.00069263      -0.00098790 </v>
   <v>      -0.00590013       0.00104078      -0.00235870 </v>
   <v>       0.00257508       0.00042111      -0.00179505 </v>
   <v>       0.00518696      -0.00071539       0.00028678 </v>
   <v>       0.00476181       0.00380432      -0.00253373 </v>
   <v>       0.00225680       0.00074102       0.00073898 </v>
   <v>      -0.00157958       0.00211171      -0.00181183 </v>
   <v>       0.00441309      -0.00275179       0.00094759 </v>
   <v>       0.00339750       0.00239535      -0.00216145 </v>
   <v>      -0.00141566       0.00182818       0.00198090 </v>
   <v>       0.00495099       0.00005093      -0.00068704 </v>
   <v>       0.00000785       0.00402503       0.00048891 </v>
   <v>      -0.00129871       0.00190877       0.00212641 </v>
   <v>      -0.00179844      -0.00072758       0.00180632 </v>
   <v>       0.00047353      -0.00804560       0.00238416 </v>
   <v>      -0.00078331       0.00671227      -0.00277780 </v>
   <v>       0.00253284      -0.00068553       0.00224134 </v>
   <v>       0.00560513       0.00287239      -0.00084283 </v>
   <v>      -0.00340968       0.00220582       0.00178455 </v>
   <v>       0.00145074       0.00131108       0.00057008 </v>
   <v>       0.00085615      -0.00953163       0.00054022 </v>
   <v>       0.00703834      -0.00492364      -0.00152897 </v>
   <v>      -0.00625529      -0.00395013       0.00734369 </v>
   <v>      -0.00009529      -0.00181896       0.00117097 </v>
   <v>      -0.00091945      -0.00464042       0.00046609 </v>
   <v>       0.00028289       0.01184961      -0.00121270 </v>
  </varray>
  <varray name="stress" >
   <v>       3.42016576       0.00317351      -0.02337111 </v>
   <v>       0.00317147       3.14920658      -0.00500171 </v>
   <v>      -0.02337056      -0.00499987       2.74462163 </v>
  </varray>
  <energy>
   <i name="e_fr_energy">   -659.65893772 </i>
   <i name="e_wo_entrp">   -659.55671822 </i>
   <i name="e_0_energy">   -659.60782797 </i>
  </energy>
  <time name="totalsc">  265.92  269.90</time>
 </calculation>
 <calculation>
  <scstep>
   <time name="dav">   27.81   28.17</time>
   <time name="total">   28.01   28.37</time>
   <energy>
    <i name="alphaZ">   4319.79387457 </i>
    <i name="ewald"> -42086.52241047 </i>
    <i name="hartreedc">  -6839.21703494 </i>
    <i name="XCdc">   1920.35806816 </i>
    <i name="pawpsdc">  30057.08935620 </i>
    <i name="pawaedc"> -29561.58261779 </i>
    <i name="eentropy">     -0.10258898 </i>
    <i name="bandstr">  -5562.74801396 </i>
    <i name="atom">  47093.26909977 </i>
[...]
      </set>
     </set>
    </set>
   </array>
  </eigenvalues>
  <separator name="orbital magnetization" >
   <v name="MAGDIPOLOUT">      0.00000000      0.00000000      0.00000000</v>
  </separator>
  <dos>
   <i name="efermi">      8.58534531 </i>
   <total>
    <array>
     <dimension dim="1">gridpoints</dimension>
     <dimension dim="2">spin</dimension>
     <field>energy</field>
     <field>total</field>
     <field>integrated</field>
     <set>
      <set comment="spin 1">
       <r>   -52.1224     0.0000     0.0000 </r>
       <r>   -51.9002     0.0000     0.0000 </r>
       <r>   -51.6780     0.0000     0.0000 </r>
       <r>   -51.4558     0.0000     0.0000 </r>
       <r>   -51.2336     0.0000     0.0000 </r>
       <r>   -51.0114     0.0000     0.0000 </r>
       <r>   -50.7892     0.0000     0.0000 </r>
       <r>   -50.5669     0.0000     0.0000 </r>
       <r>   -50.3447     0.0000     0.0000 </r>
       <r>   -50.1225     0.0000     0.0000 </r>
       <r>   -49.9003     0.0000     0.0000 </r>
       <r>   -49.6781     0.0000     0.0000 </r>
       <r>   -49.4559     0.0000     0.0000 </r>
       <r>   -49.2337     0.2107     0.0468 </r>
       <r>   -49.0115    14.4296     3.2531 </r>
       <r>   -48.7893    37.1821    11.5151 </r>
       <r>   -48.5671    11.0097    13.9615 </r>
       <r>   -48.3449     0.1734    14.0000 </r>
       <r>   -48.1227     0.0000    14.0000 </r>
       <r>   -47.9005     0.0000    14.0000 </r>
       <r>   -47.6783     0.0001    14.0000 </r>
       <r>   -47.4561     1.1637    14.2586 </r>
       <r>   -47.2339    18.8021    18.4365 </r>
       <r>   -47.0117    25.6583    24.1378 </r>
       <r>   -46.7895     8.3000    25.9821 </r>
       <r>   -46.5673     0.0806    26.0000 </r>
       <r>   -46.3451     0.0000    26.0000 </r>
       <r>   -46.1229     0.0000    26.0000 </r>
       <r>   -45.9007     0.0000    26.0000 </r>
       <r>   -45.6785     0.0000    26.0000 </r>
       <r>   -45.4563     0.0000    26.0000 </r>
       <r>   -45.2341     0.0000    26.0000 </r>
       <r>   -45.0119     0.0000    26.0000 </r>
       <r>   -44.7897     0.0000    26.0000 </r>
       <r>   -44.5675     0.0000    26.0000 </r>
       <r>   -44.3453     0.0000    26.0000 </r>
       <r>   -44.1231     0.0000    26.0000 </r>
       <r>   -43.9009     0.0000    26.0000 </r>
       <r>   -43.6787     0.0000    26.0000 </r>
       <r>   -43.4565     0.0000    26.0000 </r>
       <r>   -43.2343     0.0000    26.0000 </r>
       <r>   -43.0121     0.0000    26.0000 </r>
       <r>   -42.7899     0.0000    26.0000 </r>
       <r>   -42.5677     0.0000    26.0000 </r>
       <r>   -42.3454     0.0000    26.0000 </r>
       <r>   -42.1232     0.0000    26.0000 </r>
       <r>   -41.9010     0.0000    26.0000 </r>
       <r>   -41.6788     0.0000    26.0000 </r>
       <r>   -41.4566     0.0000    26.0000 </r>
       <r>   -41.2344     0.0000    26.0000 </r>
       <r>   -41.0122     0.0513    26.0114 </r>
       <r>   -40.7900     8.1800    27.8290 </r>
       <r>   -40.5678    13.7136    30.8762 </r>
       <r>   -40.3456    10.8930    33.2967 </r>
       <r>   -40.1234    18.7382    37.4604 </r>
       <r>   -39.9012     2.4509    38.0049 </r>
       <r>   -39.6790     5.6738    39.2657 </r>
       <r>   -39.4568     3.3025    39.9995 </r>
       <r>   -39.2346     0.0022    40.0000 </r>
       <r>   -39.0124     0.0000    40.0000 </r>
       <r>   -38.7902     0.0000    40.0000 </r>
       <r>   -38.5680     0.0000    40.0000 </r>
       <r>   -38.3458     0.0000    40.0000 </r>
       <r>   -38.1236     0.0000    40.0000 </r>
       <r>   -37.9014     0.0000    40.0000 </r>
       <r>   -37.6792     0.0000    40.0000 </r>
       <r>   -37.4570     0.0000    40.0000 </r>
       <r>   -37.2348     0.0000    40.0000 </r>
       <r>   -37.0126     0.0000    40.0000 </r>
       <r>   -36.7904     0.0000    40.0000 </r>
       <r>   -36.5682     0.0000    40.0000 </r>
       <r>   -36.3460     0.0000    40.0000 </r>
       <r>   -36.1238     0.0000    40.0000 </r>
       <r>   -35.9016     0.0000    40.0000 </r>
       <r>   -35.6794     0.0000    40.0000 </r>
       <r>   -35.4572     0.0000    40.0000 </r>
       <r>   -35.2350     0.0000    40.0000 </r>
       <r>   -35.0128     0.0000    40.0000 </r>
       <r>   -34.7906     0.0000    40.0000 </r>
       <r>   -34.5684     0.0000    40.0000 </r>
       <r>   -34.3462     0.0000    40.0000 </r>
       <r>   -34.1239     0.0000    40.0000 </r>
       <r>   -33.9017     0.0000    40.0000 </r>
       <r>   -33.6795     0.0000    40.0000 </r>
       <r>   -33.4573     0.0000    40.0000 </r>
       <r>   -33.2351     0.0000    40.0000 </r>
       <r>   -33.0129     0.0000    40.0000 </r>
       <r>   -32.7907     0.0000    40.0000 </r>
       <r>   -32.5685     0.0000    40.0000 </r>
       <r>   -32.3463     0.0000    40.0000 </r>
       <r>   -32.1241     0.0000    40.0000 </r>
       <r>   -31.9019     0.0000    40.0000 </r>
       <r>   -31.6797     0.0000    40.0000 </r>
       <r>   -31.4575     0.0000    40.0000 </r>
       <r>   -31.2353     0.0000    40.0000 </r>
       <r>   -31.0131     0.0000    40.0000 </r>
       <r>   -30.7909     0.0000    40.0000 </r>
       <r>   -30.5687     0.0000    40.0000 </r>
       <r>   -30.3465     0.0000    40.0000 </r>
       <r>   -30.1243     0.0000    40.0000 </r>
       <r>   -29.9021     0.0000    40.0000 </r>
       <r>   -29.6799     0.0000    40.0000 </r>
       <r>   -29.4577     0.0000    40.0000 </r>
       <r>   -29.2355     0.0000    40.0000 </r>
       <r>   -29.0133     0.0000    40.0000 </r>
       <r>   -28.7911     0.0000    40.0000 </r>
       <r>   -28.5689     0.0000    40.0000 </r>
       <r>   -28.3467     0.0000    40.0000 </r>
       <r>   -28.1245     0.0000    40.0000 </r>
       <r>   -27.9023     0.0000    40.0000 </r>
       <r>   -27.6801     0.0000    40.0000 </r>
       <r>   -27.4579     0.0000    40.0000 </r>
       <r>   -27.2357     0.0000    40.0000 </r>
       <r>   -27.0135     0.1086    40.0241 </r>
       <r>   -26.7913    25.5475    45.7009 </r>
       <r>   -26.5691    74.8528    62.3334 </r>
       <r>   -26.3469    55.8699    74.7478 </r>
       <r>   -26.1247     5.6334    75.9996 </r>
       <r>   -25.9025     0.0020    76.0000 </r>
       <r>   -25.6802     0.0795    76.0177 </r>
       <r>   -25.4580    18.0085    80.0192 </r>
       <r>   -25.2358    98.5694   101.9216 </r>
       <r>   -25.0136    65.2613   116.4228 </r>
       <r>   -24.7914     7.0941   117.9991 </r>
       <r>   -24.5692     0.0039   118.0000 </r>
       <r>   -24.3470     0.0000   118.0000 </r>
       <r>   -24.1248     0.0000   118.0000 </r>
       <r>   -23.9026     0.0008   118.0002 </r>
       <r>   -23.6804     3.6325   118.8073 </r>
       <r>   -23.4582    32.9372   126.1260 </r>
       <r>   -23.2360    76.7659   143.1836 </r>
       <r>   -23.0138    40.4396   152.1694 </r>
       <r>   -22.7916     8.5647   154.0725 </r>
       <r>   -22.5694    14.8428   157.3706 </r>
       <r>   -22.3472    51.1277   168.7314 </r>
       <r>   -22.1250    21.4323   173.4937 </r>
       <r>   -21.9028    43.9740   183.2648 </r>
       <r>   -21.6806    30.0433   189.9405 </r>
       <r>   -21.4584     0.2677   190.0000 </r>
       <r>   -21.2362     0.0000   190.0000 </r>
       <r>   -21.0140     0.0000   190.0000 </r>
       <r>   -20.7918     0.0000   190.0000 </r>
       <r>   -20.5696     0.0000   190.0000 </r>
       <r>   -20.3474     0.0000   190.0000 </r>
       <r>   -20.1252     0.0000   190.0000 </r>
       <r>   -19.9030     0.0000   190.0000 </r>
       <r>   -19.6808     0.0000   190.0000 </r>
       <r>   -19.4586     0.0398   190.0089 </r>
       <r>   -19.2364    10.2068   192.2768 </r>
       <r>   -19.0142    31.2938   199.2304 </r>
       <r>   -18.7920    33.8642   206.7551 </r>
       <r>   -18.5698    37.7687   215.1474 </r>
       <r>   -18.3476    46.8926   225.5671 </r>
       <r>   -18.1254     4.0748   226.4725 </r>
       <r>   -17.9032    22.5013   231.4723 </r>
       <r>   -17.6810     2.3745   232.0000 </r>
       <r>   -17.4587     0.0002   232.0000 </r>
       <r>   -17.2365     0.0000   232.0000 </r>
       <r>   -17.0143     0.0000   232.0000 </r>
       <r>   -16.7921     0.0000   232.0000 </r>
       <r>   -16.5699     0.0000   232.0000 </r>
       <r>   -16.3477     0.0000   232.0000 </r>
       <r>   -16.1255     0.0000   232.0000 </r>
       <r>   -15.9033     0.0000   232.0000 </r>
       <r>   -15.6811     0.0000   232.0000 </r>
       <r>   -15.4589     0.0000   232.0000 </r>
       <r>   -15.2367     0.0000   232.0000 </r>
       <r>   -15.0145     0.0000   232.0000 </r>
       <r>   -14.7923     0.0000   232.0000 </r>
       <r>   -14.5701     0.0000   232.0000 </r>
       <r>   -14.3479     0.0000   232.0000 </r>
       <r>   -14.1257     0.0000   232.0000 </r>
       <r>   -13.9035     0.0000   232.0000 </r>
       <r>   -13.6813     0.0000   232.0000 </r>
       <r>   -13.4591     0.0000   232.0000 </r>
       <r>   -13.2369     0.0000   232.0000 </r>
       <r>   -13.0147     0.0000   232.0000 </r>
       <r>   -12.7925     0.0000   232.0000 </r>
       <r>   -12.5703     0.0000   232.0000 </r>
       <r>   -12.3481     0.0000   232.0000 </r>
       <r>   -12.1259     0.0000   232.0000 </r>
       <r>   -11.9037     0.0000   232.0000 </r>
       <r>   -11.6815     0.0000   232.0000 </r>
       <r>   -11.4593     0.0000   232.0000 </r>
       <r>   -11.2371     0.0000   232.0000 </r>
       <r>   -11.0149     0.0000   232.0000 </r>
       <r>   -10.7927     0.0000   232.0000 </r>
       <r>   -10.5705     0.0000   232.0000 </r>
       <r>   -10.3483     0.0000   232.0000 </r>
       <r>   -10.1261     0.0000   232.0000 </r>
       <r>    -9.9039     0.0000   232.0000 </r>
       <r>    -9.6817     0.0000   232.0000 </r>
       <r>    -9.4595     0.0000   232.0000 </r>
       <r>    -9.2373     0.0000   232.0000 </r>
       <r>    -9.0150     0.0000   232.0000 </r>
       <r>    -8.7928     0.0000   232.0000 </r>
       <r>    -8.5706     0.0000   232.0000 </r>
       <r>    -8.3484     0.0000   232.0000 </r>
       <r>    -8.1262     0.0000   232.0000 </r>
       <r>    -7.9040     0.0000   232.0000 </r>
       <r>    -7.6818     0.0027   232.0006 </r>
       <r>    -7.4596     1.0241   232.2282 </r>
       <r>    -7.2374     5.9275   233.5453 </r>
       <r>    -7.0152     3.7973   234.3890 </r>
       <r>    -6.7930    13.4063   237.3679 </r>
       <r>    -6.5708    21.9701   242.2498 </r>
       <r>    -6.3486    33.3538   249.6611 </r>
       <r>    -6.1264    27.2084   255.7068 </r>
       <r>    -5.9042     4.9163   256.7992 </r>
       <r>    -5.6820     4.8937   257.8866 </r>
       <r>    -5.4598     0.5099   257.9999 </r>
       <r>    -5.2376     0.0003   258.0000 </r>
       <r>    -5.0154     0.0000   258.0000 </r>
       <r>    -4.7932     0.0000   258.0000 </r>
       <r>    -4.5710     0.0000   258.0000 </r>
       <r>    -4.3488     0.0000   258.0000 </r>
       <r>    -4.1266     0.1989   258.0442 </r>
       <r>    -3.9044     4.2790   258.9950 </r>
       <r>    -3.6822     4.4120   259.9754 </r>
       <r>    -3.4600     4.0120   260.8668 </r>
       <r>    -3.2378     7.9838   262.6409 </r>
       <r>    -3.0156    12.5605   265.4318 </r>
       <r>    -2.7934    17.3715   269.2918 </r>
       <r>    -2.5712    24.8955   274.8237 </r>
       <r>    -2.3490    24.5604   280.2811 </r>
       <r>    -2.1268    23.1163   285.4176 </r>
       <r>    -1.9046    22.8207   290.4884 </r>
       <r>    -1.6824    14.7692   293.7702 </r>
       <r>    -1.4602     8.5293   295.6654 </r>
       <r>    -1.2380     1.4420   295.9858 </r>
       <r>    -1.0158     0.0638   296.0000 </r>
       <r>    -0.7935     0.0000   296.0000 </r>
       <r>    -0.5713     0.0000   296.0000 </r>
       <r>    -0.3491     0.0000   296.0000 </r>
       <r>    -0.1269     0.0000   296.0000 </r>
       <r>     0.0953     0.0000   296.0000 </r>
       <r>     0.3175     0.0000   296.0000 </r>
       <r>     0.5397     0.0001   296.0000 </r>
       <r>     0.7619     0.1579   296.0351 </r>
       <r>     0.9841     1.1887   296.2992 </r>
       <r>     1.2063     4.4134   297.2799 </r>
       <r>     1.4285    10.3352   299.5764 </r>
       <r>     1.6507    10.9247   302.0039 </r>
       <r>     1.8729    12.6371   304.8119 </r>
       <r>     2.0951    21.0668   309.4930 </r>
       <r>     2.3173    32.7235   316.7643 </r>
       <r>     2.5395    29.0480   323.2188 </r>
       <r>     2.7617    21.5200   328.0006 </r>
       <r>     2.9839    34.4552   335.6567 </r>
       <r>     3.2061    34.0258   343.2173 </r>
       <r>     3.4283    40.7877   352.2804 </r>
       <r>     3.6505    51.2137   363.6602 </r>
       <r>     3.8727    58.6542   376.6933 </r>
       <r>     4.0949    60.6708   390.1746 </r>
       <r>     4.3171    63.8117   404.3537 </r>
       <r>     4.5393    65.5129   418.9108 </r>
       <r>     4.7615    62.9145   432.8906 </r>
       <r>     4.9837    53.5854   444.7974 </r>
       <r>     5.2059    43.5339   454.4708 </r>
       <r>     5.4281    39.6227   463.2750 </r>
       <r>     5.6503    28.7398   469.6611 </r>
       <r>     5.8725    26.2856   475.5018 </r>
       <r>     6.0947    22.1344   480.4202 </r>
       <r>     6.3169    16.7665   484.1457 </r>
       <r>     6.5391    13.1350   487.0643 </r>
       <r>     6.7613     4.5891   488.0841 </r>
       <r>     6.9835     6.0187   489.4214 </r>
       <r>     7.2057    15.2823   492.8172 </r>
       <r>     7.4280    15.9701   496.3658 </r>
       <r>     7.6502    14.1883   499.5185 </r>
       <r>     7.8724    12.5726   502.3122 </r>
       <r>     8.0946    13.1507   505.2343 </r>
       <r>     8.3168    11.9936   507.8993 </r>
       <r>     8.5390    18.8457   512.0868 </r>
       <r>     8.7612    22.5150   517.0897 </r>
       <r>     8.9834    29.9242   523.7390 </r>
       <r>     9.2056    26.7167   529.6755 </r>
       <r>     9.4278    20.2261   534.1698 </r>
       <r>     9.6500    29.1870   540.6552 </r>
       <r>     9.8722    39.5573   549.4450 </r>
       <r>    10.0944    46.6215   559.8044 </r>
       <r>    10.3166    47.4048   570.3379 </r>
       <r>    10.5388    49.2539   581.2822 </r>
       <r>    10.7610    43.3669   590.9185 </r>
       <r>    10.9832    44.1135   600.7206 </r>
       <r>    11.2054    42.0679   610.0682 </r>
       <r>    11.4276    22.0223   614.9616 </r>
       <r>    11.6498     4.6274   615.9899 </r>
       <r>    11.8720     0.0456   616.0000 </r>
       <r>    12.0942     0.0000   616.0000 </r>
       <r>    12.3164     0.0000   616.0000 </r>
       <r>    12.5386     0.0000   616.0000 </r>
       <r>    12.7608     0.0000   616.0000 </r>
       <r>    12.9830     0.0000   616.0000 </r>
       <r>    13.2052     0.0000   616.0000 </r>
       <r>    13.4274     0.0000   616.0000 </r>
       <r>    13.6496     0.0000   616.0000 </r>
       <r>    13.8718     0.0000   616.0000 </r>
       <r>    14.0940     0.0000   616.0000 </r>
       <r>    14.3162     0.0000   616.0000 </r>
       <r>    14.5384     0.0000   616.0000 </r>
      </set>
     </set>
    </array>
   </total>
  </dos>
 </calculation>
 <structure name="finalpos" >
  <crystal>
   <varray name="basis" >
    <v>       8.97980114       0.00303110      -0.00132078 </v>
    <v>       0.00301961       9.03928014       0.00058904 </v>
    <v>      -0.00132775       0.00061703       8.98304835 </v>
   </varray>
   <i name="volume">    729.16236069 </i>
   <varray name="rec_basis" >
    <v>       0.11136106      -0.00003720       0.00001646 </v>
    <v>      -0.00003734       0.11062829      -0.00000760 </v>
    <v>       0.00001638      -0.00000726       0.11132079 </v>
   </varray>
  </crystal>
  <varray name="positions" >
   <v>       0.00020309       0.99776358       0.01199645 </v>
   <v>       0.24334524       0.99645948       0.25122187 </v>
   <v>       0.25637494       0.50537399       0.24860378 </v>
   <v>       0.49936526       0.50015117       0.99937143 </v>
   <v>       0.49068557       0.25879463       0.75442663 </v>
   <v>       0.00379616       0.49961874       0.49760181 </v>
   <v>       0.49893839       0.73983775       0.74978265 </v>
   <v>       0.99902947       0.23858028       0.25991965 </v>
   <v>       0.75433327       0.74433316       0.99693243 </v>
   <v>       0.00486447       0.26413284       0.73841184 </v>
   <v>       0.75935372       0.26434291       0.50156745 </v>
   <v>       0.99900915       0.73665843       0.74909922 </v>
   <v>       0.25395853       0.49946669       0.75228268 </v>
   <v>       0.24674871       0.25194776       0.00208539 </v>
   <v>       0.49793137       0.25275630       0.24749369 </v>
   <v>       0.75441957       0.99738991       0.25013702 </v>
   <v>       0.75112244       0.25428337       0.99564060 </v>
   <v>       0.24873863       0.74843676       0.99977913 </v>
   <v>       0.24776845       0.25318185       0.49768454 </v>
   <v>       0.25020920       0.24949381       0.24945387 </v>
   <v>       0.24340016       0.00120566       0.00636271 </v>
   <v>       0.99987208       0.24201808       0.00017182 </v>
   <v>       0.74920032       0.25115507       0.24934070 </v>
   <v>       0.75632502       0.00354403       0.00180310 </v>
   <v>       0.50128805       0.00490156       0.24969245 </v>
   <v>       0.99721597       0.49971048       0.25635687 </v>
   <v>       0.49869775       0.74669010       0.99467496 </v>
   <v>       0.99723366       0.00269443       0.74861423 </v>
   <v>       0.74681014       0.25245827       0.74936020 </v>
   <v>       0.75512156       0.00143180       0.49816728 </v>
   <v>       0.50164087       0.25276268       0.50150267 </v>
   <v>       0.50254373       0.00219588       0.75010326 </v>
   <v>       0.00277270       0.99757791       0.24814457 </v>
   <v>       0.49941114       0.25281252       0.99695290 </v>
   <v>       0.24562412       0.74902504       0.24772883 </v>
   <v>       0.25412420       0.49944500       0.00491265 </v>
   <v>       0.99866231       0.75572656       0.00118665 </v>
   <v>       0.75334097       0.74661348       0.25116652 </v>
   <v>       0.74558761       0.50043844       0.00072081 </v>
   <v>       0.49974746       0.49837753       0.25021348 </v>
   <v>       0.25239529       0.25272861       0.75045345 </v>
   <v>       0.24530875       0.00269226       0.49408162 </v>
   <v>       0.00114166       0.25261595       0.49958623 </v>
   <v>       0.25326057       0.74690132       0.75288979 </v>
   <v>       0.24963025       0.49795557       0.49533237 </v>
   <v>       0.99584633       0.74945538       0.49851496 </v>
   <v>       0.99786811       0.50045777       0.74347139 </v>
   <v>       0.74597452       0.74569803       0.74926135 </v>
   <v>       0.75393338       0.50055481       0.49930521 </v>
   <v>       0.50416183       0.74533376       0.50630741 </v>
   <v>       0.50186721       0.49876544       0.75110671 </v>
   <v>       0.49904469       0.00113394       0.99694982 </v>
   <v>       0.00099454       0.50097919       0.00361610 </v>
   <v>       0.49888062       0.74856384       0.24961563 </v>
   <v>       0.24486004       0.99989138       0.74977462 </v>
   <v>       0.49797991       0.99819402       0.50281047 </v>
   <v>       0.75472919       0.99578578       0.74948112 </v>
   <v>       0.24832954       0.74628027       0.50098671 </v>
   <v>       0.00077341       0.75834944       0.25087172 </v>
   <v>       0.74476396       0.50466684       0.24868868 </v>
   <v>       0.00375786       0.00067497       0.49077430 </v>
   <v>       0.49848381       0.50031838       0.50104463 </v>
   <v>       0.74573880       0.50196327       0.75153782 </v>
   <v>       0.75146100       0.73625254       0.50286981 </v>
  </varray>
 </structure>
</modeling>
