HECN                                    
           1
     8.981740    0.003002   -0.001318
     0.002991    9.040842    0.000611
    -0.001325    0.000639    8.983983
   Ti   Nb   Hf   N    C    Zr   Ta
     7     6     6    13    19     7     6
Direct configuration=     1
   0.00020198  0.99776398  0.01199979
   0.24335097  0.99645924  0.25122035
   0.25636450  0.50537613  0.24860313
   0.49937042  0.50015461  0.99937361
   0.49068499  0.25878873  0.75443522
   0.00379417  0.49962173  0.49760474
   0.49893801  0.73983614  0.74977415
   0.99903062  0.23860309  0.25989754
   0.75432275  0.74434720  0.99693073
   0.00485340  0.26409593  0.73844632
   0.75931875  0.26431460  0.50156459
   0.99900570  0.73667910  0.74909737
   0.25394934  0.49946688  0.75228009
   0.24674941  0.25195014  0.00208810
   0.49792776  0.25275477  0.24749151
   0.75441866  0.99739595  0.25013812
   0.75112982  0.25428459  0.99563967
   0.24874602  0.74843539  0.99977764
   0.24777147  0.25318173  0.49768615
   0.25020470  0.24949376  0.24945691
   0.24340150  0.00120563  0.00636600
   0.99987617  0.24201577  0.00017335
   0.74920365  0.25115523  0.24934900
   0.75633664  0.00353943  0.00180431
   0.50128156  0.00489956  0.24969106
   0.99721978  0.49970813  0.25636043
   0.49870735  0.74668527  0.99467255
   0.99723949  0.00269763  0.74861418
   0.74681312  0.25246008  0.74935119
   0.75512159  0.00143849  0.49816600
   0.50164852  0.25276058  0.50150350
   0.50254414  0.00219665  0.75010072
   0.00278020  0.99758368  0.24814079
   0.49941088  0.25281315  0.99694966
   0.24562492  0.74902615  0.24772702
   0.25413245  0.49944570  0.00491503
   0.99866106  0.75573694  0.00118479
   0.75334256  0.74661370  0.25116306
   0.74558348  0.50044526  0.00072325
   0.49974189  0.49837487  0.25021474
   0.25240038  0.25272892  0.75045009
   0.24530877  0.00269173  0.49407936
   0.00113581  0.25261804  0.49958473
   0.25326337  0.74690222  0.75288850
   0.24962339  0.49795407  0.49533222
   0.99584399  0.74945534  0.49851286
   0.99786942  0.50046275  0.74346998
   0.74597397  0.74569888  0.74926267
   0.75393600  0.50054968  0.49930472
   0.50416015  0.74532936  0.50631163
   0.50186922  0.49876009  0.75110763
   0.49905149  0.00113072  0.99694579
   0.00100109  0.50098237  0.00362134
   0.49887555  0.74856746  0.24961970
   0.24485922  0.99989016  0.74977251
   0.49798284  0.99819449  0.50281020
   0.75473270  0.99579102  0.74947638
   0.24832615  0.74627925  0.50098588
   0.00077496  0.75834811  0.25087401
   0.74477605  0.50466663  0.24868912
   0.00375016  0.00067042  0.49077054
   0.49848548  0.50031292  0.50104026
   0.74573929  0.50196192  0.75153869
   0.75145685  0.73624852  0.50287552
HECN                                    
           1
     8.976028    0.003087   -0.001326
     0.003076    9.036241    0.000546
    -0.001332    0.000574    8.981231
   Ti   Nb   Hf   N    C    Zr   Ta
     7     6     6    13    19     7     6
Direct configuration=     2
   0.00020525  0.99776281  0.01198996
   0.24333407  0.99645993  0.25122485
   0.25639530  0.50536982  0.24860504
   0.49935520  0.50014446  0.99936718
   0.49068669  0.25880612  0.75440989
   0.00380004  0.49961290  0.49759612
   0.49893913  0.73984090  0.74979920
   0.99902723  0.23853583  0.25996269
   0.75435378  0.74430582  0.99693573
   0.00488605  0.26420476  0.73834469
   0.75942188  0.26439806  0.50157302
   0.99901586  0.73661815  0.74910281
   0.25397645  0.49946633  0.75228773
   0.24674734  0.25194312  0.00208011
   0.49793839  0.25275928  0.24749794
   0.75442135  0.99737813  0.25013487
   0.75110805  0.25428099  0.99564242
   0.24872422  0.74843942  0.99978202
   0.24776255  0.25318209  0.49768140
   0.25021797  0.24949390  0.24944797
   0.24339754  0.00120572  0.00635630
   0.99986412  0.24202259  0.00016883
   0.74919382  0.25115476  0.24932454
   0.75630236  0.00355299  0.00180074
   0.50130069  0.00490545  0.24969516
   0.99720856  0.49971506  0.25634992
   0.49867904  0.74669951  0.99467965
   0.99722229  0.00268819  0.74861435
   0.74680432  0.25245473  0.74937773
   0.75512151  0.00141878  0.49816977
   0.50162595  0.25276676  0.50150104
   0.50254293  0.00219437  0.75010819
   0.00275807  0.99756666  0.24815193
   0.49941165  0.25281129  0.99695920
   0.24562255  0.74902289  0.24773234
   0.25410813  0.49944363  0.00490803
   0.99866477  0.75570632  0.00119028
   0.75333788  0.74661307  0.25117327
   0.74559567  0.50042516  0.00071605
   0.49975831  0.49838270  0.25021103
   0.25238538  0.25272801  0.75045999
   0.24530870  0.00269329  0.49408602
   0.00115307  0.25261187  0.49958916
   0.25325511  0.74689957  0.75289230
   0.24964363  0.49795850  0.49533266
   0.99585088  0.74945546  0.49851904
   0.99786556  0.50044806  0.74347414
   0.74597560  0.74569636  0.74925879
   0.75392827  0.50056480  0.49930616
   0.50416509  0.74534232  0.50629921
   0.50186328  0.49877587  0.75110490
   0.49903142  0.00114021  0.99695768
   0.00098176  0.50097298  0.00360591
   0.49889050  0.74855680  0.24960768
   0.24486164  0.99989374  0.74977873
   0.49797420  0.99819311  0.50281098
   0.75472233  0.99577557  0.74949037
   0.24833614  0.74628226  0.50098832
   0.00077038  0.75835202  0.25086726
   0.74474040  0.50466726  0.24868781
   0.00377288  0.00068383  0.49078164
   0.49848055  0.50032901  0.50105315
   0.74573783  0.50196591  0.75153611
   0.75146910  0.73626038  0.50285867
HECN                                    
           1
     8.979801    0.003031   -0.001321
     0.003020    9.039280    0.000589
    -0.001328    0.000617    8.983048
   Ti   Nb   Hf   N    C    Zr   Ta
     7     6     6    13    19     7     6
Direct configuration=     3
   0.00020309  0.99776358  0.01199645
   0.24334524  0.99645948  0.25122187
   0.25637494  0.50537399  0.24860378
   0.49936526  0.50015117  0.99937143
   0.49068557  0.25879463  0.75442663
   0.00379616  0.49961874  0.49760181
   0.49893839  0.73983775  0.74978265
   0.99902947  0.23858028  0.25991965
   0.75433327  0.74433316  0.99693243
   0.00486447  0.26413284  0.73841184
   0.75935372  0.26434291  0.50156745
   0.99900915  0.73665843  0.74909922
   0.25395853  0.49946669  0.75228268
   0.24674871  0.25194776  0.00208539
   0.49793137  0.25275630  0.24749369
   0.75441957  0.99738991  0.25013702
   0.75112244  0.25428337  0.99564060
   0.24873863  0.74843676  0.99977913
   0.24776845  0.25318185  0.49768454
   0.25020920  0.24949381  0.24945387
   0.24340016  0.00120566  0.00636271
   0.99987208  0.24201808  0.00017182
   0.74920032  0.25115507  0.24934070
   0.75632502  0.00354403  0.00180310
   0.50128805  0.00490156  0.24969245
   0.99721597  0.49971048  0.25635687
   0.49869775  0.74669010  0.99467496
   0.99723366  0.00269443  0.74861423
   0.74681014  0.25245827  0.74936020
   0.75512156  0.00143180  0.49816728
   0.50164087  0.25276268  0.50150267
   0.50254373  0.00219588  0.75010326
   0.00277270  0.99757791  0.24814457
   0.49941114  0.25281252  0.99695290
   0.24562412  0.74902504  0.24772883
   0.25412420  0.49944500  0.00491265
   0.99866231  0.75572656  0.00118665
   0.75334097  0.74661348  0.25116652
   0.74558761  0.50043844  0.00072081
   0.49974746  0.49837753  0.25021348
   0.25239529  0.25272861  0.75045345
   0.24530875  0.00269226  0.49408162
   0.00114166  0.25261595  0.49958623
   0.25326057  0.74690132  0.75288979
   0.24963025  0.49795557  0.49533237
   0.99584633  0.74945538  0.49851496
   0.99786811  0.50045777  0.74347139
   0.74597452  0.74569803  0.74926135
   0.75393338  0.50055481  0.49930521
   0.50416183  0.74533376  0.50630741
   0.50186721  0.49876544  0.75110671
   0.49904469  0.00113394  0.99694982
   0.00099454  0.50097919  0.00361610
   0.49888062  0.74856384  0.24961563
   0.24486004  0.99989138  0.74977462
   0.49797991  0.99819402  0.50281047
   0.75472919  0.99578578  0.74948112
   0.24832954  0.74628027  0.50098671
   0.00077341  0.75834944  0.25087172
   0.74476396  0.50466684  0.24868868
   0.00375786  0.00067497  0.49077430
   0.49848381  0.50031838  0.50104463
   0.74573880  0.50196327  0.75153782
   0.75146100  0.73625254  0.50286981
