  64  64   0   0
  0.1129557E+02  0.8932500E-09  0.9055600E-09  0.8937200E-09  0.5000000E-15
  1.000000000000000E-004
  CAR 
 HECN                                    
     14.60889079    -60.46304441  301      7.97232518      1.00000000
    -60.463  0.0000E+00  0.0000E+00
    -60.213  0.0000E+00  0.0000E+00
    -59.963  0.0000E+00  0.0000E+00
    -59.712  0.0000E+00  0.0000E+00
    -59.462  0.0000E+00  0.0000E+00
    -59.212  0.0000E+00  0.0000E+00
    -58.962  0.0000E+00  0.0000E+00
    -58.711  0.0000E+00  0.0000E+00
    -58.461  0.0000E+00  0.0000E+00
    -58.211  0.0000E+00  0.0000E+00
    -57.961  0.0000E+00  0.0000E+00
    -57.710  0.0000E+00  0.0000E+00
    -57.460  0.2807E-09  0.7023E-10
    -57.210  0.1075E-02  0.2690E-03
    -56.960  0.2044E+00  0.5141E-01
    -56.709  0.2977E+00  0.1259E+00
    -56.459  0.5629E-01  0.1400E+00
    -56.209  0.5443E-04  0.1400E+00
    -55.959  0.6261E-12  0.1400E+00
    -55.708  0.0000E+00  0.1400E+00
    -55.458  0.0000E+00  0.1400E+00
    -55.208  0.0000E+00  0.1400E+00
    -54.958  0.0000E+00  0.1400E+00
    -54.708  0.0000E+00  0.1400E+00
    -54.457  0.0000E+00  0.1400E+00
    -54.207  0.0000E+00  0.1400E+00
    -53.957  0.0000E+00  0.1400E+00
    -53.707  0.0000E+00  0.1400E+00
    -53.456  0.0000E+00  0.1400E+00
    -53.206  0.0000E+00  0.1400E+00
    -52.956  0.0000E+00  0.1400E+00
    -52.706  0.0000E+00  0.1400E+00
    -52.455  0.0000E+00  0.1400E+00
    -52.205  0.0000E+00  0.1400E+00
    -51.955  0.0000E+00  0.1400E+00
    -51.705  0.0000E+00  0.1400E+00
    -51.454  0.0000E+00  0.1400E+00
    -51.204  0.0000E+00  0.1400E+00
    -50.954  0.0000E+00  0.1400E+00
    -50.704  0.0000E+00  0.1400E+00
    -50.453  0.0000E+00  0.1400E+00
    -50.203  0.0000E+00  0.1400E+00
    -49.953  0.0000E+00  0.1400E+00
    -49.703  0.0000E+00  0.1400E+00
    -49.452  0.0000E+00  0.1400E+00
    -49.202  0.0000E+00  0.1400E+00
    -48.952  0.0000E+00  0.1400E+00
    -48.702  0.0000E+00  0.1400E+00
    -48.452  0.0000E+00  0.1400E+00
    -48.201  0.0000E+00  0.1400E+00
    -47.951  0.0000E+00  0.1400E+00
    -47.701  0.0000E+00  0.1400E+00
    -47.451  0.0000E+00  0.1400E+00
    -47.200  0.0000E+00  0.1400E+00
    -46.950  0.0000E+00  0.1400E+00
    -46.700  0.0000E+00  0.1400E+00
    -46.450  0.0000E+00  0.1400E+00
    -46.199  0.0000E+00  0.1400E+00
    -45.949  0.0000E+00  0.1400E+00
    -45.699  0.0000E+00  0.1400E+00
    -45.449  0.0000E+00  0.1400E+00
    -45.198  0.0000E+00  0.1400E+00
    -44.948  0.0000E+00  0.1400E+00
    -44.698  0.0000E+00  0.1400E+00
    -44.448  0.0000E+00  0.1400E+00
    -44.197  0.0000E+00  0.1400E+00
    -43.947  0.0000E+00  0.1400E+00
    -43.697  0.0000E+00  0.1400E+00
    -43.447  0.0000E+00  0.1400E+00
    -43.196  0.0000E+00  0.1400E+00
    -42.946  0.0000E+00  0.1400E+00
    -42.696  0.0000E+00  0.1400E+00
    -42.446  0.0000E+00  0.1400E+00
    -42.196  0.0000E+00  0.1400E+00
    -41.945  0.0000E+00  0.1400E+00
    -41.695  0.0000E+00  0.1400E+00
    -41.445  0.0000E+00  0.1400E+00
    -41.195  0.0000E+00  0.1400E+00
    -40.944  0.0000E+00  0.1400E+00
    -40.694  0.0000E+00  0.1400E+00
    -40.444  0.0000E+00  0.1400E+00
    -40.194  0.0000E+00  0.1400E+00
    -39.943  0.0000E+00  0.1400E+00
    -39.693  0.0000E+00  0.1400E+00
    -39.443  0.0000E+00  0.1400E+00
    -39.193  0.0000E+00  0.1400E+00
    -38.942  0.0000E+00  0.1400E+00
    -38.692  0.0000E+00  0.1400E+00
    -38.442  0.0000E+00  0.1400E+00
    -38.192  0.0000E+00  0.1400E+00
    -37.941  0.0000E+00  0.1400E+00
    -37.691  0.0000E+00  0.1400E+00
    -37.441  0.0000E+00  0.1400E+00
    -37.191  0.0000E+00  0.1400E+00
    -36.941  0.0000E+00  0.1400E+00
    -36.690  0.0000E+00  0.1400E+00
    -36.440  0.0000E+00  0.1400E+00
    -36.190  0.3781E-07  0.1400E+00
    -35.940  0.7491E-02  0.1419E+00
    -35.689  0.2965E+00  0.2161E+00
    -35.439  0.9871E+00  0.4631E+00
    -35.189  0.1474E+00  0.5000E+00
    -34.939  0.2188E-04  0.5000E+00
    -34.688  0.5716E-13  0.5000E+00
    -34.438  0.0000E+00  0.5000E+00
    -34.188  0.0000E+00  0.5000E+00
    -33.938  0.0000E+00  0.5000E+00
    -33.687  0.0000E+00  0.5000E+00
    -33.437  0.0000E+00  0.5000E+00
    -33.187  0.0000E+00  0.5000E+00
    -32.937  0.0000E+00  0.5000E+00
    -32.686  0.0000E+00  0.5000E+00
    -32.436  0.0000E+00  0.5000E+00
    -32.186  0.4734E-09  0.5000E+00
    -31.936  0.1431E-02  0.5004E+00
    -31.685  0.1542E+00  0.5390E+00
    -31.435  0.4184E+00  0.6437E+00
    -31.185  0.5616E+00  0.7842E+00
    -30.935  0.8378E+00  0.9939E+00
    -30.685  0.9256E+00  0.1225E+01
    -30.434  0.2163E+00  0.1280E+01
    -30.184  0.1558E-02  0.1280E+01
    -29.934  0.6107E-09  0.1280E+01
    -29.684  0.0000E+00  0.1280E+01
    -29.433  0.0000E+00  0.1280E+01
    -29.183  0.0000E+00  0.1280E+01
    -28.933  0.0000E+00  0.1280E+01
    -28.683  0.0000E+00  0.1280E+01
    -28.432  0.0000E+00  0.1280E+01
    -28.182  0.0000E+00  0.1280E+01
    -27.932  0.0000E+00  0.1280E+01
    -27.682  0.0000E+00  0.1280E+01
    -27.431  0.0000E+00  0.1280E+01
    -27.181  0.0000E+00  0.1280E+01
    -26.931  0.0000E+00  0.1280E+01
    -26.681  0.0000E+00  0.1280E+01
    -26.430  0.0000E+00  0.1280E+01
    -26.180  0.0000E+00  0.1280E+01
    -25.930  0.0000E+00  0.1280E+01
    -25.680  0.0000E+00  0.1280E+01
    -25.429  0.0000E+00  0.1280E+01
    -25.179  0.0000E+00  0.1280E+01
    -24.929  0.0000E+00  0.1280E+01
    -24.679  0.0000E+00  0.1280E+01
    -24.429  0.0000E+00  0.1280E+01
    -24.178  0.0000E+00  0.1280E+01
    -23.928  0.3564E-15  0.1280E+01
    -23.678  0.9988E-06  0.1280E+01
    -23.428  0.2009E-01  0.1285E+01
    -23.177  0.1789E+00  0.1330E+01
    -22.927  0.4096E+00  0.1432E+01
    -22.677  0.1586E+00  0.1472E+01
    -22.427  0.5575E+00  0.1612E+01
    -22.176  0.1429E+00  0.1647E+01
    -21.926  0.2079E+00  0.1699E+01
    -21.676  0.2727E-02  0.1700E+01
    -21.426  0.1058E-08  0.1700E+01
    -21.175  0.0000E+00  0.1700E+01
    -20.925  0.0000E+00  0.1700E+01
    -20.675  0.0000E+00  0.1700E+01
    -20.425  0.0000E+00  0.1700E+01
    -20.174  0.0000E+00  0.1700E+01
    -19.924  0.0000E+00  0.1700E+01
    -19.674  0.0000E+00  0.1700E+01
    -19.424  0.0000E+00  0.1700E+01
    -19.173  0.0000E+00  0.1700E+01
    -18.923  0.0000E+00  0.1700E+01
    -18.673  0.0000E+00  0.1700E+01
    -18.423  0.0000E+00  0.1700E+01
    -18.173  0.0000E+00  0.1700E+01
    -17.922  0.0000E+00  0.1700E+01
    -17.672  0.0000E+00  0.1700E+01
    -17.422  0.0000E+00  0.1700E+01
    -17.172  0.0000E+00  0.1700E+01
    -16.921  0.0000E+00  0.1700E+01
    -16.671  0.0000E+00  0.1700E+01
    -16.421  0.0000E+00  0.1700E+01
    -16.171  0.0000E+00  0.1700E+01
    -15.920  0.0000E+00  0.1700E+01
    -15.670  0.0000E+00  0.1700E+01
    -15.420  0.0000E+00  0.1700E+01
    -15.170  0.0000E+00  0.1700E+01
    -14.919  0.0000E+00  0.1700E+01
    -14.669  0.0000E+00  0.1700E+01
    -14.419  0.0000E+00  0.1700E+01
    -14.169  0.0000E+00  0.1700E+01
    -13.918  0.0000E+00  0.1700E+01
    -13.668  0.0000E+00  0.1700E+01
    -13.418  0.0000E+00  0.1700E+01
    -13.168  0.0000E+00  0.1700E+01
    -12.917  0.0000E+00  0.1700E+01
    -12.667  0.0000E+00  0.1700E+01
    -12.417  0.0000E+00  0.1700E+01
    -12.167  0.0000E+00  0.1700E+01
    -11.917  0.0000E+00  0.1700E+01
    -11.666  0.0000E+00  0.1700E+01
    -11.416  0.0000E+00  0.1700E+01
    -11.166  0.0000E+00  0.1700E+01
    -10.916  0.0000E+00  0.1700E+01
    -10.665  0.0000E+00  0.1700E+01
    -10.415  0.0000E+00  0.1700E+01
    -10.165  0.0000E+00  0.1700E+01
     -9.915  0.0000E+00  0.1700E+01
     -9.664  0.0000E+00  0.1700E+01
     -9.414  0.0000E+00  0.1700E+01
     -9.164  0.2764E-14  0.1700E+01
     -8.914  0.8339E-06  0.1700E+01
     -8.663  0.4260E-02  0.1701E+01
     -8.413  0.4781E-01  0.1713E+01
     -8.163  0.3788E-01  0.1723E+01
     -7.913  0.7609E-01  0.1742E+01
     -7.662  0.1467E+00  0.1778E+01
     -7.412  0.2146E+00  0.1832E+01
     -7.162  0.1133E+00  0.1860E+01
     -6.912  0.1318E+00  0.1893E+01
     -6.661  0.1606E+00  0.1934E+01
     -6.411  0.1013E+00  0.1959E+01
     -6.161  0.4595E-02  0.1960E+01
     -5.911  0.1404E-07  0.1960E+01
     -5.661  0.8510E-10  0.1960E+01
     -5.410  0.1609E-03  0.1960E+01
     -5.160  0.3373E-01  0.1968E+01
     -4.910  0.4649E-01  0.1980E+01
     -4.660  0.6821E-01  0.1997E+01
     -4.409  0.1045E+00  0.2023E+01
     -4.159  0.1433E+00  0.2059E+01
     -3.909  0.1854E+00  0.2106E+01
     -3.659  0.2312E+00  0.2163E+01
     -3.408  0.2251E+00  0.2220E+01
     -3.158  0.2127E+00  0.2273E+01
     -2.908  0.1581E+00  0.2313E+01
     -2.658  0.9254E-01  0.2336E+01
     -2.407  0.1720E-01  0.2340E+01
     -2.157  0.4111E-04  0.2340E+01
     -1.907  0.8087E-11  0.2340E+01
     -1.657  0.0000E+00  0.2340E+01
     -1.406  0.0000E+00  0.2340E+01
     -1.156  0.0000E+00  0.2340E+01
     -0.906  0.1146E-13  0.2340E+01
     -0.656  0.1411E-05  0.2340E+01
     -0.405  0.2064E-02  0.2341E+01
     -0.155  0.1297E-01  0.2344E+01
      0.095  0.5816E-01  0.2358E+01
      0.345  0.9552E-01  0.2382E+01
      0.595  0.1467E+00  0.2419E+01
      0.846  0.1842E+00  0.2465E+01
      1.096  0.2839E+00  0.2536E+01
      1.346  0.2812E+00  0.2606E+01
      1.596  0.2822E+00  0.2677E+01
      1.847  0.3169E+00  0.2756E+01
      2.097  0.3360E+00  0.2840E+01
      2.347  0.3590E+00  0.2930E+01
      2.597  0.4952E+00  0.3054E+01
      2.848  0.5657E+00  0.3196E+01
      3.098  0.6296E+00  0.3353E+01
      3.348  0.6357E+00  0.3512E+01
      3.598  0.5962E+00  0.3662E+01
      3.849  0.5293E+00  0.3794E+01
      4.099  0.4119E+00  0.3897E+01
      4.349  0.3740E+00  0.3991E+01
      4.599  0.3358E+00  0.4075E+01
      4.850  0.2791E+00  0.4145E+01
      5.100  0.2309E+00  0.4202E+01
      5.350  0.1569E+00  0.4242E+01
      5.600  0.9172E-01  0.4265E+01
      5.850  0.1339E+00  0.4298E+01
      6.101  0.1969E+00  0.4347E+01
      6.351  0.1918E+00  0.4395E+01
      6.601  0.1583E+00  0.4435E+01
      6.851  0.1877E+00  0.4482E+01
      7.102  0.2981E+00  0.4557E+01
      7.352  0.2957E+00  0.4631E+01
      7.602  0.3005E+00  0.4706E+01
      7.852  0.3117E+00  0.4784E+01
      8.103  0.3135E+00  0.4862E+01
      8.353  0.3975E+00  0.4962E+01
      8.603  0.5200E+00  0.5092E+01
      8.853  0.5677E+00  0.5234E+01
      9.104  0.5703E+00  0.5377E+01
      9.354  0.5288E+00  0.5509E+01
      9.604  0.4862E+00  0.5630E+01
      9.854  0.4579E+00  0.5745E+01
     10.105  0.4427E+00  0.5856E+01
     10.355  0.4187E+00  0.5961E+01
     10.605  0.3896E+00  0.6058E+01
     10.855  0.3557E+00  0.6147E+01
     11.106  0.3017E+00  0.6223E+01
     11.356  0.6908E-01  0.6240E+01
     11.606  0.1756E-03  0.6240E+01
     11.856  0.2828E-10  0.6240E+01
     12.106  0.0000E+00  0.6240E+01
     12.357  0.0000E+00  0.6240E+01
     12.607  0.0000E+00  0.6240E+01
     12.857  0.0000E+00  0.6240E+01
     13.107  0.0000E+00  0.6240E+01
     13.358  0.0000E+00  0.6240E+01
     13.608  0.0000E+00  0.6240E+01
     13.858  0.0000E+00  0.6240E+01
     14.108  0.0000E+00  0.6240E+01
     14.359  0.0000E+00  0.6240E+01
     14.609  0.0000E+00  0.6240E+01
