HECN                                    
           1
     8.932500    0.000000    0.000000
     0.005753    9.055598    0.000000
     0.032102   -0.015743    8.937128
   V    W    Hf   N    C    Cr   Mo
   7   6   7  13  19   6   6
Direct configuration=     1
   0.99688001  0.99204997  0.99924002
   0.25398003  0.99714995  0.24912000
   0.24803003  0.50165000  0.24955001
   0.50501006  0.49745998  0.99834003
   0.50479003  0.24631001  0.74710002
   0.99427992  0.50449999  0.49779000
   0.49950005  0.75481999  0.74817004
   0.99437004  0.23617001  0.26379999
   0.75718000  0.74102998  0.01100000
   0.00201000  0.25541000  0.73894001
   0.75307001  0.26163001  0.50533002
   0.99514004  0.74492004  0.74511997
   0.25679999  0.49462002  0.74545002
   0.24788999  0.24839000  0.99657997
   0.50833000  0.25676999  0.25376001
   0.74879004  0.98787999  0.26967001
   0.75719000  0.25603001  0.99591997
   0.24762001  0.74973999  0.99974006
   0.25272001  0.24823001  0.50015003
   0.24457999  0.75048999  0.49983999
   0.24982001  0.24942998  0.24825000
   0.26146999  0.99984002  0.99295996
   0.00281000  0.25024000  0.00130000
   0.75313998  0.24617000  0.25492002
   0.74767001  0.99748000  0.01202000
   0.50714994  0.99977000  0.24673000
   0.99051999  0.48088002  0.24100998
   0.50519005  0.76130999  0.00855000
   0.98896989  0.00202000  0.73708999
   0.75744996  0.24437997  0.74896999
   0.73632001  0.00417000  0.51063000
   0.50563996  0.23264999  0.49544997
   0.50008998  0.00061000  0.73471998
   0.99720000  0.99771992  0.25899999
   0.50427997  0.24673000  0.00262000
   0.25133999  0.74958002  0.24910999
   0.24328000  0.50072997  0.99510994
   0.99837005  0.74313996  0.00460000
   0.75633000  0.73891003  0.25767000
   0.75839004  0.50315998  0.00288000
   0.50700002  0.50333002  0.25878999
   0.24900999  0.25315000  0.74854000
   0.24446000  0.99823996  0.50287998
   0.99804009  0.24229999  0.50128003
   0.24177002  0.75340997  0.75018002
   0.25841001  0.50062002  0.50129001
   0.99000004  0.76215003  0.49746000
   0.99203996  0.50055999  0.75138002
   0.75036005  0.74888000  0.74756004
   0.74036002  0.50197000  0.50067003
   0.50575006  0.74958002  0.49720000
   0.50501003  0.50217998  0.73912003
   0.51588997  0.01358000  0.98075008
   0.99841994  0.50976998  0.98613004
   0.50379003  0.73926997  0.25905001
   0.23780002  0.01082000  0.74607998
   0.47957999  0.98308000  0.49717999
   0.74279003  0.97869994  0.76450995
   0.99864998  0.77573999  0.26102000
   0.73551001  0.51468004  0.26666001
   0.02362000  0.99783001  0.49557002
   0.50539000  0.52833005  0.49917999
   0.73876003  0.52828003  0.73814999
   0.75400003  0.72937999  0.49116997
HECN                                    
           1
     8.254507    0.000573   -0.003332
     0.005897    8.336354    0.004665
     0.026330   -0.009884    8.275044
   V    W    Hf   N    C    Cr   Mo
   7   6   7  13  19   6   6
Direct configuration=     2
   0.99673352  0.98922743  0.99781981
   0.25247138  0.99243592  0.24951039
   0.25132851  0.50680818  0.24891773
   0.50444029  0.49387758  0.99716803
   0.50097981  0.24420044  0.75115190
   0.99463774  0.50157467  0.50022941
   0.49895827  0.75771937  0.74742347
   0.99775468  0.23449510  0.26715347
   0.75798832  0.73962299  0.01021299
   0.00766629  0.25815697  0.73321862
   0.75451668  0.26187192  0.50912876
   0.99861089  0.74251247  0.74710507
   0.25933835  0.49588177  0.74871226
   0.24883507  0.24601590  0.99877048
   0.50386527  0.25180914  0.25205409
   0.74092995  0.99139354  0.26724299
   0.75584840  0.25413128  0.99190488
   0.25361803  0.75365706  0.00046549
   0.25641303  0.24964731  0.49889165
   0.24832893  0.74932917  0.49903636
   0.24925193  0.24961857  0.24918834
   0.25862249  0.00052475  0.99489962
   0.00202599  0.24783784  0.00205358
   0.75376141  0.24558193  0.25458638
   0.74916899  0.99579123  0.00675510
   0.50136032  0.99956078  0.24894470
   0.99432002  0.47726969  0.24424797
   0.50704647  0.75858529  0.00562382
   0.98767351  0.00319183  0.74313916
   0.75483066  0.24319041  0.74770853
   0.73660168  0.00661182  0.51059821
   0.50619324  0.23211570  0.49981816
   0.50381605  0.00047930  0.73816447
   0.00323435  0.00276349  0.25009340
   0.50433205  0.24856106 -0.00378374
   0.25279452  0.74916152  0.24988647
   0.24578471  0.49991844  0.99713623
   0.99459042  0.74495614  0.00271232
   0.75120350  0.74210397  0.24959043
   0.75548848  0.50708716  0.00266122
   0.49790446  0.50740925  0.25105026
   0.25117418  0.25085958  0.74832611
   0.25392857  0.99792232  0.50236160
   0.99565693  0.24836778  0.50231099
   0.24436458  0.75268982  0.74993337
   0.25223574  0.50000761  0.49873085
   0.99350432  0.75461083  0.50267605
   0.99426304  0.49974969  0.74984206
   0.74575713  0.75770448  0.75129343
   0.75006674  0.49511245  0.50327322
   0.50222797  0.75650194  0.49842633
   0.49969439  0.50073098  0.74677991
   0.51644425  0.01704003  0.97534061
   0.99808066  0.51569064  0.98249477
   0.50386262  0.73580763  0.25869946
   0.23603782  0.01104457  0.74753292
   0.47601736  0.98135581  0.49987384
   0.73783533  0.97337199  0.76686409
   0.00295139  0.77646050  0.25744278
   0.73749274  0.51361062  0.26051758
   0.02265988  0.99892196  0.49876633
   0.49964011  0.52797751  0.49923875
   0.73706697  0.52358776  0.74465385
   0.75576897  0.73418488  0.49342878
HECN                                    
           1
     8.649243    0.000239   -0.001392
     0.005813    8.755107    0.001949
     0.029690   -0.013296    8.660517
   V    W    Hf   N    C    Cr   Mo
   7   6   7  13  19   6   6
Direct configuration=     3
   0.99682605  0.99101202  0.99871186
   0.25342156  0.99541735  0.24926361
   0.24925076  0.50354584  0.24931630
   0.50479941  0.49614281  0.99790384
   0.50337923  0.24553590  0.74860431
   0.99441154  0.50342565  0.49869439
   0.49929993  0.75588539  0.74789408
   0.99562130  0.23555572  0.26504336
   0.75747919  0.74051258  0.01070715
   0.00410425  0.25641788  0.73681575
   0.75360426  0.26172033  0.50673985
   0.99642352  0.74403597  0.74585511
   0.25773832  0.49508505  0.74666079
   0.24823897  0.24751820  0.99739201
   0.50667841  0.25494580  0.25312613
   0.74588284  0.98917022  0.26877234
   0.75669460  0.25533064  0.99442921
   0.24983907  0.75118025  0.00000921
   0.25408670  0.24875066  0.49968248
   0.24596713  0.75006320  0.49954031
   0.24960961  0.24949961  0.24859852
   0.26041603  0.00009226  0.99368094
   0.00251964  0.24935731  0.00157907
   0.75336995  0.24595376  0.25479580
   0.74822587  0.99685748  0.01006466
   0.50500738  0.99969363  0.24755350
   0.99192488  0.47955433  0.24220969
   0.50587750  0.76030756  0.00746234
   0.98848876  0.00245280  0.73933622
   0.75648118  0.24394218  0.74850197
   0.73642434  0.00506751  0.51061900
   0.50584350  0.23245517  0.49707113
   0.50146761  0.00056334  0.73599760
  -0.00056495 -0.00042918  0.25569409
   0.50430098  0.24740075  0.00024354
   0.25187790  0.74942653  0.24939770
   0.24420610  0.50043251  0.99586119
   0.99697227  0.74380668  0.00390089
   0.75443559  0.74008090  0.25467326
   0.75731679  0.50460323  0.00280093
   0.50363714  0.50482623  0.25592072
   0.24981062  0.25230816  0.74845924
   0.24796319  0.99812343  0.50268504
   0.99715840  0.24453051  0.50166550
   0.24272995  0.75314530  0.75008755
   0.25612636  0.50039375  0.50034138
   0.99129482  0.75938094  0.49939264
   0.99286279  0.50026171  0.75080827
   0.74865655  0.75212462  0.74895021
   0.74395021  0.49945081  0.50163144
   0.50444699  0.75212450  0.49765858
   0.50304136  0.50164988  0.74196425
   0.51609659  0.01484987  0.97874315
   0.99829563  0.51194486  0.98478280
   0.50381682  0.73799724  0.25891863
   0.23714770  0.01090298  0.74661985
   0.47826116  0.98244707  0.49818025
   0.74095610  0.97674224  0.76538317
   0.00024232  0.77600374  0.25969128
   0.73624510  0.51428488  0.26437902
   0.02326401  0.99823245  0.49675714
   0.50326269  0.52820025  0.49920314
   0.73813176  0.52655758  0.74056301
   0.75465411  0.73114693  0.49200972
HECN                                    
           1
     8.637191    0.000249   -0.001451
     0.005816    8.742321    0.002032
     0.029588   -0.013191    8.648748
   V    W    Hf   N    C    Cr   Mo
   7   6   7  13  19   6   6
Direct configuration=     4
   0.99682336  0.99096013  0.99868582
   0.25339387  0.99533068  0.24927079
   0.24931131  0.50364068  0.24930469
   0.50478895  0.49607694  0.99788236
   0.50330929  0.24549709  0.74867864
   0.99441812  0.50337185  0.49873915
   0.49928998  0.75593870  0.74788037
   0.99568345  0.23552491  0.26510489
   0.75749403  0.74048672  0.01069272
   0.00420807  0.25646841  0.73671080
   0.75363083  0.26172477  0.50680954
   0.99648725  0.74399170  0.74589155
   0.25778493  0.49510823  0.74672063
   0.24825632  0.24747454  0.99743221
   0.50659645  0.25485460  0.25309484
   0.74573853  0.98923484  0.26872778
   0.75666996  0.25529574  0.99435556
   0.24994919  0.75125227  0.00002252
   0.25415449  0.24877672  0.49965941
   0.24603596  0.75004186  0.49952559
   0.24959918  0.24950307  0.24861573
   0.26036376  0.00010484  0.99371651
   0.00250525  0.24931314  0.00159291
   0.75338136  0.24594294  0.25478969
   0.74825338  0.99682645  0.00996809
   0.50490110  0.99968978  0.24759411
   0.99199466  0.47948794  0.24226912
   0.50591158  0.76025747  0.00740868
   0.98846497  0.00247432  0.73944718
   0.75643309  0.24392032  0.74847883
   0.73642951  0.00511240  0.51061841
   0.50585367  0.23244533  0.49715127
   0.50153602  0.00056092  0.73606080
  -0.00045420 -0.00033641  0.25553070
   0.50430191  0.24743444  0.00012606
   0.25190460  0.74941884  0.24941195
   0.24425209  0.50041758  0.99589837
   0.99690288  0.74384008  0.00386625
   0.75434145  0.74013966  0.25452502
   0.75726352  0.50467544  0.00279689
   0.50347013  0.50490127  0.25577870
   0.24985035  0.25226605  0.74845533
   0.24813702  0.99811759  0.50267556
   0.99711465  0.24464207  0.50168438
   0.24277759  0.75313206  0.75008303
   0.25601300  0.50038251  0.50029442
   0.99135917  0.75924230  0.49948837
   0.99290360  0.50024682  0.75078007
   0.74857205  0.75228686  0.74901864
   0.74412842  0.49932470  0.50167925
   0.50438233  0.75225176  0.49768104
   0.50294380  0.50162321  0.74210475
   0.51610675  0.01491351  0.97864390
   0.99828938  0.51205373  0.98471609
   0.50381815  0.73793358  0.25891222
   0.23711535  0.01090710  0.74664650
   0.47819576  0.98241536  0.49822967
   0.74086515  0.97664427  0.76542637
   0.00032128  0.77601700  0.25962567
   0.73628148  0.51426524  0.26426636
   0.02324639  0.99825252  0.49681576
   0.50315713  0.52819377  0.49920420
   0.73810070  0.52647128  0.74068233
   0.75468659  0.73123527  0.49205114
HECN                                    
           1
     8.628567   -0.000892   -0.003234
     0.004656    8.692106    0.005134
     0.027776   -0.010051    8.653318
   V    W    Hf   N    C    Cr   Mo
   7   6   7  13  19   6   6
Direct configuration=     5
   0.99778362  0.98849861  0.99610700
   0.25205429  0.99066465  0.24923504
   0.25323701  0.50902842  0.24792250
   0.50307544  0.49231081  0.99672379
   0.49863546  0.24348647  0.75333340
   0.99654039  0.49971742  0.50081658
   0.49818476  0.75978818  0.74772024
   0.00063068  0.23577464  0.26469386
   0.75543563  0.74271870  0.00814869
   0.00981100  0.25828383  0.73487481
   0.75304333  0.26050855  0.51051400
   0.00015596  0.74310653  0.74974246
   0.25893025  0.49785876  0.75129069
   0.24923533  0.24492526  0.00009645
   0.50079100  0.25036902  0.25033964
   0.74007733  0.99339230  0.26436284
   0.75529011  0.25257844  0.99081228
   0.25716998  0.75552793  0.00070639
   0.25819278  0.25023887  0.49786257
   0.24956983  0.74897694  0.49890568
   0.24898912  0.24986360  0.24933458
   0.25788196  0.00039891  0.99592638
   0.00191421  0.24696965  0.00261246
   0.75354815  0.24606204  0.25366189
   0.75003575  0.99518575  0.00384659
   0.49610240  0.99819324  0.24872500
   0.99671095  0.47871197  0.24496551
   0.50730354  0.75781709  0.00406011
   0.98664814  0.00379368  0.74752394
   0.75231474  0.24258270  0.74726697
   0.73720766  0.00635404  0.51364168
   0.50659248  0.23233842  0.50335966
   0.50502118  0.00053512  0.74018135
   0.00557869  0.00500626  0.24478477
   0.50360722  0.25003017 -0.00718785
   0.25487900  0.74884030  0.24977244
   0.24695855  0.49988170  0.99989283
   0.99649860  0.74632498  0.00259722
   0.74811023  0.74528002  0.24718813
   0.75412904  0.50587284  0.00272898
   0.49140212  0.50909513  0.24626502
   0.25452785  0.24801945  0.74871736
   0.25946867  0.99788258  0.50260696
   0.99718433  0.25197170  0.50216196
   0.24773257  0.75380060  0.75028393
   0.24852534  0.49977379  0.49585720
   0.99588673  0.75013048  0.50426188
   0.99536161  0.49903768  0.74888490
   0.74274942  0.76223959  0.75232830
   0.75387629  0.49302533  0.50386809
   0.50117418  0.76217970  0.49919866
   0.49739258  0.49956523  0.75118684
   0.51535192  0.01768061  0.97274148
   0.99842130  0.51739839  0.98197669
   0.50278745  0.73553825  0.25744449
   0.23528935  0.00988134  0.74896194
   0.47624429  0.98182931  0.50082410
   0.73487575  0.97356789  0.76842051
   0.00527511  0.77146476  0.25348587
   0.74013802  0.50852269  0.25483033
   0.01861168  0.00024071  0.50077744
   0.49703948  0.52221476  0.49853948
   0.73787672  0.51766031  0.75097369
   0.75493187  0.73948266  0.49631150
HECN                                    
           1
     8.627756   -0.000999   -0.003401
     0.004547    8.687384    0.005425
     0.027606   -0.009756    8.653748
   V    W    Hf   N    C    Cr   Mo
   7   6   7  13  19   6   6
Direct configuration=     6
   0.99787393  0.98826589  0.99586472
   0.25192813  0.99022331  0.24923181
   0.25360659  0.50953811  0.24779249
   0.50291407  0.49195462  0.99661499
   0.49819557  0.24329609  0.75377088
   0.99674016  0.49937173  0.50101201
   0.49808076  0.76015227  0.74770504
   0.00109638  0.23579834  0.26465531
   0.75524184  0.74292986  0.00790945
   0.01033842  0.25845567  0.73470230
   0.75298809  0.26039339  0.51086221
   0.00050137  0.74302272  0.75010451
   0.25903818  0.49811877  0.75172016
   0.24932751  0.24468406  0.00034697
   0.50024440  0.24994478  0.25008072
   0.73954439  0.99378560  0.26395232
   0.75516012  0.25232153  0.99047931
   0.25784977  0.75593241  0.00077066
   0.25857290  0.25037728  0.49769371
   0.24990246  0.74887628  0.49884752
   0.24893171  0.24989766  0.24940212
   0.25764839  0.00042661  0.99613402
   0.00185856  0.24674796  0.00270836
   0.75356383  0.24607334  0.25355589
   0.75020339  0.99503080  0.00327132
   0.49527415  0.99805154  0.24883117
   0.99715496  0.47863855  0.24521906
   0.50743447  0.75758640  0.00374548
   0.98647729  0.00391817  0.74828300
   0.75192702  0.24245617  0.74715304
   0.73728099  0.00647139  0.51392581
   0.50666215  0.23232810  0.50394320
   0.50534933  0.00053258  0.74056871
   0.00614644  0.00551203  0.24377469
   0.50354171  0.25027593 -0.00787538
   0.25515899  0.74878561  0.24980640
   0.24721339  0.49983091  0.00026834
   0.99646055  0.74656005  0.00247785
   0.74752358  0.74576638  0.24649824
   0.75383399  0.50598606  0.00272249
   0.49026597  0.50949197  0.24537045
   0.25496811  0.24761784  0.74874222
   0.26053535  0.99786050  0.50260074
   0.99719099  0.25266494  0.50220660
   0.24819901  0.75386388  0.75030289
   0.24782040  0.49971627  0.49544002
   0.99631291  0.74926855  0.50471094
   0.99559294  0.49892342  0.74870686
   0.74220150  0.76318077  0.75263892
   0.75479386  0.49242956  0.50407423
   0.50087234  0.76311863  0.49934090
   0.49687017  0.49937020  0.75204043
   0.51528078  0.01794252  0.97218660
   0.99843373  0.51790400  0.98171903
   0.50269036  0.73531173  0.25730660
   0.23511750  0.00978422  0.74917957
   0.47606064  0.98177376  0.50106793
   0.73431197  0.97327674  0.76870192
   0.00574125  0.77103446  0.25290904
   0.74050079  0.50797991  0.25394370
   0.01817550  0.00042857  0.50114964
   0.49646351  0.52164919  0.49847708
   0.73785574  0.51682659  0.75194128
   0.75495514  0.74026258  0.49671166
HECN                                    
           1
     8.708046   -0.009062   -0.010602
    -0.003523    8.778596    0.004833
     0.020679   -0.010518    8.729436
   V    W    Hf   N    C    Cr   Mo
   7   6   7  13  19   6   6
Direct configuration=     7
   0.99967666  0.98555107  0.99297379
   0.25033186  0.98678750  0.25118504
   0.25642355  0.51397379  0.24564549
   0.50124372  0.48834287  0.99615931
   0.49376107  0.24286250  0.75621864
   0.00073388  0.49819953  0.50179237
   0.49773117  0.76265190  0.74547194
   0.00244571  0.23871834  0.26472665
   0.75354634  0.74484764  0.00587382
   0.01382293  0.25793029  0.73643264
   0.75206992  0.25827593  0.51324439
   0.00056589  0.74197747  0.75297084
   0.25756278  0.49902357  0.75450233
   0.24677319  0.24399692  0.00005173
   0.49913261  0.25085026  0.24833527
   0.74024341  0.99467800  0.26199767
   0.75629406  0.25094476  0.98910432
   0.26113249  0.75674750  0.00065947
   0.25754956  0.25006961  0.49896835
   0.24793029  0.74924493  0.49966093
   0.24903782  0.24977620  0.24991236
   0.25644711  0.00067687  0.99771360
   0.00166602  0.24535310  0.00306906
   0.75267497  0.24625356  0.25302738
   0.74997013  0.99508484 -0.00033082
   0.49193951  0.99717384  0.24896735
   0.99926713  0.48108592  0.24661448
   0.50853145  0.75666962  0.00089293
   0.98631199  0.00479758  0.75235407
   0.75099995  0.24337206  0.74604791
   0.74009974  0.00559317  0.51395607
   0.50814834  0.23535710  0.50500168
   0.50724259  0.00037783  0.74384915
   0.00647220  0.00139938  0.24077534
   0.50246538  0.25145007 -0.00905888
   0.25771758  0.74899392  0.24941987
   0.24762174  0.50096081  0.00251582
   0.00025654  0.74811565  0.00240814
   0.74483320  0.74524777  0.24875455
   0.75290211  0.50404134  0.00320285
   0.48940239  0.50999112  0.24260841
   0.25764396  0.24523303  0.74937109
   0.25863921  0.99853454  0.50422046
   0.00046523  0.25555621  0.50035708
   0.25162277  0.75495369  0.75101389
   0.24487941  0.49998418  0.49437459
   0.99763181  0.74573627  0.50403587
   0.99703991  0.49876465  0.74891831
   0.74194794  0.75917161  0.75198029
   0.75478943  0.49666623  0.50284134
   0.50328206  0.76177428  0.49856337
   0.49781757  0.49920611  0.75391572
   0.51493241  0.01951915  0.96791420
   0.99844819  0.52250489  0.97914712
   0.50064846  0.73209477  0.25846799
   0.23111305  0.00741578  0.74950417
   0.47849849  0.98375732  0.50384581
   0.72824064  0.97620048  0.77170904
   0.00482074  0.77104273  0.25057210
   0.73752529  0.50834852  0.24962312
   0.01834003  0.00099250  0.50092516
   0.49831444  0.52040293  0.49623815
   0.73657009  0.51587722  0.75722116
   0.75381022  0.73881651  0.49756379
HECN                                    
           1
     8.695192   -0.007771   -0.009449
    -0.002231    8.763993    0.004928
     0.021788   -0.010396    8.717319
   V    W    Hf   N    C    Cr   Mo
   7   6   7  13  19   6   6
Direct configuration=     8
   0.99939150  0.98598095  0.99343239
   0.25058530  0.98733204  0.25087530
   0.25597636  0.51327067  0.24598581
   0.50150926  0.48891532  0.99623189
   0.49446419  0.24293181  0.75583075
   0.00010048  0.49838465  0.50166802
   0.49778655  0.76225597  0.74582636
   0.00223124  0.23825553  0.26471511
   0.75381526  0.74454408  0.00619708
   0.01327008  0.25801300  0.73615758
   0.75221556  0.25861150  0.51286647
   0.00055543  0.74214303  0.75251595
   0.25779631  0.49888041  0.75406097
   0.24717849  0.24410616  0.00009892
   0.49930906  0.25070699  0.24861241
   0.74013266  0.99453654  0.26230778
   0.75611458  0.25116273  0.98932241
   0.26061169  0.75661789  0.00067668
   0.25771176  0.25011849  0.49876620
   0.24824295  0.74918681  0.49953209
   0.24902094  0.24979542  0.24983137
   0.25663741  0.00063738  0.99746307
   0.00169672  0.24557411  0.00301186
   0.75281600  0.24622514  0.25311137
   0.75000760  0.99507636  0.00024088
   0.49246855  0.99731338  0.24894618
   0.99893156  0.48069786  0.24639272
   0.50835796  0.75681474  0.00134551
   0.98633755  0.00465823  0.75170798
   0.75114701  0.24322711  0.74622341
   0.73965276  0.00573189  0.51395091
   0.50791202  0.23487699  0.50483347
   0.50694188  0.00040203  0.74332828
   0.00642153  0.00205093  0.24125136
   0.50263608  0.25126423 -0.00887093
   0.25731177  0.74896055  0.24948087
   0.24755651  0.50078172  0.00215907
  -0.00034578  0.74786865  0.00241869
   0.74525972  0.74533030  0.24839682
   0.75305014  0.50434957  0.00312676
   0.48953965  0.50991220  0.24304686
   0.25721980  0.24561046  0.74927097
   0.25893966  0.99842801  0.50396364
  -0.00005430  0.25509769  0.50065015
   0.25107946  0.75478053  0.75090060
   0.24534600  0.49994218  0.49454405
   0.99742322  0.74629570  0.50414288
   0.99681039  0.49878959  0.74888456
   0.74198884  0.75980682  0.75208490
   0.75478967  0.49599504  0.50303695
   0.50290014  0.76198692  0.49868647
   0.49766708  0.49923194  0.75361798
   0.51498800  0.01926947  0.96859227
   0.99844555  0.52177601  0.97955524
   0.50097266  0.73260471  0.25828398
   0.23174853  0.00779159  0.74945320
   0.47811115  0.98344268  0.50340461
   0.72920283  0.97573812  0.77123256
   0.00496705  0.77104158  0.25094310
   0.73799776  0.50829061  0.25030920
   0.01831388  0.00090314  0.50096076
   0.49802133  0.52060013  0.49659325
   0.73677346  0.51602775  0.75638340
   0.75399192  0.73904577  0.49742872
HECN                                    
           1
     8.646842   -0.015288   -0.014352
    -0.009835    8.726131    0.002487
     0.016709   -0.012773    8.672188
   V    W    Hf   N    C    Cr   Mo
   7   6   7  13  19   6   6
Direct configuration=     9
   0.00201502  0.98227109  0.98991875
   0.24908873  0.98344304  0.25398994
   0.25950612  0.51804612  0.24332406
   0.49974928  0.48443801  0.99548355
   0.48892942  0.24343595  0.75768943
   0.00450087  0.49745424  0.50284742
   0.49863180  0.76497875  0.74203673
   0.00254119  0.23940288  0.26471425
   0.75295747  0.74604643  0.00440406
   0.01690354  0.25695602  0.73654399
   0.75256104  0.25921742  0.51501238
  -0.00015715  0.74087683  0.75452061
   0.25650582  0.50000576  0.75683638
   0.24414606  0.24363791  0.00013191
   0.49872153  0.25154426  0.24727478
   0.74075519  0.99446409  0.26079441
   0.75751538  0.24975223  0.98807011
   0.26447999  0.75741267  0.00035916
   0.25710542  0.24997115  0.50021182
   0.24755143  0.74980091  0.50067892
   0.24909191  0.24955776  0.25055617
   0.25516602  0.00078451  0.99934092
   0.00119004  0.24393926  0.00301366
   0.75170463  0.24605449  0.25270467
   0.74913696  0.99519943 -0.00289421
   0.49106135  0.99737654  0.24949483
   0.00052133  0.48272817  0.24828408
   0.51004606  0.75604430 -0.00193363
   0.98734733  0.00563686  0.75496195
   0.75099504  0.24427450  0.74521392
   0.74330366  0.00564070  0.51233308
   0.50955806  0.23903921  0.50492477
   0.50862551  0.00006728  0.74611010
   0.00540239 -0.00007499  0.24041259
   0.50142780  0.25161715 -0.00859929
   0.25931358  0.74967472  0.24957694
   0.24738959  0.50214761  0.00379411
   0.00317109  0.74909483  0.00247196
   0.74310598  0.74416874  0.25088662
   0.75288828  0.50288659  0.00373119
   0.49088843  0.50929646  0.24133953
   0.25926809  0.24364854  0.75011702
   0.25627830  0.99885072  0.50624256
   0.00254144  0.25677168  0.50009711
   0.25407886  0.75564436  0.75152518
   0.24408412  0.50046327  0.49445174
   0.99715257  0.74446251  0.50298407
   0.99795808  0.49854304  0.74972669
   0.74310345  0.75589523  0.75097606
   0.75362376  0.49950515  0.50157398
   0.50487600  0.75959470  0.49710242
   0.49881204  0.49929211  0.75389056
   0.51489704  0.02178856  0.96469842
   0.99838216  0.52804293  0.97635270
   0.49888936  0.72905727  0.26130273
   0.22506960  0.00463389  0.74933668
   0.47967405  0.98549976  0.50715434
   0.72237676  0.97681198  0.77444848
   0.00298112  0.77087365  0.24930760
   0.73279522  0.51029236  0.24660763
   0.01840309  0.00133863  0.49962042
   0.50050853  0.51963774  0.49373779
   0.73524446  0.51616962  0.76007083
   0.75365908  0.73487219  0.49810853
HECN                                    
           1
     8.652676   -0.014381   -0.013761
    -0.008917    8.730700    0.002782
     0.017322   -0.012486    8.677634
   V    W    Hf   N    C    Cr   Mo
   7   6   7  13  19   6   6
Direct configuration=    10
   0.00169734  0.98272051  0.99034486
   0.24927052  0.98391437  0.25361241
   0.25907751  0.51746712  0.24364650
   0.49996336  0.48498080  0.99557459
   0.48960080  0.24337537  0.75746436
   0.00396697  0.49756649  0.50270410
   0.49852921  0.76464883  0.74249622
   0.00250346  0.23926380  0.26471429
   0.75306152  0.74586452  0.00462154
   0.01646276  0.25708371  0.73649691
   0.75251891  0.25914388  0.51475206
  -0.00007069  0.74103028  0.75427756
   0.25666208  0.49986943  0.75649980
   0.24451405  0.24369498  0.00012813
   0.49879282  0.25144290  0.24743703
   0.74067976  0.99447285  0.26097792
   0.75734565  0.24992306  0.98822195
   0.26401057  0.75731596  0.00039738
   0.25717891  0.24998902  0.50003653
   0.24763519  0.74972652  0.50053985
   0.24908327  0.24958653  0.25046826
   0.25534441  0.00076677  0.99911325
   0.00125170  0.24413743  0.00301353
   0.75183952  0.24607530  0.25275408
   0.74924280  0.99518471 -0.00251390
   0.49123205  0.99736901  0.24942838
   0.00032809  0.48248190  0.24805450
   0.50984154  0.75613760 -0.00153599
   0.98722447  0.00551805  0.75456718
   0.75101344  0.24414762  0.74533633
   0.74286080  0.00565142  0.51252906
   0.50935788  0.23853464  0.50491344
   0.50842107  0.00010758  0.74577259
   0.00552633  0.00018278  0.24051446
   0.50157435  0.25157450 -0.00863216
   0.25907060  0.74958796  0.24956513
   0.24740958  0.50198205  0.00359576
   0.00274423  0.74894587  0.00246521
   0.74336726  0.74430965  0.25058482
   0.75290803  0.50306387  0.00365794
   0.49072496  0.50937099  0.24154653
   0.25901971  0.24388605  0.75001433
   0.25660101  0.99879969  0.50596633
   0.00222635  0.25656856  0.50016395
   0.25371479  0.75553934  0.75144918
   0.24423718  0.50040026  0.49446301
   0.99718569  0.74468473  0.50312470
   0.99781879  0.49857277  0.74962448
   0.74296870  0.75636917  0.75111060
   0.75376495  0.49907995  0.50175139
   0.50463662  0.75988444  0.49729449
   0.49867309  0.49928469  0.75385742
   0.51490808  0.02148343  0.96517062
   0.99838941  0.52728359  0.97674092
   0.49914230  0.72948728  0.26093685
   0.22588033  0.00501726  0.74935138
   0.47948393  0.98525019  0.50669936
   0.72320467  0.97668245  0.77405886
   0.00322221  0.77089426  0.24950611
   0.73342652  0.51005046  0.24705688
   0.01839231  0.00128589  0.49978296
   0.50020704  0.51975421  0.49408399
   0.73542971  0.51615247  0.75962369
   0.75369987  0.73537797  0.49802625
HECN                                    
           1
     8.654638   -0.014712   -0.009499
    -0.009261    8.727992   -0.000167
     0.021606   -0.015412    8.684499
   V    W    Hf   N    C    Cr   Mo
   7   6   7  13  19   6   6
Direct configuration=    11
   0.00409117  0.98065400  0.98842233
   0.24919632  0.98265988  0.25624856
   0.26098400  0.51861922  0.24221244
   0.49904923  0.48237520  0.99456265
   0.48633292  0.24531150  0.75709573
   0.00644844  0.49740983  0.50370017
   0.50055254  0.76563180  0.73895458
   0.00159286  0.23843626  0.26398037
   0.75340051  0.74694334  0.00377889
   0.01724608  0.25575853  0.73620763
   0.75378637  0.26257421  0.51397400
  -0.00108288  0.74173010  0.75338110
   0.25619245  0.50128859  0.75758824
   0.24353402  0.24367420  0.00162946
   0.49845765  0.25028212  0.24757957
   0.73982647  0.99375331  0.26061528
   0.75776524  0.24902867  0.98816853
   0.26739240  0.75816934  0.00018330
   0.25863990  0.25042120  0.49990326
   0.24915586  0.74993840  0.50127056
   0.24866132  0.24956538  0.25107028
   0.25414963  0.00064168  0.00048088
   0.00049580  0.24286292  0.00269410
   0.75135030  0.24591922  0.25261789
   0.74857790  0.99506360 -0.00294995
   0.49158419  0.99781854  0.25022643
   0.00103527  0.48321724  0.24956720
   0.51144750  0.75584933 -0.00348070
   0.98845937  0.00594238  0.75528840
   0.75136163  0.24406960  0.74537571
   0.74526169  0.00690973  0.51067982
   0.51014704  0.24130658  0.50519828
   0.50737840  0.00018987  0.74482026
   0.00431989  0.00237688  0.24139694
   0.50084254  0.25074754 -0.00770534
   0.25953143  0.75052582  0.25034139
   0.24678692  0.50266182  0.00422946
   0.00411760  0.74958337  0.00254907
   0.74241925  0.74439855  0.25033396
   0.75370933  0.50300807  0.00385398
   0.49145853  0.50774977  0.24039808
   0.25952656  0.24289659  0.75061013
   0.25680046  0.99867129  0.50773652
   0.00225657  0.25630667  0.50121457
   0.25499662  0.75593314  0.75136365
   0.24521631  0.50084450  0.49483464
   0.99629156  0.74522237  0.50273167
   0.99778902  0.49787430  0.75003282
   0.74424676  0.75705493  0.75032343
   0.75404575  0.49789657  0.50127677
   0.50423691  0.76009087  0.49591345
   0.49826739  0.49920871  0.75304468
   0.51404445  0.02352790  0.96602437
   0.99841875  0.53066632  0.97586880
   0.49886265  0.72977163  0.26467453
   0.21998540  0.00220296  0.74942561
   0.47923626  0.98676974  0.50947684
   0.72184890  0.97495191  0.77438272
   0.00160718  0.76819461  0.24968129
   0.73050677  0.51054161  0.24567936
   0.01616709  0.00151044  0.49830627
   0.50023361  0.51695901  0.49264732
   0.73538689  0.51523870  0.75939377
   0.75437146  0.73259738  0.49891414
HECN                                    
           1
     8.656236   -0.014982   -0.006027
    -0.009541    8.725786   -0.002571
     0.025097   -0.017796    8.690094
   V    W    Hf   N    C    Cr   Mo
   7   6   7  13  19   6   6
Direct configuration=    12
   0.00604213  0.97896907  0.98685541
   0.24913478  0.98163800  0.25839470
   0.26253783  0.51955800  0.24104434