<?xml version="1.0" encoding="ISO-8859-1"?>
<modeling>
 <generator>
  <i name="program" type="string">vasp </i>
  <i name="version" type="string">5.4.4.18Apr17-6-g9f103f2a35  </i>
  <i name="subversion" type="string">(build Oct 18 2021 20:38:43) complex            parallel </i>
  <i name="platform" type="string">LinuxIFC </i>
  <i name="date" type="string">2024 06 20 </i>
  <i name="time" type="string">10:44:25 </i>
 </generator>
 <incar>
  <i type="string" name="SYSTEM">HECN</i>
  <i type="int" name="ISTART">     0</i>
  <i type="string" name="PREC">normal</i>
  <i type="string" name="ALGO">Fast</i>
  <i type="int" name="ICHARG">     2</i>
  <i type="int" name="NELM">    60</i>
  <i type="int" name="IBRION">     2</i>
  <i name="EDIFF">      0.00001000</i>
  <i name="EDIFFG">     -0.01000000</i>
  <i type="int" name="NSW">   100</i>
  <i type="int" name="ISIF">     3</i>
  <i name="ENCUT">    400.00000000</i>
  <i name="POTIM">      0.50000000</i>
  <i type="logical" name="LREAL"> F  </i>
  <i type="int" name="ISMEAR">     0</i>
  <i name="SIGMA">      0.10000000</i>
  <i type="logical" name="LWAVE"> F  </i>
  <i type="logical" name="LCHARG"> F  </i>
  <v type="int" name="KPOINT_BSE">    -1     0     0     0</v>
  <i type="int" name="NELM">    60</i>
 </incar>
 <structure name="primitive_cell" >
  <crystal>
   <varray name="basis" >
    <v>       8.72232827       0.00224558      -0.01809154 </v>
    <v>       0.00784502       8.83045129      -0.01980538 </v>
    <v>       0.01315489      -0.03533899       8.73262380 </v>
   </varray>
   <i name="volume">    672.60082734 </i>
   <varray name="rec_basis" >
    <v>       0.11464795      -0.00010224      -0.00017312 </v>
    <v>      -0.00002820       0.11324555       0.00045832 </v>
    <v>       0.00023745       0.00025663       0.11451380 </v>
   </varray>
  </crystal>
  <varray name="positions" >
   <v>       0.00205616      -0.02589565      -0.02367430 </v>
   <v>      -0.01535364       0.01610989      -0.24727635 </v>
   <v>       0.00721613      -0.25061225       0.00369229 </v>
   <v>       0.24346335      -0.00214388      -0.00589582 </v>
   <v>      -0.00247735       0.22312913      -0.00033665 </v>
   <v>      -0.25239468      -0.00935135      -0.00876694 </v>
   <v>       0.00381300      -0.00477743       0.24515370 </v>
   <v>       0.20550100      -0.02337067      -0.24633689 </v>
   <v>      -0.00404100      -0.26688227      -0.24666369 </v>
   <v>      -0.24114703      -0.25232731      -0.00126507 </v>
   <v>      -0.26764080      -0.02545572      -0.24043795 </v>
   <v>      -0.00224724      -0.23145248       0.25451231 </v>
   <v>       0.27885250      -0.23899111       0.00387036 </v>
   <v>       0.24045480       0.23946415       0.00224310 </v>
   <v>      -0.24427582       0.24338801      -0.01314195 </v>
   <v>      -0.00040942       0.22295845       0.26618917 </v>
   <v>       0.25076188      -0.01521915       0.27200471 </v>
   <v>       0.01239932       0.27811923      -0.26316154 </v>
   <v>      -0.26295285      -0.00949886       0.26610331 </v>
   <v>       0.25660410      -0.24424242      -0.24452642 </v>
   <v>      -0.24865379      -0.24319223      -0.25521958 </v>
   <v>       0.25248893       0.24944028      -0.24858325 </v>
   <v>       0.26027541      -0.24988002       0.25478259 </v>
   <v>      -0.26164817      -0.25807004       0.24505691 </v>
   <v>      -0.24858897       0.25154718      -0.25981061 </v>
   <v>      -0.00381272      -0.46389475       0.03124744 </v>
   <v>       0.24304480       0.23955138       0.25184521 </v>
   <v>      -0.24366246       0.24838504       0.25319789 </v>
   <v>       0.01195296       0.00070536      -0.49493498 </v>
   <v>      -0.48407277       0.01652430      -0.05390489 </v>
   <v>      -0.47958341      -0.21982747      -0.02105217 </v>
   <v>      -0.00063137      -0.49673677      -0.23754259 </v>
   <v>       0.25371545      -0.00190217      -0.47936417 </v>
   <v>      -0.00735792      -0.25296779      -0.49606534 </v>
   <v>      -0.24328153       0.01291256      -0.48666107 </v>
   <v>      -0.24760266      -0.49503800      -0.00812137 </v>
   <v>       0.25014075      -0.49735703       0.00503705 </v>
   <v>      -0.48176519       0.01146462      -0.26794346 </v>
   <v>      -0.00178351       0.25821215      -0.49817200 </v>
   <v>       0.00627550       0.48618027       0.24515217 </v>
   <v>       0.49922386       0.24033991      -0.01124025 </v>
   <v>       0.48647869      -0.01096325       0.27357523 </v>
   <v>       0.24788111      -0.25161260      -0.49386341 </v>
   <v>       0.26211480      -0.49207211      -0.23486375 </v>
   <v>      -0.48498056      -0.22748902      -0.26213007 </v>
   <v>       0.26591153      -0.47605919       0.23965189 </v>
   <v>      -0.24732346      -0.27801706      -0.49897160 </v>
   <v>      -0.27557510      -0.49792799      -0.24829995 </v>
   <v>      -0.27228187      -0.48714282       0.22951169 </v>
   <v>       0.48345917       0.25939780      -0.24721955 </v>
   <v>       0.25425842       0.25258937      -0.49875236 </v>
   <v>      -0.24707497       0.27302213      -0.49081903 </v>
   <v>       0.49674987       0.24499387       0.24972910 </v>
   <v>      -0.49534289      -0.26343185       0.28639911 </v>
   <v>       0.46943191      -0.00998592      -0.48736894 </v>
   <v>       0.01295866      -0.49961360       0.46303922 </v>
   <v>       0.49783424       0.46765772      -0.00658868 </v>
   <v>       0.49493235      -0.49015164      -0.24484884 </v>
   <v>      -0.49203029      -0.23810776      -0.49733165 </v>
   <v>       0.24728052      -0.49857802       0.49472683 </v>
   <v>      -0.23985983       0.49811043       0.49378532 </v>
   <v>       0.49334468      -0.48939870       0.23760636 </v>
   <v>      -0.48803371       0.24943466      -0.48933435 </v>
   <v>       0.49701154      -0.49399979       0.49237867 </v>
  </varray>
 </structure>
 <varray name="primitive_index" >
  <v type="int" >        1 </v>
  <v type="int" >       29 </v>
  <v type="int" >       38 </v>
  <v type="int" >       22 </v>
  <v type="int" >       23 </v>
  <v type="int" >       25 </v>
  <v type="int" >       34 </v>
  <v type="int" >       56 </v>
  <v type="int" >       12 </v>
  <v type="int" >        9 </v>
  <v type="int" >       58 </v>
  <v type="int" >       59 </v>
  <v type="int" >       18 </v>
  <v type="int" >       14 </v>
  <v type="int" >       17 </v>
  <v type="int" >        8 </v>
  <v type="int" >        2 </v>
  <v type="int" >       10 </v>
  <v type="int" >       16 </v>
  <v type="int" >       45 </v>
  <v type="int" >       49 </v>
  <v type="int" >       42 </v>
  <v type="int" >       36 </v>
  <v type="int" >       39 </v>
  <v type="int" >       30 </v>
  <v type="int" >       54 </v>
  <v type="int" >       21 </v>
  <v type="int" >       24 </v>
  <v type="int" >       61 </v>
  <v type="int" >       53 </v>
  <v type="int" >       28 </v>
  <v type="int" >       48 </v>
  <v type="int" >       43 </v>
  <v type="int" >       47 </v>
  <v type="int" >       31 </v>
  <v type="int" >       40 </v>
  <v type="int" >       37 </v>
  <v type="int" >       33 </v>
  <v type="int" >       44 </v>
  <v type="int" >       27 </v>
  <v type="int" >       35 </v>
  <v type="int" >       26 </v>
  <v type="int" >       20 </v>
  <v type="int" >       13 </v>
  <v type="int" >        7 </v>
  <v type="int" >        3 </v>
  <v type="int" >       64 </v>
  <v type="int" >       63 </v>
  <v type="int" >       60 </v>
  <v type="int" >        5 </v>
  <v type="int" >       19 </v>
  <v type="int" >       11 </v>
  <v type="int" >       15 </v>
  <v type="int" >       55 </v>
  <v type="int" >       57 </v>
  <v type="int" >        6 </v>
  <v type="int" >        4 </v>
  <v type="int" >       52 </v>
  <v type="int" >       51 </v>
  <v type="int" >       46 </v>
  <v type="int" >       50 </v>
  <v type="int" >       41 </v>
  <v type="int" >       32 </v>
  <v type="int" >       62 </v>
 </varray>
 <kpoints>
  <generation param="Gamma">
   <v type="int" name="divisions">       3        3        3 </v>
   <v name="usershift">      0.00000000       0.00000000       0.00000000 </v>
   <v name="genvec1">      0.33333333      -0.00000000       0.00000000 </v>
   <v name="genvec2">      0.00000000       0.33333333       0.00000000 </v>
   <v name="genvec3">      0.00000000       0.00000000       0.33333333 </v>
   <v name="shift">      0.00000000       0.00000000       0.00000000 </v>
  </generation>
  <varray name="kpointlist" >
   <v>       0.00000000       0.00000000       0.00000000 </v>
   <v>       0.33333333       0.00000000       0.00000000 </v>
   <v>       0.00000000       0.33333333       0.00000000 </v>
   <v>       0.33333333       0.33333333       0.00000000 </v>
   <v>      -0.33333333       0.33333333       0.00000000 </v>
   <v>       0.00000000       0.00000000       0.33333333 </v>
   <v>       0.33333333       0.00000000       0.33333333 </v>
   <v>      -0.33333333      -0.00000000       0.33333333 </v>
   <v>      -0.00000000       0.33333333       0.33333333 </v>
   <v>       0.33333333       0.33333333       0.33333333 </v>
   <v>      -0.33333333       0.33333333       0.33333333 </v>
   <v>      -0.00000000      -0.33333333       0.33333333 </v>
   <v>       0.33333333      -0.33333333       0.33333333 </v>
   <v>      -0.33333333      -0.33333333       0.33333333 </v>
  </varray>
  <varray name="weights" >
   <v>       0.03703704 </v>
   <v>       0.07407407 </v>
   <v>       0.07407407 </v>
   <v>       0.07407407 </v>
   <v>       0.07407407 </v>
   <v>       0.07407407 </v>
   <v>       0.07407407 </v>
   <v>       0.07407407 </v>
   <v>       0.07407407 </v>
   <v>       0.07407407 </v>
   <v>       0.07407407 </v>
   <v>       0.07407407 </v>
   <v>       0.07407407 </v>
   <v>       0.07407407 </v>
  </varray>
 </kpoints>
 <parameters>
  <separator name="general" >
   <i type="string" name="SYSTEM">HECN</i>
   <i type="logical" name="LCOMPAT"> F  </i>
  </separator>
  <separator name="electronic" >
   <i type="string" name="PREC">normal</i>
   <i name="ENMAX">    400.00000000</i>
   <i name="ENAUG">    644.87300000</i>
   <i name="EDIFF">      0.00001000</i>
   <i type="int" name="IALGO">    68</i>
   <i type="int" name="IWAVPR">    11</i>
   <i type="int" name="NBANDS">   312</i>
   <i name="NELECT">    496.00000000</i>
   <i type="int" name="TURBO">     0</i>
   <i type="int" name="IRESTART">     0</i>
   <i type="int" name="NREBOOT">     0</i>
   <i type="int" name="NMIN">     0</i>
   <i name="EREF">      0.00000000</i>
   <separator name="electronic smearing" >
    <i type="int" name="ISMEAR">     0</i>
    <i name="SIGMA">      0.10000000</i>
    <i name="KSPACING">      0.50000000</i>
    <i type="logical" name="KGAMMA"> T  </i>
   </separator>
   <separator name="electronic projectors" >
    <i type="logical" name="LREAL"> F  </i>
    <v name="ROPT">      0.00000000      0.00000000      0.00000000      0.00000000      0.00000000      0.00000000      0.00000000</v>
    <i type="int" name="LMAXPAW">  -100</i>
    <i type="int" name="LMAXMIX">     2</i>
    <i type="logical" name="NLSPLINE"> F  </i>
   </separator>
   <separator name="electronic startup" >
    <i type="int" name="ISTART">     0</i>
    <i type="int" name="ICHARG">     2</i>
    <i type="int" name="INIWAV">     1</i>
   </separator>
   <separator name="electronic spin" >
    <i type="int" name="ISPIN">     1</i>
    <i type="logical" name="LNONCOLLINEAR"> F  </i>
    <v name="MAGMOM">      1.00000000      1.00000000      1.00000000      1.00000000      1.00000000      1.00000000      1.00000000      1.00000000      1.00000000      1.00000000      1.00000000      1.00000000      1.00000000      1.00000000      1.00000000      1.00000000      1.00000000      1.00000000      1.00000000      1.00000000
      1.00000000      1.00000000      1.00000000      1.00000000      1.00000000      1.00000000      1.00000000      1.00000000      1.00000000      1.00000000      1.00000000      1.00000000      1.00000000      1.00000000      1.00000000      1.00000000      1.00000000      1.00000000      1.00000000      1.00000000
      1.00000000      1.00000000      1.00000000      1.00000000      1.00000000      1.00000000      1.00000000      1.00000000      1.00000000      1.00000000      1.00000000      1.00000000      1.00000000      1.00000000      1.00000000      1.00000000      1.00000000      1.00000000      1.00000000      1.00000000
      1.00000000      1.00000000      1.00000000      1.00000000</v>
    <i name="NUPDOWN">     -1.00000000</i>
    <i type="logical" name="LSORBIT"> F  </i>
    <v name="SAXIS">      0.00000000      0.00000000      1.00000000</v>
    <i type="logical" name="LSPIRAL"> F  </i>
    <v name="QSPIRAL">      0.00000000      0.00000000      0.00000000</v>
    <i type="logical" name="LZEROZ"> F  </i>
   </separator>
   <separator name="electronic exchange-correlation" >
    <i type="logical" name="LASPH"> F  </i>
    <i type="logical" name="LMETAGGA"> F  </i>
   </separator>
   <separator name="electronic convergence" >
    <i type="int" name="NELM">    60</i>
    <i type="int" name="NELMDL">    -5</i>
    <i type="int" name="NELMIN">     2</i>
    <i name="ENINI">    400.00000000</i>
    <separator name="electronic convergence detail" >
     <i type="logical" name="LDIAG"> T  </i>
     <i type="logical" name="LSUBROT"> F  </i>
     <i name="WEIMIN">      0.00100000</i>
     <i name="EBREAK">      0.00000001</i>
     <i name="DEPER">      0.30000000</i>
     <i type="int" name="NRMM">     4</i>
     <i name="TIME">      0.40000000</i>
    </separator>
   </separator>
   <separator name="electronic mixer" >
    <i name="AMIX">      0.40000000</i>
    <i name="BMIX">      1.00000000</i>
    <i name="AMIN">      0.10000000</i>
    <i name="AMIX_MAG">      1.60000000</i>
    <i name="BMIX_MAG">      1.00000000</i>
    <separator name="electronic mixer details" >
     <i type="int" name="IMIX">     4</i>
     <i type="logical" name="MIXFIRST"> F  </i>
     <i type="int" name="MAXMIX">   -45</i>
     <i name="WC">    100.00000000</i>
     <i type="int" name="INIMIX">     1</i>
     <i type="int" name="MIXPRE">     1</i>
     <i type="int" name="MREMOVE">     5</i>
    </separator>
   </separator>
   <separator name="electronic dipolcorrection" >
    <i type="logical" name="LDIPOL"> F  </i>
    <i type="logical" name="LMONO"> F  </i>
    <i type="int" name="IDIPOL">     0</i>
    <i name="EPSILON">      1.00000000</i>
    <v name="DIPOL">   -100.00000000   -100.00000000   -100.00000000</v>
    <i name="EFIELD">      0.00000000</i>
   </separator>
  </separator>
  <separator name="grids" >
   <i type="int" name="NGX">    48</i>
   <i type="int" name="NGY">    48</i>
   <i type="int" name="NGZ">    48</i>
   <i type="int" name="NGXF">    96</i>
   <i type="int" name="NGYF">    96</i>
   <i type="int" name="NGZF">    96</i>
   <i type="logical" name="ADDGRID"> F  </i>
  </separator>
  <separator name="ionic" >
   <i type="int" name="NSW">   100</i>
   <i type="int" name="IBRION">     2</i>
   <i type="int" name="MDALGO">     0</i>
   <i type="int" name="ISIF">     3</i>
   <i name="PSTRESS">      0.00000000</i>
   <i name="EDIFFG">     -0.01000000</i>
   <i type="int" name="NFREE">     1</i>
   <i name="POTIM">      0.50000000</i>
   <i name="SMASS">     -3.00000000</i>
   <i name="SCALEE">      1.00000000</i>
  </separator>
  <separator name="ionic md" >
   <i name="TEBEG">      0.00010000</i>
   <i name="TEEND">      0.00010000</i>
   <i type="int" name="NBLOCK">     1</i>
   <i type="int" name="KBLOCK">   100</i>
   <i type="int" name="NPACO">   256</i>
   <i name="APACO">     16.00000000</i>
  </separator>
  <separator name="symmetry" >
   <i type="int" name="ISYM">     2</i>
   <i name="SYMPREC">      0.00001000</i>
  </separator>
  <separator name="dos" >
   <i type="int" name="LORBIT">     0</i>
   <v name="RWIGS">     -1.00000000     -1.00000000     -1.00000000     -1.00000000     -1.00000000     -1.00000000     -1.00000000</v>
   <i type="int" name="NEDOS">   301</i>
   <i name="EMIN">     10.00000000</i>
   <i name="EMAX">    -10.00000000</i>
   <i name="EFERMI">      0.00000000</i>
  </separator>
  <separator name="writing" >
   <i type="int" name="NWRITE">     2</i>
   <i type="logical" name="LWAVE"> F  </i>
   <i type="logical" name="LDOWNSAMPLE"> F  </i>
   <i type="logical" name="LCHARG"> F  </i>
   <i type="logical" name="LPARD"> F  </i>
   <i type="logical" name="LVTOT"> F  </i>
   <i type="logical" name="LVHAR"> F  </i>
   <i type="logical" name="LELF"> F  </i>
   <i type="logical" name="LOPTICS"> F  </i>
   <v name="STM">      0.00000000      0.00000000      0.00000000      0.00000000      0.00000000      0.00000000      0.00000000</v>
  </separator>
  <separator name="performance" >
   <i type="int" name="NPAR">    24</i>
   <i type="int" name="NSIM">     4</i>
   <i type="int" name="NBLK">    -1</i>
   <i type="logical" name="LPLANE"> T  </i>
   <i type="logical" name="LSCALAPACK"> T  </i>
   <i type="logical" name="LSCAAWARE"> F  </i>
   <i type="logical" name="LSCALU"> F  </i>
   <i type="logical" name="LASYNC"> F  </i>
   <i type="logical" name="LORBITALREAL"> F  </i>
  </separator>
  <separator name="miscellaneous" >
   <i type="int" name="IDIOT">     3</i>
   <i type="int" name="ISPECIAL">     0</i>
   <i type="logical" name="LMUSIC"> F  </i>
   <v name="POMASS">     50.94100000    183.85000000     91.22400000     14.00100000     12.01100000     51.99600000     95.94000000</v>
   <v name="DARWINR">      0.00000000      0.00000000      0.00000000      0.00000000      0.00000000      0.00000000      0.00000000</v>
   <v name="DARWINV">      1.00000000      1.00000000      1.00000000      1.00000000      1.00000000      1.00000000      1.00000000</v>
   <i type="logical" name="LCORR"> T  </i>
  </separator>
  <i type="logical" name="GGA_COMPAT"> T  </i>
  <i type="logical" name="LBERRY"> F  </i>
  <i type="int" name="ICORELEVEL">     0</i>
  <i type="logical" name="LDAU"> F  </i>
  <i type="int" name="I_CONSTRAINED_M">     0</i>
  <separator name="electronic exchange-correlation" >
   <i type="string" name="GGA">--</i>
   <i type="int" name="VOSKOWN">     0</i>
   <i type="logical" name="LHFCALC"> F  </i>
   <i type="string" name="PRECFOCK"></i>
   <i type="logical" name="LSYMGRAD"> F  </i>
   <i type="logical" name="LHFONE"> F  </i>
   <i type="logical" name="LRHFCALC"> F  </i>
   <i type="logical" name="LTHOMAS"> F  </i>
   <i type="logical" name="LMODELHF"> F  </i>
   <i name="ENCUT4O">     -1.00000000</i>
   <i type="int" name="EXXOEP">     0</i>
   <i type="int" name="FOURORBIT">     0</i>
   <i name="AEXX">      0.00000000</i>
   <i name="HFALPHA">      0.00000000</i>
   <i name="MCALPHA">      0.00000000</i>
   <i name="ALDAX">      1.00000000</i>
   <i name="AGGAX">      1.00000000</i>
   <i name="ALDAC">      1.00000000</i>
   <i name="AGGAC">      1.00000000</i>
   <i type="int" name="NKREDX">     1</i>
   <i type="int" name="NKREDY">     1</i>
   <i type="int" name="NKREDZ">     1</i>
   <i type="logical" name="SHIFTRED"> F  </i>
   <i type="logical" name="ODDONLY"> F  </i>
   <i type="logical" name="EVENONLY"> F  </i>
   <i type="int" name="LMAXFOCK">     0</i>
   <i type="int" name="NMAXFOCKAE">     0</i>
   <i type="logical" name="LFOCKAEDFT"> F  </i>
   <i name="HFSCREEN">      0.00000000</i>
   <i name="HFSCREENC">      0.00000000</i>
   <i type="int" name="NBANDSGWLOW">     0</i>
  </separator>
  <separator name="vdW DFT" >
   <i type="logical" name="LUSE_VDW"> F  </i>
   <i name="Zab_VDW">     -0.84910000</i>
   <i name="PARAM1">      0.12340000</i>
   <i name="PARAM2">      1.00000000</i>
   <i name="PARAM3">      0.00000000</i>
  </separator>
  <separator name="model GW" >
   <i type="int" name="MODEL_GW">     0</i>
   <i name="MODEL_EPS0">      6.30563276</i>
   <i name="MODEL_ALPHA">      1.00000000</i>
  </separator>
  <separator name="linear response parameters" >
   <i type="logical" name="LEPSILON"> F  </i>
   <i type="logical" name="LRPA"> F  </i>
   <i type="logical" name="LNABLA"> F  </i>
   <i type="logical" name="LVEL"> F  </i>
   <i type="int" name="KINTER">     0</i>
   <i name="CSHIFT">      0.10000000</i>
   <i name="OMEGAMAX">     -1.00000000</i>
   <i name="DEG_THRESHOLD">      0.00200000</i>
   <i name="RTIME">     -0.10000000</i>
   <i name="WPLASMAI">      0.00000000</i>
   <v name="DFIELD">      0.00000000      0.00000000      0.00000000</v>
   <v name="WPLASMA">      0.00000000      0.00000000      0.00000000      0.00000000      0.00000000      0.00000000      0.00000000      0.00000000      0.00000000</v>
  </separator>
  <separator name="orbital magnetization" >
   <i type="logical" name="NUCIND"> F  </i>
   <v name="MAGPOS">      0.00000000      0.00000000      0.00000000</v>
   <i type="logical" name="LNICSALL"> T  </i>
   <i type="logical" name="ORBITALMAG"> F  </i>
   <i type="logical" name="LMAGBLOCH"> F  </i>
   <i type="logical" name="LCHIMAG"> F  </i>
   <i type="logical" name="LGAUGE"> T  </i>
   <i type="int" name="MAGATOM">     0</i>
   <v name="MAGDIPOL">      0.00000000      0.00000000      0.00000000</v>
   <v name="AVECCONST">      0.00000000      0.00000000      0.00000000</v>
  </separator>
  <separator name="response functions" >
   <i type="logical" name="LADDER"> F  </i>
   <i type="logical" name="LRPAFORCE"> F  </i>
   <i type="logical" name="LFXC"> F  </i>
   <i type="logical" name="LHARTREE"> T  </i>
   <i type="int" name="IBSE">     0</i>
   <v type="int" name="KPOINT">    -1     0     0     0</v>
   <i type="logical" name="LTCTE"> F  </i>
   <i type="logical" name="LTETE"> F  </i>
   <i type="logical" name="LTRIPLET"> F  </i>
   <i type="logical" name="LFXCEPS"> F  </i>
   <i type="logical" name="LFXHEG"> F  </i>
   <i type="int" name="NATURALO">     2</i>
   <i type="logical" name="L2ORDER"> F  </i>
   <i type="logical" name="LMP2LT"> F  </i>
   <i type="logical" name="LUSEW"> F  </i>
   <i name="ENCUTGW">     -2.00000000</i>
   <i name="ENCUTGWSOFT">     -2.00000000</i>
   <i name="ENCUTLF">     -1.00000000</i>
   <i type="int" name="LMAXMP2">    -1</i>
   <i name="SCISSOR">      0.00000000</i>
   <i type="int" name="NOMEGA">     0</i>
   <i type="int" name="NOMEGAR">     0</i>
   <i type="int" name="NBANDSGW">    -1</i>
   <i type="int" name="NBANDSO">    -1</i>
   <i type="int" name="NBANDSV">    -1</i>
   <i type="int" name="NELM">    60</i>
   <i type="int" name="NELMHF">     1</i>
   <i type="int" name="DIM">     3</i>
   <i type="int" name="ANTIRES">     0</i>
   <i name="OMEGAMAX">    -30.00000000</i>
   <i name="OMEGAMIN">    -30.00000000</i>
   <i name="OMEGATL">   -200.00000000</i>
   <i type="int" name="OMEGAGRID">   140</i>
   <i name="CSHIFT">     -0.10000000</i>
   <i type="logical" name="SELFENERGY"> F  </i>
   <i type="logical" name="LSPECTRAL"> F  </i>
   <i type="logical" name="LSPECTRALGW"> F  </i>
   <i type="logical" name="LSINGLES"> F  </i>
   <i type="logical" name="LFERMIGW"> F  </i>
   <i type="logical" name="ODDONLYGW"> F  </i>
   <i type="logical" name="EVENONLYGW"> F  </i>
   <i type="int" name="NKREDLFX">     1</i>
   <i type="int" name="NKREDLFY">     1</i>
   <i type="int" name="NKREDLFZ">     1</i>
   <i type="int" name="MAXMEM">  2800</i>
   <i type="int" name="TELESCOPE">     0</i>
   <i type="int" name="TAUPAR">     1</i>
   <i type="int" name="OMEGAPAR">    -1</i>
   <i name="LAMBDA">      1.00000000</i>
  </separator>
  <separator name="External order field" >
   <i name="OFIELD_KAPPA">      0.00000000</i>
   <v name="OFIELD_K">      0.00000000      0.00000000      0.00000000</v>
   <i name="OFIELD_Q6_NEAR">      0.00000000</i>
   <i name="OFIELD_Q6_FAR">      0.00000000</i>
   <i name="OFIELD_A">      0.00000000</i>
  </separator>
 </parameters>
 <atominfo>
  <atoms>      64 </atoms>
  <types>       7 </types>
  <array name="atoms" >
   <dimension dim="1">ion</dimension>
   <field type="string">element</field>
   <field type="int">atomtype</field>
   <set>
    <rc><c>V </c><c>   1</c></rc>
    <rc><c>V </c><c>   1</c></rc>
    <rc><c>V </c><c>   1</c></rc>
    <rc><c>V </c><c>   1</c></rc>
    <rc><c>V </c><c>   1</c></rc>
    <rc><c>V </c><c>   1</c></rc>
    <rc><c>V </c><c>   1</c></rc>
    <rc><c>W </c><c>   2</c></rc>
    <rc><c>W </c><c>   2</c></rc>
    <rc><c>W </c><c>   2</c></rc>
    <rc><c>W </c><c>   2</c></rc>
    <rc><c>W </c><c>   2</c></rc>
    <rc><c>W </c><c>   2</c></rc>
    <rc><c>Zr</c><c>   3</c></rc>
    <rc><c>Zr</c><c>   3</c></rc>
    <rc><c>Zr</c><c>   3</c></rc>
    <rc><c>Zr</c><c>   3</c></rc>
    <rc><c>Zr</c><c>   3</c></rc>
    <rc><c>Zr</c><c>   3</c></rc>
    <rc><c>Zr</c><c>   3</c></rc>
    <rc><c>N </c><c>   4</c></rc>
    <rc><c>N </c><c>   4</c></rc>
    <rc><c>N </c><c>   4</c></rc>
    <rc><c>N </c><c>   4</c></rc>
    <rc><c>N </c><c>   4</c></rc>
    <rc><c>N </c><c>   4</c></rc>
    <rc><c>N </c><c>   4</c></rc>
    <rc><c>N </c><c>   4</c></rc>
    <rc><c>N </c><c>   4</c></rc>
    <rc><c>N </c><c>   4</c></rc>
    <rc><c>N </c><c>   4</c></rc>
    <rc><c>N </c><c>   4</c></rc>
    <rc><c>N </c><c>   4</c></rc>
    <rc><c>C </c><c>   5</c></rc>
    <rc><c>C </c><c>   5</c></rc>
    <rc><c>C </c><c>   5</c></rc>
    <rc><c>C </c><c>   5</c></rc>
    <rc><c>C </c><c>   5</c></rc>
    <rc><c>C </c><c>   5</c></rc>
    <rc><c>C </c><c>   5</c></rc>
    <rc><c>C </c><c>   5</c></rc>
    <rc><c>C </c><c>   5</c></rc>
    <rc><c>C </c><c>   5</c></rc>
    <rc><c>C </c><c>   5</c></rc>
    <rc><c>C </c><c>   5</c></rc>
    <rc><c>C </c><c>   5</c></rc>
    <rc><c>C </c><c>   5</c></rc>
    <rc><c>C </c><c>   5</c></rc>
    <rc><c>C </c><c>   5</c></rc>
    <rc><c>C </c><c>   5</c></rc>
    <rc><c>C </c><c>   5</c></rc>
    <rc><c>C </c><c>   5</c></rc>
    <rc><c>Cr</c><c>   6</c></rc>
    <rc><c>Cr</c><c>   6</c></rc>
    <rc><c>Cr</c><c>   6</c></rc>
    <rc><c>Cr</c><c>   6</c></rc>
    <rc><c>Cr</c><c>   6</c></rc>
    <rc><c>Cr</c><c>   6</c></rc>
    <rc><c>Mo</c><c>   7</c></rc>
    <rc><c>Mo</c><c>   7</c></rc>
    <rc><c>Mo</c><c>   7</c></rc>
    <rc><c>Mo</c><c>   7</c></rc>
    <rc><c>Mo</c><c>   7</c></rc>
    <rc><c>Mo</c><c>   7</c></rc>
   </set>
  </array>
  <array name="atomtypes" >
   <dimension dim="1">type</dimension>
   <field type="int">atomspertype</field>
   <field type="string">element</field>
   <field>mass</field>
   <field>valence</field>
   <field type="string">pseudopotential</field>
   <set>
    <rc><c>   7</c><c>V </c><c>     50.94100000</c><c>     13.00000000</c><c> PAW_PBE V_sv 07Sep2000                 </c></rc>
    <rc><c>   6</c><c>W </c><c>    183.85000000</c><c>     12.00000000</c><c> PAW_PBE W_pv 06Sep2000                 </c></rc>
    <rc><c>   7</c><c>Zr</c><c>     91.22400000</c><c>     12.00000000</c><c> PAW_PBE Zr_sv 07Sep2000                </c></rc>
    <rc><c>  13</c><c>N </c><c>     14.00100000</c><c>      5.00000000</c><c> PAW_PBE N 08Apr2002                    </c></rc>
    <rc><c>  19</c><c>C </c><c>     12.01100000</c><c>      4.00000000</c><c> PAW_PBE C 08Apr2002                    </c></rc>
    <rc><c>   6</c><c>Cr</c><c>     51.99600000</c><c>     12.00000000</c><c> PAW_PBE Cr_pv 07Sep2000                </c></rc>
    <rc><c>   6</c><c>Mo</c><c>     95.94000000</c><c>      6.00000000</c><c> PAW_PBE Mo 08Apr2002                   </c></rc>
   </set>
  </array>
 </atominfo>
 <structure name="initialpos" >
  <crystal>
   <varray name="basis" >
    <v>       8.72232827       0.00224558      -0.01809154 </v>
    <v>       0.00784502       8.83045129      -0.01980538 </v>
    <v>       0.01315489      -0.03533899       8.73262380 </v>
   </varray>
   <i name="volume">    672.60082734 </i>
   <varray name="rec_basis" >
    <v>       0.11464795      -0.00010224      -0.00017312 </v>
    <v>      -0.00002820       0.11324555       0.00045832 </v>
    <v>       0.00023745       0.00025663       0.11451380 </v>
   </varray>
  </crystal>
  <varray name="positions" >
   <v>       0.00205616       0.97410435       0.97632570 </v>
   <v>       0.25076188       0.98478085       0.27200471 </v>
   <v>       0.26591153       0.52394081       0.23965189 </v>
   <v>       0.49783424       0.46765772       0.99341132 </v>
   <v>       0.48345917       0.25939780       0.75278045 </v>
   <v>       0.01295866       0.50038640       0.46303922 </v>
   <v>       0.51501944       0.77251098       0.73786993 </v>
   <v>       0.99959058       0.22295845       0.26618917 </v>
   <v>       0.75885297       0.74767269       0.99873493 </v>
   <v>       0.01239932       0.27811923       0.73683846 </v>
   <v>       0.75292503       0.27302213       0.50918097 </v>
   <v>       0.99595900       0.73311773       0.75333631 </v>
   <v>       0.26211480       0.50792789       0.76513625 </v>
   <v>       0.24045480       0.23946415       0.00224310 </v>
   <v>       0.49674987       0.24499387       0.24972910 </v>
   <v>       0.73704715       0.99050114       0.26610331 </v>
   <v>       0.75572418       0.24338801       0.98685805 </v>
   <v>       0.27885250       0.76100889       0.00387036 </v>
   <v>       0.25425842       0.25258937       0.50124764 </v>
   <v>       0.24788111       0.74838740       0.50613659 </v>
   <v>       0.24304480       0.23955138       0.25184521 </v>
   <v>       0.24346335       0.99785612       0.99410418 </v>
   <v>       0.99752265       0.22312913       0.99966335 </v>
   <v>       0.75633754       0.24838504       0.25319789 </v>
   <v>       0.74760532       0.99064865       0.99123306 </v>
   <v>       0.48647869       0.98903675       0.27357523 </v>
   <v>       0.00627550       0.48618027       0.24515217 </v>
   <v>       0.52041659       0.78017253       0.97894783 </v>
   <v>       0.98464636       0.01610989       0.75272365 </v>
   <v>       0.75141103       0.25154718       0.74018939 </v>
   <v>       0.75671847       0.01291256       0.51333893 </v>
   <v>       0.51196629       0.24943466       0.51066565 </v>
   <v>       0.51823481       0.01146462       0.73205654 </v>
   <v>       0.00381300       0.99522257       0.24515370 </v>
   <v>       0.49922386       0.24033991       0.98875975 </v>
   <v>       0.26027541       0.75011998       0.25478259 </v>
   <v>       0.25014075       0.50264297       0.00503705 </v>
   <v>       0.00721613       0.74938775       0.00369229 </v>
   <v>       0.73835183       0.74192996       0.24505691 </v>
   <v>       0.75239734       0.50496200       0.99187863 </v>
   <v>       0.49334468       0.51060130       0.23760636 </v>
   <v>       0.25248893       0.24944028       0.75141675 </v>
   <v>       0.25371545       0.99809783       0.52063583 </v>
   <v>       0.99821649       0.25821215       0.50182800 </v>
   <v>       0.25660410       0.75575758       0.75547358 </v>
   <v>       0.24728052       0.50142198       0.49472683 </v>
   <v>       0.99264208       0.74703221       0.50393466 </v>
   <v>       0.99936863       0.50326323       0.76245741 </v>
   <v>       0.75134621       0.75680777       0.74478042 </v>
   <v>       0.76014017       0.49811043       0.49378532 </v>
   <v>       0.50796971       0.76189224       0.50266835 </v>
   <v>       0.49493235       0.50984836       0.75515116 </v>
   <v>       0.51592723       0.01652430       0.94609511 </v>
   <v>       0.99618728       0.53610525       0.03124744 </v>
   <v>       0.50465711       0.73656815       0.28639911 </v>
   <v>       0.20550100       0.97662933       0.75366311 </v>
   <v>       0.46943191       0.99001408       0.51263106 </v>
   <v>       0.73235920       0.97454428       0.75956205 </v>
   <v>       0.99775276       0.76854752       0.25451231 </v>
   <v>       0.72771813       0.51285718       0.22951169 </v>
   <v>       0.01195296       0.00070536       0.50506502 </v>
   <v>       0.49701154       0.50600021       0.49237867 </v>
   <v>       0.72442490       0.50207201       0.75170005 </v>
   <v>       0.75267654       0.72198294       0.50102840 </v>
  </varray>
 </structure>
 <calculation>
  <scstep>
   <time name="dav">   18.96   19.51</time>
   <time name="total">   19.00   19.56</time>
   <energy>
    <i name="alphaZ">   4424.33760714 </i>
    <i name="ewald"> -39803.98805003 </i>
    <i name="hartreedc">  -9734.87732162 </i>
    <i name="XCdc">   1563.43096828 </i>
    <i name="pawpsdc">  30959.29812120 </i>
    <i name="pawaedc"> -30766.34778754 </i>
    <i name="eentropy">     -0.07768288 </i>
    <i name="bandstr">   1825.81022271 </i>
    <i name="atom">  47627.35599214 </i>
    <i name="e_fr_energy">   6094.94206942 </i>
    <i name="e_wo_entrp">   6095.01975229 </i>
    <i name="e_0_energy">   6094.98091086 </i>
   </energy>
  </scstep>
  <scstep>
   <time name="dav">   20.42   20.98</time>
   <time name="total">   20.43   20.98</time>
   <energy>
    <i name="e_fr_energy">    194.65121951 </i>
    <i name="e_wo_entrp">    194.80199770 </i>
    <i name="e_0_energy">    194.72660861 </i>
   </energy>
  </scstep>
  <scstep>
   <time name="dav">   27.76   28.47</time>
   <time name="total">   27.77   28.47</time>
   <energy>
    <i name="e_fr_energy">   -679.32471711 </i>
    <i name="e_wo_entrp">   -679.19999241 </i>
    <i name="e_0_energy">   -679.26235476 </i>
   </energy>
  </scstep>
  <scstep>
   <time name="dav">   32.94   32.99</time>
   <time name="total">   32.94   32.99</time>
   <energy>
    <i name="e_fr_energy">   -770.68853005 </i>
    <i name="e_wo_entrp">   -770.57123982 </i>
    <i name="e_0_energy">   -770.62988493 </i>
   </energy>
  </scstep>
  <scstep>
   <time name="dav">   34.06   34.97</time>
   <time name="total">   34.32   35.23</time>
   <energy>
    <i name="e_fr_energy">   -777.09795089 </i>
    <i name="e_wo_entrp">   -776.97706121 </i>
    <i name="e_0_energy">   -777.03750605 </i>
   </energy>
  </scstep>
  <scstep>
   <time name="diag">    1.88    1.92</time>
   <time name="diis">   16.30   16.79</time>
   <time name="orth">    0.42    0.42</time>
   <time name="total">   18.88   19.43</time>
   <energy>
    <i name="e_fr_energy">   -809.76018147 </i>
    <i name="e_wo_entrp">   -809.58831120 </i>
    <i name="e_0_energy">   -809.67424634 </i>
   </energy>
  </scstep>
  <scstep>
   <time name="diag">    1.89    1.91</time>
   <time name="diis">   17.58   17.60</time>
   <time name="orth">    0.42    0.42</time>
   <time name="total">   20.16   20.22</time>
   <energy>
    <i name="e_fr_energy">   -665.80163225 </i>
    <i name="e_wo_entrp">   -665.63319161 </i>
    <i name="e_0_energy">   -665.71741193 </i>
   </energy>
  </scstep>
  <scstep>
   <time name="diag">    1.86    1.90</time>
   <time name="diis">   19.96   20.55</time>
   <time name="orth">    0.42    0.42</time>
   <time name="total">   22.53   23.17</time>
   <energy>
    <i name="e_fr_energy">   -644.23571116 </i>
    <i name="e_wo_entrp">   -644.09953582 </i>
    <i name="e_0_energy">   -644.16762349 </i>
   </energy>
  </scstep>
  <scstep>
   <time name="diag">    1.89    1.89</time>
   <time name="diis">   20.61   20.62</time>
   <time name="orth">    0.42    0.42</time>
   <time name="total">   23.21   23.22</time>
   <energy>
    <i name="e_fr_energy">   -632.30237170 </i>
    <i name="e_wo_entrp">   -632.14281845 </i>
    <i name="e_0_energy">   -632.22259507 </i>
   </energy>
  </scstep>
  <scstep>
   <time name="diag">    1.86    1.90</time>
   <time name="diis">   20.51   21.16</time>
   <time name="orth">    0.41    0.42</time>
   <time name="total">   23.07   23.77</time>
   <energy>
    <i name="e_fr_energy">   -631.48370082 </i>
    <i name="e_wo_entrp">   -631.33626828 </i>
    <i name="e_0_energy">   -631.40998455 </i>
   </energy>
  </scstep>
  <scstep>
   <time name="diag">    1.87    1.91</time>
   <time name="diis">   19.59   20.19</time>
   <time name="orth">    0.44    0.45</time>
   <time name="total">   22.21   22.86</time>
   <energy>
    <i name="e_fr_energy">   -631.10145769 </i>
    <i name="e_wo_entrp">   -630.95124134 </i>
    <i name="e_0_energy">   -631.02634951 </i>
   </energy>
  </scstep>
  <scstep>
   <time name="diag">    1.91    1.96</time>
   <time name="diis">   20.30   20.89</time>
   <time name="orth">    0.43    0.43</time>
   <time name="total">   22.93   23.58</time>
   <energy>
    <i name="e_fr_energy">   -630.48983438 </i>
    <i name="e_wo_entrp">   -630.33705289 </i>
    <i name="e_0_energy">   -630.41344364 </i>
   </energy>
  </scstep>
  <scstep>
   <time name="diag">    1.89    1.89</time>
   <time name="diis">   19.65   19.68</time>
   <time name="orth">    0.42    0.42</time>
   <time name="total">   22.24   22.30</time>
   <energy>
    <i name="e_fr_energy">   -630.56078672 </i>
    <i name="e_wo_entrp">   -630.40720831 </i>
    <i name="e_0_energy">   -630.48399752 </i>
   </energy>
  </scstep>
  <scstep>
   <time name="diag">    1.88    1.88</time>
   <time name="diis">   19.24   19.25</time>
   <time name="orth">    0.42    0.42</time>
   <time name="total">   21.83   21.85</time>
   <energy>
    <i name="e_fr_energy">   -630.42351769 </i>
    <i name="e_wo_entrp">   -630.26855318 </i>
    <i name="e_0_energy">   -630.34603543 </i>
   </energy>
  </scstep>
  <scstep>
   <time name="diag">    1.88    1.89</time>
   <time name="diis">   20.01   20.08</time>
   <time name="orth">    0.42    0.42</time>
   <time name="total">   22.60   22.67</time>
   <energy>
    <i name="e_fr_energy">   -630.34761733 </i>
    <i name="e_wo_entrp">   -630.19411705 </i>
    <i name="e_0_energy">   -630.27086719 </i>
   </energy>
  </scstep>
  <scstep>
   <time name="diag">    1.91    1.92</time>
   <time name="diis">   19.70   19.72</time>
   <time name="orth">    0.42    0.42</time>
   <time name="total">   22.31   22.35</time>
   <energy>
    <i name="e_fr_energy">   -630.16043385 </i>
    <i name="e_wo_entrp">   -630.00611218 </i>
    <i name="e_0_energy">   -630.08327302 </i>
   </energy>
  </scstep>
  <scstep>
   <time name="diag">    1.89    1.89</time>
   <time name="diis">   20.38   20.42</time>
   <time name="orth">    0.42    0.42</time>
   <time name="total">   22.97   23.02</time>
   <energy>
    <i name="e_fr_energy">   -630.15216925 </i>
    <i name="e_wo_entrp">   -629.99937798 </i>
    <i name="e_0_energy">   -630.07577362 </i>
   </energy>
  </scstep>
  <scstep>
   <time name="diag">    1.88    1.89</time>
   <time name="diis">   20.62   20.65</time>
   <time name="orth">    0.42    0.42</time>
   <time name="total">   23.20   23.25</time>
   <energy>
    <i name="e_fr_energy">   -630.13905990 </i>
    <i name="e_wo_entrp">   -629.98364443 </i>
    <i name="e_0_energy">   -630.06135216 </i>
   </energy>
  </scstep>
  <scstep>
   <time name="diag">    1.87    1.88</time>
   <time name="diis">   20.47   20.52</time>
   <time name="orth">    0.42    0.42</time>
   <time name="total">   23.04   23.10</time>
   <energy>
    <i name="e_fr_energy">   -630.13653431 </i>
    <i name="e_wo_entrp">   -629.98322961 </i>
    <i name="e_0_energy">   -630.05988196 </i>
   </energy>
  </scstep>
  <scstep>
   <time name="diag">    1.87    1.88</time>
   <time name="diis">   19.96   20.04</time>
   <time name="orth">    0.42    0.42</time>
   <time name="total">   22.54   22.61</time>
   <energy>
    <i name="e_fr_energy">   -630.14164012 </i>
    <i name="e_wo_entrp">   -629.98857290 </i>
    <i name="e_0_energy">   -630.06510651 </i>
   </energy>
  </scstep>
  <scstep>
   <time name="diag">    1.88    1.88</time>
   <time name="diis">   20.29   20.33</time>
   <time name="orth">    0.42    0.42</time>
   <time name="total">   22.86   22.91</time>
   <energy>
    <i name="e_fr_energy">   -630.13839565 </i>
    <i name="e_wo_entrp">   -629.98537999 </i>
    <i name="e_0_energy">   -630.06188782 </i>
   </energy>
  </scstep>
  <scstep>
   <time name="diag">    1.88    1.88</time>
   <time name="diis">   19.93   19.95</time>
   <time name="orth">    0.42    0.42</time>
   <time name="total">   22.52   22.54</time>
   <energy>
    <i name="e_fr_energy">   -630.13666608 </i>
    <i name="e_wo_entrp">   -629.98373913 </i>
    <i name="e_0_energy">   -630.06020261 </i>
   </energy>
  </scstep>
  <scstep>
   <time name="diag">    1.87    1.88</time>
   <time name="diis">   19.75   19.76</time>
   <time name="orth">    0.42    0.42</time>
   <time name="total">   22.32   22.34</time>
   <energy>
    <i name="e_fr_energy">   -630.13504934 </i>
    <i name="e_wo_entrp">   -629.98218593 </i>
    <i name="e_0_energy">   -630.05861763 </i>
   </energy>
  </scstep>
  <scstep>
   <time name="diag">    1.88    1.88</time>
   <time name="diis">   19.54   19.57</time>
   <time name="orth">    0.42    0.42</time>
   <time name="total">   22.11   22.14</time>
   <energy>
    <i name="e_fr_energy">   -630.13467074 </i>
    <i name="e_wo_entrp">   -629.98158778 </i>
    <i name="e_0_energy">   -630.05812926 </i>
   </energy>
  </scstep>
  <scstep>
   <time name="diag">    1.88    1.88</time>
   <time name="diis">   19.20   19.23</time>
   <time name="orth">    0.43    0.43</time>
   <time name="total">   21.79   21.82</time>
   <energy>
    <i name="e_fr_energy">   -630.13435066 </i>
    <i name="e_wo_entrp">   -629.98119216 </i>
    <i name="e_0_energy">   -630.05777141 </i>
   </energy>
  </scstep>
  <scstep>
   <time name="diag">    1.87    1.87</time>
   <time name="diis">   18.71   18.74</time>
   <time name="orth">    0.42    0.42</time>
   <time name="total">   21.28   21.31</time>
   <energy>
    <i name="e_fr_energy">   -630.13441729 </i>
    <i name="e_wo_entrp">   -629.98110509 </i>
    <i name="e_0_energy">   -630.05776119 </i>
   </energy>
  </scstep>
  <scstep>
   <time name="diag">    1.87    1.87</time>
   <time name="diis">   17.08   17.10</time>
   <time name="orth">    0.42    0.42</time>
   <time name="total">   19.65   19.67</time>
   <energy>
    <i name="e_fr_energy">   -630.13441132 </i>
    <i name="e_wo_entrp">   -629.98125052 </i>
    <i name="e_0_energy">   -630.05783092 </i>
   </energy>
  </scstep>
  <scstep>
   <time name="diag">    1.87    1.87</time>
   <time name="diis">   16.36   16.42</time>
   <time name="orth">    0.42    0.42</time>
   <time name="total">   18.93   19.00</time>
   <energy>
    <i name="e_fr_energy">   -630.13440606 </i>
    <i name="e_wo_entrp">   -629.98117467 </i>
    <i name="e_0_energy">   -630.05779037 </i>
   </energy>
  </scstep>
  <scstep>
   <time name="diag">    1.87    1.87</time>
   <time name="diis">   14.08   14.12</time>
   <time name="orth">    0.42    0.42</time>
   <time name="total">   16.64   16.70</time>
   <energy>
    <i name="e_fr_energy">   -630.13442004 </i>
    <i name="e_wo_entrp">   -629.98126627 </i>
    <i name="e_0_energy">   -630.05784316 </i>
   </energy>
  </scstep>
  <scstep>
   <time name="diag">    1.87    1.87</time>
   <time name="diis">   11.50   11.53</time>
   <time name="orth">    0.42    0.42</time>
   <time name="total">   14.06   14.10</time>
   <energy>
    <i name="e_fr_energy">   -630.13441662 </i>
    <i name="e_wo_entrp">   -629.98119918 </i>
    <i name="e_0_energy">   -630.05780790 </i>
   </energy>
  </scstep>
  <scstep>
   <time name="diag">    1.86    1.87</time>
   <time name="diis">   10.53   10.55</time>
   <time name="orth">    0.42    0.42</time>
   <time name="total">   12.84   12.87</time>
   <energy>
    <i name="alphaZ">   4424.33760714 </i>
    <i name="ewald"> -39803.98805003 </i>
    <i name="hartreedc">  -9222.71659782 </i>
    <i name="XCdc">   1554.73487967 </i>
    <i name="pawpsdc">  32977.59429852 </i>
    <i name="pawaedc"> -32845.09982376 </i>
    <i name="eentropy">     -0.15320903 </i>
    <i name="bandstr">  -5342.19951674 </i>
    <i name="atom">  47627.35599214 </i>
    <i name="e_fr_energy">   -630.13441990 </i>
    <i name="e_wo_entrp">   -629.98121087 </i>
    <i name="e_0_energy">   -630.05781539 </i>
   </energy>
  </scstep>
  <structure>
   <crystal>
    <varray name="basis" >
     <v>       8.72232827       0.00224558      -0.01809154 </v>
     <v>       0.00784502       8.83045129      -0.01980538 </v>
     <v>       0.01315489      -0.03533899       8.73262380 </v>
    </varray>
    <i name="volume">    672.60082734 </i>
    <varray name="rec_basis" >
     <v>       0.11464795      -0.00010224      -0.00017312 </v>
     <v>      -0.00002820       0.11324555       0.00045832 </v>
     <v>       0.00023745       0.00025663       0.11451380 </v>
    </varray>
   </crystal>
   <varray name="positions" >
    <v>       0.00205616       0.97410435       0.97632570 </v>
    <v>       0.25076188       0.98478085       0.27200471 </v>
    <v>       0.26591153       0.52394081       0.23965189 </v>
    <v>       0.49783424       0.46765772       0.99341132 </v>
    <v>       0.48345917       0.25939780       0.75278045 </v>
    <v>       0.01295866       0.50038640       0.46303922 </v>
    <v>       0.51501944       0.77251098       0.73786993 </v>
    <v>       0.99959058       0.22295845       0.26618917 </v>
    <v>       0.75885297       0.74767269       0.99873493 </v>
    <v>       0.01239932       0.27811923       0.73683846 </v>
    <v>       0.75292503       0.27302213       0.50918097 </v>
    <v>       0.99595900       0.73311773       0.75333631 </v>
    <v>       0.26211480       0.50792789       0.76513625 </v>
    <v>       0.24045480       0.23946415       0.00224310 </v>
    <v>       0.49674987       0.24499387       0.24972910 </v>
    <v>       0.73704715       0.99050114       0.26610331 </v>
    <v>       0.75572418       0.24338801       0.98685805 </v>
    <v>       0.27885250       0.76100889       0.00387036 </v>
    <v>       0.25425842       0.25258937       0.50124764 </v>
    <v>       0.24788111       0.74838740       0.50613659 </v>
    <v>       0.24304480       0.23955138       0.25184521 </v>
    <v>       0.24346335       0.99785612       0.99410418 </v>
    <v>       0.99752265       0.22312913       0.99966335 </v>
    <v>       0.75633754       0.24838504       0.25319789 </v>
    <v>       0.74760532       0.99064865       0.99123306 </v>
    <v>       0.48647869       0.98903675       0.27357523 </v>
    <v>       0.00627550       0.48618027       0.24515217 </v>
    <v>       0.52041659       0.78017253       0.97894783 </v>
    <v>       0.98464636       0.01610989       0.75272365 </v>
    <v>       0.75141103       0.25154718       0.74018939 </v>
    <v>       0.75671847       0.01291256       0.51333893 </v>
    <v>       0.51196629       0.24943466       0.51066565 </v>
    <v>       0.51823481       0.01146462       0.73205654 </v>
    <v>       0.00381300       0.99522257       0.24515370 </v>
    <v>       0.49922386       0.24033991       0.98875975 </v>
    <v>       0.26027541       0.75011998       0.25478259 </v>
    <v>       0.25014075       0.50264297       0.00503705 </v>
    <v>       0.00721613       0.74938775       0.00369229 </v>
    <v>       0.73835183       0.74192996       0.24505691 </v>
    <v>       0.75239734       0.50496200       0.99187863 </v>
    <v>       0.49334468       0.51060130       0.23760636 </v>
    <v>       0.25248893       0.24944028       0.75141675 </v>
    <v>       0.25371545       0.99809783       0.52063583 </v>
    <v>       0.99821649       0.25821215       0.50182800 </v>
    <v>       0.25660410       0.75575758       0.75547358 </v>
    <v>       0.24728052       0.50142198       0.49472683 </v>
    <v>       0.99264208       0.74703221       0.50393466 </v>
    <v>       0.99936863       0.50326323       0.76245741 </v>
    <v>       0.75134621       0.75680777       0.74478042 </v>
    <v>       0.76014017       0.49811043       0.49378532 </v>
    <v>       0.50796971       0.76189224       0.50266835 </v>
    <v>       0.49493235       0.50984836       0.75515116 </v>
    <v>       0.51592723       0.01652430       0.94609511 </v>
    <v>       0.99618728       0.53610525       0.03124744 </v>
    <v>       0.50465711       0.73656815       0.28639911 </v>
    <v>       0.20550100       0.97662933       0.75366311 </v>
    <v>       0.46943191       0.99001408       0.51263106 </v>
    <v>       0.73235920       0.97454428       0.75956205 </v>
    <v>       0.99775276       0.76854752       0.25451231 </v>
    <v>       0.72771813       0.51285718       0.22951169 </v>
    <v>       0.01195296       0.00070536       0.50506502 </v>
    <v>       0.49701154       0.50600021       0.49237867 </v>
    <v>       0.72442490       0.50207201       0.75170005 </v>
    <v>       0.75267654       0.72198294       0.50102840 </v>
   </varray>
  </structure>
  <varray name="forces" >
   <v>       0.00191511       0.00114305      -0.00765385 </v>
   <v>       0.00754550      -0.00705650       0.00054705 </v>
   <v>       0.00462396      -0.00015076      -0.00498695 </v>
   <v>      -0.00305197      -0.00125279       0.00015745 </v>
   <v>      -0.00225328       0.00111128       0.00575958 </v>
   <v>      -0.00416671      -0.00083993       0.00032192 </v>
   <v>      -0.00019883      -0.00427234      -0.00410251 </v>
   <v>       0.00112021       0.00046652      -0.00091098 </v>
   <v>       0.00403751      -0.00140758      -0.00349241 </v>
   <v>      -0.00448860       0.00800288       0.00330884 </v>
   <v>       0.00061404       0.00217616       0.00455770 </v>
   <v>      -0.00267685      -0.00189770      -0.00345234 </v>
   <v>       0.00260418       0.00226960       0.00284816 </v>
   <v>      -0.00227617       0.00438330      -0.00288778 </v>
   <v>       0.00080773      -0.00204493      -0.00074694 </v>
   <v>      -0.00607262      -0.00016537       0.00756489 </v>
   <v>       0.00095727       0.00767640      -0.00683401 </v>
   <v>       0.00023830      -0.00174238      -0.00114159 </v>
   <v>      -0.00153901      -0.00433655       0.00457047 </v>
   <v>       0.00005604       0.00269168      -0.00416034 </v>
   <v>      -0.00865576      -0.00178643      -0.00376414 </v>
   <v>       0.00337015       0.00067245      -0.00785152 </v>
   <v>      -0.00230577      -0.00724582      -0.00195110 </v>
   <v>       0.01014873       0.00351219       0.00843328 </v>
   <v>      -0.00110598       0.00128548      -0.00714252 </v>
   <v>       0.00214493       0.00396734       0.00299001 </v>
   <v>       0.00270169      -0.00832938      -0.00865711 </v>
   <v>      -0.00156470      -0.00328836      -0.00090398 </v>
   <v>       0.00069501      -0.00089321       0.00631590 </v>
   <v>      -0.00071230      -0.00710823      -0.00113307 </v>
   <v>      -0.00491774       0.00238050       0.00544659 </v>
   <v>       0.00846934      -0.00712831       0.00950464 </v>
   <v>      -0.00291649      -0.00357581      -0.00206411 </v>
   <v>       0.00262551       0.00176686      -0.00722772 </v>
   <v>       0.00250003       0.00766384      -0.00265742 </v>
   <v>       0.00288910       0.00307076      -0.00350613 </v>
   <v>      -0.00065512      -0.00059719       0.00333110 </v>
   <v>       0.00162466       0.00107912       0.00406471 </v>
   <v>      -0.00005890       0.00185353      -0.00231020 </v>
   <v>       0.00311397       0.00162983       0.00084676 </v>
   <v>      -0.00516954       0.00215596      -0.00059529 </v>
   <v>       0.00263494      -0.00437411       0.00109800 </v>
   <v>       0.00410846      -0.00257132       0.00220628 </v>
   <v>      -0.00657940      -0.00027495       0.00147520 </v>
   <v>       0.00143042       0.00870357       0.00027302 </v>
   <v>      -0.00489320       0.00208765      -0.00203616 </v>
   <v>      -0.00556875      -0.00456254       0.00313097 </v>
   <v>      -0.00582490       0.00211364       0.00610919 </v>
   <v>      -0.00155530       0.00556271      -0.00326630 </v>
   <v>       0.00574224      -0.00469267      -0.00030226 </v>
   <v>       0.00391581       0.00861023       0.00193021 </v>
   <v>       0.00220058       0.00063521       0.00159420 </v>
   <v>      -0.00954808       0.00273433       0.00812569 </v>
   <v>       0.00377692       0.00356860      -0.00925741 </v>
   <v>       0.00592046      -0.00390499       0.00139785 </v>
   <v>       0.00656545      -0.00856578      -0.00648934 </v>
   <v>       0.00536431      -0.00359650       0.00968743 </v>
   <v>      -0.01996527       0.00287430       0.00541560 </v>
   <v>       0.00271981       0.00064110      -0.00077018 </v>
   <v>      -0.00073186       0.00086958      -0.00337397 </v>
   <v>       0.00103833       0.00012136      -0.00483865 </v>
   <v>       0.00110239       0.00058099       0.00415249 </v>
   <v>       0.00126497      -0.00159132      -0.00061910 </v>
   <v>      -0.00313496      -0.00080825       0.00392223 </v>
  </varray>
  <varray name="stress" >
   <v>      -8.97983811       0.03907993      -0.23368246 </v>
   <v>       0.03907676      -8.97496055      -0.22301942 </v>
   <v>      -0.23368447      -0.22302069      -8.95505744 </v>
  </varray>
  <energy>
   <i name="e_fr_energy">   -630.13441990 </i>
   <i name="e_wo_entrp">   -630.05781539 </i>
   <i name="e_0_energy">     -0.15320903 </i>
  </energy>
  <time name="totalsc">  724.85  731.84</time>
 </calculation>
 <calculation>
  <scstep>
   <time name="dav">   27.16   27.23</time>
   <time name="total">   27.45   27.53</time>
   <energy>
    <i name="alphaZ">   4462.22793607 </i>
    <i name="ewald"> -39916.63524573 </i>
    <i name="hartreedc">  -9249.61021404 </i>
    <i name="XCdc">   1560.27902850 </i>
    <i name="pawpsdc">  32977.47337302 </i>
    <i name="pawaedc"> -32844.97382110 </i>
    <i name="eentropy">     -0.14655178 </i>
    <i name="bandstr">  -5246.46494736 </i>
    <i name="atom">  47627.35599214 </i>
    <i name="e_fr_energy">   -630.49445029 </i>
    <i name="e_wo_entrp">   -630.34789850 </i>
    <i name="e_0_energy">   -630.42117439 </i>
   </energy>
  </scstep>
  <scstep>
   <time name="diag">    1.88    1.88</time>
   <time name="diis">   15.55   15.57</time>
   <time name="orth">    0.42    0.42</time>
   <time name="total">   18.12   18.14</time>
   <energy>
    <i name="e_fr_energy">   -632.58730907 </i>
    <i name="e_wo_entrp">   -632.43433999 </i>
    <i name="e_0_energy">   -632.51082453 </i>
   </energy>
  </scstep>
  <scstep>
   <time name="diag">    1.89    1.89</time>
   <time name="diis">   15.48   15.49</time>
   <time name="orth">    0.41    0.41</time>
   <time name="total">   18.07   18.08</time>
   <energy>
    <i name="e_fr_energy">   -630.65640635 </i>
    <i name="e_wo_entrp">   -630.50242933 </i>
    <i name="e_0_energy">   -630.57941784 </i>
   </energy>
  </scstep>
  <scstep>
   <time name="diag">    1.87    1.87</time>
   <time name="diis">   17.34   17.36</time>
   <time name="orth">    0.42    0.42</time>
   <time name="total">   19.90   19.93</time>
   <energy>
    <i name="e_fr_energy">   -630.17119305 </i>
    <i name="e_wo_entrp">   -630.02120264 </i>
    <i name="e_0_energy">   -630.09619785 </i>
   </energy>
  </scstep>
  <scstep>
   <time name="diag">    1.88    1.88</time>
   <time name="diis">   17.59   17.62</time>
   <time name="orth">    0.42    0.42</time>
   <time name="total">   20.16   20.20</time>
   <energy>
    <i name="e_fr_energy">   -630.20677897 </i>
    <i name="e_wo_entrp">   -630.05706503 </i>
    <i name="e_0_energy">   -630.13192200 </i>
   </energy>
  </scstep>
  <scstep>
   <time name="diag">    1.88    1.88</time>
   <time name="diis">   16.64   16.65</time>
   <time name="orth">    0.42    0.42</time>
   <time name="total">   19.22   19.23</time>
   <energy>
    <i name="e_fr_energy">   -630.13295885 </i>
    <i name="e_wo_entrp">   -629.98152272 </i>
    <i name="e_0_energy">   -630.05724078 </i>
   </energy>
  </scstep>
  <scstep>
   <time name="diag">    1.90    1.90</time>
   <time name="diis">   18.10   18.11</time>
   <time name="orth">    0.44    0.44</time>
   <time name="total">   20.73   20.75</time>
   <energy>
    <i name="e_fr_energy">   -630.12877576 </i>
    <i name="e_wo_entrp">   -629.97867050 </i>
    <i name="e_0_energy">   -630.05372313 </i>
   </energy>
  </scstep>
  <scstep>
   <time name="diag">    1.92    1.92</time>
   <time name="diis">   17.39   17.40</time>
   <time name="orth">    0.42    0.42</time>
   <time name="total">   20.01   20.03</time>
   <energy>
    <i name="e_fr_energy">   -630.12768409 </i>
    <i name="e_wo_entrp">   -629.97684024 </i>
    <i name="e_0_energy">   -630.05226216 </i>
   </energy>
  </scstep>
  <scstep>
   <time name="diag">    1.88    1.88</time>
   <time name="diis">   17.75   17.77</time>
   <time name="orth">    0.45    0.45</time>
   <time name="total">   20.36   20.39</time>
   <energy>
    <i name="e_fr_energy">   -630.11833423 </i>
    <i name="e_wo_entrp">   -629.96689227 </i>
    <i name="e_0_energy">   -630.04261325 </i>
   </energy>
  </scstep>
  <scstep>
   <time name="diag">    1.87    1.87</time>
   <time name="diis">   19.55   19.59</time>
   <time name="orth">    0.42    0.42</time>
   <time name="total">   22.12   22.16</time>
   <energy>
    <i name="e_fr_energy">   -630.11893173 </i>
    <i name="e_wo_entrp">   -629.96830373 </i>
    <i name="e_0_energy">   -630.04361773 </i>
   </energy>
  </scstep>
  <scstep>
   <time name="diag">    1.88    1.88</time>
   <time name="diis">   18.17   18.18</time>
   <time name="orth">    0.42    0.42</time>
   <time name="total">   20.75   20.77</time>
   <energy>
    <i name="e_fr_energy">   -630.11829950 </i>
    <i name="e_wo_entrp">   -629.96736440 </i>
    <i name="e_0_energy">   -630.04283195 </i>
   </energy>
  </scstep>
  <scstep>
   <time name="diag">    1.98    2.01</time>
   <time name="diis">   18.50   19.19</time>
   <time name="orth">    0.42    0.42</time>
   <time name="total">   21.17   21.89</time>
   <energy>
    <i name="e_fr_energy">   -630.11813235 </i>
    <i name="e_wo_entrp">   -629.96705207 </i>
    <i name="e_0_energy">   -630.04259221 </i>
   </energy>
  </scstep>
  <scstep>
   <time name="diag">    1.89    1.89</time>
   <time name="diis">   18.81   18.83</time>
   <time name="orth">    0.42    0.42</time>
   <time name="total">   21.40   21.42</time>
   <energy>
    <i name="e_fr_energy">   -630.11817888 </i>
    <i name="e_wo_entrp">   -629.96717312 </i>
    <i name="e_0_energy">   -630.04267600 </i>
   </energy>
  </scstep>
  <scstep>
   <time name="diag">    1.87    1.87</time>
   <time name="diis">   17.72   17.79</time>
   <time name="orth">    0.42    0.42</time>
   <time name="total">   20.29   20.36</time>
   <energy>
    <i name="e_fr_energy">   -630.11824537 </i>
    <i name="e_wo_entrp">   -629.96719884 </i>
    <i name="e_0_energy">   -630.04272211 </i>
   </energy>
  </scstep>
  <scstep>
   <time name="diag">    1.88    1.88</time>
   <time name="diis">   18.41   18.45</time>
   <time name="orth">    0.42    0.42</time>
   <time name="total">   20.99   21.03</time>
   <energy>
    <i name="e_fr_energy">   -630.11830918 </i>
    <i name="e_wo_entrp">   -629.96723779 </i>
    <i name="e_0_energy">   -630.04277349 </i>
   </energy>
  </scstep>
  <scstep>
   <time name="diag">    1.87    1.87</time>
   <time name="diis">   17.54   17.59</time>
   <time name="orth">    0.44    0.44</time>
   <time name="total">   20.14   20.19</time>
   <energy>
    <i name="e_fr_energy">   -630.11834910 </i>
    <i name="e_wo_entrp">   -629.96733163 </i>
    <i name="e_0_energy">   -630.04284037 </i>
   </energy>
  </scstep>
  <scstep>
   <time name="diag">    1.86    1.89</time>
   <time name="diis">   17.31   17.34</time>
   <time name="orth">    0.42    0.42</time>
   <time name="total">   19.87   19.93</time>
   <energy>
    <i name="e_fr_energy">   -630.11837608 </i>
    <i name="e_wo_entrp">   -629.96742620 </i>
    <i name="e_0_energy">   -630.04290114 </i>
   </energy>
  </scstep>
  <scstep>
   <time name="diag">    1.87    1.87</time>
   <time name="diis">   17.12   17.15</time>
   <time name="orth">    0.42    0.42</time>
   <time name="total">   19.68   19.72</time>
   <energy>
    <i name="e_fr_energy">   -630.11835653 </i>
    <i name="e_wo_entrp">   -629.96729986 </i>
    <i name="e_0_energy">   -630.04282819 </i>
   </energy>
  </scstep>
  <scstep>
   <time name="diag">    1.86    1.87</time>
   <time name="diis">   15.30   15.37</time>
   <time name="orth">    0.42    0.42</time>
   <time name="total">   17.61   17.68</time>
   <energy>
    <i name="alphaZ">   4462.22793607 </i>
    <i name="ewald"> -39916.63524573 </i>
    <i name="hartreedc">  -9186.63196979 </i>
    <i name="XCdc">   1556.93887445 </i>
    <i name="pawpsdc">  33081.19703126 </i>
    <i name="pawaedc"> -32948.91908170 </i>
    <i name="eentropy">     -0.15104748 </i>
    <i name="bandstr">  -5305.50085146 </i>
    <i name="atom">  47627.35599214 </i>
    <i name="e_fr_energy">   -630.11836224 </i>
    <i name="e_wo_entrp">   -629.96731476 </i>
    <i name="e_0_energy">   -630.04283850 </i>
   </energy>
  </scstep>
  <structure>
   <crystal>
    <varray name="basis" >
     <v>       8.69754407       0.00234835      -0.01868542 </v>
     <v>       0.00793338       8.80537360      -0.02037303 </v>
     <v>       0.01247131      -0.03585475       8.70787897 </v>
    </varray>
    <i name="volume">    666.88953985 </i>
    <varray name="rec_basis" >
     <v>       0.11497466      -0.00010397      -0.00016509 </v>
     <v>      -0.00002966       0.11356812       0.00046766 </v>
     <v>       0.00024664       0.00026548       0.11483927 </v>
    </varray>
   </crystal>
   <varray name="positions" >
    <v>       0.00206681       0.97411042       0.97628345 </v>
    <v>       0.25080364       0.98474230       0.27200773 </v>
    <v>       0.26593714       0.52393987       0.23962439 </v>
    <v>       0.49781736       0.46765088       0.99341214 </v>
    <v>       0.48344666       0.25940401       0.75281226 </v>
    <v>       0.01293561       0.50038182       0.46304094 </v>
    <v>       0.51501839       0.77248754       0.73784721 </v>
    <v>       0.99959678       0.22296098       0.26618416 </v>
    <v>       0.75887534       0.74766492       0.99871567 </v>
    <v>       0.01237443       0.27816303       0.73685679 </v>
    <v>       0.75292838       0.27303412       0.50920618 </v>
    <v>       0.99594423       0.73310729       0.75331719 </v>
    <v>       0.26212916       0.50794035       0.76515204 </v>
    <v>       0.24044222       0.23948804       0.00222717 </v>
    <v>       0.49675436       0.24498268       0.24972496 </v>
    <v>       0.73701350       0.99050042       0.26614503 </v>
    <v>       0.75572950       0.24342980       0.98682040 </v>
    <v>       0.27885383       0.76099935       0.00386404 </v>
    <v>       0.25424989       0.25256578       0.50127282 </v>
    <v>       0.24788144       0.74840201       0.50611364 </v>
    <v>       0.24299696       0.23954155       0.25182429 </v>
    <v>       0.24348205       0.99785961       0.99406086 </v>
    <v>       0.99750995       0.22308950       0.99965246 </v>
    <v>       0.75639359       0.24840440       0.25324464 </v>
    <v>       0.74759926       0.99065551       0.99119360 </v>
    <v>       0.48649051       0.98905849       0.27359182 </v>
    <v>       0.00629055       0.48613457       0.24510427 </v>
    <v>       0.52040796       0.78015454       0.97894278 </v>
    <v>       0.98465015       0.01610515       0.75275853 </v>
    <v>       0.75140714       0.25150833       0.74018304 </v>
    <v>       0.75669122       0.01292570       0.51336900 </v>
    <v>       0.51201309       0.24939591       0.51071817 </v>
    <v>       0.51821871       0.01144504       0.73204506 </v>
    <v>       0.00382757       0.99523206       0.24511382 </v>
    <v>       0.49923767       0.24038172       0.98874519 </v>
    <v>       0.26029140       0.75013667       0.25476329 </v>
    <v>       0.25013710       0.50263978       0.00505544 </v>
    <v>       0.00722508       0.74939374       0.00371477 </v>
    <v>       0.73835151       0.74194003       0.24504417 </v>
    <v>       0.75241455       0.50497092       0.99188336 </v>
    <v>       0.49331609       0.51061307       0.23760304 </v>
    <v>       0.25250351       0.24941640       0.75142279 </v>
    <v>       0.25373817       0.99808382       0.52064803 </v>
    <v>       0.99818008       0.25821069       0.50183607 </v>
    <v>       0.25661197       0.75580513       0.75547522 </v>
    <v>       0.24725346       0.50143335       0.49471555 </v>
    <v>       0.99261127       0.74700736       0.50395184 </v>
    <v>       0.99933635       0.50327492       0.76249112 </v>
    <v>       0.75133761       0.75683809       0.74476242 </v>
    <v>       0.76017195       0.49808478       0.49378366 </v>
    <v>       0.50799131       0.76193932       0.50267916 </v>
    <v>       0.49494451       0.50985187       0.75516000 </v>
    <v>       0.51587434       0.01653943       0.94613993 </v>
    <v>       0.99620823       0.53612453       0.03119639 </v>
    <v>       0.50468986       0.73654684       0.28640685 </v>
    <v>       0.20553741       0.97658238       0.75362723 </v>
    <v>       0.46946152       0.98999464       0.51268460 </v>
    <v>       0.73224872       0.97456013       0.75959177 </v>
    <v>       0.99776781       0.76855100       0.25450809 </v>
    <v>       0.72771411       0.51286186       0.22949306 </v>
    <v>       0.01195874       0.00070592       0.50503830 </v>
    <v>       0.49701760       0.50600347       0.49240163 </v>
    <v>       0.72443190       0.50206330       0.75169663 </v>
    <v>       0.75265917       0.72197861       0.50105002 </v>
   </varray>
  </structure>
  <varray name="forces" >
   <v>      -0.01161279       0.03377685       0.04557936 </v>
   <v>      -0.00088478       0.03221379      -0.03229797 </v>
   <v>      -0.04770561      -0.06071628       0.01946693 </v>
   <v>       0.00287148       0.05884860       0.01225463 </v>
   <v>       0.04161175      -0.00835588      -0.01451199 </v>
   <v>      -0.02184741       0.00364647       0.06092803 </v>
   <v>      -0.04051674      -0.02932890       0.01207308 </v>
   <v>       0.00021315       0.07021810      -0.06753515 </v>
   <v>      -0.00724350       0.01271129      -0.00393441 </v>
   <v>      -0.04385290      -0.06399695       0.06166081 </v>
   <v>      -0.01086388      -0.07008802      -0.04970752 </v>
   <v>       0.02153140       0.06767094      -0.00689598 </v>
   <v>      -0.05564620      -0.01246574      -0.04935979 </v>
   <v>       0.02436579       0.03161244       0.00982257 </v>
   <v>       0.00322189      -0.00123002      -0.00496452 </v>
   <v>      -0.00010287       0.02021506      -0.03726251 </v>
   <v>      -0.01638101       0.00714349       0.03232171 </v>
   <v>      -0.00677687      -0.02934850       0.02271055 </v>
   <v>       0.01676568      -0.00941973      -0.00965847 </v>
   <v>       0.00393066      -0.00291682      -0.00290914 </v>
   <v>       0.00260159       0.01618176      -0.00471322 </v>
   <v>       0.02835623       0.00794863       0.01317009 </v>
   <v>       0.00025346       0.00439210      -0.00033653 </v>
   <v>      -0.00826213       0.02366892      -0.00677166 </v>
   <v>       0.01215404       0.01208780       0.02057845 </v>
   <v>      -0.01396291      -0.02678120      -0.03658519 </v>
   <v>       0.00417027      -0.01186058      -0.01915269 </v>
   <v>       0.00206828      -0.02206302       0.03319037 </v>
   <v>      -0.05054902       0.00632693      -0.01037845 </v>
   <v>      -0.01994720      -0.05278156       0.02833537 </v>
   <v>      -0.03534925      -0.01876903       0.04620701 </v>
   <v>      -0.01046690      -0.03392671       0.01827515 </v>
   <v>      -0.06591969       0.02985868      -0.02903994 </v>
   <v>       0.00737558      -0.00858591      -0.04529928 </v>
   <v>      -0.00642740      -0.00886136       0.00496991 </v>
   <v>       0.00787075       0.00695733      -0.00313166 </v>
   <v>      -0.01818353      -0.00570436       0.03035290 </v>
   <v>       0.04213649       0.01694510       0.00400878 </v>
   <v>      -0.00038599       0.03149401       0.01071296 </v>
   <v>       0.00756749      -0.02613389      -0.01121587 </v>
   <v>      -0.02553778      -0.00589584      -0.02222491 </v>
   <v>       0.02041612      -0.03944974       0.00421855 </v>
   <v>       0.00120397       0.00834745       0.01015327 </v>
   <v>       0.01402475       0.00459692      -0.00128996 </v>
   <v>       0.02654593       0.00755001      -0.00379306 </v>
   <v>      -0.01173336      -0.00517655      -0.00537382 </v>
   <v>       0.01386193      -0.00904026      -0.00197344 </v>
   <v>      -0.02064487       0.01136835       0.01301922 </v>
   <v>      -0.01254401      -0.01240064       0.00153255 </v>
   <v>       0.02678254       0.00788495      -0.01389820 </v>
   <v>      -0.00762845       0.01580729       0.02088354 </v>
   <v>      -0.00416497       0.02358195      -0.00118008 </v>
   <v>      -0.05730043      -0.00825146       0.08859409 </v>
   <v>       0.02046810      -0.07525803      -0.05782912 </v>
   <v>      -0.01801438       0.03729579      -0.07680842 </v>
   <v>       0.06841050       0.04851410       0.00679625 </v>
   <v>       0.06787604       0.03596653      -0.01106835 </v>
   <v>       0.05100791       0.05912810      -0.01828718 </v>
   <v>       0.00811655      -0.07769373      -0.00386263 </v>
   <v>       0.06874370      -0.08306831       0.04047579 </v>
   <v>      -0.03692398      -0.00004727       0.00171548 </v>
   <v>       0.00875288      -0.01895867       0.02325265 </v>
   <v>       0.06999781      -0.00483866      -0.02207844 </v>
   <v>      -0.00789389       0.08945389      -0.01193048 </v>
  </varray>
  <varray name="stress" >
   <v>      18.39404451      -0.22839144       0.17113207 </v>
   <v>      -0.22839244      17.70193562      -0.00608781 </v>
   <v>       0.17113135      -0.00608413      18.36465171 </v>
  </varray>
  <energy>
   <i name="e_fr_energy">   -630.11836224 </i>
   <i name="e_wo_entrp">   -630.04283850 </i>
   <i name="e_0_energy">     -0.15104748 </i>
  </energy>
  <time name="totalsc">  429.70  431.14</time>
 </calculation>
 <calculation>
  <scstep>
   <time name="dav">   26.46   26.49</time>
   <time name="total">   26.74   26.78</time>
   <energy>
    <i name="alphaZ">   4436.94707913 </i>
    <i name="ewald"> -39841.54851188 </i>
    <i name="hartreedc">  -9168.84897488 </i>
    <i name="XCdc">   1553.25159602 </i>
    <i name="pawpsdc">  33081.34285666 </i>
    <i name="pawaedc"> -32949.02330153 </i>
    <i name="eentropy">     -0.15672254 </i>
    <i name="bandstr">  -5369.63206706 </i>
    <i name="atom">  47627.35599214 </i>
    <i name="e_fr_energy">   -630.31205394 </i>
    <i name="e_wo_entrp">   -630.15533140 </i>
    <i name="e_0_energy">   -630.23369267 </i>
   </energy>
  </scstep>
  <scstep>
   <time name="diag">    1.88    1.88</time>
   <time name="diis">   16.45   16.46</time>
   <time name="orth">    0.42    0.42</time>
   <time name="total">   19.03   19.04</time>
   <energy>
    <i name="e_fr_energy">   -631.35529347 </i>
    <i name="e_wo_entrp">   -631.19943448 </i>
    <i name="e_0_energy">   -631.27736397 </i>
   </energy>
  </scstep>
  <scstep>
   <time name="diag">    1.87    1.87</time>
   <time name="diis">   15.53   15.54</time>
   <time name="orth">    0.42    0.42</time>
   <time name="total">   18.09   18.11</time>
   <energy>
    <i name="e_fr_energy">   -630.35676848 </i>
    <i name="e_wo_entrp">   -630.20450399 </i>
    <i name="e_0_energy">   -630.28063624 </i>
   </energy>
  </scstep>
  <scstep>
   <time name="diag">    1.88    1.88</time>
   <time name="diis">   17.46   17.50</time>
   <time name="orth">    0.42    0.42</time>
   <time name="total">   20.04   20.09</time>
   <energy>
    <i name="e_fr_energy">   -630.17370578 </i>
    <i name="e_wo_entrp">   -630.02125027 </i>
    <i name="e_0_energy">   -630.09747802 </i>
   </energy>
  </scstep>
  <scstep>
   <time name="diag">    1.87    1.88</time>
   <time name="diis">   17.35   17.38</time>
   <time name="orth">    0.42    0.42</time>
   <time name="total">   19.92   19.96</time>
   <energy>
    <i name="e_fr_energy">   -630.17998690 </i>
    <i name="e_wo_entrp">   -630.02623226 </i>
    <i name="e_0_energy">   -630.10310958 </i>
   </energy>
  </scstep>
  <scstep>
   <time name="diag">    1.86    1.87</time>
   <time name="diis">   17.11   17.13</time>
   <time name="orth">    0.42    0.42</time>
   <time name="total">   19.67   19.69</time>
   <energy>
    <i name="e_fr_energy">   -630.14693007 </i>
    <i name="e_wo_entrp">   -629.99469098 </i>
    <i name="e_0_energy">   -630.07081053 </i>
   </energy>
  </scstep>
  <scstep>
   <time name="diag">    1.87    1.88</time>
   <time name="diis">   17.30   17.37</time>
   <time name="orth">    0.41    0.41</time>
   <time name="total">   19.88   19.95</time>
   <energy>
    <i name="e_fr_energy">   -630.14762785 </i>
    <i name="e_wo_entrp">   -629.99432479 </i>
    <i name="e_0_energy">   -630.07097632 </i>
   </energy>
  </scstep>
  <scstep>
   <time name="diag">    1.87    1.87</time>
   <time name="diis">   17.55   17.56</time>
   <time name="orth">    0.42    0.42</time>
   <time name="total">   20.12   20.13</time>
   <energy>
    <i name="e_fr_energy">   -630.14422396 </i>
    <i name="e_wo_entrp">   -629.99171491 </i>
    <i name="e_0_energy">   -630.06796943 </i>
   </energy>
  </scstep>
  <scstep>
   <time name="diag">    1.88    1.89</time>
   <time name="diis">   18.49   18.53</time>
   <time name="orth">    0.42    0.42</time>
   <time name="total">   21.08   21.13</time>
   <energy>
    <i name="e_fr_energy">   -630.14031404 </i>
    <i name="e_wo_entrp">   -629.98793261 </i>
    <i name="e_0_energy">   -630.06412333 </i>
   </energy>
  </scstep>
  <scstep>
   <time name="diag">    1.88    1.88</time>
   <time name="diis">   18.07   18.13</time>
   <time name="orth">    0.41    0.42</time>
   <time name="total">   20.64   20.70</time>
   <energy>
    <i name="e_fr_energy">   -630.14052005 </i>
    <i name="e_wo_entrp">   -629.98803816 </i>
    <i name="e_0_energy">   -630.06427911 </i>
   </energy>
  </scstep>
  <scstep>
   <time name="diag">    1.88    1.88</time>
   <time name="diis">   17.36   17.38</time>
   <time name="orth">    0.42    0.42</time>
   <time name="total">   19.93   19.95</time>
   <energy>
    <i name="e_fr_energy">   -630.13980999 </i>
    <i name="e_wo_entrp">   -629.98717456 </i>
    <i name="e_0_energy">   -630.06349227 </i>
   </energy>
  </scstep>
  <scstep>
   <time name="diag">    1.86    1.86</time>
   <time name="diis">   18.49   18.53</time>
   <time name="orth">    0.48    0.49</time>
   <time name="total">   21.13   21.19</time>
   <energy>
    <i name="e_fr_energy">   -630.13978880 </i>
    <i name="e_wo_entrp">   -629.98738454 </i>
    <i name="e_0_energy">   -630.06358667 </i>
   </energy>
  </scstep>
  <scstep>
   <time name="diag">    1.91    1.92</time>
   <time name="diis">   17.82   17.85</time>
   <time name="orth">    0.42    0.42</time>
   <time name="total">   20.43   20.49</time>
   <energy>
    <i name="e_fr_energy">   -630.13976275 </i>
    <i name="e_wo_entrp">   -629.98727771 </i>
    <i name="e_0_energy">   -630.06352023 </i>
   </energy>
  </scstep>
  <scstep>
   <time name="diag">    1.87    1.87</time>
   <time name="diis">   16.87   16.93</time>
   <time name="orth">    0.41    0.41</time>
   <time name="total">   19.43   19.50</time>
   <energy>
    <i name="e_fr_energy">   -630.13974591 </i>
    <i name="e_wo_entrp">   -629.98724455 </i>
    <i name="e_0_energy">   -630.06349523 </i>
   </energy>
  </scstep>
  <scstep>
   <time name="diag">    1.87    1.87</time>
   <time name="diis">   17.39   17.42</time>
   <time name="orth">    0.42    0.42</time>
   <time name="total">   19.95   19.99</time>
   <energy>
    <i name="e_fr_energy">   -630.13976960 </i>
    <i name="e_wo_entrp">   -629.98733848 </i>
    <i name="e_0_energy">   -630.06355404 </i>
   </energy>
  </scstep>
  <scstep>
   <time name="diag">    1.88    1.90</time>
   <time name="diis">   16.35   16.46</time>
   <time name="orth">    0.41    0.41</time>
   <time name="total">   18.93   19.05</time>
   <energy>
    <i name="e_fr_energy">   -630.13978731 </i>
    <i name="e_wo_entrp">   -629.98724174 </i>
    <i name="e_0_energy">   -630.06351453 </i>
   </energy>
  </scstep>
  <scstep>
   <time name="diag">    1.87    1.87</time>
   <time name="diis">   15.17   15.22</time>
   <time name="orth">    0.42    0.42</time>
   <time name="total">   17.74   17.80</time>
   <energy>
    <i name="e_fr_energy">   -630.13979844 </i>
    <i name="e_wo_entrp">   -629.98729286 </i>
    <i name="e_0_energy">   -630.06354565 </i>
   </energy>
  </scstep>
  <scstep>
   <time name="diag">    1.86    1.86</time>
   <time name="diis">   15.01   15.06</time>
   <time name="orth">    0.41    0.42</time>
   <time name="total">   17.56   17.63</time>
   <energy>
    <i name="e_fr_energy">   -630.13978419 </i>
    <i name="e_wo_entrp">   -629.98730262 </i>
    <i name="e_0_energy">   -630.06354340 </i>
   </energy>
  </scstep>
  <scstep>
   <time name="diag">    1.86    1.87</time>
   <time name="diis">   12.55   12.59</time>
   <time name="orth">    0.42    0.42</time>
   <time name="total">   14.87   14.91</time>
   <energy>
    <i name="alphaZ">   4436.94707913 </i>
    <i name="ewald"> -39841.54851188 </i>
    <i name="hartreedc">  -9210.86605265 </i>
    <i name="XCdc">   1555.47995810 </i>
    <i name="pawpsdc">  33012.25651552 </i>
    <i name="pawaedc"> -32879.63687063 </i>
    <i name="eentropy">     -0.15247964 </i>
    <i name="bandstr">  -5329.97541575 </i>
    <i name="atom">  47627.35599214 </i>
    <i name="e_fr_energy">   -630.13978565 </i>
    <i name="e_wo_entrp">   -629.98730602 </i>
    <i name="e_0_energy">   -630.06354584 </i>
   </energy>
  </scstep>
  <structure>
   <crystal>
    <varray name="basis" >
     <v>       8.71404904       0.00227991      -0.01828993 </v>
     <v>       0.00787453       8.82207402      -0.01999501 </v>
     <v>       0.01292654      -0.03551128       8.72435773 </v>
    </varray>
    <i name="volume">    670.68934605 </i>
    <varray name="rec_basis" >
     <v>       0.11475688      -0.00010282      -0.00017045 </v>
     <v>      -0.00002869       0.11335310       0.00046143 </v>
     <v>       0.00024051       0.00025957       0.11462232 </v>
    </varray>
   </crystal>
   <varray name="positions" >
    <v>       0.00205970       0.97410637       0.97631167 </v>
    <v>       0.25077575       0.98476805       0.27200571 </v>
    <v>       0.26592004       0.52394050       0.23964275 </v>
    <v>       0.49782863       0.46765545       0.99341159 </v>
    <v>       0.48345501       0.25939986       0.75279101 </v>
    <v>       0.01295100       0.50038488       0.46303979 </v>
    <v>       0.51501909       0.77250319       0.73786238 </v>
    <v>       0.99959264       0.22295929       0.26618751 </v>
    <v>       0.75886041       0.74767011       0.99872853 </v>
    <v>       0.01239106       0.27813378       0.73684455 </v>
    <v>       0.75292614       0.27302611       0.50918934 </v>
    <v>       0.99595409       0.73311426       0.75332996 </v>
    <v>       0.26211957       0.50793202       0.76514150 </v>
    <v>       0.24045062       0.23947209       0.00223781 </v>
    <v>       0.49675136       0.24499015       0.24972773 </v>
    <v>       0.73703597       0.99050090       0.26611717 </v>
    <v>       0.75572595       0.24340190       0.98684554 </v>
    <v>       0.27885294       0.76100572       0.00386826 </v>
    <v>       0.25425558       0.25258153       0.50125601 </v>
    <v>       0.24788122       0.74839225       0.50612896 </v>
    <v>       0.24302891       0.23954812       0.25183827 </v>
    <v>       0.24346956       0.99785728       0.99408979 </v>
[...]
      </set>
     </set>
    </set>
   </array>
  </eigenvalues>
  <separator name="orbital magnetization" >
   <v name="MAGDIPOLOUT">      0.00000000      0.00000000      0.00000000</v>
  </separator>
  <dos>
   <i name="efermi">      7.79244846 </i>
   <total>
    <array>
     <dimension dim="1">gridpoints</dimension>
     <dimension dim="2">spin</dimension>
     <field>energy</field>
     <field>total</field>
     <field>integrated</field>
     <set>
      <set comment="spin 1">
       <r>   -60.6239     0.0000     0.0000 </r>
       <r>   -60.3753     0.0000     0.0000 </r>
       <r>   -60.1267     0.0000     0.0000 </r>
       <r>   -59.8781     0.0000     0.0000 </r>
       <r>   -59.6296     0.0000     0.0000 </r>
       <r>   -59.3810     0.0000     0.0000 </r>
       <r>   -59.1324     0.0000     0.0000 </r>
       <r>   -58.8838     0.0000     0.0000 </r>
       <r>   -58.6353     0.0000     0.0000 </r>
       <r>   -58.3867     0.0000     0.0000 </r>
       <r>   -58.1381     0.0000     0.0000 </r>
       <r>   -57.8895     0.0000     0.0000 </r>
       <r>   -57.6409     0.0000     0.0000 </r>
       <r>   -57.3924     0.1050     0.0261 </r>
       <r>   -57.1438    16.6404     4.1625 </r>
       <r>   -56.8952    32.0433    12.1278 </r>
       <r>   -56.6466     7.4781    13.9867 </r>
       <r>   -56.3981     0.0536    14.0000 </r>
       <r>   -56.1495     0.0000    14.0000 </r>
       <r>   -55.9009     0.0000    14.0000 </r>
       <r>   -55.6523     0.0000    14.0000 </r>
       <r>   -55.4037     0.0000    14.0000 </r>
       <r>   -55.1552     0.0000    14.0000 </r>
       <r>   -54.9066     0.0000    14.0000 </r>
       <r>   -54.6580     0.0000    14.0000 </r>
       <r>   -54.4094     0.0000    14.0000 </r>
       <r>   -54.1609     0.0000    14.0000 </r>
       <r>   -53.9123     0.0000    14.0000 </r>
       <r>   -53.6637     0.0000    14.0000 </r>
       <r>   -53.4151     0.0000    14.0000 </r>
       <r>   -53.1665     0.0000    14.0000 </r>
       <r>   -52.9180     0.0000    14.0000 </r>
       <r>   -52.6694     0.0000    14.0000 </r>
       <r>   -52.4208     0.0000    14.0000 </r>
       <r>   -52.1722     0.0000    14.0000 </r>
       <r>   -51.9237     0.0000    14.0000 </r>
       <r>   -51.6751     0.0000    14.0000 </r>
       <r>   -51.4265     0.0000    14.0000 </r>
       <r>   -51.1779     0.0000    14.0000 </r>
       <r>   -50.9294     0.0000    14.0000 </r>
       <r>   -50.6808     0.0000    14.0000 </r>
       <r>   -50.4322     0.0000    14.0000 </r>
       <r>   -50.1836     0.0000    14.0000 </r>
       <r>   -49.9350     0.0000    14.0000 </r>
       <r>   -49.6865     0.0000    14.0000 </r>
       <r>   -49.4379     0.0000    14.0000 </r>
       <r>   -49.1893     0.0000    14.0000 </r>
       <r>   -48.9407     0.0000    14.0000 </r>
       <r>   -48.6922     0.0000    14.0000 </r>
       <r>   -48.4436     0.0000    14.0000 </r>
       <r>   -48.1950     0.0000    14.0000 </r>
       <r>   -47.9464     0.0000    14.0000 </r>
       <r>   -47.6978     0.0000    14.0000 </r>
       <r>   -47.4493     0.0000    14.0000 </r>
       <r>   -47.2007     0.0000    14.0000 </r>
       <r>   -46.9521     0.0000    14.0000 </r>
       <r>   -46.7035     0.0000    14.0000 </r>
       <r>   -46.4550     0.0000    14.0000 </r>
       <r>   -46.2064     0.0000    14.0000 </r>
       <r>   -45.9578     0.0000    14.0000 </r>
       <r>   -45.7092     0.0000    14.0000 </r>
       <r>   -45.4606     0.0000    14.0000 </r>
       <r>   -45.2121     0.0000    14.0000 </r>
       <r>   -44.9635     0.0000    14.0000 </r>
       <r>   -44.7149     0.0000    14.0000 </r>
       <r>   -44.4663     0.0000    14.0000 </r>
       <r>   -44.2178     0.0000    14.0000 </r>
       <r>   -43.9692     0.0000    14.0000 </r>
       <r>   -43.7206     0.0000    14.0000 </r>
       <r>   -43.4720     0.0000    14.0000 </r>
       <r>   -43.2234     0.0000    14.0000 </r>
       <r>   -42.9749     0.0000    14.0000 </r>
       <r>   -42.7263     0.0000    14.0000 </r>
       <r>   -42.4777     0.0000    14.0000 </r>
       <r>   -42.2291     0.0000    14.0000 </r>
       <r>   -41.9806     0.0000    14.0000 </r>
       <r>   -41.7320     0.0003    14.0001 </r>
       <r>   -41.4834     3.2732    14.8137 </r>
       <r>   -41.2348    19.6998    19.7106 </r>
       <r>   -40.9863     1.6347    20.1170 </r>
       <r>   -40.7377    20.3928    25.1862 </r>
       <r>   -40.4891     3.3512    26.0192 </r>
       <r>   -40.2405     7.0041    27.7603 </r>
       <r>   -39.9919     0.9643    28.0000 </r>
       <r>   -39.7434     0.0000    28.0000 </r>
       <r>   -39.4948     0.0000    28.0000 </r>
       <r>   -39.2462     0.0000    28.0000 </r>
       <r>   -38.9976     0.0000    28.0000 </r>
       <r>   -38.7491     0.0000    28.0000 </r>
       <r>   -38.5005     0.0000    28.0000 </r>
       <r>   -38.2519     0.0000    28.0000 </r>
       <r>   -38.0033     0.0000    28.0000 </r>
       <r>   -37.7547     0.0000    28.0000 </r>
       <r>   -37.5062     0.0000    28.0000 </r>
       <r>   -37.2576     0.0000    28.0000 </r>
       <r>   -37.0090     0.0000    28.0000 </r>
       <r>   -36.7604     0.0000    28.0000 </r>
       <r>   -36.5119     0.0000    28.0000 </r>
       <r>   -36.2633     0.0012    28.0003 </r>
       <r>   -36.0147     5.6566    29.4064 </r>
       <r>   -35.7661    61.6301    44.7262 </r>
       <r>   -35.5175    75.8501    63.5809 </r>
       <r>   -35.2690     1.6860    64.0000 </r>
       <r>   -35.0204     0.0000    64.0000 </r>
       <r>   -34.7718     0.0000    64.0000 </r>
       <r>   -34.5232     0.0000    64.0000 </r>
       <r>   -34.2747     0.0000    64.0000 </r>
       <r>   -34.0261     0.0000    64.0000 </r>
       <r>   -33.7775     0.0000    64.0000 </r>
       <r>   -33.5289     0.0000    64.0000 </r>
       <r>   -33.2803     0.0000    64.0000 </r>
       <r>   -33.0318     0.0000    64.0000 </r>
       <r>   -32.7832     0.0000    64.0000 </r>
       <r>   -32.5346     0.0000    64.0000 </r>
       <r>   -32.2860     0.0000    64.0000 </r>
       <r>   -32.0375     0.7050    64.1753 </r>
       <r>   -31.7889    19.4558    69.0115 </r>
       <r>   -31.5403    48.4248    81.0488 </r>
       <r>   -31.2917    59.2187    95.7693 </r>
       <r>   -31.0432    95.8985   119.6075 </r>
       <r>   -30.7946    74.5396   138.1363 </r>
       <r>   -30.5460    15.5064   141.9909 </r>
       <r>   -30.2974     0.0367   142.0000 </r>
       <r>   -30.0488     0.0000   142.0000 </r>
       <r>   -29.8003     0.0000   142.0000 </r>
       <r>   -29.5517     0.0000   142.0000 </r>
       <r>   -29.3031     0.0000   142.0000 </r>
       <r>   -29.0545     0.0000   142.0000 </r>
       <r>   -28.8060     0.0000   142.0000 </r>
       <r>   -28.5574     0.0000   142.0000 </r>
       <r>   -28.3088     0.0000   142.0000 </r>
       <r>   -28.0602     0.0000   142.0000 </r>
       <r>   -27.8116     0.0000   142.0000 </r>
       <r>   -27.5631     0.0000   142.0000 </r>
       <r>   -27.3145     0.0000   142.0000 </r>
       <r>   -27.0659     0.0000   142.0000 </r>
       <r>   -26.8173     0.0000   142.0000 </r>
       <r>   -26.5688     0.0000   142.0000 </r>
       <r>   -26.3202     0.0000   142.0000 </r>
       <r>   -26.0716     0.0000   142.0000 </r>
       <r>   -25.8230     0.0000   142.0000 </r>
       <r>   -25.5744     0.0000   142.0000 </r>
       <r>   -25.3259     0.0000   142.0000 </r>
       <r>   -25.0773     0.0000   142.0000 </r>
       <r>   -24.8287     0.0000   142.0000 </r>
       <r>   -24.5801     0.0000   142.0000 </r>
       <r>   -24.3316     0.0000   142.0000 </r>
       <r>   -24.0830     0.0000   142.0000 </r>
       <r>   -23.8344     0.0000   142.0000 </r>
       <r>   -23.5858     0.0000   142.0000 </r>
       <r>   -23.3372     0.0000   142.0000 </r>
       <r>   -23.0887     0.0000   142.0000 </r>
       <r>   -22.8401     0.0000   142.0000 </r>
       <r>   -22.5915     0.0000   142.0000 </r>
       <r>   -22.3429     0.0000   142.0000 </r>
       <r>   -22.0944     0.0000   142.0000 </r>
       <r>   -21.8458     0.0000   142.0000 </r>
       <r>   -21.5972     0.0000   142.0000 </r>
       <r>   -21.3486     0.0000   142.0000 </r>
       <r>   -21.1000     0.0000   142.0000 </r>
       <r>   -20.8515     0.0000   142.0000 </r>
       <r>   -20.6029     0.0000   142.0000 </r>
       <r>   -20.3543     0.0003   142.0001 </r>
       <r>   -20.1057     2.5684   142.6385 </r>
       <r>   -19.8572    14.6240   146.2737 </r>
       <r>   -19.6086    35.8699   155.1902 </r>
       <r>   -19.3600    22.5144   160.7867 </r>
       <r>   -19.1114    60.5499   175.8381 </r>
       <r>   -18.8629    12.7500   179.0075 </r>
       <r>   -18.6143    19.8999   183.9541 </r>
       <r>   -18.3657     0.1845   184.0000 </r>
       <r>   -18.1171     0.0000   184.0000 </r>
       <r>   -17.8685     0.0000   184.0000 </r>
       <r>   -17.6200     0.0000   184.0000 </r>
       <r>   -17.3714     0.0000   184.0000 </r>
       <r>   -17.1228     0.0000   184.0000 </r>
       <r>   -16.8742     0.0000   184.0000 </r>
       <r>   -16.6257     0.0000   184.0000 </r>
       <r>   -16.3771     0.0000   184.0000 </r>
       <r>   -16.1285     0.0000   184.0000 </r>
       <r>   -15.8799     0.0000   184.0000 </r>
       <r>   -15.6313     0.0000   184.0000 </r>
       <r>   -15.3828     0.0000   184.0000 </r>
       <r>   -15.1342     0.0000   184.0000 </r>
       <r>   -14.8856     0.0000   184.0000 </r>
       <r>   -14.6370     0.0000   184.0000 </r>
       <r>   -14.3885     0.0000   184.0000 </r>
       <r>   -14.1399     0.0000   184.0000 </r>
       <r>   -13.8913     0.0000   184.0000 </r>
       <r>   -13.6427     0.0000   184.0000 </r>
       <r>   -13.3941     0.0000   184.0000 </r>
       <r>   -13.1456     0.0000   184.0000 </r>
       <r>   -12.8970     0.0000   184.0000 </r>
       <r>   -12.6484     0.0000   184.0000 </r>
       <r>   -12.3998     0.0000   184.0000 </r>
       <r>   -12.1513     0.0000   184.0000 </r>
       <r>   -11.9027     0.0000   184.0000 </r>
       <r>   -11.6541     0.0000   184.0000 </r>
       <r>   -11.4055     0.0000   184.0000 </r>
       <r>   -11.1569     0.0000   184.0000 </r>
       <r>   -10.9084     0.0000   184.0000 </r>
       <r>   -10.6598     0.0000   184.0000 </r>
       <r>   -10.4112     0.0000   184.0000 </r>
       <r>   -10.1626     0.0000   184.0000 </r>
       <r>    -9.9141     0.0000   184.0000 </r>
       <r>    -9.6655     0.0000   184.0000 </r>
       <r>    -9.4169     0.0000   184.0000 </r>
       <r>    -9.1683     0.0000   184.0000 </r>
       <r>    -8.9198     0.0000   184.0000 </r>
       <r>    -8.6712     0.1781   184.0443 </r>
       <r>    -8.4226     4.4853   185.1592 </r>
       <r>    -8.1740     4.6479   186.3146 </r>
       <r>    -7.9254     8.7073   188.4790 </r>
       <r>    -7.6769    17.0814   192.7251 </r>
       <r>    -7.4283    18.9297   197.4306 </r>
       <r>    -7.1797     8.7279   199.6002 </r>
       <r>    -6.9311    14.9524   203.3170 </r>
       <r>    -6.6826    18.9346   208.0237 </r>
       <r>    -6.4340     7.8611   209.9778 </r>
       <r>    -6.1854     0.0894   210.0000 </r>
       <r>    -5.9368     0.0000   210.0000 </r>
       <r>    -5.6882     0.0000   210.0000 </r>
       <r>    -5.4397     0.0319   210.0079 </r>
       <r>    -5.1911     3.6356   210.9117 </r>
       <r>    -4.9425     4.4079   212.0074 </r>
       <r>    -4.6939     7.2355   213.8060 </r>
       <r>    -4.4454    11.4523   216.6527 </r>
       <r>    -4.1968    15.7865   220.5769 </r>
       <r>    -3.9482    18.8995   225.2749 </r>
       <r>    -3.6996    23.3373   231.0760 </r>
       <r>    -3.4510    21.2901   236.3683 </r>
       <r>    -3.2025    19.8579   241.3045 </r>
       <r>    -2.9539    15.3827   245.1283 </r>
       <r>    -2.7053     8.5562   247.2552 </r>
       <r>    -2.4567     2.9707   247.9936 </r>
       <r>    -2.2082     0.0257   248.0000 </r>
       <r>    -1.9596     0.0000   248.0000 </r>
       <r>    -1.7110     0.0000   248.0000 </r>
       <r>    -1.4624     0.0000   248.0000 </r>
       <r>    -1.2138     0.0000   248.0000 </r>
       <r>    -0.9653     0.0000   248.0000 </r>
       <r>    -0.7167     0.0000   248.0000 </r>
       <r>    -0.4681     0.0964   248.0240 </r>
       <r>    -0.2195     0.8041   248.2238 </r>
       <r>     0.0290     4.2307   249.2755 </r>
       <r>     0.2776    10.1793   251.8058 </r>
       <r>     0.5262    14.2019   255.3361 </r>
       <r>     0.7748    19.1605   260.0990 </r>
       <r>     1.0233    27.2285   266.8674 </r>
       <r>     1.2719    26.9027   273.5548 </r>
       <r>     1.5205    29.3936   280.8614 </r>
       <r>     1.7691    31.1416   288.6025 </r>
       <r>     2.0177    35.9578   297.5408 </r>
       <r>     2.2662    39.7196   307.4142 </r>
       <r>     2.5148    51.8489   320.3027 </r>
       <r>     2.7634    57.2694   334.5385 </r>
       <r>     3.0120    64.4609   350.5621 </r>
       <r>     3.2605    63.4516   366.3347 </r>
       <r>     3.5091    59.8625   381.2152 </r>
       <r>     3.7577    52.3707   394.2334 </r>
       <r>     4.0063    40.8075   404.3772 </r>
       <r>     4.2549    37.4384   413.6835 </r>
       <r>     4.5034    34.0928   422.1582 </r>
       <r>     4.7520    27.3637   428.9602 </r>
       <r>     5.0006    22.9277   434.6596 </r>
       <r>     5.2492    15.4770   438.5068 </r>
       <r>     5.4977     9.1707   440.7864 </r>
       <r>     5.7463    14.4729   444.3840 </r>
       <r>     5.9949    20.7938   449.5529 </r>
       <r>     6.2435    18.6050   454.1777 </r>
       <r>     6.4921    15.9584   458.1446 </r>
       <r>     6.7406    21.4706   463.4817 </r>
       <r>     6.9892    31.5588   471.3265 </r>
       <r>     7.2378    29.6253   478.6907 </r>
       <r>     7.4864    31.4205   486.5011 </r>
       <r>     7.7349    31.1883   494.2538 </r>
       <r>     7.9835    33.3689   502.5486 </r>
       <r>     8.2321    42.1436   513.0245 </r>
       <r>     8.4807    53.9242   526.4289 </r>
       <r>     8.7293    58.1479   540.8832 </r>
       <r>     8.9778    57.0402   555.0621 </r>
       <r>     9.2264    52.1970   568.0371 </r>
       <r>     9.4750    48.0814   579.9890 </r>
       <r>     9.7236    47.4838   591.7925 </r>
       <r>     9.9721    46.9314   603.4585 </r>
       <r>    10.2207    43.7735   614.3396 </r>
       <r>    10.4693    33.0125   622.5458 </r>
       <r>    10.7179     5.8276   623.9944 </r>
       <r>    10.9665     0.0224   624.0000 </r>
       <r>    11.2150     0.0000   624.0000 </r>
       <r>    11.4636     0.0000   624.0000 </r>
       <r>    11.7122     0.0000   624.0000 </r>
       <r>    11.9608     0.0000   624.0000 </r>
       <r>    12.2093     0.0000   624.0000 </r>
       <r>    12.4579     0.0000   624.0000 </r>
       <r>    12.7065     0.0000   624.0000 </r>
       <r>    12.9551     0.0000   624.0000 </r>
       <r>    13.2036     0.0000   624.0000 </r>
       <r>    13.4522     0.0000   624.0000 </r>
       <r>    13.7008     0.0000   624.0000 </r>
       <r>    13.9494     0.0000   624.0000 </r>
      </set>
     </set>
    </array>
   </total>
  </dos>
 </calculation>
 <structure name="finalpos" >
  <crystal>
   <varray name="basis" >
    <v>       8.71320081       0.00139673      -0.01823753 </v>
    <v>       0.00698146       8.81854108      -0.01959201 </v>
    <v>       0.01298023      -0.03510055       8.72384283 </v>
   </varray>
   <i name="volume">    670.31620135 </i>
   <varray name="rec_basis" >
    <v>       0.11476804      -0.00009124      -0.00017113 </v>
    <v>      -0.00001722       0.11339847       0.00045629 </v>
    <v>       0.00023989       0.00025448       0.11462905 </v>
   </varray>
  </crystal>
  <varray name="positions" >
   <v>       0.00225302       0.97429645       0.97661475 </v>
   <v>       0.25081981       0.98482189       0.27179718 </v>
   <v>       0.26567494       0.52352137       0.23971565 </v>
   <v>       0.49782251       0.46816828       0.99339693 </v>
   <v>       0.48368537       0.25942126       0.75292182 </v>
   <v>       0.01277889       0.50029765       0.46325327 </v>
   <v>       0.51482499       0.77216897       0.73781969 </v>
   <v>       0.99963961       0.22324964       0.26601714 </v>
   <v>       0.75893864       0.74769768       0.99861338 </v>
   <v>       0.01218161       0.27778496       0.73710788 </v>
   <v>       0.75298611       0.27273322       0.50919349 </v>
   <v>       0.99609985       0.73349415       0.75338435 </v>
   <v>       0.26187646       0.50779047       0.76480578 </v>
   <v>       0.24057711       0.23975624       0.00222586 </v>
   <v>       0.49674602       0.24511040       0.24978262 </v>
   <v>       0.73702812       0.99054898       0.26579846 </v>
   <v>       0.75559686       0.24350413       0.98702541 </v>
   <v>       0.27878724       0.76084355       0.00384438 </v>
   <v>       0.25424937       0.25243733       0.50134905 </v>
   <v>       0.24795106       0.74845866       0.50604386 </v>
   <v>       0.24304278       0.23995550       0.25183352 </v>
   <v>       0.24424103       0.99798305       0.99407717 </v>
   <v>       0.99750682       0.22318824       0.99956630 </v>
   <v>       0.75634731       0.24860126       0.25328739 </v>
   <v>       0.74745397       0.99074674       0.99129326 </v>
   <v>       0.48648909       0.98905260       0.27288675 </v>
   <v>       0.00629118       0.48581548       0.24496414 </v>
   <v>       0.52044713       0.77948974       0.97938045 </v>
   <v>       0.98460594       0.01600924       0.75275942 </v>
   <v>       0.75118780       0.25075775       0.74028100 </v>
   <v>       0.75625521       0.01265275       0.51345058 </v>
   <v>       0.51203404       0.24894163       0.51082356 </v>
   <v>       0.51736395       0.01151225       0.73260161 </v>
   <v>       0.00393112       0.99521420       0.24475588 </v>
   <v>       0.49918109       0.24075061       0.98888367 </v>
   <v>       0.26036435       0.75010332       0.25473980 </v>
   <v>       0.25004639       0.50262473       0.00502596 </v>
   <v>       0.00746095       0.74942292       0.00367331 </v>
   <v>       0.73847037       0.74196193       0.24501858 </v>
   <v>       0.75259043       0.50494908       0.99177148 </v>
   <v>       0.49330742       0.51063069       0.23770748 </v>
   <v>       0.25256913       0.24895678       0.75145091 </v>
   <v>       0.25383224       0.99811612       0.52047496 </v>
   <v>       0.99821773       0.25814052       0.50189749 </v>
   <v>       0.25687226       0.75598761       0.75537762 </v>
   <v>       0.24714102       0.50137241       0.49488287 </v>
   <v>       0.99269548       0.74693331       0.50389744 </v>
   <v>       0.99921734       0.50329369       0.76263971 </v>
   <v>       0.75134770       0.75700245       0.74472289 </v>
   <v>       0.76024219       0.49808678       0.49368956 </v>
   <v>       0.50799460       0.76208475       0.50255866 </v>
   <v>       0.49495083       0.51005140       0.75510906 </v>
   <v>       0.51507904       0.01662489       0.94698640 </v>
   <v>       0.99655116       0.53593805       0.03064197 </v>
   <v>       0.50465448       0.73648286       0.28611753 </v>
   <v>       0.20585906       0.97720868       0.75349958 </v>
   <v>       0.46985674       0.99034916       0.51272453 </v>
   <v>       0.73166564       0.97497415       0.75990215 </v>
   <v>       0.99790525       0.76832410       0.25432982 </v>
   <v>       0.72795635       0.51266472       0.22952417 </v>
   <v>       0.01179563       0.00071217       0.50486604 </v>
   <v>       0.49713948       0.50603494       0.49271934 </v>
   <v>       0.72467867       0.50191807       0.75147195 </v>
   <v>       0.75264241       0.72227315       0.50102323 </v>
  </varray>
 </structure>
</modeling>
