 vasp.6.4.3 19Mar24 (build Sep 18 2024 11:30:23) complex                        
  
 executed on             LinuxIFC date 2026.07.03  23:35:01
 running   28 mpi-ranks, on    1 nodes
 distrk:  each k-point on   28 cores,    1 groups
 distr:  one band on NCORE=   1 cores,   28 groups


--------------------------------------------------------------------------------------------------------


 INCAR:
   SYSTEM = HECN
   ISTART = 0
   ICHARG = 2
   PREC = Normal
   LREAL = .F.
   IBRION = 2
   ISIF = 3
   NSW = 100
   POTIM = 0.5
   EDIFFG = -0.01
   ENCUT = 400
   NELM = 60
   EDIFF = 1E-5
   LCHARG = .F.
   LWAVE = .F.
   ISMEAR = 0
   SIGMA = 0.1
   ALGO = Fast

 POTCAR:   PAW_PBE Zr_sv 07Sep2000                
 POTCAR:   PAW_PBE Mo 08Apr2002                   
 POTCAR:   PAW_PBE Hf_pv 06Sep2000                
 POTCAR:   PAW_PBE N 08Apr2002                    
 POTCAR:   PAW_PBE C 08Apr2002                    
 POTCAR:   PAW_PBE W_pv 06Sep2000                 
 POTCAR:   PAW_PBE V_sv 07Sep2000                 
 -----------------------------------------------------------------------------
|                                                                             |
|           W    W    AA    RRRRR   N    N  II  N    N   GGGG   !!!           |
|           W    W   A  A   R    R  NN   N  II  NN   N  G    G  !!!           |
|           W    W  A    A  R    R  N N  N  II  N N  N  G       !!!           |
|           W WW W  AAAAAA  RRRRR   N  N N  II  N  N N  G  GGG   !            |
|           WW  WW  A    A  R   R   N   NN  II  N   NN  G    G                |
|           W    W  A    A  R    R  N    N  II  N    N   GGGG   !!!           |
|                                                                             |
|     For optimal performance we recommend to set                             |
|       NCORE = 2 up to number-of-cores-per-socket                            |
|     NCORE specifies how many cores store one orbital (NPAR=cpu/NCORE).      |
|     This setting can greatly improve the performance of VASP for DFT.       |
|     The default, NCORE=1 might be grossly inefficient on modern             |
|     multi-core architectures or massively parallel machines. Do your        |
|     own testing! More info at https://www.vasp.at/wiki/index.php/NCORE      |
|     Unfortunately you need to use the default for GW and RPA                |
|     calculations (for HF NCORE is supported but not extensively tested      |
|     yet).                                                                   |
|                                                                             |
 -----------------------------------------------------------------------------

 POTCAR:   PAW_PBE Zr_sv 07Sep2000                
   VRHFIN =Zr: 4s4p5s4d                                                                             
   LEXCH  = PE                                                                                      
   EATOM  =  1283.3934 eV,   94.3268 Ry                                                             
                                                                                                    
   TITEL  = PAW_PBE Zr_sv 07Sep2000                                                                 
   LULTRA =        F    use ultrasoft PP ?                                                          
   IUNSCR =        1    unscreen: 0-lin 1-nonlin 2-no                                               
   RPACOR =    2.200    partial core radius                                                         
   POMASS =   91.224; ZVAL   =   12.000    mass and valenz                                          
   RCORE  =    2.500    outmost cutoff radius                                                       
   RWIGS  =    3.070; RWIGS  =    1.625    wigner-seitz radius (au A)                               
   ENMAX  =  229.839; ENMIN  =  172.379 eV                                                          
   RCLOC  =    2.213    cutoff for local pot                                                        
   LCOR   =        T    correct aug charges                                                         
   LPAW   =        T    paw PP                                                                      
   EAUG   =  357.078                                                                                
   DEXC   =     .000                                                                                
   RMAX   =    3.041    core radius for proj-oper                                                   
   RAUG   =    1.300    factor for augmentation sphere                                              
   RDEP   =    2.597    radius for radial grids                                                     
   QCUT   =   -4.110; QGAM   =    8.220    optimization parameters                                  
                                                                                                    
   Description                                                                                      
     l     E      TYP  RCUT    TYP  RCUT                                                            
     0   .000     23  2.500                                                                         
     0   .000     23  2.500                                                                         
     1   .000     23  2.500                                                                         
     1   .000     23  2.500                                                                         
     2   .000     23  2.500                                                                         
     2   .000     23  2.500                                                                         
     3   .000      7   .000                                                                         
  local pseudopotential read in
  partial core-charges read in
  atomic valenz-charges read in
  non local Contribution for L=           0  read in
    real space projection operators read in
  non local Contribution for L=           0  read in
    real space projection operators read in
  non local Contribution for L=           1  read in
    real space projection operators read in
  non local Contribution for L=           1  read in
    real space projection operators read in
  non local Contribution for L=           2  read in
    real space projection operators read in
  non local Contribution for L=           2  read in
    real space projection operators read in
    PAW grid and wavefunctions read in
 
   number of l-projection  operators is LMAX  =           6
   number of lm-projection operators is LMMAX =          18
 
 POTCAR:   PAW_PBE Mo 08Apr2002                   
   VRHFIN =Mo: 4p5s4d                                                                               
   LEXCH  = PE                                                                                      
   EATOM  =   217.5180 eV,   15.9871 Ry                                                             
                                                                                                    
   TITEL  = PAW_PBE Mo 08Apr2002                                                                    
   LULTRA =        F    use ultrasoft PP ?                                                          
   IUNSCR =        1    unscreen: 0-lin 1-nonlin 2-no                                               
   RPACOR =    2.200    partial core radius                                                         
   POMASS =   95.940; ZVAL   =    6.000    mass and valenz                                          
   RCORE  =    2.750    outmost cutoff radius                                                       
   RWIGS  =    2.750; RWIGS  =    1.455    wigner-seitz radius (au A)                               
   ENMAX  =  224.584; ENMIN  =  168.438 eV                                                          
   RCLOC  =    2.111    cutoff for local pot                                                        
   LCOR   =        T    correct aug charges                                                         
   LPAW   =        T    paw PP                                                                      
   EAUG   =  345.278                                                                                
   DEXC   =    -.088                                                                                
   RMAX   =    3.077    core radius for proj-oper                                                   
   RAUG   =    1.300    factor for augmentation sphere                                              
   RDEP   =    2.815    radius for radial grids                                                     
   QCUT   =   -4.063; QGAM   =    8.126    optimization parameters                                  
                                                                                                    
   Description                                                                                      
     l     E      TYP  RCUT    TYP  RCUT                                                            
     2   .000     23  2.500                                                                         
     2   .000     23  2.500                                                                         
     0   .000     23  2.600                                                                         
     0  1.000     23  2.600                                                                         
     1   .400     23  2.750                                                                         
     1  2.000     23  2.750                                                                         
     3   .000      7   .000                                                                         
  local pseudopotential read in
  partial core-charges read in
  atomic valenz-charges read in
  non local Contribution for L=           2  read in
    real space projection operators read in
  non local Contribution for L=           2  read in
    real space projection operators read in
  non local Contribution for L=           0  read in
    real space projection operators read in
  non local Contribution for L=           0  read in
    real space projection operators read in
  non local Contribution for L=           1  read in
    real space projection operators read in
  non local Contribution for L=           1  read in
    real space projection operators read in
    PAW grid and wavefunctions read in
 
   number of l-projection  operators is LMAX  =           6
   number of lm-projection operators is LMMAX =          18
 
 POTCAR:   PAW_PBE Hf_pv 06Sep2000                
   VRHFIN =Hf: 5p6s5d                                                                               
   LEXCH  = PE                                                                                      
   EATOM  =   859.6195 eV,   63.1803 Ry                                                             
                                                                                                    
   TITEL  = PAW_PBE Hf_pv 06Sep2000                                                                 
   LULTRA =        F    use ultrasoft PP ?                                                          
   IUNSCR =        1    unscreen: 0-lin 1-nonlin 2-no                                               
   RPACOR =    2.500    partial core radius                                                         
   POMASS =  178.490; ZVAL   =   10.000    mass and valenz                                          
   RCORE  =    2.600    outmost cutoff radius                                                       
   RWIGS  =    3.050; RWIGS  =    1.614    wigner-seitz radius (au A)                               
   ENMAX  =  220.342; ENMIN  =  165.256 eV                                                          
   RCLOC  =    2.212    cutoff for local pot                                                        
   LCOR   =        T    correct aug charges                                                         
   LPAW   =        T    paw PP                                                                      
   EAUG   =  380.878                                                                                
   DEXC   =    -.057                                                                                
   RMAX   =    3.106    core radius for proj-oper                                                   
   RAUG   =    1.300    factor for augmentation sphere                                              
   RDEP   =    2.681    radius for radial grids                                                     
   QCUT   =   -4.024; QGAM   =    8.049    optimization parameters                                  
                                                                                                    
   Description                                                                                      
     l     E      TYP  RCUT    TYP  RCUT                                                            
     1   .000     23  2.500                                                                         
     1   .000     23  2.500                                                                         
     2   .000     23  2.500                                                                         
     2   .000     23  2.500                                                                         
     0   .000     23  2.600                                                                         
     0   .000     23  2.600                                                                         
     3   .000      7   .000                                                                         
  local pseudopotential read in
  partial core-charges read in
  atomic valenz-charges read in
  non local Contribution for L=           1  read in
    real space projection operators read in
  non local Contribution for L=           1  read in
    real space projection operators read in
  non local Contribution for L=           2  read in
    real space projection operators read in
  non local Contribution for L=           2  read in
    real space projection operators read in
  non local Contribution for L=           0  read in
    real space projection operators read in
  non local Contribution for L=           0  read in
    real space projection operators read in
    PAW grid and wavefunctions read in
 
   number of l-projection  operators is LMAX  =           6
   number of lm-projection operators is LMMAX =          18
 
 POTCAR:   PAW_PBE N 08Apr2002                    
   VRHFIN =N: s2p3                                                                                  
   LEXCH  = PE                                                                                      
   EATOM  =   264.5486 eV,   19.4438 Ry                                                             
                                                                                                    
   TITEL  = PAW_PBE N 08Apr2002                                                                     
   LULTRA =        F    use ultrasoft PP ?                                                          
   IUNSCR =        0    unscreen: 0-lin 1-nonlin 2-no                                               
   RPACOR =     .000    partial core radius                                                         
   POMASS =   14.001; ZVAL   =    5.000    mass and valenz                                          
   RCORE  =    1.500    outmost cutoff radius                                                       
   RWIGS  =    1.400; RWIGS  =     .741    wigner-seitz radius (au A)                               
   ENMAX  =  400.000; ENMIN  =  300.000 eV                                                          
   ICORE  =        2    local potential                                                             
   LCOR   =        T    correct aug charges                                                         
   LPAW   =        T    paw PP                                                                      
   EAUG   =  627.112                                                                                
   DEXC   =     .000                                                                                
   RMAX   =    2.247    core radius for proj-oper                                                   
   RAUG   =    1.300    factor for augmentation sphere                                              
   RDEP   =    1.514    radius for radial grids                                                     
   QCUT   =   -5.562; QGAM   =   11.124    optimization parameters                                  
                                                                                                    
   Description                                                                                      
     l     E      TYP  RCUT    TYP  RCUT                                                            
     0   .000     23  1.200                                                                         
     0   .000     23  1.200                                                                         
     1   .000     23  1.500                                                                         
     1   .700     23  1.500                                                                         
     2   .000      7  1.500                                                                         
  local pseudopotential read in
  atomic valenz-charges read in
  non local Contribution for L=           0  read in
    real space projection operators read in
  non local Contribution for L=           0  read in
    real space projection operators read in
  non local Contribution for L=           1  read in
    real space projection operators read in
  non local Contribution for L=           1  read in
    real space projection operators read in
    PAW grid and wavefunctions read in
 
   number of l-projection  operators is LMAX  =           4
   number of lm-projection operators is LMMAX =           8
 
 POTCAR:   PAW_PBE C 08Apr2002                    
   VRHFIN =C: s2p2                                                                                  
   LEXCH  = PE                                                                                      
   EATOM  =   147.1560 eV,   10.8157 Ry                                                             
                                                                                                    
   TITEL  = PAW_PBE C 08Apr2002                                                                     
   LULTRA =        F    use ultrasoft PP ?                                                          
   IUNSCR =        0    unscreen: 0-lin 1-nonlin 2-no                                               
   RPACOR =     .000    partial core radius                                                         
   POMASS =   12.011; ZVAL   =    4.000    mass and valenz                                          
   RCORE  =    1.500    outmost cutoff radius                                                       
   RWIGS  =    1.630; RWIGS  =     .863    wigner-seitz radius (au A)                               
   ENMAX  =  400.000; ENMIN  =  300.000 eV                                                          
   ICORE  =        2    local potential                                                             
   LCOR   =        T    correct aug charges                                                         
   LPAW   =        T    paw PP                                                                      
   EAUG   =  644.873                                                                                
   DEXC   =     .000                                                                                
   RMAX   =    2.266    core radius for proj-oper                                                   
   RAUG   =    1.300    factor for augmentation sphere                                              
   RDEP   =    1.501    radius for radial grids                                                     
   RDEPT  =    1.300    core radius for aug-charge                                                  
   QCUT   =   -5.516; QGAM   =   11.032    optimization parameters                                  
                                                                                                    
   Description                                                                                      
     l     E      TYP  RCUT    TYP  RCUT                                                            
     0   .000     23  1.200                                                                         
     0   .000     23  1.200                                                                         
     1   .000     23  1.500                                                                         
     1  2.500     23  1.500                                                                         
     2   .000      7  1.500                                                                         
  local pseudopotential read in
  atomic valenz-charges read in
  non local Contribution for L=           0  read in
    real space projection operators read in
  non local Contribution for L=           0  read in
    real space projection operators read in
  non local Contribution for L=           1  read in
    real space projection operators read in
  non local Contribution for L=           1  read in
    real space projection operators read in
    PAW grid and wavefunctions read in
 
   number of l-projection  operators is LMAX  =           4
   number of lm-projection operators is LMMAX =           8
 
 POTCAR:   PAW_PBE W_pv 06Sep2000                 
   VRHFIN =W : 5p6s5d                                                                               
   LEXCH  = PE                                                                                      
   EATOM  =  1260.0376 eV,   92.6101 Ry                                                             
                                                                                                    
   TITEL  = PAW_PBE W_pv 06Sep2000                                                                  
   LULTRA =        F    use ultrasoft PP ?                                                          
   IUNSCR =        1    unscreen: 0-lin 1-nonlin 2-no                                               
   RPACOR =    2.330    partial core radius                                                         
   POMASS =  183.850; ZVAL   =   12.000    mass and valenz                                          
   RCORE  =    2.500    outmost cutoff radius                                                       
   RWIGS  =    2.750; RWIGS  =    1.455    wigner-seitz radius (au A)                               
   ENMAX  =  223.065; ENMIN  =  167.299 eV                                                          
   RCLOC  =    2.147    cutoff for local pot                                                        
   LCOR   =        T    correct aug charges                                                         
   LPAW   =        T    paw PP                                                                      
   EAUG   =  373.438                                                                                
   DEXC   =    -.018                                                                                
   RMAX   =    3.087    core radius for proj-oper                                                   
   RAUG   =    1.300    factor for augmentation sphere                                              
   RDEP   =    2.539    radius for radial grids                                                     
   QCUT   =   -4.049; QGAM   =    8.098    optimization parameters                                  
                                                                                                    
   Description                                                                                      
     l     E      TYP  RCUT    TYP  RCUT                                                            
     1   .000     23  2.500                                                                         
     1  -.200     23  2.500                                                                         
     2   .000     23  2.500                                                                         
     2   .000     23  2.500                                                                         
     0   .000     23  2.500                                                                         
     0   .000     23  2.500                                                                         
     3   .000      7   .000                                                                         
  local pseudopotential read in
  partial core-charges read in
  atomic valenz-charges read in
  non local Contribution for L=           1  read in
    real space projection operators read in
  non local Contribution for L=           1  read in
    real space projection operators read in
  non local Contribution for L=           2  read in
    real space projection operators read in
  non local Contribution for L=           2  read in
    real space projection operators read in
  non local Contribution for L=           0  read in
    real space projection operators read in
  non local Contribution for L=           0  read in
    real space projection operators read in
    PAW grid and wavefunctions read in
 
   number of l-projection  operators is LMAX  =           6
   number of lm-projection operators is LMMAX =          18
 
 POTCAR:   PAW_PBE V_sv 07Sep2000                 
   VRHFIN =V: p6 d4 s1                                                                              
   LEXCH  = PE                                                                                      
   EATOM  =  1951.3925 eV,  143.4233 Ry                                                             
                                                                                                    
   TITEL  = PAW_PBE V_sv 07Sep2000                                                                  
   LULTRA =        F    use ultrasoft PP ?                                                          
   IUNSCR =        1    unscreen: 0-lin 1-nonlin 2-no                                               
   RPACOR =    2.000    partial core radius                                                         
   POMASS =   50.941; ZVAL   =   13.000    mass and valenz                                          
   RCORE  =    2.300    outmost cutoff radius                                                       
   RWIGS  =    2.300; RWIGS  =    1.217    wigner-seitz radius (au A)                               
   ENMAX  =  263.675; ENMIN  =  197.756 eV                                                          
   RCLOC  =    1.779    cutoff for local pot                                                        
   LCOR   =        T    correct aug charges                                                         
   LPAW   =        T    paw PP                                                                      
   EAUG   =  526.568                                                                                
   DEXC   =     .000                                                                                
   RMAX   =    2.839    core radius for proj-oper                                                   
   RAUG   =    1.300    factor for augmentation sphere                                              
   RDEP   =    2.430    radius for radial grids                                                     
   QCUT   =   -4.402; QGAM   =    8.804    optimization parameters                                  
                                                                                                    
   Description                                                                                      
     l     E      TYP  RCUT    TYP  RCUT                                                            
     0   .000     23  1.800                                                                         
     0   .000     23  2.300                                                                         
     0   .000     23  1.800                                                                         
     0   .000     23  2.300                                                                         
     1   .000     23  2.000                                                                         
     1   .400     23  2.000                                                                         
     2   .000     23  2.300                                                                         
     2   .000     23  2.300                                                                         
     3   .000      7   .000                                                                         
  local pseudopotential read in
  partial core-charges read in
  atomic valenz-charges read in
  non local Contribution for L=           0  read in
    real space projection operators read in
  non local Contribution for L=           0  read in
    real space projection operators read in
  non local Contribution for L=           1  read in
    real space projection operators read in
  non local Contribution for L=           1  read in
    real space projection operators read in
  non local Contribution for L=           2  read in
    real space projection operators read in
  non local Contribution for L=           2  read in
    real space projection operators read in
    PAW grid and wavefunctions read in
 
   number of l-projection  operators is LMAX  =           6
   number of lm-projection operators is LMMAX =          18
 
 -----------------------------------------------------------------------------
|                                                                             |
|               ----> ADVICE to this user running VASP <----                  |
|                                                                             |
|     You have a (more or less) 'large supercell' and for larger cells it     |
|     might be more efficient to use real-space projection operators.         |
|     Therefore, try LREAL= Auto in the INCAR file.                           |
|     Mind: If you want to do very accurate calculations, keep the            |
|     reciprocal projection scheme (i.e. LREAL=.FALSE.).                      |
|                                                                             |
 -----------------------------------------------------------------------------

 PAW_PBE Zr_sv 07Sep2000                :
 energy of atom  1       EATOM=-1283.3934
 kinetic energy error for atom=    0.0044 (will be added to EATOM!!)
 PAW_PBE Mo 08Apr2002                   :
 energy of atom  2       EATOM= -217.5180
 kinetic energy error for atom=    0.0025 (will be added to EATOM!!)
 PAW_PBE Hf_pv 06Sep2000                :
 energy of atom  3       EATOM= -859.6195
 kinetic energy error for atom=    0.0038 (will be added to EATOM!!)
 PAW_PBE N 08Apr2002                    :
 energy of atom  4       EATOM= -264.5486
 kinetic energy error for atom=    0.0736 (will be added to EATOM!!)
 PAW_PBE C 08Apr2002                    :
 energy of atom  5       EATOM= -147.1560
 kinetic energy error for atom=    0.0288 (will be added to EATOM!!)
 PAW_PBE W_pv 06Sep2000                 :
 energy of atom  6       EATOM=-1260.0376
 kinetic energy error for atom=    0.0051 (will be added to EATOM!!)
 PAW_PBE V_sv 07Sep2000                 :
 energy of atom  7       EATOM=-1951.3925
 kinetic energy error for atom=    0.0321 (will be added to EATOM!!)
 
 
 POSCAR: 41-ZrHfVMoW
  positions in direct lattice
  velocities in cartesian coordinates


 exchange-correlation table for PE
   RHO(1)=    0.500       N(1)  =     2000
   RHO(2)=  100.500       N(2)  =     4000
 


--------------------------------------------------------------------------------------------------------


 ion  position               nearest neighbor table
   1  0.997  0.997  0.994-  25 2.20  38 2.26  29 2.31  23 2.33  22 2.35  34 2.37  56 2.96   9 3.07
                            59 3.10  58 3.11  18 3.12  17 3.17  12 3.17  10 3.18  14 3.19   8 3.21
   2  0.255  0.999  0.253-  36 2.23  26 2.24  21 2.25  43 2.27  34 2.29  22 2.31  57 2.97  59 3.06
                            61 3.06   8 3.13  18 3.15  19 3.16  20 3.16  55 3.22  14 3.23   1 3.26
   3  0.243  0.502  0.251-  46 2.24  36 2.25  37 2.26  27 2.28  21 2.28  41 2.35   6 3.14  18 3.16
                            19 3.17  20 3.17  14 3.18  62 3.20  55 3.20   4 3.21  54 3.22  15 3.23
   4  0.504  0.501  0.999-  40 2.26  35 2.27  41 2.31  52 2.31  37 2.32  28 2.36  63 3.07  13 3.10
                            15 3.13  17 3.14  55 3.17  60 3.17   7 3.19   9 3.20   3 3.21  14 3.21
   5  0.512  0.245  0.743-  33 2.21  30 2.22  32 2.22  35 2.28  42 2.30  52 2.33  53 2.97  11 3.13
                            58 3.13  13 3.14  19 3.14  17 3.15   4 3.23  63 3.24  14 3.25  57 3.29
   6  0.993  0.501  0.502-  50 2.26  48 2.28  27 2.29  47 2.32  46 2.35  44 2.36  11 2.93  64 2.98
                            12 3.07  60 3.09  63 3.13   3 3.14  10 3.15  20 3.15   8 3.20  19 3.25
   7  0.494  0.757  0.752-  33 2.20  51 2.25  49 2.26  45 2.28  28 2.29  52 2.30  63 2.94  58 2.95
                            62 3.02  57 3.08  53 3.09  18 3.12  13 3.12  20 3.16   4 3.19   9 3.27
   8  0.990  0.227  0.271-  44 2.07  34 2.11  24 2.11  27 2.33  23 2.33  21 2.35  11 2.86  61 2.93
                            16 3.02   2 3.13  19 3.14   6 3.20   1 3.21  17 3.22  14 3.33   3 3.35
   9  0.769  0.740  0.993-  38 2.06  40 2.11  49 2.23  39 2.31  25 2.36  28 2.38  54 2.86  12 2.88
                            63 2.96  58 2.99   1 3.07  59 3.15  60 3.16   4 3.20   7 3.27  55 3.30
  10  0.013  0.236  0.731-  44 2.02  42 2.14  29 2.22  30 2.25  48 2.28  23 2.48  56 2.70  61 2.91
                            19 2.97  14 3.14   6 3.15  11 3.16   1 3.18  17 3.22  13 3.24  58 3.39
  11  0.757  0.275  0.490-  50 2.10  44 2.14  24 2.14  32 2.28  30 2.30  31 2.57   8 2.86   6 2.93
                            60 2.96  15 3.05   5 3.13  10 3.16  63 3.19  16 3.21
  12  0.996  0.730  0.759-  45 2.17  48 2.19  49 2.21  38 2.26  47 2.30  29 2.38  54 2.80   9 2.88
                            63 2.96   6 3.07  18 3.11  20 3.14  64 3.17   1 3.17  58 3.20  13 3.20
  13  0.266  0.495  0.746-  52 2.13  46 2.16  42 2.17  37 2.22  45 2.40  48 2.45  62 3.03  19 3.09
                             4 3.10   7 3.12  14 3.13   5 3.14  20 3.17  54 3.20  12 3.20  18 3.23
  14  0.246  0.252  0.996-  23 2.16  42 2.20  21 2.25  22 2.25  37 2.25  35 2.32  56 3.07  13 3.13
                            10 3.14   3 3.18   1 3.19   4 3.21   2 3.23  53 3.23  54 3.24   5 3.25
  15  0.512  0.259  0.252-  32 2.16  24 2.16  41 2.22  35 2.24  21 2.30  26 2.35  11 3.05  60 3.09
                             4 3.13  19 3.15  17 3.19  16 3.21   3 3.23  53 3.25   2 3.27  62 3.28
  16  0.749  0.992  0.269-  31 2.15  26 2.17  34 2.22  39 2.26  24 2.32  25 2.33  59 2.92  57 3.00
                             8 3.02  64 3.04  55 3.11  61 3.20  15 3.21  11 3.21   1 3.28  53 3.29
  17  0.762  0.261  0.993-  23 2.15  30 2.22  40 2.22  35 2.27  24 2.28  25 2.34  53 3.10  54 3.11
                             4 3.14   5 3.15   1 3.17  15 3.19  10 3.22   8 3.22  58 3.27  60 3.32
  18  0.246  0.751  0.002-  38 2.18  45 2.21  36 2.22  37 2.25  22 2.27  28 2.29  54 3.07  12 3.11
                             7 3.12   1 3.12   2 3.15   3 3.16  59 3.20   4 3.22  13 3.23  55 3.28
  19  0.257  0.251  0.501-  42 2.19  32 2.23  21 2.23  46 2.25  43 2.26  44 2.33  10 2.97  56 3.04
                            13 3.09  61 3.10   5 3.14   8 3.14  15 3.15   2 3.16   3 3.17  57 3.21
  20  0.241  0.751  0.504-  45 2.21  36 2.24  43 2.25  47 2.25  46 2.26  51 2.32  61 2.98  57 3.03
                            62 3.04  59 3.07  12 3.14   6 3.15   2 3.16   7 3.16   3 3.17  13 3.17
  21  0.253  0.248  0.249-  19 2.23  14 2.25   2 2.25   3 2.28  15 2.30   8 2.35
  22  0.261  0.003  0.993-  56 2.23  14 2.25  18 2.27  53 2.29   2 2.31   1 2.35
  23  0.003  0.254  0.010-  17 2.15  14 2.16   1 2.33   8 2.33  54 2.36  10 2.48
  24  0.754  0.248  0.250-   8 2.11  11 2.14  15 2.16  17 2.28  16 2.32
  25  0.750  0.002  0.007-  53 2.07  58 2.19   1 2.20  16 2.33  17 2.34   9 2.36
  26  0.507  0.999  0.240-  16 2.17  57 2.22   2 2.24  53 2.29  55 2.32  15 2.35
  27  0.988  0.484  0.244-  60 2.21   3 2.28   6 2.29  54 2.30   8 2.33
  28  0.502  0.762  0.010-  55 2.22  53 2.29  18 2.29   7 2.29   4 2.36   9 2.38
  29  0.980  0.992  0.734-  61 2.06  56 2.16  58 2.17  10 2.22   1 2.31  12 2.38
  30  0.760  0.228  0.745-  17 2.22   5 2.22  10 2.25  58 2.26  11 2.30
  31  0.742  0.990  0.512-  16 2.15  58 2.21  57 2.25  64 2.28  11 2.57
  32  0.506  0.226  0.493-  15 2.16  57 2.22   5 2.22  19 2.23  11 2.28
  33  0.486  0.001  0.737-  53 2.20   7 2.20   5 2.21  57 2.21  58 2.26  56 2.36
  34  0.998  0.993  0.261-  59 1.95   8 2.11  61 2.18  16 2.22   2 2.29   1 2.37
  35  0.507  0.249  1.000-  53 2.12  15 2.24   4 2.27  17 2.27   5 2.28  14 2.32
  36  0.251  0.751  0.251-  18 2.22   2 2.23  20 2.24   3 2.25  59 2.28  55 2.28
  37  0.243  0.502  0.996-  54 2.19  13 2.22  18 2.25  14 2.25   3 2.26   4 2.32
  38  0.000  0.746  0.013-   9 2.06  54 2.09  18 2.18  59 2.23  12 2.26   1 2.26
  39  0.755  0.742  0.253-  60 2.04  64 2.14  59 2.17  55 2.20  16 2.26   9 2.31
  40  0.759  0.507  0.000-   9 2.11  54 2.13  17 2.22   4 2.26  60 2.34  63 2.35
  41  0.508  0.505  0.260-  60 2.08  55 2.13  62 2.14  15 2.22   4 2.31   3 2.35
  42  0.253  0.255  0.748-  10 2.14  56 2.15  13 2.17  19 2.19  14 2.20   5 2.30
  43  0.250  0.000  0.508-  61 2.05  56 2.12  57 2.15  20 2.25  19 2.26   2 2.27
  44  0.995  0.239  0.504-  10 2.02   8 2.07  11 2.14  61 2.16  19 2.33   6 2.36
  45  0.238  0.759  0.753-  12 2.17  18 2.21  20 2.21   7 2.28  56 2.33  13 2.40
  46  0.257  0.501  0.503-  13 2.16  62 2.18   3 2.24  19 2.25  20 2.26   6 2.35
  47  0.988  0.758  0.501-  64 2.05  59 2.13  61 2.20  20 2.25  12 2.30   6 2.32
  48  0.990  0.487  0.759-  54 2.04  12 2.19  10 2.28   6 2.28  63 2.34  13 2.45
  49  0.748  0.747  0.743-  63 1.95  58 2.10  64 2.21  12 2.21   9 2.23   7 2.26
  50  0.738  0.507  0.501-  64 2.09  11 2.10  60 2.11  63 2.11  62 2.13   6 2.26
  51  0.502  0.747  0.498-  62 1.94  57 2.10  55 2.12   7 2.25  64 2.29  20 2.32
  52  0.505  0.503  0.738-  63 2.04  13 2.13  62 2.14   7 2.30   4 2.31   5 2.33
  53  0.519  0.014  0.982-  25 2.07  35 2.12  33 2.20  28 2.29  26 2.29  22 2.29  58 2.77   5 2.97
                             7 3.09  17 3.10  14 3.23  15 3.25  16 3.29   9 3.32   2 3.34  56 3.39
  54  0.997  0.516  0.987-  48 2.04  38 2.09  40 2.13  37 2.19  27 2.30  23 2.36  12 2.80   9 2.86
                            18 3.07  17 3.11  13 3.20   3 3.22  14 3.24  10 3.39
  55  0.508  0.742  0.259-  51 2.12  41 2.13  39 2.20  28 2.22  36 2.28  26 2.32  62 2.85  60 2.91
                            57 2.95  64 3.07  16 3.11   4 3.17   3 3.20  20 3.20   2 3.22  18 3.28
  56  0.221  0.018  0.745-  43 2.12  42 2.15  29 2.16  22 2.23  45 2.33  33 2.36  10 2.70  61 2.80
                             1 2.96  19 3.04  14 3.07  20 3.21  12 3.28   5 3.30  57 3.31  18 3.32
  57  0.490  0.980  0.488-  51 2.10  43 2.15  33 2.21  26 2.22  32 2.22  31 2.25  55 2.95   2 2.97
                            16 3.00  20 3.03   7 3.08  19 3.21  58 3.28  15 3.29   5 3.29  56 3.31
  58  0.738  0.978  0.761-  49 2.10  29 2.17  25 2.19  31 2.21  30 2.26  33 2.26  53 2.77   7 2.95
                             9 2.99   1 3.11   5 3.13  12 3.20  17 3.27  57 3.28  10 3.39
  59  0.996  0.777  0.262-  34 1.95  47 2.13  39 2.17  38 2.23  36 2.28  16 2.92   2 3.06  20 3.07
                             1 3.10   9 3.15  18 3.20   6 3.27   3 3.31
  60  0.742  0.515  0.264-  39 2.04  41 2.08  50 2.11  27 2.21  40 2.34  64 2.87  55 2.91  11 2.96
                            15 3.09   6 3.09   9 3.16   4 3.17  17 3.32
  61  0.019  0.001  0.505-  43 2.05  29 2.06  44 2.16  34 2.18  47 2.20  56 2.80  10 2.91   8 2.93
                            20 2.98   2 3.06  19 3.10  16 3.20
  62  0.500  0.532  0.499-  51 1.94  50 2.13  41 2.14  52 2.14  46 2.18  55 2.85   7 3.02  13 3.03
                            20 3.04   3 3.20  15 3.28  19 3.33   5 3.38
  63  0.732  0.531  0.738-  49 1.95  52 2.04  50 2.11  48 2.34  40 2.35  64 2.87   7 2.94   9 2.96
                            12 2.96   4 3.07   6 3.13  11 3.19   5 3.24  17 3.34
  64  0.759  0.738  0.494-  47 2.05  50 2.09  39 2.14  49 2.21  31 2.28  51 2.29  60 2.87  63 2.87
                             6 2.98  16 3.04  55 3.07  12 3.17   7 3.27
 
  LATTYP: Found a triclinic cell.
 ALAT       =     8.8688564826
 B/A-ratio  =     1.4230487999
 C/A-ratio  =     1.0021487752
 COS(alpha) =     0.0063694275
 COS(beta)  =     0.0075564810
 COS(gamma) =     0.7003652409
  
  Lattice vectors:
  
 A1 = (  -0.0494933238,   0.0224508317,  -8.8686899641)
 A2 = (  -0.0590214933,  -8.9861347986,  -8.8617652647)
 A3 = (  -8.8878954775,  -0.0038039179,  -0.0175717381)


Analysis of symmetry for initial positions (statically):
=====================================================================
 Subroutine PRICEL returns:
 Original cell was already a primitive cell.
 

 Routine SETGRP: Setting up the symmetry group for a 
 triclinic supercell.


 Subroutine GETGRP returns: Found  1 space group operations
 (whereof  1 operations were pure point group operations)
 out of a pool of  2 trial point group operations.


The static configuration has the point symmetry C_1 .


Analysis of symmetry for dynamics (positions and initial velocities):
=====================================================================
 Subroutine PRICEL returns:
 Original cell was already a primitive cell.
 

 Routine SETGRP: Setting up the symmetry group for a 
 triclinic supercell.


 Subroutine GETGRP returns: Found  1 space group operations
 (whereof  1 operations were pure point group operations)
 out of a pool of  2 trial point group operations.


The dynamic configuration has the point symmetry C_1 .


 Subroutine INISYM returns: Found  1 space group operations
 (whereof  1 operations are pure point group operations),
 and found     1 'primitive' translations


----------------------------------------------------------------------------------------

                                     Primitive cell                                     

  volume of cell :     710.0831

  direct lattice vectors                    reciprocal lattice vectors
     8.887895477  0.003803918  0.017571738     0.112513867 -0.000119486 -0.000628206
     0.009528169  9.008585630 -0.006924699    -0.000048065  0.111005484  0.000281275
     0.049493324 -0.022450832  8.868689964    -0.000222964  0.000086910  0.112757689

  length of vectors
     8.887913661  9.008593331  8.868856483     0.112515685  0.111005851  0.112757943

  position of ions in fractional coordinates (direct lattice)
     0.997118591  0.996527083  0.993789778
     0.255423195  0.998995461  0.252739283
     0.243383368  0.501840961  0.250780053
     0.504419527  0.500548806  0.998837253
     0.511551450  0.244638328  0.743044579
     0.992890483  0.501018179  0.501710217
     0.493780255  0.757460599  0.751798262
     0.990180336  0.227152998  0.271116992
     0.769242580  0.740366215  0.993075349
     0.013412233  0.236117899  0.731193017
     0.757215374  0.274837794  0.490090561
     0.995800357  0.730108050  0.759116283
     0.265984237  0.494952018  0.746012309
     0.245993980  0.251867910  0.996237376
     0.511539837  0.259327324  0.252252388
     0.748820150  0.991652861  0.269340502
     0.761736369  0.260863594  0.992864088
     0.245584361  0.751360862  0.001606065
     0.256534043  0.251386054  0.500519350
     0.240658766  0.751405585  0.503598789
     0.252976013  0.248368919  0.249289210
     0.261068043  0.002832885  0.992550674
     0.003022885  0.254374428  0.009789932
     0.754427814  0.247994107  0.250036814
     0.750370298  0.001822608  0.006659542
     0.506772414  0.999292003  0.239640213
     0.988166286  0.484351240  0.244474698
     0.502482803  0.762315208  0.009575200
     0.979822098  0.992260709  0.733963825
     0.760407469  0.227540998  0.745305395
     0.742117873  0.990393063  0.512187395
     0.505773591  0.225898509  0.493204841
     0.485685573  0.001078529  0.737111656
     0.998014016  0.993079874  0.260990644
     0.506544666  0.249108870  0.999792942
     0.251054102  0.751032539  0.251409901
     0.243392617  0.502013649  0.995945205
     0.000125255  0.745964175  0.013330513
     0.755033863  0.741570226  0.253324588
     0.758578947  0.507072923  0.000321581
     0.507741884  0.505173432  0.259670098
     0.253279646  0.254534998  0.747784590
     0.249736166  0.000451509  0.508313550
     0.994762356  0.238880213  0.504103707
     0.237713090  0.759339251  0.752771245
     0.257447411  0.501251722  0.502792851
     0.988091099  0.758220231  0.501198998
     0.990357375  0.487183657  0.758734816
     0.747908215  0.746542613  0.742991092
     0.738398539  0.506577906  0.501072371
     0.501868308  0.747075626  0.498155924
     0.504872127  0.502783431  0.737928068
     0.518751380  0.014106666  0.981984088
     0.997281100  0.515647987  0.987170672
     0.507723440  0.741978193  0.258986118
     0.220881552  0.017550388  0.745217787
     0.490422071  0.979715669  0.488396953
     0.737878535  0.978417915  0.761098094
     0.995901868  0.777125188  0.262498371
     0.741633051  0.515267299  0.263698370
     0.018862545  0.000550358  0.505330900
     0.500421890  0.531889733  0.498931910
     0.732101675  0.530920557  0.738300559
     0.758858935  0.738021166  0.494241742

  ion indices of the primitive-cell ions
   primitive index   ion index
                 1           1
                 2           2
                 3           3
                 4           4
                 5           5
                 6           6
                 7           7
                 8           8
                 9           9
                10          10
                11          11
                12          12
                13          13
                14          14
                15          15
                16          16
                17          17
                18          18
                19          19
                20          20
                21          21
                22          22
                23          23
                24          24
                25          25
                26          26
                27          27
                28          28
                29          29
                30          30
                31          31
                32          32
                33          33
                34          34
                35          35
                36          36
                37          37
                38          38
                39          39
                40          40
                41          41
                42          42
                43          43
                44          44
                45          45
                46          46
                47          47
                48          48
                49          49
                50          50
                51          51
                52          52
                53          53
                54          54
                55          55
                56          56
                57          57
                58          58
                59          59
                60          60
                61          61
                62          62
                63          63
                64          64

----------------------------------------------------------------------------------------

 
 
 KPOINTS: HECN                                    

Automatic generation of k-mesh.
 Grid dimensions read from file:
 generate k-points for:    3    3    3

 Generating k-lattice:

  Cartesian coordinates                     Fractional coordinates (reciprocal lattice)
     0.037504622 -0.000039829 -0.000209402     0.333333333  0.000000000  0.000000000
    -0.000016022  0.037001828  0.000093758     0.000000000  0.333333333 -0.000000000
    -0.000074321  0.000028970  0.037585896    -0.000000000 -0.000000000  0.333333333

  Length of vectors
     0.037505228  0.037001950  0.037585981

  Shift w.r.t. Gamma in fractional coordinates (k-lattice)
     0.000000000  0.000000000  0.000000000

 
 Subroutine IBZKPT returns following result:
 ===========================================
 
 Found     14 irreducible k-points:
 
 Following reciprocal coordinates:
            Coordinates               Weight
  0.000000  0.000000  0.000000      1.000000
  0.333333  0.000000 -0.000000      2.000000
  0.000000  0.333333  0.000000      2.000000
  0.333333  0.333333  0.000000      2.000000
 -0.333333  0.333333 -0.000000      2.000000
 -0.000000 -0.000000  0.333333      2.000000
  0.333333 -0.000000  0.333333      2.000000
 -0.333333  0.000000  0.333333      2.000000
 -0.000000  0.333333  0.333333      2.000000
  0.333333  0.333333  0.333333      2.000000
 -0.333333  0.333333  0.333333      2.000000
 -0.000000 -0.333333  0.333333      2.000000
  0.333333 -0.333333  0.333333      2.000000
 -0.333333 -0.333333  0.333333      2.000000
 
 Following cartesian coordinates:
            Coordinates               Weight
  0.000000  0.000000  0.000000      1.000000
  0.037505 -0.000040 -0.000209      2.000000
 -0.000016  0.037002  0.000094      2.000000
  0.037489  0.036962 -0.000116      2.000000
 -0.037521  0.037042  0.000303      2.000000
 -0.000074  0.000029  0.037586      2.000000
  0.037430 -0.000011  0.037376      2.000000
 -0.037579  0.000069  0.037795      2.000000
 -0.000090  0.037031  0.037680      2.000000
  0.037414  0.036991  0.037470      2.000000
 -0.037595  0.037071  0.037889      2.000000
 -0.000058 -0.036973  0.037492      2.000000
  0.037446 -0.037013  0.037283      2.000000
 -0.037563 -0.036933  0.037702      2.000000
 


--------------------------------------------------------------------------------------------------------




 Dimension of arrays:
   k-points           NKPTS =     14   k-points in BZ     NKDIM =     14   number of bands    NBANDS=    308
   number of dos      NEDOS =    301   number of ions     NIONS =     64
   non local maximal  LDIM  =      6   non local SUM 2l+1 LMDIM =     18
   total plane-waves  NPLWV = 110592
   max r-space proj   IRMAX =      1   max aug-charges    IRDMAX=  10198
   dimension x,y,z NGX =    48 NGY =   48 NGZ =   48
   dimension x,y,z NGXF=    96 NGYF=   96 NGZF=   96
   support grid    NGXF=    96 NGYF=   96 NGZF=   96
   ions per type =               7   6   7  13  19   6   6
   NGX,Y,Z   is equivalent  to a cutoff of   8.98,  8.86,  9.00 a.u.
   NGXF,Y,Z  is equivalent  to a cutoff of  17.96, 17.72, 18.00 a.u.

 SYSTEM =  HECN                                    
 POSCAR =  41-ZrHfVMoW                             

 Startparameter for this run:
   NWRITE =      2    write-flag & timer
   PREC   = normal    normal or accurate (medium, high low for compatibility)
   ISTART =      0    job   : 0-new  1-cont  2-samecut
   ICHARG =      2    charge: 1-file 2-atom 10-const
   ISPIN  =      1    spin polarized calculation?
   LNONCOLLINEAR =      F non collinear calculations
   LSORBIT =      F    spin-orbit coupling
   INIWAV =      1    electr: 0-lowe 1-rand  2-diag
   LASPH  =      F    aspherical Exc in radial PAW
 Electronic Relaxation 1
   ENCUT  =  400.0 eV  29.40 Ry    5.42 a.u.  14.49 14.69 14.46*2*pi/ulx,y,z
   ENINI  =  400.0     initial cutoff
   ENAUG  =  644.9 eV  augmentation charge cutoff
   NELM   =     60;   NELMIN=  2; NELMDL= -5     # of ELM steps 
   EDIFF  = 0.1E-04   stopping-criterion for ELM
   LREAL  =      F    real-space projection
   NLSPLINE    = F    spline interpolate recip. space projectors
   LCOMPAT=      F    compatible to vasp.4.4
   GGA_COMPAT  = T    GGA compatible to vasp.4.4-vasp.4.6
   LMAXPAW     = -100 max onsite density
   LMAXMIX     =    2 max onsite mixed and CHGCAR
   VOSKOWN=      0    Vosko Wilk Nusair interpolation
   ROPT   =    0.00000   0.00000   0.00000   0.00000
   ROPT   =    0.00000   0.00000   0.00000
 Ionic relaxation
   EDIFFG = -.1E-01   stopping-criterion for IOM
   NSW    =    100    number of steps for IOM
   NBLOCK =      1;   KBLOCK =    100    inner block; outer block 
   IBRION =      2    ionic relax: 0-MD 1-quasi-New 2-CG
   NFREE  =      1    steps in history (QN), initial steepest desc. (CG)
   ISIF   =      3    stress and relaxation
   IWAVPR =     11    prediction:  0-non 1-charg 2-wave 3-comb
   ISYM   =      2    0-nonsym 1-usesym 2-fastsym
   LCORR  =      T    Harris-Foulkes like correction to forces

   POTIM  = 0.5000    time-step for ionic-motion
   TEIN   =    0.0    initial temperature
   TEBEG  =    0.0;   TEEND  =   0.0 temperature during run
   SMASS  =  -3.00    Nose mass-parameter (am)
   estimated Nose-frequenzy (Omega)   =  0.10E-29 period in steps = 0.13E+47 mass=  -0.181E-26a.u.
   SCALEE = 1.0000    scale energy and forces
   NPACO  =    256;   APACO  = 10.0  distance and # of slots for P.C.
   PSTRESS=    0.0 pullay stress

  Mass of Ions in am
   POMASS =  91.22 95.94178.49 14.00 12.01183.85 50.94
  Ionic Valenz
   ZVAL   =  12.00  6.00 10.00  5.00  4.00 12.00 13.00
  Atomic Wigner-Seitz radii
   RWIGS  =  -1.00 -1.00 -1.00 -1.00 -1.00 -1.00 -1.00
  virtual crystal weights 
   VCA    =   1.00  1.00  1.00  1.00  1.00  1.00  1.00
   NELECT =     481.0000    total number of electrons
   NUPDOWN=      -1.0000    fix difference up-down

 DOS related values:
   EMIN   =  10.00;   EMAX   =-10.00  energy-range for DOS
   EFERMI =   0.00;   METHOD = LEGACY      
   ISMEAR =     0;   SIGMA  =   0.10  broadening in eV -4-tet -1-fermi 0-gaus

 Electronic relaxation 2 (details)
   IALGO  =     68    algorithm
   LDIAG  =      T    sub-space diagonalisation (order eigenvalues)
   LSUBROT=      F    optimize rotation matrix (better conditioning)
   TURBO    =      0    0=normal 1=particle mesh
   IRESTART =      0    0=no restart 2=restart with 2 vectors
   NREBOOT  =      0    no. of reboots
   NMIN     =      0    reboot dimension
   EREF     =   0.00    reference energy to select bands
   IMIX   =      4    mixing-type and parameters
     AMIX     =   0.40;   BMIX     =  1.00
     AMIX_MAG =   1.60;   BMIX_MAG =  1.00
     AMIN     =   0.10
     WC   =   100.;   INIMIX=   1;  MIXPRE=   1;  MAXMIX= -45

 Intra band minimization:
   WEIMIN = 0.0010     energy-eigenvalue tresh-hold
   EBREAK =  0.81E-08  absolut break condition
   DEPER  =   0.30     relativ break condition  

   TIME   =   0.40     timestep for ELM

  volume/ion in A,a.u.               =      11.10        74.87
  Fermi-wavevector in a.u.,A,eV,Ry     =   1.437761  2.716975 28.125387  2.067158
  Thomas-Fermi vector in A             =   2.556803
 
 Write flags
   LWAVE        =      F    write WAVECAR
   LDOWNSAMPLE  =      F    k-point downsampling of WAVECAR
   LCHARG       =      F    write CHGCAR
   LVTOT        =      F    write LOCPOT, total local potential
   LVHAR        =      F    write LOCPOT, Hartree potential only
   WRT_POTENTIAL= false  ! write potential to hdf5 file
   LELF         =      F    write electronic localiz. function (ELF)
   LORBIT       =      0    0 simple, 1 ext, 2 COOP (PROOUT), +10 PAW based schemes


 Dipole corrections
   LMONO      =      F    monopole corrections only (constant potential shift)
   LDIPOL     =      F    correct potential (dipole corrections)
   IDIPOL     =      0    1-x, 2-y, 3-z, 4-all directions 
   EPSILON    =  1.0000000 bulk dielectric constant
   LVACPOTAV  =      F  vacuum potentials using an averaging scheme for the charge density
   VACPOTFLAT =  0.1000000 required flatness to determine vacuum potential
 Exchange correlation treatment:
   GGA     = PE    functional components
   XC_C    = 1    coefficients multiplying the functional components
   LIBXC   =     F    Libxc                    
   VOSKOWN =     0    Vosko Wilk Nusair interpolation
   LHFCALC =     F    Hartree Fock is set to
   LHFONE  =     F    Hartree Fock one center treatment
   AEXX    =    0.0000 exact exchange contribution

 Parameters of functionals:
   PE:
     No parameter
 
 Van der Waals corrections
   IVDW    =     0    specifies the selected vdW correction

 Linear response parameters
   LEPSILON=     F    determine dielectric tensor
   LRPA    =     F    only Hartree local field effects (RPA)
   LNABLA  =     F    use nabla operator in PAW spheres
   LVEL    =     F    velocity operator in full k-point grid
   CSHIFT  =0.1000    complex shift for real part using Kramers Kronig
   OMEGAMAX=  -1.0    maximum frequency
   DEG_THRESHOLD= 0.2000000E-02 threshold for treating states as degnerate
   RTIME   =   -0.100 relaxation time in fs
  (WPLASMAI=    0.000 imaginary part of plasma frequency in eV, 0.658/RTIME)
   DFIELD  = 0.0000000 0.0000000 0.0000000 field for delta impulse in time
 
  Optional k-point grid parameters
   LKPOINTS_OPT  =     F    use optional k-point grid
   KPOINTS_OPT_MODE=     1    mode for optional k-point grid
 
 Orbital magnetization related:
   ORBITALMAG=     F  switch on orbital magnetization
   LCHIMAG   =     F  perturbation theory with respect to B field
   DQ        =  0.001000  dq finite difference perturbation B field
   LLRAUG    =     F  two centre corrections for induced B field
   LBONE     =     F  B-component reconstruction in AE one-centre
   LVGVCALC  =     T  calculate vGv susceptibility
   LVGVAPPL  =     F  apply vGv susceptibility instead of pGv for G=0

 Random number generation:
   RANDOM_GENERATOR = DEFAULT
   PCG_SEED         = not used


--------------------------------------------------------------------------------------------------------


 conjugate gradient relaxation of ions
 charge density and potential will be updated during run
 non-spin polarized calculation
 RMM-DIIS sequential band-by-band and
  variant of blocked Davidson during initial phase
 perform sub-space diagonalisation
    before iterative eigenvector-optimisation
 modified Broyden-mixing scheme, WC =      100.0
 initial mixing is a Kerker type mixing with AMIX =  0.4000 and BMIX =      1.0000
 Hartree-type preconditioning will be used
 using additional bands           67
 reciprocal scheme for non local part
 use partial core corrections
 calculate Harris-corrections to forces 
   (improved forces if not selfconsistent)
 use gradient corrections 
 use of overlap-Matrix (Vanderbilt PP)
 Gauss-broadening in eV      SIGMA  =   0.10


--------------------------------------------------------------------------------------------------------


  energy-cutoff  :      400.00
  volume of cell :      710.08
      direct lattice vectors                 reciprocal lattice vectors
     8.887895477  0.003803918  0.017571738     0.112513867 -0.000119486 -0.000628206
     0.009528169  9.008585630 -0.006924699    -0.000048065  0.111005484  0.000281275
     0.049493324 -0.022450832  8.868689964    -0.000222964  0.000086910  0.112757689

  length of vectors
     8.887913661  9.008593331  8.868856483     0.112515685  0.111005851  0.112757943


 
 k-points in units of 2pi/SCALE and weight: HECN                                    
   0.00000000  0.00000000  0.00000000       0.037
   0.03750462 -0.00003983 -0.00020940       0.074
  -0.00001602  0.03700183  0.00009376       0.074
   0.03748860  0.03696200 -0.00011564       0.074
  -0.03752064  0.03704166  0.00030316       0.074
  -0.00007432  0.00002897  0.03758590       0.074
   0.03743030 -0.00001086  0.03737649       0.074
  -0.03757894  0.00006880  0.03779530       0.074
  -0.00009034  0.03703080  0.03767965       0.074
   0.03741428  0.03699097  0.03747025       0.074
  -0.03759497  0.03707063  0.03788906       0.074
  -0.00005830 -0.03697286  0.03749214       0.074
   0.03744632 -0.03701269  0.03728274       0.074
  -0.03756292 -0.03693303  0.03770154       0.074
 
 k-points in reciprocal lattice and weights: HECN                                    
   0.00000000  0.00000000  0.00000000       0.037
   0.33333333  0.00000000 -0.00000000       0.074
   0.00000000  0.33333333  0.00000000       0.074
   0.33333333  0.33333333  0.00000000       0.074
  -0.33333333  0.33333333 -0.00000000       0.074
  -0.00000000 -0.00000000  0.33333333       0.074
   0.33333333 -0.00000000  0.33333333       0.074
  -0.33333333  0.00000000  0.33333333       0.074
  -0.00000000  0.33333333  0.33333333       0.074
   0.33333333  0.33333333  0.33333333       0.074
  -0.33333333  0.33333333  0.33333333       0.074
  -0.00000000 -0.33333333  0.33333333       0.074
   0.33333333 -0.33333333  0.33333333       0.074
  -0.33333333 -0.33333333  0.33333333       0.074
 
 position of ions in fractional coordinates (direct lattice) 
   0.99711859  0.99652708  0.99378978
   0.25542320  0.99899546  0.25273928
   0.24338337  0.50184096  0.25078005
   0.50441953  0.50054881  0.99883725
   0.51155145  0.24463833  0.74304458
   0.99289048  0.50101818  0.50171022
   0.49378026  0.75746060  0.75179826
   0.99018034  0.22715300  0.27111699
   0.76924258  0.74036622  0.99307535
   0.01341223  0.23611790  0.73119302
   0.75721537  0.27483779  0.49009056
   0.99580036  0.73010805  0.75911628
   0.26598424  0.49495202  0.74601231
   0.24599398  0.25186791  0.99623738
   0.51153984  0.25932732  0.25225239
   0.74882015  0.99165286  0.26934050
   0.76173637  0.26086359  0.99286409
   0.24558436  0.75136086  0.00160607
   0.25653404  0.25138605  0.50051935
   0.24065877  0.75140559  0.50359879
   0.25297601  0.24836892  0.24928921
   0.26106804  0.00283288  0.99255067
   0.00302288  0.25437443  0.00978993
   0.75442781  0.24799411  0.25003681
   0.75037030  0.00182261  0.00665954
   0.50677241  0.99929200  0.23964021
   0.98816629  0.48435124  0.24447470
   0.50248280  0.76231521  0.00957520
   0.97982210  0.99226071  0.73396383
   0.76040747  0.22754100  0.74530539
   0.74211787  0.99039306  0.51218740
   0.50577359  0.22589851  0.49320484
   0.48568557  0.00107853  0.73711166
   0.99801402  0.99307987  0.26099064
   0.50654467  0.24910887  0.99979294
   0.25105410  0.75103254  0.25140990
   0.24339262  0.50201365  0.99594520
   0.00012526  0.74596418  0.01333051
   0.75503386  0.74157023  0.25332459
   0.75857895  0.50707292  0.00032158
   0.50774188  0.50517343  0.25967010
   0.25327965  0.25453500  0.74778459
   0.24973617  0.00045151  0.50831355
   0.99476236  0.23888021  0.50410371
   0.23771309  0.75933925  0.75277125
   0.25744741  0.50125172  0.50279285
   0.98809110  0.75822023  0.50119900
   0.99035738  0.48718366  0.75873482
   0.74790821  0.74654261  0.74299109
   0.73839854  0.50657791  0.50107237
   0.50186831  0.74707563  0.49815592
   0.50487213  0.50278343  0.73792807
   0.51875138  0.01410667  0.98198409
   0.99728110  0.51564799  0.98717067
   0.50772344  0.74197819  0.25898612
   0.22088155  0.01755039  0.74521779
   0.49042207  0.97971567  0.48839695
   0.73787853  0.97841792  0.76109809
   0.99590187  0.77712519  0.26249837
   0.74163305  0.51526730  0.26369837
   0.01886255  0.00055036  0.50533090
   0.50042189  0.53188973  0.49893191
   0.73210167  0.53092056  0.73830056
   0.75885894  0.73802117  0.49424174
 
 position of ions in cartesian coordinates  (Angst):
   8.92096685  8.95878111  8.82423389
   2.29220217  8.99483356  2.23903683
   2.18035950  4.51617286  2.22489211
   4.53743312  4.48873082  8.86377530
   4.58572252  2.18910926  6.59712680
   8.85431192  4.50597823  4.46348978
   4.43309350  6.80864847  6.67089709
   8.81620216  2.04400700  2.42027877
   6.89315258  6.65028322  8.81566749
   0.15764547  2.11072344  6.48332481
   6.75692601  2.46777725  4.35786366
   8.89509727  6.56398604  6.74480913
   2.40567871  4.44308082  6.61739829
   2.23807572  2.24754302  8.83789885
   4.56146833  2.33245498  2.24434110
   6.67821442  8.93019125  2.39498858
   6.82185893  2.33061898  8.81698241
   2.18996672  6.76959679  0.01335609
   2.30721538  2.25437155  4.44171791
   2.17103426  6.75871079  4.46528706
   2.26312901  2.23281823  2.21359406
   2.36949710  0.00422978  8.80719200
   0.02977534  2.29134552  0.08511552
   6.72001364  2.23133239  2.22903831
   6.66955975  0.01912395  0.07223410
   4.52552226  8.99875518  2.12727982
   8.79943351  4.36158987  2.18218012
   4.47375201  6.86907826  0.08847017
   8.75433713  8.92611463  6.51964368
   6.79747779  2.03598236  6.62166850
   6.63065258  8.91336463  4.54861334
   4.52182556  2.02587712  4.38140387
   4.35321499 -0.00498524  6.54574162
   8.89262379  8.94418199  2.32530516
   4.55397268  2.22359926  8.87402949
   2.25094170  6.76105156  2.22888725
   2.21732405  4.50099900  8.83352978
   0.00888070  6.71978335  0.11306081
   6.73026574  6.67768362  2.25478933
   6.74701778  4.57088820  0.01267023
   4.53042211  4.54699972  2.30835733
   2.29055862  2.27717540  6.63455768
   2.24479137 -0.00639463  4.51246045
   8.86856971  2.14443930  4.48656502
   2.15726137  6.82457657  6.67501363
   2.31782658  4.50526025  4.46016669
   8.81408086  6.82299816  4.45709056
   8.84438711  4.37556871  6.74301255
   6.69121632  6.71145726  6.59733011
   6.59243553  4.55510976  4.45332255
   4.49232672  6.72081980  4.42163587
   4.52856381  4.51472099  6.54984511
   4.65934411  0.10700804  8.71793011
   8.91750172  4.62688982  8.76886389
   4.53248064  6.68029097  2.30065119
   2.00022267  0.14221363  6.61286525
   4.39232739  8.81675310  4.33327449
   6.60517910  8.79988111  6.75613359
   8.87186820  6.99869383  2.34013504
   6.60951791  4.63873045  2.34812280
   0.19266408 -0.00631540  4.48195071
   4.47745919  4.78227634  4.42998253
   6.54844281  4.76905269  6.55694659
   6.77615255  6.64031737  4.39150068
 


--------------------------------------------------------------------------------------------------------


 k-point     1 :   0.0000 0.0000 0.0000  plane waves:   12959
 k-point     2 :   0.3333 0.0000-0.0000  plane waves:   12900
 k-point     3 :   0.0000 0.3333 0.0000  plane waves:   12917
 k-point     4 :   0.3333 0.3333 0.0000  plane waves:   12897
 k-point     5 :  -0.3333 0.3333-0.0000  plane waves:   12896
 k-point     6 :  -0.0000-0.0000 0.3333  plane waves:   12895
 k-point     7 :   0.3333-0.0000 0.3333  plane waves:   12891
 k-point     8 :  -0.3333 0.0000 0.3333  plane waves:   12899
 k-point     9 :  -0.0000 0.3333 0.3333  plane waves:   12898
 k-point    10 :   0.3333 0.3333 0.3333  plane waves:   12900
 k-point    11 :  -0.3333 0.3333 0.3333  plane waves:   12892
 k-point    12 :  -0.0000-0.3333 0.3333  plane waves:   12897
 k-point    13 :   0.3333-0.3333 0.3333  plane waves:   12894
 k-point    14 :  -0.3333-0.3333 0.3333  plane waves:   12897

 maximum and minimum number of plane-waves per node :     12959    12891

 maximum number of plane-waves:     12959
 maximum index in each direction: 
   IXMAX=   14   IYMAX=   15   IZMAX=   14
   IXMIN=  -14   IYMIN=  -15   IZMIN=  -14


 serial   3D FFT for wavefunctions
 parallel 3D FFT for charge:
    minimum data exchange during FFTs selected (reduces bandwidth)


 total amount of memory used by VASP MPI-rank0   270971. kBytes
=======================================================================

   base      :      30000. kBytes
   nonl-proj :     196223. kBytes
   fftplans  :       1680. kBytes
   grid      :       8060. kBytes
   one-center:        995. kBytes
   wavefun   :      34013. kBytes
 
     INWAV:  cpu time      0.0000: real time      0.0003
 Broyden mixing: mesh for mixing (old mesh)
   NGX = 29   NGY = 29   NGZ = 29
  (NGX  = 96   NGY  = 96   NGZ  = 96)
  gives a total of  24389 points

 initial charge density was supplied:
 charge density of overlapping atoms calculated
 number of electron     481.0000000 magnetization 
 keeping initial charge density in first step


--------------------------------------------------------------------------------------------------------


 Maximum index for augmentation-charges          715 (set IRDMAX)


--------------------------------------------------------------------------------------------------------


 First call to EWALD:  gamma=   0.199
 Maximum number of real-space cells 3x 3x 3
 Maximum number of reciprocal cells 3x 3x 3

    FEWALD:  cpu time      0.0021: real time      0.0022


--------------------------------------- Ionic step        1  -------------------------------------------




--------------------------------------- Iteration      1(   1)  ---------------------------------------


    POTLOK:  cpu time      0.0263: real time      0.0446
    SETDIJ:  cpu time      0.0060: real time      0.0093
     EDDAV:  cpu time     19.6245: real time     19.7897
       DOS:  cpu time      0.0015: real time      0.0050
    --------------------------------------------
      LOOP:  cpu time     19.6584: real time     19.8487

 eigenvalue-minimisations  :  8624
 total energy-change (2. order) : 0.3933060E+04  (-0.2178650E+05)
 number of electron     481.0000000 magnetization 
 augmentation part      481.0000000 magnetization 

 Free energy of the ion-electron system (eV)
  ---------------------------------------------------
  alpha Z        PSCENC =      4327.04148618
  Ewald energy   TEWEN  =    -36747.67055802
  -Hartree energ DENC   =     -7433.52788111
  -exchange      EXHF   =         0.00000000
  -V(xc)+E(xc)   XCENC  =      1306.11579604
  PAW double counting   =     26193.00323009   -25606.18920132
  entropy T*S    EENTRO =        -0.07175759
  eigenvalues    EBANDS =        86.28300150
  atomic energy  EATOM  =     41808.07572539
  Solvation  Ediel_sol  =         0.00000000
  ---------------------------------------------------
  free energy    TOTEN  =      3933.05984116 eV

  energy without entropy =     3933.13159875  energy(sigma->0) =     3933.09571995


--------------------------------------------------------------------------------------------------------




--------------------------------------- Iteration      1(   2)  ---------------------------------------


     EDDAV:  cpu time     19.7434: real time     20.2290
       DOS:  cpu time      0.0009: real time      0.0009
    --------------------------------------------
      LOOP:  cpu time     19.7443: real time     20.2298

 eigenvalue-minimisations  :  8652
 total energy-change (2. order) :-0.4196814E+04  (-0.4025944E+04)
 number of electron     481.0000000 magnetization 
 augmentation part      481.0000000 magnetization 

 Free energy of the ion-electron system (eV)
  ---------------------------------------------------
  alpha Z        PSCENC =      4327.04148618
  Ewald energy   TEWEN  =    -36747.67055802
  -Hartree energ DENC   =     -7433.52788111
  -exchange      EXHF   =         0.00000000
  -V(xc)+E(xc)   XCENC  =      1306.11579604
  PAW double counting   =     26193.00323009   -25606.18920132
  entropy T*S    EENTRO =        -0.09937865
  eigenvalues    EBANDS =     -4110.50375719
  atomic energy  EATOM  =     41808.07572539
  Solvation  Ediel_sol  =         0.00000000
  ---------------------------------------------------
  free energy    TOTEN  =      -263.75453858 eV

  energy without entropy =     -263.65515993  energy(sigma->0) =     -263.70484926


--------------------------------------------------------------------------------------------------------




--------------------------------------- Iteration      1(   3)  ---------------------------------------


     EDDAV:  cpu time     26.5506: real time     26.7652
       DOS:  cpu time      0.0009: real time      0.0009
    --------------------------------------------
      LOOP:  cpu time     26.5515: real time     26.7660

 eigenvalue-minimisations  : 12124
 total energy-change (2. order) :-0.4883078E+03  (-0.4722111E+03)
 number of electron     481.0000000 magnetization 
 augmentation part      481.0000000 magnetization 

 Free energy of the ion-electron system (eV)
  ---------------------------------------------------
  alpha Z        PSCENC =      4327.04148618
  Ewald energy   TEWEN  =    -36747.67055802
  -Hartree energ DENC   =     -7433.52788111
  -exchange      EXHF   =         0.00000000
  -V(xc)+E(xc)   XCENC  =      1306.11579604
  PAW double counting   =     26193.00323009   -25606.18920132
  entropy T*S    EENTRO =        -0.10352383
  eigenvalues    EBANDS =     -4598.80737614
  atomic energy  EATOM  =     41808.07572539
  Solvation  Ediel_sol  =         0.00000000
  ---------------------------------------------------
  free energy    TOTEN  =      -752.06230272 eV

  energy without entropy =     -751.95877888  energy(sigma->0) =     -752.01054080


--------------------------------------------------------------------------------------------------------




--------------------------------------- Iteration      1(   4)  ---------------------------------------


     EDDAV:  cpu time     29.9795: real time     30.1567
       DOS:  cpu time      0.0009: real time      0.0009
    --------------------------------------------
      LOOP:  cpu time     29.9803: real time     30.1576

 eigenvalue-minimisations  : 13972
 total energy-change (2. order) :-0.2951194E+02  (-0.2919854E+02)
 number of electron     481.0000000 magnetization 
 augmentation part      481.0000000 magnetization 

 Free energy of the ion-electron system (eV)
  ---------------------------------------------------
  alpha Z        PSCENC =      4327.04148618
  Ewald energy   TEWEN  =    -36747.67055802
  -Hartree energ DENC   =     -7433.52788111
  -exchange      EXHF   =         0.00000000
  -V(xc)+E(xc)   XCENC  =      1306.11579604
  PAW double counting   =     26193.00323009   -25606.18920132
  entropy T*S    EENTRO =        -0.10825862
  eigenvalues    EBANDS =     -4628.31458617
  atomic energy  EATOM  =     41808.07572539
  Solvation  Ediel_sol  =         0.00000000
  ---------------------------------------------------
  free energy    TOTEN  =      -781.57424754 eV

  energy without entropy =     -781.46598892  energy(sigma->0) =     -781.52011823


--------------------------------------------------------------------------------------------------------




--------------------------------------- Iteration      1(   5)  ---------------------------------------


     EDDAV:  cpu time     29.3776: real time     29.5597
       DOS:  cpu time      0.0009: real time      0.0009
    CHARGE:  cpu time      0.1651: real time      0.1692
    MIXING:  cpu time      0.0023: real time      0.0063
    --------------------------------------------
      LOOP:  cpu time     29.5459: real time     29.7360

 eigenvalue-minimisations  : 13440
 total energy-change (2. order) :-0.1242592E+01  (-0.1238637E+01)
 number of electron     480.9999902 magnetization 
 augmentation part       91.9156412 magnetization 

 Broyden mixing:
  rms(total) = 0.64723E+01    rms(broyden)= 0.64711E+01
  rms(prec ) = 0.10166E+02
  weight for this iteration     100.00

 Free energy of the ion-electron system (eV)
  ---------------------------------------------------
  alpha Z        PSCENC =      4327.04148618
  Ewald energy   TEWEN  =    -36747.67055802
  -Hartree energ DENC   =     -7433.52788111
  -exchange      EXHF   =         0.00000000
  -V(xc)+E(xc)   XCENC  =      1306.11579604
  PAW double counting   =     26193.00323009   -25606.18920132
  entropy T*S    EENTRO =        -0.10830788
  eigenvalues    EBANDS =     -4629.55712857
  atomic energy  EATOM  =     41808.07572539
  Solvation  Ediel_sol  =         0.00000000
  ---------------------------------------------------
  free energy    TOTEN  =      -782.81683920 eV

  energy without entropy =     -782.70853131  energy(sigma->0) =     -782.76268526


--------------------------------------------------------------------------------------------------------




--------------------------------------- Iteration      1(   6)  ---------------------------------------


    POTLOK:  cpu time      0.0193: real time      0.0198
    SETDIJ:  cpu time      0.0054: real time      0.0054
    EDDIAG:  cpu time      1.3448: real time      1.3548
  RMM-DIIS:  cpu time     17.6740: real time     17.7869
    ORTHCH:  cpu time      0.3959: real time      0.3983
       DOS:  cpu time      0.0009: real time      0.0009
    CHARGE:  cpu time      0.1579: real time      0.1587
    MIXING:  cpu time      0.0012: real time      0.0022
    --------------------------------------------
      LOOP:  cpu time     19.5994: real time     19.7269

 eigenvalue-minimisations  : 11702
 total energy-change (2. order) : 0.5730062E+02  (-0.1190710E+03)
 number of electron     480.9999912 magnetization 
 augmentation part      114.0119171 magnetization 

 Broyden mixing:
  rms(total) = 0.73956E+01    rms(broyden)= 0.73924E+01
  rms(prec ) = 0.12531E+02
  weight for this iteration     100.00

 eigenvalues of (default mixing * dielectric matrix)
  average eigenvalue GAMMA=   0.4590
  0.4590

 Free energy of the ion-electron system (eV)
  ---------------------------------------------------
  alpha Z        PSCENC =      4327.04148618
  Ewald energy   TEWEN  =    -36747.67055802
  -Hartree energ DENC   =     -6993.87792410
  -exchange      EXHF   =         0.00000000
  -V(xc)+E(xc)   XCENC  =      1306.92037993
  PAW double counting   =     25766.14020593   -25225.43385978
  entropy T*S    EENTRO =        -0.10922978
  eigenvalues    EBANDS =     -4966.60244000
  atomic energy  EATOM  =     41808.07572539
  Solvation  Ediel_sol  =         0.00000000
  ---------------------------------------------------
  free energy    TOTEN  =      -725.51621426 eV

  energy without entropy =     -725.40698448  energy(sigma->0) =     -725.46159937


--------------------------------------------------------------------------------------------------------




--------------------------------------- Iteration      1(   7)  ---------------------------------------


    POTLOK:  cpu time      0.0227: real time      0.0227
    SETDIJ:  cpu time      0.0053: real time      0.0053
    EDDIAG:  cpu time      1.3769: real time      1.4105
  RMM-DIIS:  cpu time     15.0604: real time     15.2120
    ORTHCH:  cpu time      0.3390: real time      0.3401
       DOS:  cpu time      0.0008: real time      0.0008
    CHARGE:  cpu time      0.1623: real time      0.1638
    MIXING:  cpu time      0.0010: real time      0.0010
    --------------------------------------------
      LOOP:  cpu time     16.9685: real time     17.1562

 eigenvalue-minimisations  : 10000
 total energy-change (2. order) : 0.4837653E+02  (-0.1774132E+02)
 number of electron     480.9999907 magnetization 
 augmentation part       96.8965485 magnetization 

 Broyden mixing:
  rms(total) = 0.35899E+01    rms(broyden)= 0.35851E+01
  rms(prec ) = 0.66589E+01
  weight for this iteration     100.00

 eigenvalues of (default mixing * dielectric matrix)
  average eigenvalue GAMMA=   0.5431
  0.7903  0.2959

 Free energy of the ion-electron system (eV)
  ---------------------------------------------------
  alpha Z        PSCENC =      4327.04148618
  Ewald energy   TEWEN  =    -36747.67055802
  -Hartree energ DENC   =     -7312.14759287
  -exchange      EXHF   =         0.00000000
  -V(xc)+E(xc)   XCENC  =      1315.96369621
[...]
 -0.017   0.035   0.008   0.000  -0.001  -0.053   0.019   0.015  -0.000  -0.585  -0.002  -0.011  -0.015  -0.006   0.987   0.003
 -0.049   0.092  -0.000  -0.010   0.008  -0.055   0.034  -0.087  -0.015  -0.002  -1.006  -0.011  -0.011   0.011   0.003   2.431
 -0.016   0.035  -0.001  -0.003   0.000   0.014   0.004   0.026   0.008  -0.011  -0.011  -0.632   0.025  -0.007   0.022   0.067
  0.011  -0.015   0.004  -0.001  -0.019  -0.117   0.027   0.159  -0.006  -0.015  -0.011   0.026  -1.067  -0.012   0.028  -0.072


------------------------ aborting loop because EDIFF is reached ----------------------------------------


    CHARGE:  cpu time      0.1623: real time      0.1658
    FORLOC:  cpu time      0.0080: real time      0.0080
    FORNL :  cpu time      6.3369: real time      6.4226
    STRESS:  cpu time     26.4162: real time     26.8420
    FORCOR:  cpu time      0.0191: real time      0.0193
    FORHAR:  cpu time      0.0100: real time      0.0100
    MIXING:  cpu time      0.0009: real time      0.0009
    OFIELD:  cpu time      0.0001: real time      0.0001

  FORCE on cell =-STRESS in cart. coord.  units (eV):
  Direction    XX          YY          ZZ          XY          YZ          ZX
  --------------------------------------------------------------------------------------
  Alpha Z  4325.69930  4325.69930  4325.69930
  Ewald  -12057.78590-12755.03339-11931.97992    97.61937   129.15507    19.06406
  Hartree  2497.15685  1989.95510  2579.64973   105.28619   127.39635   -13.96183
  E(xc)   -2123.88798 -2123.96651 -2123.63523    -0.15837    -0.19017    -0.29809
  Local    1812.79397  3000.29706  1616.26746  -206.38254  -258.38593    -6.07414
  n-local -2078.43980 -2087.60259 -2076.18873     0.57067    -1.22924    -0.34895
  augment   702.83126   704.61994   699.94701     0.90707     0.46040     0.30703
  Kinetic  6921.26164  6945.65409  6909.85670     2.16974     2.79126     1.31425
  Fock        0.00000     0.00000     0.00000     0.00000     0.00000     0.00000
  -------------------------------------------------------------------------------------
  Total      -0.37066    -0.37699    -0.38368     0.01213    -0.00227     0.00234
  in kB      -0.83607    -0.85034    -0.86545     0.02737    -0.00511     0.00528
  external pressure =       -0.85 kB  Pullay stress =        0.00 kB


 VOLUME and BASIS-vectors are now :
 -----------------------------------------------------------------------------
  energy-cutoff  :      400.00
  volume of cell :      710.30
      direct lattice vectors                 reciprocal lattice vectors
     8.889066706  0.004021104  0.018241110     0.112499111 -0.000122244 -0.000636622
     0.009749189  9.009539997 -0.007207767    -0.000050794  0.110993741  0.000284749
     0.050166056 -0.022730876  8.869339592    -0.000231412  0.000090452  0.112749507

  length of vectors
     8.889086332  9.009548155  8.869510591     0.112500979  0.110994118  0.112749781


 FORCES acting on ions
    electron-ion (+dipol)            ewald-force                    non-local-force                 convergence-correction
 -----------------------------------------------------------------------------------------------
   -.602E+01 -.660E+02 0.565E+01   0.561E+01 0.647E+02 -.469E+01   0.406E+00 0.137E+01 -.954E+00   0.633E-02 -.115E-03 -.309E-02
   0.448E+02 -.107E+03 0.889E+02   -.455E+02 0.106E+03 -.878E+02   0.669E+00 0.161E+01 -.105E+01   -.123E-01 -.853E-02 0.890E-02
   0.671E+02 0.102E+03 0.499E+02   -.672E+02 -.101E+03 -.495E+02   0.696E-01 -.153E+01 -.346E+00   -.209E-01 0.617E-02 -.130E-01
   0.845E+02 0.508E+02 0.517E+02   -.842E+02 -.529E+02 -.517E+02   -.341E+00 0.212E+01 0.409E-01   -.684E-02 -.454E-02 -.256E-01
   0.374E+02 -.138E+03 -.486E+01   -.375E+02 0.138E+03 0.544E+01   0.613E-01 -.848E+00 -.594E+00   0.901E-02 -.186E-01 0.101E-01
   -.167E+03 0.179E+03 -.131E+03   0.166E+03 -.178E+03 0.131E+03   0.338E+00 -.929E+00 -.395E+00   0.826E-02 -.273E-02 0.246E-01
   0.152E+03 0.774E+02 -.134E+03   -.152E+03 -.785E+02 0.133E+03   0.432E+00 0.109E+01 0.797E+00   -.939E-03 0.211E-01 0.169E-01
   -.122E+02 -.442E+02 0.277E+02   0.114E+02 0.436E+02 -.267E+02   0.771E+00 0.643E+00 -.102E+01   0.466E-02 -.146E-01 0.767E-02
   -.871E+01 -.110E+02 0.428E+01   0.100E+02 0.906E+01 -.437E+01   -.133E+01 0.192E+01 0.106E+00   0.288E-02 0.622E-02 -.863E-02
   0.176E+02 -.108E+03 -.391E+02   -.171E+02 0.109E+03 0.371E+02   -.497E+00 -.870E+00 0.198E+01   -.364E-02 -.691E-02 -.522E-02
   -.434E+02 0.499E+02 -.295E+02   0.440E+02 -.478E+02 0.295E+02   -.644E+00 -.203E+01 -.255E-01   0.110E-01 -.182E-01 0.174E-01
   -.674E+02 0.328E+02 -.306E+02   0.683E+02 -.343E+02 0.302E+02   -.832E+00 0.152E+01 0.439E+00   0.218E-03 0.351E-02 -.522E-02
   0.916E+02 0.115E+02 -.286E+02   -.902E+02 -.120E+02 0.282E+02   -.136E+01 0.516E+00 0.446E+00   -.950E-02 -.306E-02 0.804E-02
   0.521E+02 -.927E+02 0.262E+02   -.517E+02 0.942E+02 -.266E+02   -.372E+00 -.146E+01 0.389E+00   -.460E-03 -.924E-02 -.856E-02
   0.160E+02 0.168E+01 0.325E+02   -.157E+02 0.427E+00 -.330E+02   -.263E+00 -.207E+01 0.494E+00   -.100E-01 -.317E-01 -.996E-02
   -.432E+02 -.154E+03 0.867E+02   0.441E+02 0.152E+03 -.854E+02   -.934E+00 0.162E+01 -.127E+01   0.113E-01 0.152E-02 0.744E-02
   -.759E+02 -.330E+02 -.229E+01   0.754E+02 0.351E+02 0.169E+01   0.520E+00 -.213E+01 0.626E+00   0.657E-03 -.106E-01 -.242E-01
   0.350E+02 0.734E+02 0.883E+02   -.357E+02 -.745E+02 -.881E+02   0.677E+00 0.109E+01 -.210E+00   -.451E-02 0.103E-01 0.198E-02
   0.820E+02 -.121E+03 -.274E+02   -.821E+02 0.122E+03 0.281E+02   0.415E-01 -.868E+00 -.638E+00   -.190E-01 -.268E-01 0.890E-02
   0.699E+02 0.107E+03 -.104E+03   -.707E+02 -.108E+03 0.104E+03   0.832E+00 0.552E+00 0.234E+00   -.296E-01 0.307E-01 -.143E-02
   0.572E+02 -.274E+02 0.197E+02   -.566E+02 0.282E+02 -.202E+02   -.586E+00 -.770E+00 0.482E+00   -.150E-03 -.805E-02 -.522E-03
   0.169E+02 -.124E+02 -.642E+01   -.168E+02 0.114E+02 0.799E+01   -.559E-01 0.101E+01 -.156E+01   0.391E-03 -.182E-03 -.164E-02
   -.120E+02 -.250E+02 0.295E+01   0.124E+02 0.257E+02 -.283E+01   -.353E+00 -.675E+00 -.112E+00   0.171E-02 -.499E-02 -.115E-01
   -.632E+02 0.210E+02 -.751E+01   0.618E+02 -.194E+02 0.417E+01   0.143E+01 -.163E+01 0.334E+01   -.424E-03 -.218E-01 0.277E-02
   -.502E+02 0.315E+01 -.529E+02   0.532E+02 -.292E+01 0.573E+02   -.302E+01 -.239E+00 -.438E+01   -.190E-02 0.429E-02 -.356E-02
   -.108E+02 -.555E+02 0.493E+02   0.102E+02 0.568E+02 -.515E+02   0.562E+00 -.137E+01 0.221E+01   -.240E-02 0.180E-02 -.189E-03
   -.436E+02 0.924E+02 0.301E+02   0.431E+02 -.910E+02 -.304E+02   0.428E+00 -.133E+01 0.348E+00   0.206E-01 0.678E-02 0.346E-03
   -.145E+02 0.201E+02 0.899E+01   0.146E+02 -.208E+02 -.102E+02   -.110E+00 0.755E+00 0.126E+01   -.596E-02 0.794E-02 -.598E-02
   0.153E+02 -.571E+01 -.693E+02   -.180E+02 0.384E+01 0.673E+02   0.272E+01 0.186E+01 0.198E+01   0.377E-02 0.776E-02 -.163E-01
   -.952E+02 -.617E+02 0.422E+02   0.961E+02 0.640E+02 -.418E+02   -.949E+00 -.236E+01 -.327E+00   0.604E-02 0.355E-03 -.351E-02
   -.358E+02 -.139E+03 -.299E+01   0.390E+02 0.141E+03 0.311E+01   -.318E+01 -.161E+01 -.123E+00   0.109E-01 0.997E-02 0.273E-02
   -.392E+02 -.503E+02 0.481E+01   0.392E+02 0.525E+02 -.416E+01   0.118E-01 -.219E+01 -.652E+00   0.182E-02 -.212E-01 0.514E-02
   0.445E+02 -.311E+02 -.460E+01   -.477E+02 0.316E+02 0.302E+01   0.318E+01 -.452E+00 0.158E+01   -.433E-03 0.207E-02 0.121E-02
   0.106E+02 -.126E+03 0.555E+02   -.105E+02 0.125E+03 -.555E+02   -.611E-01 0.117E+01 0.527E-01   0.267E-02 -.137E-01 0.113E-01
   0.199E+02 -.352E+02 -.154E+02   -.201E+02 0.376E+02 0.154E+02   0.173E+00 -.236E+01 0.198E-01   -.856E-03 -.597E-02 -.474E-02
   0.376E+01 0.245E+02 0.263E+02   -.504E+01 -.249E+02 -.263E+02   0.130E+01 0.454E+00 -.224E-01   -.123E-01 0.778E-02 -.689E-03
   0.705E+01 0.210E+02 0.639E+02   -.544E+01 -.209E+02 -.627E+02   -.161E+01 -.128E+00 -.122E+01   -.111E-02 0.229E-04 -.125E-02
   0.601E+01 -.105E+01 0.600E+02   -.451E+01 0.239E+01 -.583E+02   -.150E+01 -.136E+01 -.170E+01   0.564E-02 0.452E-02 0.632E-02
   -.760E+01 -.473E+02 0.123E+03   0.905E+01 0.470E+02 -.123E+03   -.146E+01 0.329E+00 -.400E+00   0.140E-01 0.240E-01 -.332E-02
   -.106E+02 0.109E+02 0.109E+02   0.896E+01 -.126E+02 -.108E+02   0.167E+01 0.166E+01 -.920E-01   0.120E-02 -.374E-02 -.236E-01
   0.626E+02 0.725E+02 0.581E+02   -.631E+02 -.745E+02 -.584E+02   0.545E+00 0.203E+01 0.361E+00   -.169E-01 -.376E-02 -.196E-01
   0.461E+02 -.943E+02 -.164E+02   -.448E+02 0.953E+02 0.164E+02   -.133E+01 -.965E+00 0.214E-01   -.582E-02 -.692E-02 0.361E-03
   -.164E+02 -.265E+02 0.202E+01   0.159E+02 0.263E+02 -.316E+01   0.567E+00 0.243E+00 0.113E+01   -.125E-01 -.496E-03 0.169E-02
   0.234E+02 -.603E+02 -.585E+01   -.230E+02 0.604E+02 0.623E+01   -.404E+00 -.107E+00 -.393E+00   -.103E-02 -.137E-01 0.111E-01
   0.582E+02 0.712E+02 -.209E+02   -.569E+02 -.712E+02 0.208E+02   -.128E+01 0.665E-02 0.123E+00   -.183E-02 0.700E-02 0.121E-03
   0.596E+02 0.375E+02 -.669E+02   -.601E+02 -.374E+02 0.656E+02   0.543E+00 -.374E-01 0.134E+01   -.213E-01 -.191E-02 0.183E-02
   -.741E+02 0.402E+02 -.952E+02   0.738E+02 -.401E+02 0.947E+02   0.293E+00 -.719E-01 0.586E+00   0.909E-02 0.154E-01 -.621E-02
   -.730E+02 0.507E+02 0.182E+02   0.719E+02 -.521E+02 -.194E+02   0.119E+01 0.145E+01 0.118E+01   -.777E-02 -.491E-02 -.206E-02
   -.754E+02 -.296E+02 -.856E+02   0.743E+02 0.285E+02 0.842E+02   0.117E+01 0.118E+01 0.134E+01   0.124E-02 -.668E-02 0.240E-02
   -.516E+02 0.142E+03 -.262E+02   0.519E+02 -.142E+03 0.265E+02   -.300E+00 -.727E+00 -.410E+00   0.218E-01 -.971E-02 0.298E-01
   0.566E+02 -.383E+02 -.302E+02   -.565E+02 0.370E+02 0.322E+02   -.458E-01 0.121E+01 -.201E+01   -.630E-02 0.291E-01 0.502E-02
   0.102E+03 0.555E+02 -.537E+02   -.100E+03 -.559E+02 0.540E+02   -.142E+01 0.380E+00 -.280E+00   0.122E-01 -.222E-02 0.197E-01
   0.503E+02 -.307E+02 -.862E+02   -.503E+02 0.321E+02 0.864E+02   0.283E-01 -.141E+01 -.149E+00   -.353E-02 0.346E-02 -.860E-02
   -.826E+02 0.971E+02 0.864E+02   0.827E+02 -.970E+02 -.860E+02   -.126E+00 -.108E+00 -.346E+00   0.600E-02 0.512E-03 -.209E-01
   0.834E+02 -.435E+02 0.188E+03   -.837E+02 0.417E+02 -.188E+03   0.307E+00 0.182E+01 0.236E+00   -.212E-01 0.459E-01 -.199E-01
   0.252E+02 -.208E+02 -.932E+02   -.252E+02 0.209E+02 0.923E+02   0.127E-01 -.504E-01 0.919E+00   -.135E-01 0.425E-02 -.140E-01
   0.854E+01 -.142E+03 0.121E+01   -.928E+01 0.141E+03 -.510E+00   0.746E+00 0.282E+00 -.698E+00   -.682E-02 0.115E-01 0.374E-02
   -.125E+03 -.800E+02 -.346E+02   0.126E+03 0.796E+02 0.325E+02   -.990E+00 0.396E+00 0.204E+01   0.752E-02 0.150E-01 -.697E-02
   -.760E+02 0.108E+03 0.154E+03   0.762E+02 -.107E+03 -.153E+03   -.187E+00 -.137E+01 -.120E+01   0.188E-01 0.348E-01 0.153E-01
   -.116E+03 0.232E+03 0.185E+03   0.116E+03 -.230E+03 -.184E+03   -.549E+00 -.188E+01 -.350E+00   0.265E-01 -.246E-02 -.105E-01
   0.773E+02 -.167E+03 -.820E+01   -.765E+02 0.165E+03 0.771E+01   -.803E+00 0.185E+01 0.486E+00   0.342E-02 -.499E-02 0.510E-02
   0.198E+03 0.286E+03 -.815E+02   -.199E+03 -.284E+03 0.815E+02   0.708E+00 -.140E+01 0.442E-01   -.108E-01 0.328E-02 0.325E-01
   -.180E+03 0.240E+03 -.174E+03   0.179E+03 -.238E+03 0.173E+03   0.154E+01 -.140E+01 0.885E+00   0.198E-01 -.115E-01 0.165E-01
   -.101E+03 -.799E+02 -.873E+02   0.103E+03 0.786E+02 0.870E+02   -.231E+01 0.120E+01 0.287E+00   0.415E-01 0.396E-01 0.217E-01
 -----------------------------------------------------------------------------------------------
   0.524E+01 0.532E+01 -.488E+01   0.199E-12 0.512E-12 -.369E-12   -.526E+01 -.538E+01 0.487E+01   0.185E-01 0.622E-01 0.182E-01
 
 
 POSITION                                       TOTAL-FORCE (eV/Angst)
 -----------------------------------------------------------------------------------
      8.92309      8.95976      8.82540         0.000493     -0.000212     -0.000238
      2.29280      8.99590      2.23883        -0.001186      0.000970     -0.001615
      2.18097      4.51656      2.22503         0.002269      0.000022     -0.000282
      4.53876      4.48908      8.86466         0.000334      0.000184      0.001105
      4.58671      2.18945      6.59792        -0.002267      0.001051      0.000299
      8.85595      4.50647      4.46428        -0.002951     -0.002632      0.000323
      4.43431      6.80910      6.67154         0.002390     -0.001354     -0.001040
      8.81777      2.04450      2.42072        -0.002097     -0.001206      0.000446
      6.89462      6.65106      8.81686         0.005467     -0.001831      0.001592
      0.15814      2.11061      6.48427         0.007778     -0.003619     -0.000179
      6.75796      2.46797      4.35891         0.002720      0.003824      0.000816
      8.89701      6.56482      6.74548        -0.000171     -0.003250      0.001864
      2.40653      4.44375      6.61792        -0.000142      0.004893     -0.000450
      2.23917      2.24757      8.83869         0.000224      0.000145     -0.002202
      4.56221      2.33274      2.24474         0.002604      0.000279      0.000328
      6.67955      8.93111      2.39521         0.000378     -0.000943     -0.001621
      6.82335      2.33070      8.81813        -0.001373     -0.001233      0.001010
      2.19045      6.77035      0.01335        -0.002409     -0.002089     -0.000249
      2.30794      2.25465      4.44205        -0.001234     -0.000044      0.003492
      2.17186      6.75934      4.46554         0.002996      0.000346      0.000177
      2.26370      2.23316      2.21374         0.001780      0.001322     -0.000897
      2.37061      0.00393      8.80790         0.001310     -0.000670     -0.000074
      0.02980      2.29175      0.08499        -0.000679      0.001764     -0.001786
      6.72117      2.23161      2.22963        -0.000504     -0.002455      0.001358
      6.67046      0.01914      0.07276        -0.001330     -0.001541     -0.002422
      4.52649      8.99981      2.12761         0.000006      0.000939      0.004681
      8.80061      4.36219      2.18267        -0.000993     -0.000197     -0.003233
      4.47463      6.87004      0.08871         0.000291      0.000811      0.001290
      8.75590      8.92717      6.52040        -0.002578      0.002525      0.001245
      6.79907      2.03620      6.62244        -0.002185      0.000664     -0.000446
      6.63221      8.91441      4.54930        -0.000370      0.001030     -0.000738
      4.52298      2.02608      4.38203         0.000459     -0.000697      0.000622
      4.35389     -0.00505      6.54663        -0.006705      0.000470      0.003320
      8.89421      8.94526      2.32593         0.000072     -0.002022     -0.000761
      4.55524      2.22372      8.87504        -0.000516     -0.000450      0.000211
      2.25153      6.76177      2.22901         0.000941      0.000626     -0.000554
      2.21837      4.50124      8.83413        -0.000301      0.000054     -0.000170
      0.00919      6.72054      0.11299        -0.003498     -0.004058     -0.003128
      6.73153      6.67851      2.25522        -0.002197     -0.001863      0.001111
      6.74798      4.57150      0.01313         0.000676      0.000053      0.001564
      4.53128      4.54747      2.30877         0.000459      0.000824     -0.000384
      2.29150      2.27742      6.63512        -0.001878      0.000303     -0.000099
      2.24536     -0.00646      4.51282        -0.001336      0.000853     -0.003238
      8.87021      2.14474      4.48750        -0.000414      0.000857      0.001986
      2.15822      6.82508      6.67545         0.000060     -0.001042     -0.000525
      2.31861      4.50573      4.46050        -0.000179      0.000499     -0.000377
      8.81576      6.82392      4.45789         0.000788     -0.000971     -0.000109
      8.84610      4.37584      6.74384         0.000028      0.001025      0.003363
      6.69279      6.71209      6.59795         0.000485     -0.000881      0.001820
      6.59369      4.55582      4.45394         0.001436      0.000107     -0.003571
      4.49360      6.72136      4.42220         0.000825     -0.003616     -0.002966
      4.52999      4.51505      6.55046         0.001670     -0.001268      0.000124
      4.66031      0.10672      8.71922         0.001777      0.001334      0.000419
      8.91965      4.62696      8.77032        -0.001777      0.005822     -0.003888
      4.53316      6.68116      2.30065        -0.000578     -0.003973      0.002170
      2.00133      0.14181      6.61369        -0.000788      0.000296     -0.001795
      4.39347      8.81777      4.33405        -0.001350     -0.003095      0.006628
      6.60656      8.80095      6.75650        -0.003955     -0.002243     -0.001580
      8.87356      6.99923      2.34058         0.001280      0.003242     -0.000780
      6.61072      4.63931      2.34829        -0.002382      0.004697     -0.001340
      0.19291     -0.00639      4.48216         0.003188      0.003806     -0.000087
      4.47859      4.78233      4.43042         0.002142      0.004290     -0.001107
      6.55013      4.76910      6.55796         0.000893      0.002182     -0.000877
      6.77758      6.64122      4.39232         0.002101     -0.002652      0.001443
 -----------------------------------------------------------------------------------
    total drift:                               -0.000594      0.000227      0.001238


--------------------------------------------------------------------------------------------------------



  FREE ENERGIE OF THE ION-ELECTRON SYSTEM (eV)
  ---------------------------------------------------
  free  energy   TOTEN  =      -650.09885953 eV

  energy  without entropy=     -649.98736391  energy(sigma->0) =     -650.04311172
 
 d Force = 0.4761343E-04[-0.468E-06, 0.957E-04]  d Energy = 0.4150237E-04 0.611E-05
 d Force = 0.7325391E+00[ 0.731E+00, 0.734E+00]  d Ewald  =-0.3073496E+01 0.381E+01


--------------------------------------------------------------------------------------------------------


    POTLOK:  cpu time      0.0281: real time      0.0281


--------------------------------------------------------------------------------------------------------


 Steepest descent step on ions:
 trial-energy change:   -0.000042  1 .order   -0.000022   -0.000160    0.000116
  (g-gl).g = 0.160E-03      g.g   = 0.160E-03  gl.gl    = 0.000E+00
 g(Force)  = 0.957E-04   g(Stress)= 0.641E-04 ortho     = 0.000E+00
 gamma     =   0.00000
 trial     =   1.00000
 opt step  =   0.57936  (harmonic =   0.57936) maximal distance =0.00030499
 next E    =  -650.098864   (d E  =  -0.00005)


--------------------------------------------------------------------------------------------------------


  
 reached required accuracy - stopping structural energy minimisation
     LOOP+:  cpu time    157.6576: real time    160.9231
    4ORBIT:  cpu time      0.0000: real time      0.0000

 total amount of memory used by VASP MPI-rank0   270971. kBytes
=======================================================================

   base      :      30000. kBytes
   nonl-proj :     196223. kBytes
   fftplans  :       1680. kBytes
   grid      :       8060. kBytes
   one-center:        995. kBytes
   wavefun   :      34013. kBytes
 
  
  
 General timing and accounting informations for this job:
 ========================================================
  
                  Total CPU time used (sec):      805.768
                            User time (sec):      802.202
                          System time (sec):        3.566
                         Elapsed time (sec):      815.673
  
                   Maximum memory used (kb):      361136.
                   Average memory used (kb):          N/A
  
                          Minor page faults:       227647
                          Major page faults:            0
                 Voluntary context switches:         1396
