<?xml version="1.0" encoding="ISO-8859-1"?>
<modeling>
 <generator>
  <i name="program" type="string">vasp </i>
  <i name="version" type="string">6.4.3  </i>
  <i name="subversion" type="string">19Mar24 (build Sep 18 2024 11:30:23) complex                          parallel </i>
  <i name="platform" type="string">LinuxIFC </i>
  <i name="date" type="string">2026 07 03 </i>
  <i name="time" type="string">23:35:01 </i>
 </generator>
 <incar>
  <i type="string" name="SYSTEM">HECN</i>
  <i type="int" name="ISTART">     0</i>
  <i type="string" name="PREC">Normal</i>
  <i type="string" name="ALGO">Fast</i>
  <i type="int" name="ICHARG">     2</i>
  <i type="int" name="NELM">    60</i>
  <i type="int" name="IBRION">     2</i>
  <i name="EDIFF">      0.00001000</i>
  <i name="EDIFFG">     -0.01000000</i>
  <i type="int" name="NSW">   100</i>
  <i type="int" name="ISIF">     3</i>
  <i name="ENCUT">    400.00000000</i>
  <i name="POTIM">      0.50000000</i>
  <i type="logical" name="LREAL"> F  </i>
  <i type="int" name="ISMEAR">     0</i>
  <i name="SIGMA">      0.10000000</i>
  <i type="logical" name="LWAVE"> F  </i>
  <i type="logical" name="LCHARG"> F  </i>
 </incar>
 <primitive_cell>
  <structure name="primitive_cell" >
   <crystal>
    <varray name="basis" >
     <v>       8.88789548       0.00380392       0.01757174 </v>
     <v>       0.00952817       9.00858563      -0.00692470 </v>
     <v>       0.04949332      -0.02245083       8.86868996 </v>
    </varray>
    <i name="volume">    710.08311555 </i>
    <varray name="rec_basis" >
     <v>       0.11251387      -0.00011949      -0.00062821 </v>
     <v>      -0.00004807       0.11100548       0.00028128 </v>
     <v>      -0.00022296       0.00008691       0.11275769 </v>
    </varray>
   </crystal>
   <varray name="positions" >
    <v>       0.99711859       0.99652708       0.99378978 </v>
    <v>       0.25542320       0.99899546       0.25273928 </v>
    <v>       0.24338337       0.50184096       0.25078005 </v>
    <v>       0.50441953       0.50054881       0.99883725 </v>
    <v>       0.51155145       0.24463833       0.74304458 </v>
    <v>       0.99289048       0.50101818       0.50171022 </v>
    <v>       0.49378026       0.75746060       0.75179826 </v>
    <v>       0.99018034       0.22715300       0.27111699 </v>
    <v>       0.76924258       0.74036622       0.99307535 </v>
    <v>       0.01341223       0.23611790       0.73119302 </v>
    <v>       0.75721537       0.27483779       0.49009056 </v>
    <v>       0.99580036       0.73010805       0.75911628 </v>
    <v>       0.26598424       0.49495202       0.74601231 </v>
    <v>       0.24599398       0.25186791       0.99623738 </v>
    <v>       0.51153984       0.25932732       0.25225239 </v>
    <v>       0.74882015       0.99165286       0.26934050 </v>
    <v>       0.76173637       0.26086359       0.99286409 </v>
    <v>       0.24558436       0.75136086       0.00160607 </v>
    <v>       0.25653404       0.25138605       0.50051935 </v>
    <v>       0.24065877       0.75140559       0.50359879 </v>
    <v>       0.25297601       0.24836892       0.24928921 </v>
    <v>       0.26106804       0.00283288       0.99255067 </v>
    <v>       0.00302288       0.25437443       0.00978993 </v>
    <v>       0.75442781       0.24799411       0.25003681 </v>
    <v>       0.75037030       0.00182261       0.00665954 </v>
    <v>       0.50677241       0.99929200       0.23964021 </v>
    <v>       0.98816629       0.48435124       0.24447470 </v>
    <v>       0.50248280       0.76231521       0.00957520 </v>
    <v>       0.97982210       0.99226071       0.73396383 </v>
    <v>       0.76040747       0.22754100       0.74530539 </v>
    <v>       0.74211787       0.99039306       0.51218740 </v>
    <v>       0.50577359       0.22589851       0.49320484 </v>
    <v>       0.48568557       0.00107853       0.73711166 </v>
    <v>       0.99801402       0.99307987       0.26099064 </v>
    <v>       0.50654467       0.24910887       0.99979294 </v>
    <v>       0.25105410       0.75103254       0.25140990 </v>
    <v>       0.24339262       0.50201365       0.99594520 </v>
    <v>       0.00012526       0.74596418       0.01333051 </v>
    <v>       0.75503386       0.74157023       0.25332459 </v>
    <v>       0.75857895       0.50707292       0.00032158 </v>
    <v>       0.50774188       0.50517343       0.25967010 </v>
    <v>       0.25327965       0.25453500       0.74778459 </v>
    <v>       0.24973617       0.00045151       0.50831355 </v>
    <v>       0.99476236       0.23888021       0.50410371 </v>
    <v>       0.23771309       0.75933925       0.75277125 </v>
    <v>       0.25744741       0.50125172       0.50279285 </v>
    <v>       0.98809110       0.75822023       0.50119900 </v>
    <v>       0.99035738       0.48718366       0.75873482 </v>
    <v>       0.74790821       0.74654261       0.74299109 </v>
    <v>       0.73839854       0.50657791       0.50107237 </v>
    <v>       0.50186831       0.74707563       0.49815592 </v>
    <v>       0.50487213       0.50278343       0.73792807 </v>
    <v>       0.51875138       0.01410667       0.98198409 </v>
    <v>       0.99728110       0.51564799       0.98717067 </v>
    <v>       0.50772344       0.74197819       0.25898612 </v>
    <v>       0.22088155       0.01755039       0.74521779 </v>
    <v>       0.49042207       0.97971567       0.48839695 </v>
    <v>       0.73787853       0.97841792       0.76109809 </v>
    <v>       0.99590187       0.77712519       0.26249837 </v>
    <v>       0.74163305       0.51526730       0.26369837 </v>
    <v>       0.01886255       0.00055036       0.50533090 </v>
    <v>       0.50042189       0.53188973       0.49893191 </v>
    <v>       0.73210167       0.53092056       0.73830056 </v>
    <v>       0.75885894       0.73802117       0.49424174 </v>
   </varray>
  </structure>
  <varray name="primitive_index" >
   <v type="int" >        1 </v>
   <v type="int" >        2 </v>
   <v type="int" >        3 </v>
   <v type="int" >        4 </v>
   <v type="int" >        5 </v>
   <v type="int" >        6 </v>
   <v type="int" >        7 </v>
   <v type="int" >        8 </v>
   <v type="int" >        9 </v>
   <v type="int" >       10 </v>
   <v type="int" >       11 </v>
   <v type="int" >       12 </v>
   <v type="int" >       13 </v>
   <v type="int" >       14 </v>
   <v type="int" >       15 </v>
   <v type="int" >       16 </v>
   <v type="int" >       17 </v>
   <v type="int" >       18 </v>
   <v type="int" >       19 </v>
   <v type="int" >       20 </v>
   <v type="int" >       21 </v>
   <v type="int" >       22 </v>
   <v type="int" >       23 </v>
   <v type="int" >       24 </v>
   <v type="int" >       25 </v>
   <v type="int" >       26 </v>
   <v type="int" >       27 </v>
   <v type="int" >       28 </v>
   <v type="int" >       29 </v>
   <v type="int" >       30 </v>
   <v type="int" >       31 </v>
   <v type="int" >       32 </v>
   <v type="int" >       33 </v>
   <v type="int" >       34 </v>
   <v type="int" >       35 </v>
   <v type="int" >       36 </v>
   <v type="int" >       37 </v>
   <v type="int" >       38 </v>
   <v type="int" >       39 </v>
   <v type="int" >       40 </v>
   <v type="int" >       41 </v>
   <v type="int" >       42 </v>
   <v type="int" >       43 </v>
   <v type="int" >       44 </v>
   <v type="int" >       45 </v>
   <v type="int" >       46 </v>
   <v type="int" >       47 </v>
   <v type="int" >       48 </v>
   <v type="int" >       49 </v>
   <v type="int" >       50 </v>
   <v type="int" >       51 </v>
   <v type="int" >       52 </v>
   <v type="int" >       53 </v>
   <v type="int" >       54 </v>
   <v type="int" >       55 </v>
   <v type="int" >       56 </v>
   <v type="int" >       57 </v>
   <v type="int" >       58 </v>
   <v type="int" >       59 </v>
   <v type="int" >       60 </v>
   <v type="int" >       61 </v>
   <v type="int" >       62 </v>
   <v type="int" >       63 </v>
   <v type="int" >       64 </v>
  </varray>
 </primitive_cell>
 <kpoints>
  <generation param="Gamma">
   <v type="int" name="divisions">       3        3        3 </v>
   <v name="usershift">      0.00000000       0.00000000       0.00000000 </v>
   <v name="genvec1">      0.33333333       0.00000000       0.00000000 </v>
   <v name="genvec2">      0.00000000       0.33333333      -0.00000000 </v>
   <v name="genvec3">     -0.00000000      -0.00000000       0.33333333 </v>
   <v name="shift">      0.00000000       0.00000000       0.00000000 </v>
  </generation>
  <varray name="kpointlist" >
   <v>       0.00000000       0.00000000       0.00000000 </v>
   <v>       0.33333333       0.00000000      -0.00000000 </v>
   <v>       0.00000000       0.33333333       0.00000000 </v>
   <v>       0.33333333       0.33333333       0.00000000 </v>
   <v>      -0.33333333       0.33333333      -0.00000000 </v>
   <v>      -0.00000000      -0.00000000       0.33333333 </v>
   <v>       0.33333333      -0.00000000       0.33333333 </v>
   <v>      -0.33333333       0.00000000       0.33333333 </v>
   <v>      -0.00000000       0.33333333       0.33333333 </v>
   <v>       0.33333333       0.33333333       0.33333333 </v>
   <v>      -0.33333333       0.33333333       0.33333333 </v>
   <v>      -0.00000000      -0.33333333       0.33333333 </v>
   <v>       0.33333333      -0.33333333       0.33333333 </v>
   <v>      -0.33333333      -0.33333333       0.33333333 </v>
  </varray>
  <varray name="weights" >
   <v>       0.03703704 </v>
   <v>       0.07407407 </v>
   <v>       0.07407407 </v>
   <v>       0.07407407 </v>
   <v>       0.07407407 </v>
   <v>       0.07407407 </v>
   <v>       0.07407407 </v>
   <v>       0.07407407 </v>
   <v>       0.07407407 </v>
   <v>       0.07407407 </v>
   <v>       0.07407407 </v>
   <v>       0.07407407 </v>
   <v>       0.07407407 </v>
   <v>       0.07407407 </v>
  </varray>
 </kpoints>
 <parameters>
  <separator name="general" >
   <i type="string" name="SYSTEM">HECN</i>
   <i type="logical" name="LCOMPAT"> F  </i>
  </separator>
  <separator name="electronic" >
   <i type="string" name="PREC">normal</i>
   <i name="ENMAX">    400.00000000</i>
   <i name="ENAUG">    644.87300000</i>
   <i name="EDIFF">      0.00001000</i>
   <i type="int" name="IALGO">    68</i>
   <i type="int" name="IWAVPR">    11</i>
   <i type="int" name="NBANDS">   308</i>
   <i type="int" name="NBANDSLOW">    -1</i>
   <i type="int" name="NBANDSHIGH">    -1</i>
   <i name="NELECT">    481.00000000</i>
   <i type="int" name="TURBO">     0</i>
   <i type="int" name="IRESTART">     0</i>
   <i type="int" name="NREBOOT">     0</i>
   <i type="int" name="NMIN">     0</i>
   <i name="EREF">      0.00000000</i>
   <separator name="electronic smearing" >
    <i type="int" name="ISMEAR">     0</i>
    <i name="SIGMA">      0.10000000</i>
    <i name="KSPACING">      0.50000000</i>
    <i type="logical" name="KGAMMA"> T  </i>
    <i type="logical" name="KBLOWUP"> T  </i>
   </separator>
   <separator name="electronic projectors" >
    <i type="logical" name="LREAL"> F  </i>
    <v name="ROPT">      0.00000000      0.00000000      0.00000000      0.00000000      0.00000000      0.00000000      0.00000000</v>
    <i type="int" name="LMAXPAW">  -100</i>
    <i type="int" name="LMAXMIX">     2</i>
    <i type="logical" name="NLSPLINE"> F  </i>
   </separator>
   <separator name="electronic startup" >
    <i type="int" name="ISTART">     0</i>
    <i type="int" name="ICHARG">     2</i>
    <i type="int" name="INIWAV">     1</i>
   </separator>
   <separator name="electronic spin" >
    <i type="int" name="ISPIN">     1</i>
    <i type="logical" name="LNONCOLLINEAR"> F  </i>
    <v name="MAGMOM">      1.00000000      1.00000000      1.00000000      1.00000000      1.00000000      1.00000000      1.00000000      1.00000000      1.00000000      1.00000000      1.00000000      1.00000000      1.00000000      1.00000000      1.00000000      1.00000000      1.00000000      1.00000000      1.00000000      1.00000000
      1.00000000      1.00000000      1.00000000      1.00000000      1.00000000      1.00000000      1.00000000      1.00000000      1.00000000      1.00000000      1.00000000      1.00000000      1.00000000      1.00000000      1.00000000      1.00000000      1.00000000      1.00000000      1.00000000      1.00000000
      1.00000000      1.00000000      1.00000000      1.00000000      1.00000000      1.00000000      1.00000000      1.00000000      1.00000000      1.00000000      1.00000000      1.00000000      1.00000000      1.00000000      1.00000000      1.00000000      1.00000000      1.00000000      1.00000000      1.00000000
      1.00000000      1.00000000      1.00000000      1.00000000</v>
    <i name="NUPDOWN">     -1.00000000</i>
    <i type="logical" name="LSORBIT"> F  </i>
    <v name="SAXIS">      0.00000000      0.00000000      1.00000000</v>
    <i type="logical" name="LSPIRAL"> F  </i>
    <v name="QSPIRAL">      0.00000000      0.00000000      0.00000000</v>
    <i type="logical" name="LZEROZ"> F  </i>
   </separator>
   <separator name="electronic exchange-correlation" >
    <i type="logical" name="LASPH"> F  </i>
   </separator>
   <separator name="electronic convergence" >
    <i type="int" name="NELM">    60</i>
    <i type="int" name="NELMDL">    -5</i>
    <i type="int" name="NELMIN">     2</i>
    <i name="ENINI">    400.00000000</i>
    <separator name="electronic convergence detail" >
     <i type="logical" name="LDIAG"> T  </i>
     <i type="logical" name="LSUBROT"> F  </i>
     <i name="WEIMIN">      0.00100000</i>
     <i name="EBREAK">      0.00000001</i>
     <i name="DEPER">      0.30000000</i>
     <i type="int" name="NRMM">     4</i>
     <i name="TIME">      0.40000000</i>
    </separator>
   </separator>
   <separator name="electronic mixer" >
    <i name="AMIX">      0.40000000</i>
    <i name="BMIX">      1.00000000</i>
    <i name="AMIN">      0.10000000</i>
    <i name="AMIX_MAG">      1.60000000</i>
    <i name="BMIX_MAG">      1.00000000</i>
    <separator name="electronic mixer details" >
     <i type="int" name="IMIX">     4</i>
     <i type="logical" name="MIXFIRST"> F  </i>
     <i type="int" name="MAXMIX">   -45</i>
     <i name="WC">    100.00000000</i>
     <i type="int" name="INIMIX">     1</i>
     <i type="int" name="MIXPRE">     1</i>
     <i type="int" name="MREMOVE">     5</i>
    </separator>
   </separator>
   <separator name="electronic dipolcorrection" >
    <i type="logical" name="LDIPOL"> F  </i>
    <i type="logical" name="LMONO"> F  </i>
    <i type="int" name="IDIPOL">     0</i>
    <i name="EPSILON">      1.00000000</i>
    <v name="DIPOL">   -100.00000000   -100.00000000   -100.00000000</v>
    <i name="EFIELD">      0.00000000</i>
    <i type="logical" name="LVACPOTAV"> F  </i>
   </separator>
  </separator>
  <separator name="grids" >
   <i type="int" name="NGX">    48</i>
   <i type="int" name="NGY">    48</i>
   <i type="int" name="NGZ">    48</i>
   <i type="int" name="NGXF">    96</i>
   <i type="int" name="NGYF">    96</i>
   <i type="int" name="NGZF">    96</i>
   <i type="logical" name="ADDGRID"> F  </i>
  </separator>
  <separator name="ionic" >
   <i type="int" name="NSW">   100</i>
   <i type="int" name="IBRION">     2</i>
   <i type="int" name="MDALGO">     0</i>
   <i type="int" name="ISIF">     3</i>
   <i name="PSTRESS">      0.00000000</i>
   <i name="EDIFFG">     -0.01000000</i>
   <i type="int" name="NFREE">     1</i>
   <i name="POTIM">      0.50000000</i>
   <i name="SMASS">     -3.00000000</i>
   <i name="SCALEE">      1.00000000</i>
  </separator>
  <separator name="ionic md" >
   <i name="TEBEG">      0.00010000</i>
   <i name="TEEND">      0.00010000</i>
   <i type="int" name="NBLOCK">     1</i>
   <i type="int" name="KBLOCK">   100</i>
   <i type="int" name="NPACO">   256</i>
   <i name="APACO">     10.00000000</i>
  </separator>
  <separator name="symmetry" >
   <i type="int" name="ISYM">     2</i>
   <i name="SYMPREC">      0.00001000</i>
  </separator>
  <separator name="dos" >
   <i type="int" name="LORBIT">     0</i>
   <v name="RWIGS">     -1.00000000     -1.00000000     -1.00000000     -1.00000000     -1.00000000     -1.00000000     -1.00000000</v>
   <i type="int" name="NEDOS">   301</i>
   <i name="EMIN">     10.00000000</i>
   <i name="EMAX">    -10.00000000</i>
   <i name="EFERMI">      0.00000000</i>
  </separator>
  <separator name="writing" >
   <i type="int" name="NWRITE">     2</i>
   <i type="logical" name="LWAVE"> F  </i>
   <i type="logical" name="LDOWNSAMPLE"> F  </i>
   <i type="logical" name="LCHARG"> F  </i>
   <i type="logical" name="LPARD"> F  </i>
   <i type="logical" name="LVTOT"> F  </i>
   <i type="logical" name="LVHAR"> F  </i>
   <i type="logical" name="LELF"> F  </i>
   <i type="logical" name="LOPTICS"> F  </i>
   <v name="STM">      0.00000000      0.00000000      0.00000000      0.00000000      0.00000000      0.00000000      0.00000000</v>
  </separator>
  <separator name="performance" >
   <i type="int" name="NPAR">    28</i>
   <i type="int" name="NSIM">     4</i>
   <i type="int" name="NBLK">    -1</i>
   <i type="logical" name="LPLANE"> T  </i>
   <i type="logical" name="LSCALAPACK"> T  </i>
   <i type="logical" name="LSCAAWARE"> F  </i>
   <i type="logical" name="LSCALU"> F  </i>
   <i type="logical" name="LASYNC"> F  </i>
   <i type="logical" name="LORBITALREAL"> F  </i>
  </separator>
  <separator name="miscellaneous" >
   <i type="int" name="IDIOT">     3</i>
   <i type="int" name="PHON_NSTRUCT">    -1</i>
   <i type="logical" name="LMUSIC"> F  </i>
   <v name="POMASS">     91.22400000     95.94000000    178.49000000     14.00100000     12.01100000    183.85000000     50.94100000</v>
   <v name="DARWINR">      0.00000000      0.00000000      0.00000000      0.00000000      0.00000000      0.00000000      0.00000000</v>
   <v name="DARWINV">      1.00000000      1.00000000      1.00000000      1.00000000      1.00000000      1.00000000      1.00000000</v>
   <i type="logical" name="LCORR"> T  </i>
  </separator>
  <i type="logical" name="GGA_COMPAT"> T  </i>
  <i type="logical" name="LBERRY"> F  </i>
  <i type="int" name="ICORELEVEL">     0</i>
  <i type="logical" name="LDAU"> F  </i>
  <i type="int" name="I_CONSTRAINED_M">     0</i>
  <separator name="electronic exchange-correlation" >
   <i type="string" name="GGA    ">PE</i>
   <i type="string" name="XC_C">1</i>
   <i type="int" name="VOSKOWN">     0</i>
   <i type="logical" name="LHFCALC"> F  </i>
   <i type="string" name="PRECFOCK"></i>
   <i type="logical" name="LSYMGRAD"> F  </i>
   <i type="logical" name="LHFONE"> F  </i>
   <i type="logical" name="LRHFCALC"> F  </i>
   <i type="logical" name="LTHOMAS"> F  </i>
   <i type="logical" name="LMODELHF"> F  </i>
   <i type="logical" name="LFOCKACE"> F  </i>
   <i name="ENCUT4O">     -1.00000000</i>
   <i type="int" name="EXXOEP">     0</i>
   <i type="int" name="FOURORBIT">     0</i>
   <i name="AEXX">      0.00000000</i>
   <i name="HFALPHA">      0.00000000</i>
   <i name="MCALPHA">      0.00000000</i>
   <i name="ALDAX">      1.00000000</i>
   <i name="AGGAX">      1.00000000</i>
   <i name="AMGGAX">      1.00000000</i>
   <i name="ALDAC">      1.00000000</i>
   <i name="AGGAC">      1.00000000</i>
   <i name="AMGGAC">      1.00000000</i>
   <i type="int" name="NKREDX">     1</i>
   <i type="int" name="NKREDY">     1</i>
   <i type="int" name="NKREDZ">     1</i>
   <i type="logical" name="SHIFTRED"> F  </i>
   <i type="logical" name="ODDONLY"> F  </i>
   <i type="logical" name="EVENONLY"> F  </i>
   <i type="int" name="LMAXFOCK">     0</i>
   <i type="int" name="NMAXFOCKAE">     0</i>
   <i type="logical" name="LFOCKAEDFT"> F  </i>
   <i name="HFSCREEN">      0.00000000</i>
   <i name="HFSCREENC">      0.00000000</i>
   <i type="int" name="NBANDSGWLOW">     0</i>
  </separator>
  <separator name="vdW DFT" >
   <i type="logical" name="LUSE_VDW"> F  </i>
   <i type="int" name="IVDW_NL">    -1</i>
   <i type="logical" name="LSPIN_VDW"> F  </i>
   <i name="ZAB_VDW">     -0.84910000</i>
   <i name="GAMMA_VDW">      1.39626340</i>
   <i name="ALPHA_VDW">      0.00000000</i>
   <i name="PARAM1">      0.12340000</i>
   <i name="PARAM2">      1.00000000</i>
   <i name="BPARAM">      6.30000000</i>
   <i name="CPARAM">      0.00930000</i>
  </separator>
  <separator name="model GW" >
   <i type="int" name="MODEL_GW">     0</i>
   <i name="MODEL_EPS0">      6.65702921</i>
   <i name="MODEL_ALPHA">      1.00000000</i>
  </separator>
  <separator name="linear response parameters" >
   <i type="logical" name="LEPSILON"> F  </i>
   <i type="logical" name="LRPA"> F  </i>
   <i type="logical" name="LNABLA"> F  </i>
   <i type="logical" name="LVEL"> F  </i>
   <i name="CSHIFT">      0.10000000</i>
   <i name="OMEGAMAX">     -1.00000000</i>
   <i name="DEG_THRESHOLD">      0.00200000</i>
   <i name="RTIME">     -0.10000000</i>
   <i name="WPLASMAI">      0.00000000</i>
   <v name="DFIELD">      0.00000000      0.00000000      0.00000000</v>
   <v name="WPLASMA">      0.00000000      0.00000000      0.00000000      0.00000000      0.00000000      0.00000000      0.00000000      0.00000000      0.00000000</v>
  </separator>
  <separator name="orbital magnetization" >
   <i type="logical" name="NUCIND"> F  </i>
   <v name="MAGPOS">      0.00000000      0.00000000      0.00000000</v>
   <i type="logical" name="LNICSALL"> T  </i>
   <i type="logical" name="ORBITALMAG"> F  </i>
   <i type="logical" name="LMAGBLOCH"> F  </i>
   <i type="logical" name="LCHIMAG"> F  </i>
   <i type="logical" name="LGAUGE"> T  </i>
   <i type="int" name="MAGATOM">     0</i>
   <v name="MAGDIPOL">      0.00000000      0.00000000      0.00000000</v>
   <v name="AVECCONST">      0.00000000      0.00000000      0.00000000</v>
  </separator>
  <separator name="response functions" >
   <i type="logical" name="LALL_IN_ONE"> F  </i>
   <i type="int" name="IALL_IN_ONE">    -1</i>
   <i type="int" name="NBANDS_WAVE">    -1</i>
   <i type="logical" name="LFINITE_TEMPERATURE"> F  </i>
   <i type="logical" name="LADDER"> F  </i>
   <i type="logical" name="LRPAFORCE"> F  </i>
   <i type="logical" name="LFXC"> F  </i>
   <i type="logical" name="LHARTREE"> T  </i>
   <i type="int" name="IBSE">     0</i>
   <v type="int" name="KPOINT">    -1     0     0     0</v>
   <i type="logical" name="LTCTC"> F  </i>
   <i type="logical" name="LTCTE"> F  </i>
   <i type="logical" name="LTETE"> F  </i>
   <i type="logical" name="LTRIPLET"> F  </i>
   <i type="logical" name="LFXCEPS"> F  </i>
   <i type="logical" name="LFXHEG"> F  </i>
   <i type="int" name="NATURALO">     2</i>
   <i type="logical" name="LHOLEGF"> F  </i>
   <i type="logical" name="L2ORDER"> F  </i>
   <i type="logical" name="LDMP1"> F  </i>
   <i type="logical" name="LMP2LT"> F  </i>
   <i type="logical" name="LSMP2LT"> F  </i>
   <i type="logical" name="LGWLF"> F  </i>
   <i name="ENCUTGW">     -1.60000002</i>
   <i name="ENCUTGWSOFT">     -1.60000002</i>
   <i name="ENCUTLF">     -1.00000000</i>
   <i type="logical" name="ESF_SPLINES"> F  </i>
   <i name="ESF_CONV">      0.01000000</i>
   <i type="int" name="ESF_NINTER">    15</i>
   <i type="int" name="LMAXMP2">    -1</i>
   <i name="SCISSOR">      0.00000000</i>
   <i type="int" name="NOMEGA">     0</i>
   <i type="int" name="NOMEGAR">     0</i>
   <i type="int" name="NBANDSGW">    -1</i>
   <i type="int" name="NBANDSO">    -1</i>
   <i type="int" name="NBANDSV">    -1</i>
   <i type="int" name="NELMGW">     1</i>
   <i type="int" name="NELMHF">     1</i>
   <i type="int" name="DIM">     3</i>
   <i type="int" name="IESPILON">     4</i>
   <i type="int" name="ANTIRES">     0</i>
   <i name="OMEGAMAX">    -30.00000000</i>
   <i name="OMEGAMIN">    -30.00000000</i>
   <i name="OMEGATL">   -200.00000000</i>
   <i type="int" name="OMEGAGRID">     0</i>
   <i name="CSHIFT">     -0.10000000</i>
   <i type="logical" name="LSELFENERGY"> F  </i>
   <i type="logical" name="LSPECTRAL"> F  </i>
   <i type="logical" name="LSPECTRALGW"> F  </i>
   <i type="logical" name="LSINGLES"> F  </i>
   <i type="logical" name="LFERMIGW"> F  </i>
   <i type="logical" name="ODDONLYGW"> F  </i>
   <i type="logical" name="EVENONLYGW"> F  </i>
   <i type="int" name="NKREDLFX">     1</i>
   <i type="int" name="NKREDLFY">     1</i>
   <i type="int" name="NKREDLFZ">     1</i>
   <i type="int" name="MAXMEM">  2800</i>
   <i type="int" name="TELESCOPE">     0</i>
   <i type="int" name="NTAUPAR">    -1</i>
   <i type="int" name="NOMEGAPAR">    -1</i>
   <i name="DAMP_NEWTON">      0.80000001</i>
   <i name="LAMBDA">      1.00000000</i>
  </separator>
  <separator name="External order field" >
   <i name="OFIELD_KAPPA">      0.00000000</i>
   <v name="OFIELD_K">      0.00000000      0.00000000      0.00000000</v>
   <i name="OFIELD_Q6_NEAR">      0.00000000</i>
   <i name="OFIELD_Q6_FAR">      0.00000000</i>
   <i name="OFIELD_A">      0.00000000</i>
  </separator>
  <separator name="optional k-points parameters" >
   <i type="int" name="KPOINTS_OPT_MODE">     1</i>
   <i type="logical" name="LKPOINTS_OPT"> F  </i>
  </separator>
  <separator name="solvation model" >
   <i type="logical" name="LSOL"> F  </i>
  </separator>
 </parameters>
 <atominfo>
  <atoms>      64 </atoms>
  <types>       7 </types>
  <array name="atoms" >
   <dimension dim="1">ion</dimension>
   <field type="string">element</field>
   <field type="int">atomtype</field>
   <set>
    <rc><c>Zr</c><c>   1</c></rc>
    <rc><c>Zr</c><c>   1</c></rc>
    <rc><c>Zr</c><c>   1</c></rc>
    <rc><c>Zr</c><c>   1</c></rc>
    <rc><c>Zr</c><c>   1</c></rc>
    <rc><c>Zr</c><c>   1</c></rc>
    <rc><c>Zr</c><c>   1</c></rc>
    <rc><c>Mo</c><c>   2</c></rc>
    <rc><c>Mo</c><c>   2</c></rc>
    <rc><c>Mo</c><c>   2</c></rc>
    <rc><c>Mo</c><c>   2</c></rc>
    <rc><c>Mo</c><c>   2</c></rc>
    <rc><c>Mo</c><c>   2</c></rc>
    <rc><c>Hf</c><c>   3</c></rc>
    <rc><c>Hf</c><c>   3</c></rc>
    <rc><c>Hf</c><c>   3</c></rc>
    <rc><c>Hf</c><c>   3</c></rc>
    <rc><c>Hf</c><c>   3</c></rc>
    <rc><c>Hf</c><c>   3</c></rc>
    <rc><c>Hf</c><c>   3</c></rc>
    <rc><c>N </c><c>   4</c></rc>
    <rc><c>N </c><c>   4</c></rc>
    <rc><c>N </c><c>   4</c></rc>
    <rc><c>N </c><c>   4</c></rc>
    <rc><c>N </c><c>   4</c></rc>
    <rc><c>N </c><c>   4</c></rc>
    <rc><c>N </c><c>   4</c></rc>
    <rc><c>N </c><c>   4</c></rc>
    <rc><c>N </c><c>   4</c></rc>
    <rc><c>N </c><c>   4</c></rc>
    <rc><c>N </c><c>   4</c></rc>
    <rc><c>N </c><c>   4</c></rc>
    <rc><c>N </c><c>   4</c></rc>
    <rc><c>C </c><c>   5</c></rc>
    <rc><c>C </c><c>   5</c></rc>
    <rc><c>C </c><c>   5</c></rc>
    <rc><c>C </c><c>   5</c></rc>
    <rc><c>C </c><c>   5</c></rc>
    <rc><c>C </c><c>   5</c></rc>
    <rc><c>C </c><c>   5</c></rc>
    <rc><c>C </c><c>   5</c></rc>
    <rc><c>C </c><c>   5</c></rc>
    <rc><c>C </c><c>   5</c></rc>
    <rc><c>C </c><c>   5</c></rc>
    <rc><c>C </c><c>   5</c></rc>
    <rc><c>C </c><c>   5</c></rc>
    <rc><c>C </c><c>   5</c></rc>
    <rc><c>C </c><c>   5</c></rc>
    <rc><c>C </c><c>   5</c></rc>
    <rc><c>C </c><c>   5</c></rc>
    <rc><c>C </c><c>   5</c></rc>
    <rc><c>C </c><c>   5</c></rc>
    <rc><c>W </c><c>   6</c></rc>
    <rc><c>W </c><c>   6</c></rc>
    <rc><c>W </c><c>   6</c></rc>
    <rc><c>W </c><c>   6</c></rc>
    <rc><c>W </c><c>   6</c></rc>
    <rc><c>W </c><c>   6</c></rc>
    <rc><c>V </c><c>   7</c></rc>
    <rc><c>V </c><c>   7</c></rc>
    <rc><c>V </c><c>   7</c></rc>
    <rc><c>V </c><c>   7</c></rc>
    <rc><c>V </c><c>   7</c></rc>
    <rc><c>V </c><c>   7</c></rc>
   </set>
  </array>
  <array name="atomtypes" >
   <dimension dim="1">type</dimension>
   <field type="int">atomspertype</field>
   <field type="string">element</field>
   <field>mass</field>
   <field>valence</field>
   <field type="string">pseudopotential</field>
   <set>
    <rc><c>   7</c><c>Zr</c><c>     91.22400000</c><c>     12.00000000</c><c> PAW_PBE Zr_sv 07Sep2000                </c></rc>
    <rc><c>   6</c><c>Mo</c><c>     95.94000000</c><c>      6.00000000</c><c> PAW_PBE Mo 08Apr2002                   </c></rc>
    <rc><c>   7</c><c>Hf</c><c>    178.49000000</c><c>     10.00000000</c><c> PAW_PBE Hf_pv 06Sep2000                </c></rc>
    <rc><c>  13</c><c>N </c><c>     14.00100000</c><c>      5.00000000</c><c> PAW_PBE N 08Apr2002                    </c></rc>
    <rc><c>  19</c><c>C </c><c>     12.01100000</c><c>      4.00000000</c><c> PAW_PBE C 08Apr2002                    </c></rc>
    <rc><c>   6</c><c>W </c><c>    183.85000000</c><c>     12.00000000</c><c> PAW_PBE W_pv 06Sep2000                 </c></rc>
    <rc><c>   6</c><c>V </c><c>     50.94100000</c><c>     13.00000000</c><c> PAW_PBE V_sv 07Sep2000                 </c></rc>
   </set>
  </array>
 </atominfo>
 <structure name="initialpos" >
  <crystal>
   <varray name="basis" >
    <v>       8.88789548       0.00380392       0.01757174 </v>
    <v>       0.00952817       9.00858563      -0.00692470 </v>
    <v>       0.04949332      -0.02245083       8.86868996 </v>
   </varray>
   <i name="volume">    710.08311555 </i>
   <varray name="rec_basis" >
    <v>       0.11251387      -0.00011949      -0.00062821 </v>
    <v>      -0.00004807       0.11100548       0.00028128 </v>
    <v>      -0.00022296       0.00008691       0.11275769 </v>
   </varray>
  </crystal>
  <varray name="positions" >
   <v>       0.99711859       0.99652708       0.99378978 </v>
   <v>       0.25542320       0.99899546       0.25273928 </v>
   <v>       0.24338337       0.50184096       0.25078005 </v>
   <v>       0.50441953       0.50054881       0.99883725 </v>
   <v>       0.51155145       0.24463833       0.74304458 </v>
   <v>       0.99289048       0.50101818       0.50171022 </v>
   <v>       0.49378026       0.75746060       0.75179826 </v>
   <v>       0.99018034       0.22715300       0.27111699 </v>
   <v>       0.76924258       0.74036622       0.99307535 </v>
   <v>       0.01341223       0.23611790       0.73119302 </v>
   <v>       0.75721537       0.27483779       0.49009056 </v>
   <v>       0.99580036       0.73010805       0.75911628 </v>
   <v>       0.26598424       0.49495202       0.74601231 </v>
   <v>       0.24599398       0.25186791       0.99623738 </v>
   <v>       0.51153984       0.25932732       0.25225239 </v>
   <v>       0.74882015       0.99165286       0.26934050 </v>
   <v>       0.76173637       0.26086359       0.99286409 </v>
   <v>       0.24558436       0.75136086       0.00160607 </v>
   <v>       0.25653404       0.25138605       0.50051935 </v>
   <v>       0.24065877       0.75140559       0.50359879 </v>
   <v>       0.25297601       0.24836892       0.24928921 </v>
   <v>       0.26106804       0.00283288       0.99255067 </v>
   <v>       0.00302288       0.25437443       0.00978993 </v>
   <v>       0.75442781       0.24799411       0.25003681 </v>
   <v>       0.75037030       0.00182261       0.00665954 </v>
   <v>       0.50677241       0.99929200       0.23964021 </v>
   <v>       0.98816629       0.48435124       0.24447470 </v>
   <v>       0.50248280       0.76231521       0.00957520 </v>
   <v>       0.97982210       0.99226071       0.73396383 </v>
   <v>       0.76040747       0.22754100       0.74530539 </v>
   <v>       0.74211787       0.99039306       0.51218740 </v>
   <v>       0.50577359       0.22589851       0.49320484 </v>
   <v>       0.48568557       0.00107853       0.73711166 </v>
   <v>       0.99801402       0.99307987       0.26099064 </v>
   <v>       0.50654467       0.24910887       0.99979294 </v>
   <v>       0.25105410       0.75103254       0.25140990 </v>
   <v>       0.24339262       0.50201365       0.99594520 </v>
   <v>       0.00012526       0.74596418       0.01333051 </v>
   <v>       0.75503386       0.74157023       0.25332459 </v>
   <v>       0.75857895       0.50707292       0.00032158 </v>
   <v>       0.50774188       0.50517343       0.25967010 </v>
   <v>       0.25327965       0.25453500       0.74778459 </v>
   <v>       0.24973617       0.00045151       0.50831355 </v>
   <v>       0.99476236       0.23888021       0.50410371 </v>
   <v>       0.23771309       0.75933925       0.75277125 </v>
   <v>       0.25744741       0.50125172       0.50279285 </v>
   <v>       0.98809110       0.75822023       0.50119900 </v>
   <v>       0.99035738       0.48718366       0.75873482 </v>
   <v>       0.74790821       0.74654261       0.74299109 </v>
   <v>       0.73839854       0.50657791       0.50107237 </v>
   <v>       0.50186831       0.74707563       0.49815592 </v>
   <v>       0.50487213       0.50278343       0.73792807 </v>
   <v>       0.51875138       0.01410667       0.98198409 </v>
   <v>       0.99728110       0.51564799       0.98717067 </v>
   <v>       0.50772344       0.74197819       0.25898612 </v>
   <v>       0.22088155       0.01755039       0.74521779 </v>
   <v>       0.49042207       0.97971567       0.48839695 </v>
   <v>       0.73787853       0.97841792       0.76109809 </v>
   <v>       0.99590187       0.77712519       0.26249837 </v>
   <v>       0.74163305       0.51526730       0.26369837 </v>
   <v>       0.01886255       0.00055036       0.50533090 </v>
   <v>       0.50042189       0.53188973       0.49893191 </v>
   <v>       0.73210167       0.53092056       0.73830056 </v>
   <v>       0.75885894       0.73802117       0.49424174 </v>
  </varray>
 </structure>
 <calculation>
  <scstep>
   <time name="dav">   19.62   19.79</time>
   <time name="total">   19.66   19.85</time>
   <energy>
    <i name="alphaZ">   4327.04148618 </i>
    <i name="ewald"> -36747.67055802 </i>
    <i name="hartreedc">  -7433.52788111 </i>
    <i name="XCdc">   1306.11579604 </i>
    <i name="pawpsdc">  26193.00323009 </i>
    <i name="pawaedc"> -25606.18920132 </i>
    <i name="eentropy">     -0.07175759 </i>
    <i name="bandstr">     86.28300150 </i>
    <i name="atom">  41808.07572539 </i>
    <i name="e_fr_energy">   3933.05984116 </i>
    <i name="e_wo_entrp">   3933.13159875 </i>
    <i name="e_0_energy">   3933.09571995 </i>
   </energy>
  </scstep>
  <scstep>
   <time name="dav">   19.74   20.23</time>
   <time name="total">   19.74   20.23</time>
   <energy>
    <i name="e_fr_energy">   -263.75453858 </i>
    <i name="e_wo_entrp">   -263.65515993 </i>
    <i name="e_0_energy">   -263.70484926 </i>
   </energy>
  </scstep>
  <scstep>
   <time name="dav">   26.55   26.77</time>
   <time name="total">   26.55   26.77</time>
   <energy>
    <i name="e_fr_energy">   -752.06230272 </i>
    <i name="e_wo_entrp">   -751.95877888 </i>
    <i name="e_0_energy">   -752.01054080 </i>
   </energy>
  </scstep>
  <scstep>
   <time name="dav">   29.98   30.16</time>
   <time name="total">   29.98   30.16</time>
   <energy>
    <i name="e_fr_energy">   -781.57424754 </i>
    <i name="e_wo_entrp">   -781.46598892 </i>
    <i name="e_0_energy">   -781.52011823 </i>
   </energy>
  </scstep>
  <scstep>
   <time name="dav">   29.38   29.56</time>
   <time name="total">   29.55   29.74</time>
   <energy>
    <i name="e_fr_energy">   -782.81683920 </i>
    <i name="e_wo_entrp">   -782.70853131 </i>
    <i name="e_0_energy">   -782.76268526 </i>
   </energy>
  </scstep>
  <scstep>
   <time name="diag">    1.34    1.35</time>
   <time name="diis">   17.67   17.79</time>
   <time name="orth">    0.40    0.40</time>
   <time name="total">   19.60   19.73</time>
   <energy>
    <i name="e_fr_energy">   -725.51621426 </i>
    <i name="e_wo_entrp">   -725.40698448 </i>
    <i name="e_0_energy">   -725.46159937 </i>
   </energy>
  </scstep>
  <scstep>
   <time name="diag">    1.38    1.41</time>
   <time name="diis">   15.06   15.21</time>
   <time name="orth">    0.34    0.34</time>
   <time name="total">   16.97   17.16</time>
   <energy>
    <i name="e_fr_energy">   -677.13968333 </i>
    <i name="e_wo_entrp">   -677.03405623 </i>
    <i name="e_0_energy">   -677.08686978 </i>
   </energy>
  </scstep>
  <scstep>
   <time name="diag">    1.40    1.40</time>
   <time name="diis">   18.40   18.56</time>
   <time name="orth">    0.37    0.37</time>
   <time name="total">   20.34   20.52</time>
   <energy>
    <i name="e_fr_energy">   -653.06747744 </i>
    <i name="e_wo_entrp">   -652.97260430 </i>
    <i name="e_0_energy">   -653.02004087 </i>
   </energy>
  </scstep>
  <scstep>
   <time name="diag">    1.37    1.37</time>
   <time name="diis">   20.46   20.59</time>
   <time name="orth">    0.35    0.35</time>
   <time name="total">   22.36   22.51</time>
   <energy>
    <i name="e_fr_energy">   -651.09501491 </i>
    <i name="e_wo_entrp">   -650.99561507 </i>
    <i name="e_0_energy">   -651.04531499 </i>
   </energy>
  </scstep>
  <scstep>
   <time name="diag">    1.43    1.44</time>
   <time name="diis">   20.38   20.52</time>
   <time name="orth">    0.35    0.35</time>
   <time name="total">   22.36   22.50</time>
   <energy>
    <i name="e_fr_energy">   -650.36830356 </i>
    <i name="e_wo_entrp">   -650.26024224 </i>
    <i name="e_0_energy">   -650.31427290 </i>
   </energy>
  </scstep>
  <scstep>
   <time name="diag">    1.35    1.35</time>
   <time name="diis">   20.43   20.62</time>
   <time name="orth">    0.34    0.35</time>
   <time name="total">   22.31   22.50</time>
   <energy>
    <i name="e_fr_energy">   -650.53507740 </i>
    <i name="e_wo_entrp">   -650.41691285 </i>
    <i name="e_0_energy">   -650.47599512 </i>
   </energy>
  </scstep>
  <scstep>
   <time name="diag">    1.37    1.38</time>
   <time name="diis">   20.45   20.57</time>
   <time name="orth">    0.37    0.37</time>
   <time name="total">   22.39   22.53</time>
   <energy>
    <i name="e_fr_energy">   -650.17005336 </i>
    <i name="e_wo_entrp">   -650.05818723 </i>
    <i name="e_0_energy">   -650.11412029 </i>
   </energy>
  </scstep>
  <scstep>
   <time name="diag">    1.41    1.42</time>
   <time name="diis">   20.96   21.19</time>
   <time name="orth">    0.34    0.34</time>
   <time name="total">   22.90   23.15</time>
   <energy>
    <i name="e_fr_energy">   -650.13815101 </i>
    <i name="e_wo_entrp">   -650.02419074 </i>
    <i name="e_0_energy">   -650.08117087 </i>
   </energy>
  </scstep>
  <scstep>
   <time name="diag">    1.43    1.47</time>
   <time name="diis">   21.20   21.38</time>
   <time name="orth">    0.39    0.39</time>
   <time name="total">   23.21   23.43</time>
   <energy>
    <i name="e_fr_energy">   -650.10471529 </i>
    <i name="e_wo_entrp">   -649.99165444 </i>
    <i name="e_0_energy">   -650.04818487 </i>
   </energy>
  </scstep>
  <scstep>
   <time name="diag">    1.36    1.37</time>
   <time name="diis">   21.41   21.58</time>
   <time name="orth">    0.37    0.37</time>
   <time name="total">   23.32   23.50</time>
   <energy>
    <i name="e_fr_energy">   -650.09421490 </i>
    <i name="e_wo_entrp">   -649.98290899 </i>
    <i name="e_0_energy">   -650.03856194 </i>
   </energy>
  </scstep>
  <scstep>
   <time name="diag">    1.36    1.37</time>
   <time name="diis">   21.26   21.46</time>
   <time name="orth">    0.35    0.35</time>
   <time name="total">   23.19   23.40</time>
   <energy>
    <i name="e_fr_energy">   -650.09860160 </i>
    <i name="e_wo_entrp">   -649.98708492 </i>
    <i name="e_0_energy">   -650.04284326 </i>
   </energy>
  </scstep>
  <scstep>
   <time name="diag">    1.35    1.36</time>
   <time name="diis">   21.49   21.68</time>
   <time name="orth">    0.34    0.34</time>
   <time name="total">   23.38   23.58</time>
   <energy>
    <i name="e_fr_energy">   -650.10429980 </i>
    <i name="e_wo_entrp">   -649.99410653 </i>
    <i name="e_0_energy">   -650.04920316 </i>
   </energy>
  </scstep>
  <scstep>
   <time name="diag">    1.40    1.41</time>
   <time name="diis">   20.96   21.18</time>
   <time name="orth">    0.37    0.37</time>
   <time name="total">   22.92   23.15</time>
   <energy>
    <i name="e_fr_energy">   -650.10240146 </i>
    <i name="e_wo_entrp">   -649.99188607 </i>
    <i name="e_0_energy">   -650.04714377 </i>
   </energy>
  </scstep>
  <scstep>
   <time name="diag">    1.40    1.41</time>
   <time name="diis">   21.52   21.74</time>
   <time name="orth">    0.39    0.39</time>
   <time name="total">   23.50   23.72</time>
   <energy>
    <i name="e_fr_energy">   -650.09886637 </i>
    <i name="e_wo_entrp">   -649.98781685 </i>
    <i name="e_0_energy">   -650.04334161 </i>
   </energy>
  </scstep>
  <scstep>
   <time name="diag">    1.36    1.37</time>
   <time name="diis">   21.47   21.70</time>
   <time name="orth">    0.34    0.35</time>
   <time name="total">   23.37   23.60</time>
   <energy>
    <i name="e_fr_energy">   -650.09881881 </i>
    <i name="e_wo_entrp">   -649.98738937 </i>
    <i name="e_0_energy">   -650.04310409 </i>
   </energy>
  </scstep>
  <scstep>
   <time name="diag">    1.37    1.38</time>
   <time name="diis">   21.39   21.60</time>
   <time name="orth">    0.37    0.38</time>
   <time name="total">   23.33   23.54</time>
   <energy>
    <i name="e_fr_energy">   -650.09873753 </i>
    <i name="e_wo_entrp">   -649.98739702 </i>
    <i name="e_0_energy">   -650.04306727 </i>
   </energy>
  </scstep>
  <scstep>
   <time name="diag">    1.37    1.38</time>
   <time name="diis">   21.77   22.04</time>
   <time name="orth">    0.34    0.34</time>
   <time name="total">   23.68   23.96</time>
   <energy>
    <i name="e_fr_energy">   -650.09877373 </i>
    <i name="e_wo_entrp">   -649.98749812 </i>
    <i name="e_0_energy">   -650.04313593 </i>
   </energy>
  </scstep>
  <scstep>
   <time name="diag">    1.42    1.44</time>
   <time name="diis">   20.46   20.68</time>
   <time name="orth">    0.35    0.35</time>
   <time name="total">   22.42   22.66</time>
   <energy>
    <i name="e_fr_energy">   -650.09881756 </i>
    <i name="e_wo_entrp">   -649.98754082 </i>
    <i name="e_0_energy">   -650.04317919 </i>
   </energy>
  </scstep>
  <scstep>
   <time name="diag">    1.36    1.36</time>
   <time name="diis">   19.39   19.72</time>
   <time name="orth">    0.39    0.39</time>
   <time name="total">   21.32   21.66</time>
   <energy>
    <i name="e_fr_energy">   -650.09879109 </i>
    <i name="e_wo_entrp">   -649.98743903 </i>
    <i name="e_0_energy">   -650.04311506 </i>
   </energy>
  </scstep>
  <scstep>
   <time name="diag">    1.39    1.40</time>
   <time name="diis">   18.98   19.15</time>
   <time name="orth">    0.35    0.35</time>
   <time name="total">   20.91   21.09</time>
   <energy>
    <i name="e_fr_energy">   -650.09880679 </i>
    <i name="e_wo_entrp">   -649.98746657 </i>
    <i name="e_0_energy">   -650.04313668 </i>
   </energy>
  </scstep>
  <scstep>
   <time name="diag">    1.39    1.41</time>
   <time name="diis">   16.77   16.93</time>
   <time name="orth">    0.34    0.34</time>
   <time name="total">   18.77   18.95</time>
   <energy>
    <i name="e_fr_energy">   -650.09881412 </i>
    <i name="e_wo_entrp">   -649.98746767 </i>
    <i name="e_0_energy">   -650.04314089 </i>
   </energy>
  </scstep>
  <scstep>
   <time name="diag">    1.47    1.49</time>
   <time name="diis">   14.38   14.52</time>
   <time name="orth">    0.35    0.36</time>
   <time name="total">   16.24   16.41</time>
   <energy>
    <i name="alphaZ">   4327.04148618 </i>
    <i name="ewald"> -36747.67055802 </i>
    <i name="hartreedc">  -7066.28213424 </i>
    <i name="XCdc">   1304.51410250 </i>
    <i name="pawpsdc">  28237.13646183 </i>
    <i name="pawaedc"> -27710.86529292 </i>
    <i name="eentropy">     -0.11133587 </i>
    <i name="bandstr">  -4801.93727288 </i>
    <i name="atom">  41808.07572539 </i>
    <i name="e_fr_energy">   -650.09881803 </i>
    <i name="e_wo_entrp">   -649.98748216 </i>
    <i name="e_0_energy">   -650.04315009 </i>
   </energy>
  </scstep>
  <structure>
   <crystal>
    <varray name="basis" >
     <v>       8.88789548       0.00380392       0.01757174 </v>
     <v>       0.00952817       9.00858563      -0.00692470 </v>
     <v>       0.04949332      -0.02245083       8.86868996 </v>
    </varray>
    <i name="volume">    710.08311555 </i>
    <varray name="rec_basis" >
     <v>       0.11251387      -0.00011949      -0.00062821 </v>
     <v>      -0.00004807       0.11100548       0.00028128 </v>
     <v>      -0.00022296       0.00008691       0.11275769 </v>
    </varray>
   </crystal>
   <varray name="positions" >
    <v>       0.99711859       0.99652708       0.99378978 </v>
    <v>       0.25542320       0.99899546       0.25273928 </v>
    <v>       0.24338337       0.50184096       0.25078005 </v>
    <v>       0.50441953       0.50054881       0.99883725 </v>
    <v>       0.51155145       0.24463833       0.74304458 </v>
    <v>       0.99289048       0.50101818       0.50171022 </v>
    <v>       0.49378026       0.75746060       0.75179826 </v>
    <v>       0.99018034       0.22715300       0.27111699 </v>
    <v>       0.76924258       0.74036622       0.99307535 </v>
    <v>       0.01341223       0.23611790       0.73119302 </v>
    <v>       0.75721537       0.27483779       0.49009056 </v>
    <v>       0.99580036       0.73010805       0.75911628 </v>
    <v>       0.26598424       0.49495202       0.74601231 </v>
    <v>       0.24599398       0.25186791       0.99623738 </v>
    <v>       0.51153984       0.25932732       0.25225239 </v>
    <v>       0.74882015       0.99165286       0.26934050 </v>
    <v>       0.76173637       0.26086359       0.99286409 </v>
    <v>       0.24558436       0.75136086       0.00160607 </v>
    <v>       0.25653404       0.25138605       0.50051935 </v>
    <v>       0.24065877       0.75140559       0.50359879 </v>
    <v>       0.25297601       0.24836892       0.24928921 </v>
    <v>       0.26106804       0.00283288       0.99255067 </v>
    <v>       0.00302288       0.25437443       0.00978993 </v>
    <v>       0.75442781       0.24799411       0.25003681 </v>
    <v>       0.75037030       0.00182261       0.00665954 </v>
    <v>       0.50677241       0.99929200       0.23964021 </v>
    <v>       0.98816629       0.48435124       0.24447470 </v>
    <v>       0.50248280       0.76231521       0.00957520 </v>
    <v>       0.97982210       0.99226071       0.73396383 </v>
    <v>       0.76040747       0.22754100       0.74530539 </v>
    <v>       0.74211787       0.99039306       0.51218740 </v>
    <v>       0.50577359       0.22589851       0.49320484 </v>
    <v>       0.48568557       0.00107853       0.73711166 </v>
    <v>       0.99801402       0.99307987       0.26099064 </v>
    <v>       0.50654467       0.24910887       0.99979294 </v>
    <v>       0.25105410       0.75103254       0.25140990 </v>
    <v>       0.24339262       0.50201365       0.99594520 </v>
    <v>       0.00012526       0.74596418       0.01333051 </v>
    <v>       0.75503386       0.74157023       0.25332459 </v>
    <v>       0.75857895       0.50707292       0.00032158 </v>
    <v>       0.50774188       0.50517343       0.25967010 </v>
    <v>       0.25327965       0.25453500       0.74778459 </v>
    <v>       0.24973617       0.00045151       0.50831355 </v>
    <v>       0.99476236       0.23888021       0.50410371 </v>
    <v>       0.23771309       0.75933925       0.75277125 </v>
    <v>       0.25744741       0.50125172       0.50279285 </v>
    <v>       0.98809110       0.75822023       0.50119900 </v>
    <v>       0.99035738       0.48718366       0.75873482 </v>
    <v>       0.74790821       0.74654261       0.74299109 </v>
    <v>       0.73839854       0.50657791       0.50107237 </v>
    <v>       0.50186831       0.74707563       0.49815592 </v>
    <v>       0.50487213       0.50278343       0.73792807 </v>
    <v>       0.51875138       0.01410667       0.98198409 </v>
    <v>       0.99728110       0.51564799       0.98717067 </v>
    <v>       0.50772344       0.74197819       0.25898612 </v>
    <v>       0.22088155       0.01755039       0.74521779 </v>
    <v>       0.49042207       0.97971567       0.48839695 </v>
    <v>       0.73787853       0.97841792       0.76109809 </v>
    <v>       0.99590187       0.77712519       0.26249837 </v>
    <v>       0.74163305       0.51526730       0.26369837 </v>
    <v>       0.01886255       0.00055036       0.50533090 </v>
    <v>       0.50042189       0.53188973       0.49893191 </v>
    <v>       0.73210167       0.53092056       0.73830056 </v>
    <v>       0.75885894       0.73802117       0.49424174 </v>
   </varray>
  </structure>
  <varray name="forces" >
   <v>       0.00133361       0.00178132       0.00284880 </v>
   <v>      -0.00192711       0.00266867      -0.00532900 </v>
   <v>       0.00089776      -0.00146046      -0.00089765 </v>
   <v>      -0.00098610       0.00084756       0.00081515 </v>
   <v>      -0.00349920       0.00433015       0.00072488 </v>
   <v>       0.00052542      -0.00119828      -0.00120950 </v>
   <v>      -0.00064434      -0.00354622       0.00076376 </v>
   <v>       0.00373153       0.00290024      -0.00700637 </v>
   <v>      -0.00546383       0.00383153       0.00509623 </v>
   <v>      -0.00131482      -0.00283662       0.01091182 </v>
   <v>      -0.00513987      -0.00201737       0.00610324 </v>
   <v>       0.00148585       0.00266822      -0.00588786 </v>
   <v>      -0.00152163       0.00723807      -0.00003285 </v>
   <v>       0.00172477       0.00023206       0.00098122 </v>
   <v>      -0.00179883      -0.00010256      -0.00066200 </v>
   <v>       0.00110431      -0.00240460      -0.00351210 </v>
   <v>      -0.00258639      -0.00112859       0.00142775 </v>
   <v>       0.00065137      -0.00028339       0.00076782 </v>
   <v>       0.00067322       0.00259066      -0.00195407 </v>
   <v>       0.00089484       0.00002404      -0.00049308 </v>
   <v>       0.00107699       0.00253581      -0.00232237 </v>
   <v>       0.00296799      -0.00163867      -0.00226316 </v>
   <v>      -0.00093137       0.00343122      -0.00135625 </v>
   <v>       0.00097636      -0.00117002      -0.00010216 </v>
   <v>       0.00027850      -0.00304864       0.00041798 </v>
   <v>      -0.00026696       0.00130509       0.00241551 </v>
   <v>      -0.00520686      -0.00018606      -0.00405595 </v>
   <v>       0.00227569       0.00269391       0.00244185 </v>
   <v>      -0.00613843       0.00207294      -0.00197534 </v>
   <v>       0.00310519       0.00089764      -0.00331339 </v>
   <v>       0.00250196       0.00176609       0.00292849 </v>
   <v>       0.00378555       0.00023935       0.00059314 </v>
   <v>      -0.00799662       0.00081058       0.00168226 </v>
   <v>       0.00056272      -0.00037159       0.00148008 </v>
   <v>      -0.00113669       0.00118022       0.00194991 </v>
   <v>      -0.00075345       0.00046236       0.00001261 </v>
   <v>      -0.00038063      -0.00019552      -0.00135975 </v>
   <v>       0.00283631       0.00096038       0.00276860 </v>
   <v>       0.00086630       0.00051325      -0.00052957 </v>
   <v>      -0.00089131      -0.00070964       0.00199951 </v>
   <v>      -0.00041264      -0.00111723       0.00093710 </v>
   <v>       0.00174959       0.00316982      -0.00048858 </v>
   <v>      -0.00131649       0.00044187      -0.00291812 </v>
   <v>       0.00170038       0.00004985       0.00017935 </v>
   <v>       0.00013623      -0.00120119       0.00005605 </v>
   <v>       0.00068354       0.00162392      -0.00057314 </v>
   <v>       0.00035303       0.00250947       0.00051127 </v>
   <v>      -0.00126490      -0.00403032      -0.00392737 </v>
   <v>       0.00062650      -0.00079933      -0.00319971 </v>
   <v>      -0.00129533       0.00432902      -0.00119588 </v>
   <v>       0.00382785      -0.00289932       0.00243817 </v>
   <v>       0.00461476      -0.00111697      -0.00133073 </v>
   <v>      -0.00636373      -0.00291433       0.00642144 </v>
   <v>       0.00409514      -0.00755686       0.00604698 </v>
   <v>      -0.00531749       0.00254323      -0.00618338 </v>
   <v>       0.00713042      -0.00531912       0.00416393 </v>
   <v>       0.00038381       0.00234447       0.00850783 </v>
   <v>      -0.00433253       0.00387738      -0.00709145 </v>
   <v>       0.00359977      -0.00714990      -0.00366434 </v>
   <v>       0.00088268       0.00011442      -0.00730792 </v>
   <v>      -0.00233741       0.00123364      -0.00275756 </v>
   <v>       0.00188928      -0.00875955      -0.00151983 </v>
   <v>       0.00444140      -0.00862410       0.00393944 </v>
   <v>       0.00085437       0.00356800       0.00408824 </v>
  </varray>
  <varray name="stress" >
   <v>       0.39397471       0.07319517       0.22504326 </v>
   <v>       0.07319476       0.31695944      -0.09412613 </v>
   <v>       0.22504257      -0.09412482       0.21776373 </v>
  </varray>
  <energy>
   <i name="e_fr_energy">   -650.09881803 </i>
   <i name="e_wo_entrp">   -649.98748216 </i>
   <i name="e_0_energy">   -650.04315009 </i>
  </energy>
  <time name="totalsc">  640.78  646.91</time>
 </calculation>
 <calculation>
  <scstep>
   <time name="dav">   21.04   21.38</time>
   <time name="total">   21.27   21.61</time>
   <energy>
    <i name="alphaZ">   4325.69929568 </i>
    <i name="ewald"> -36744.59706198 </i>
    <i name="hartreedc">  -7064.90567012 </i>
    <i name="XCdc">   1304.32812536 </i>
    <i name="pawpsdc">  28236.98987241 </i>
    <i name="pawaedc"> -27710.72530821 </i>
    <i name="eentropy">     -0.11165706 </i>
    <i name="bandstr">  -4804.85228705 </i>
    <i name="atom">  41808.07572539 </i>
    <i name="e_fr_energy">   -650.09896559 </i>
    <i name="e_wo_entrp">   -649.98730853 </i>
    <i name="e_0_energy">   -650.04313706 </i>
   </energy>
  </scstep>
  <scstep>
   <time name="diag">    1.35    1.37</time>
   <time name="diis">   15.20   15.58</time>
   <time name="orth">    0.34    0.35</time>
   <time name="total">   17.09   17.84</time>
   <energy>
    <i name="e_fr_energy">   -650.10089207 </i>
    <i name="e_wo_entrp">   -649.98999540 </i>
    <i name="e_0_energy">   -650.04544373 </i>
   </energy>
  </scstep>
  <scstep>
   <time name="diag">    1.32    1.34</time>
   <time name="diis">   14.60   14.88</time>
   <time name="orth">    0.38    0.38</time>
   <time name="total">   16.49   16.80</time>
   <energy>
    <i name="e_fr_energy">   -650.09891753 </i>
    <i name="e_wo_entrp">   -649.98738294 </i>
    <i name="e_0_energy">   -650.04315023 </i>
   </energy>
  </scstep>
  <scstep>
   <time name="diag">    1.43    1.45</time>
   <time name="diis">   19.46   19.87</time>
   <time name="orth">    0.37    0.38</time>
   <time name="total">   21.47   21.91</time>
   <energy>
    <i name="e_fr_energy">   -650.09893074 </i>
    <i name="e_wo_entrp">   -649.98742313 </i>
    <i name="e_0_energy">   -650.04317694 </i>
   </energy>
  </scstep>
  <scstep>
   <time name="diag">    1.33    1.35</time>
   <time name="diis">   16.93   17.29</time>
   <time name="orth">    0.37    0.38</time>
   <time name="total">   18.82   19.21</time>
   <energy>
    <i name="e_fr_energy">   -650.09887225 </i>
    <i name="e_wo_entrp">   -649.98740033 </i>
    <i name="e_0_energy">   -650.04313629 </i>
   </energy>
  </scstep>
  <scstep>
   <time name="diag">    1.43    1.45</time>
   <time name="diis">   16.61   16.92</time>
   <time name="orth">    0.36    0.37</time>
   <time name="total">   18.60   18.93</time>
   <energy>
    <i name="e_fr_energy">   -650.09886190 </i>
    <i name="e_wo_entrp">   -649.98736954 </i>
    <i name="e_0_energy">   -650.04311572 </i>
   </energy>
  </scstep>
  <scstep>
   <time name="diag">    1.36    1.38</time>
   <time name="diis">    9.14    9.32</time>
   <time name="orth">    0.35    0.35</time>
   <time name="total">   10.88   11.08</time>
   <energy>
    <i name="alphaZ">   4325.69929568 </i>
    <i name="ewald"> -36744.59706198 </i>
    <i name="hartreedc">  -7066.74896091 </i>
    <i name="XCdc">   1304.42775328 </i>
    <i name="pawpsdc">  28233.53154857 </i>
    <i name="pawaedc"> -27707.22440105 </i>
    <i name="eentropy">     -0.11149562 </i>
    <i name="bandstr">  -4803.15126289 </i>
    <i name="atom">  41808.07572539 </i>
    <i name="e_fr_energy">   -650.09885953 </i>
    <i name="e_wo_entrp">   -649.98736391 </i>
    <i name="e_0_energy">   -650.04311172 </i>
   </energy>
  </scstep>
  <structure>
   <crystal>
    <varray name="basis" >
     <v>       8.88906671       0.00402110       0.01824111 </v>
     <v>       0.00974919       9.00954000      -0.00720777 </v>
     <v>       0.05016606      -0.02273088       8.86933959 </v>
    </varray>
    <i name="volume">    710.30344220 </i>
    <varray name="rec_basis" >
     <v>       0.11249911      -0.00012224      -0.00063662 </v>
     <v>      -0.00005079       0.11099374       0.00028475 </v>
     <v>      -0.00023141       0.00009045       0.11274951 </v>
    </varray>
   </crystal>
   <varray name="positions" >
    <v>       0.99712573       0.99653666       0.99380527 </v>
    <v>       0.25541288       0.99900968       0.25271033 </v>
    <v>       0.24338828       0.50183313       0.25077515 </v>
    <v>       0.50441414       0.50055336       0.99884170 </v>
    <v>       0.51153241       0.24466153       0.74304858 </v>
    <v>       0.99289338       0.50101174       0.50170363 </v>
    <v>       0.49377675       0.75744162       0.75180241 </v>
    <v>       0.99020079       0.22716843       0.27107885 </v>
    <v>       0.76921275       0.74038682       0.99310315 </v>
    <v>       0.01340478       0.23610286       0.73125238 </v>
    <v>       0.75718730       0.27482709       0.49012381 </v>
    <v>       0.99580859       0.73012226       0.75908425 </v>
    <v>       0.26597594       0.49499078       0.74601218 </v>
    <v>       0.24600331       0.25186916       0.99624270 </v>
    <v>       0.51153009       0.25932677       0.25224881 </v>
    <v>       0.74882626       0.99163993       0.26932138 </v>
    <v>       0.76172229       0.26085758       0.99287188 </v>
    <v>       0.24558788       0.75135935       0.00161023 </v>
    <v>       0.25653774       0.25139990       0.50050872 </v>
    <v>       0.24066364       0.75140571       0.50359610 </v>
    <v>       0.25298191       0.24838247       0.24927658 </v>
    <v>       0.26108423       0.00282407       0.99253832 </v>
    <v>       0.00301785       0.25439279       0.00978258 </v>
    <v>       0.75443312       0.24798784       0.25003624 </v>
    <v>       0.75037181       0.00180629       0.00666180 </v>
    <v>       0.50677088       0.99929903       0.23965336 </v>
    <v>       0.98813815       0.48435020       0.24445269 </v>
    <v>       0.50249507       0.76232966       0.00958847 </v>
    <v>       0.97978883       0.99227180       0.73395315 </v>
    <v>       0.76042442       0.22754575       0.74528734 </v>
    <v>       0.74213135       0.99040255       0.51220331 </v>
    <v>       0.50579412       0.22589979       0.49320803 </v>
    <v>       0.48564211       0.00108291       0.73712090 </v>
    <v>       0.99801703       0.99307790       0.26099869 </v>
    <v>       0.50653843       0.24911522       0.99980357 </v>
    <v>       0.25105001       0.75103502       0.25140998 </v>
    <v>       0.24339059       0.50201258       0.99593781 </v>
    <v>       0.00014056       0.74596935       0.01334555 </v>
    <v>       0.75503858       0.74157297       0.25332170 </v>
    <v>       0.75857405       0.50706915       0.00033246 </v>
    <v>       0.50773962       0.50516746       0.25967520 </v>
    <v>       0.25328914       0.25455196       0.74778193 </v>
    <v>       0.24972911       0.00045384       0.50829769 </v>
    <v>       0.99477158       0.23888048       0.50410466 </v>
    <v>       0.23771384       0.75933282       0.75277154 </v>
    <v>       0.25745113       0.50126041       0.50278973 </v>
    <v>       0.98809299       0.75823368       0.50120179 </v>
    <v>       0.99035065       0.48716202       0.75871345 </v>
    <v>       0.74791172       0.74653829       0.74297368 </v>
    <v>       0.73839152       0.50660108       0.50106590 </v>
    <v>       0.50188903       0.74706012       0.49816913 </v>
    <v>       0.50489722       0.50277742       0.73792077 </v>
    <v>       0.51871666       0.01409116       0.98201908 </v>
    <v>       0.99730319       0.51560759       0.98720349 </v>
    <v>       0.50769475       0.74199174       0.25895255 </v>
    <v>       0.22092016       0.01752194       0.74524034 </v>
    <v>       0.49042388       0.97972834       0.48844324 </v>
    <v>       0.73785521       0.97843859       0.76105958 </v>
    <v>       0.99592156       0.77708684       0.26247837 </v>
    <v>       0.74163806       0.51526781       0.26365861 </v>
    <v>       0.01884993       0.00055693       0.50531593 </v>
    <v>       0.50043224       0.53184280       0.49892359 </v>
    <v>       0.73212571       0.53087442       0.73832190 </v>
    <v>       0.75886343       0.73804033       0.49426399 </v>
   </varray>
  </structure>
  <varray name="forces" >
   <v>       0.00049256      -0.00021196      -0.00023780 </v>
   <v>      -0.00118585       0.00096967      -0.00161530 </v>
   <v>       0.00226887       0.00002195      -0.00028210 </v>
   <v>       0.00033406       0.00018434       0.00110485 </v>
   <v>      -0.00226655       0.00105086       0.00029929 </v>
   <v>      -0.00295111      -0.00263242       0.00032283 </v>
   <v>       0.00239010      -0.00135390      -0.00103990 </v>
   <v>      -0.00209681      -0.00120587       0.00044554 </v>
   <v>       0.00546745      -0.00183134       0.00159157 </v>
   <v>       0.00777850      -0.00361937      -0.00017917 </v>
   <v>       0.00272008       0.00382376       0.00081586 </v>
   <v>      -0.00017114      -0.00325023       0.00186417 </v>
   <v>      -0.00014181       0.00489310      -0.00044960 </v>
   <v>       0.00022402       0.00014537      -0.00220230 </v>
   <v>       0.00260369       0.00027854       0.00032800 </v>
   <v>       0.00037818      -0.00094323      -0.00162146 </v>
   <v>      -0.00137264      -0.00123254       0.00101011 </v>
   <v>      -0.00240904      -0.00208906      -0.00024902 </v>
   <v>      -0.00123425      -0.00004368       0.00349206 </v>
   <v>       0.00299576       0.00034622       0.00017677 </v>
   <v>       0.00178027       0.00132205      -0.00089741 </v>
   <v>       0.00131037      -0.00066970      -0.00007435 </v>
   <v>      -0.00067890       0.00176415      -0.00178561 </v>
   <v>      -0.00050417      -0.00245488       0.00135806 </v>
   <v>      -0.00133021      -0.00154101      -0.00242178 </v>
   <v>       0.00000569       0.00093887       0.00468135 </v>
   <v>      -0.00099271      -0.00019651      -0.00323270 </v>
   <v>       0.00029145       0.00081059       0.00129014 </v>
   <v>      -0.00257800       0.00252498       0.00124545 </v>
   <v>      -0.00218477       0.00066374      -0.00044570 </v>
   <v>      -0.00036995       0.00102973      -0.00073785 </v>
   <v>       0.00045860      -0.00069676       0.00062233 </v>
   <v>      -0.00670540       0.00046957       0.00332013 </v>
   <v>       0.00007202      -0.00202213      -0.00076113 </v>
   <v>      -0.00051641      -0.00044987       0.00021125 </v>
   <v>       0.00094078       0.00062566      -0.00055428 </v>
   <v>      -0.00030100       0.00005450      -0.00016998 </v>
   <v>      -0.00349768      -0.00405781      -0.00312846 </v>
   <v>      -0.00219706      -0.00186304       0.00111125 </v>
   <v>       0.00067628       0.00005302       0.00156426 </v>
   <v>       0.00045915       0.00082382      -0.00038362 </v>
   <v>      -0.00187757       0.00030314      -0.00009884 </v>
   <v>      -0.00133574       0.00085292      -0.00323794 </v>
   <v>      -0.00041385       0.00085675       0.00198648 </v>
   <v>       0.00006001      -0.00104194      -0.00052543 </v>
   <v>      -0.00017854       0.00049874      -0.00037653 </v>
   <v>       0.00078827      -0.00097112      -0.00010945 </v>
   <v>       0.00002817       0.00102495       0.00336267 </v>
   <v>       0.00048529      -0.00088096       0.00181961 </v>
   <v>       0.00143609       0.00010712      -0.00357053 </v>
   <v>       0.00082456      -0.00361631      -0.00296562 </v>
   <v>       0.00166996      -0.00126807       0.00012391 </v>
   <v>       0.00177702       0.00133447       0.00041864 </v>
   <v>      -0.00177659       0.00582202      -0.00388828 </v>
   <v>      -0.00057819      -0.00397318       0.00216998 </v>
   <v>      -0.00078837       0.00029578      -0.00179466 </v>
   <v>      -0.00134997      -0.00309528       0.00662850 </v>
   <v>      -0.00395467      -0.00224297      -0.00157989 </v>
   <v>       0.00127990       0.00324207      -0.00078043 </v>
   <v>      -0.00238227       0.00469689      -0.00134007 </v>
   <v>       0.00318768       0.00380628      -0.00008652 </v>
   <v>       0.00214239       0.00428998      -0.00110738 </v>
   <v>       0.00089319       0.00218194      -0.00087661 </v>
   <v>       0.00210078      -0.00265239       0.00144265 </v>
  </varray>
  <varray name="stress" >
   <v>      -0.83607152       0.02736756       0.00527560 </v>
   <v>       0.02736764      -0.85034456      -0.00511164 </v>
   <v>       0.00527773      -0.00511150      -0.86544711 </v>
  </varray>
  <energy>
   <i name="e_fr_energy">   -650.09885953 </i>
   <i name="e_wo_entrp">   -649.98736391 </i>
   <i name="e_0_energy">   -650.04311172 </i>
  </energy>
  <time name="totalsc">  157.66  160.92</time>
  <eigenvalues>
   <array>
    <dimension dim="1">band</dimension>
    <dimension dim="2">kpoint</dimension>
    <dimension dim="3">spin</dimension>
    <field>eigene</field>
    <field>occ</field>
    <set>
     <set comment="spin 1">
      <set comment="kpoint 1">
       <r>  -57.2262    1.0000 </r>
       <r>  -57.2110    1.0000 </r>
       <r>  -57.1921    1.0000 </r>
       <r>  -57.1582    1.0000 </r>
       <r>  -57.1282    1.0000 </r>
       <r>  -57.0651    1.0000 </r>
       <r>  -41.6799    1.0000 </r>
       <r>  -41.2002    1.0000 </r>
       <r>  -41.1190    1.0000 </r>
       <r>  -41.0875    1.0000 </r>
       <r>  -41.0370    1.0000 </r>
       <r>  -40.9799    1.0000 </r>
       <r>  -40.9714    1.0000 </r>
       <r>  -31.8679    1.0000 </r>
       <r>  -31.7620    1.0000 </r>
       <r>  -31.7218    1.0000 </r>
       <r>  -31.6750    1.0000 </r>
       <r>  -31.6578    1.0000 </r>
       <r>  -31.6364    1.0000 </r>
       <r>  -31.6121    1.0000 </r>
       <r>  -31.5919    1.0000 </r>
       <r>  -31.5460    1.0000 </r>
       <r>  -31.5251    1.0000 </r>
       <r>  -31.5212    1.0000 </r>
       <r>  -31.5011    1.0000 </r>
       <r>  -31.4840    1.0000 </r>
       <r>  -31.4512    1.0000 </r>
       <r>  -31.4486    1.0000 </r>
       <r>  -31.4350    1.0000 </r>
       <r>  -31.4204    1.0000 </r>
       <r>  -31.3313    1.0000 </r>
       <r>  -31.2754    1.0000 </r>
       <r>  -31.2294    1.0000 </r>
       <r>  -31.2084    1.0000 </r>
       <r>  -31.1972    1.0000 </r>
       <r>  -31.1832    1.0000 </r>
       <r>  -31.1571    1.0000 </r>
       <r>  -31.1439    1.0000 </r>
       <r>  -31.1313    1.0000 </r>
       <r>  -31.1271    1.0000 </r>
       <r>  -31.0973    1.0000 </r>
       <r>  -31.0847    1.0000 </r>
       <r>  -31.0708    1.0000 </r>
       <r>  -31.0697    1.0000 </r>
       <r>  -31.0637    1.0000 </r>
       <r>  -31.0252    1.0000 </r>
       <r>  -31.0230    1.0000 </r>
       <r>  -30.9984    1.0000 </r>
       <r>  -30.9530    1.0000 </r>
       <r>  -23.5836    1.0000 </r>
       <r>  -23.4453    1.0000 </r>
       <r>  -23.4316    1.0000 </r>
       <r>  -23.4171    1.0000 </r>
       <r>  -23.3783    1.0000 </r>
       <r>  -23.3499    1.0000 </r>
       <r>  -23.3104    1.0000 </r>
       <r>  -23.2716    1.0000 </r>
       <r>  -23.2085    1.0000 </r>
       <r>  -23.0760    1.0000 </r>
       <r>  -23.0617    1.0000 </r>
       <r>  -23.0325    1.0000 </r>
       <r>  -22.9736    1.0000 </r>
       <r>  -22.9386    1.0000 </r>
       <r>  -22.9254    1.0000 </r>
       <r>  -22.9082    1.0000 </r>
       <r>  -22.8697    1.0000 </r>
       <r>  -22.8161    1.0000 </r>
       <r>  -22.4995    1.0000 </r>
       <r>  -22.4722    1.0000 </r>
       <r>  -22.4627    1.0000 </r>
       <r>  -20.0408    1.0000 </r>
       <r>  -19.9737    1.0000 </r>
       <r>  -19.9478    1.0000 </r>
       <r>  -19.6237    1.0000 </r>
       <r>  -19.5726    1.0000 </r>
       <r>  -19.5544    1.0000 </r>
       <r>  -19.5393    1.0000 </r>
       <r>  -19.5112    1.0000 </r>
       <r>  -19.4616    1.0000 </r>
       <r>  -19.4548    1.0000 </r>
       <r>  -19.4471    1.0000 </r>
       <r>  -19.4453    1.0000 </r>
       <r>  -19.4032    1.0000 </r>
       <r>  -19.3684    1.0000 </r>
       <r>  -19.3309    1.0000 </r>
       <r>  -19.2860    1.0000 </r>
       <r>  -19.2811    1.0000 </r>
       <r>  -19.2608    1.0000 </r>
       <r>  -19.2323    1.0000 </r>
       <r>  -19.1889    1.0000 </r>
       <r>  -19.0610    1.0000 </r>
       <r>   -8.8649    1.0000 </r>
       <r>   -8.3006    1.0000 </r>
       <r>   -8.1957    1.0000 </r>
       <r>   -8.1073    1.0000 </r>
       <r>   -7.7140    1.0000 </r>
       <r>   -7.6530    1.0000 </r>
       <r>   -7.4977    1.0000 </r>
       <r>   -7.4117    1.0000 </r>
       <r>   -7.3847    1.0000 </r>
       <r>   -7.2772    1.0000 </r>
       <r>   -7.1267    1.0000 </r>
       <r>   -6.9932    1.0000 </r>
       <r>   -6.6870    1.0000 </r>
       <r>   -4.9216    1.0000 </r>
       <r>   -4.3240    1.0000 </r>
       <r>   -4.2392    1.0000 </r>
       <r>   -4.1815    1.0000 </r>
       <r>   -4.0435    1.0000 </r>
       <r>   -3.9660    1.0000 </r>
       <r>   -3.7459    1.0000 </r>
       <r>   -3.7060    1.0000 </r>
       <r>   -3.6054    1.0000 </r>
       <r>   -3.4721    1.0000 </r>
       <r>   -3.4362    1.0000 </r>
       <r>   -3.4056    1.0000 </r>
       <r>   -3.3353    1.0000 </r>
       <r>   -3.2174    1.0000 </r>
       <r>   -3.1602    1.0000 </r>
       <r>   -2.8896    1.0000 </r>
       <r>   -2.8463    1.0000 </r>
       <r>   -2.4524    1.0000 </r>
       <r>   -2.4196    1.0000 </r>
       <r>   -0.4980    1.0000 </r>
       <r>   -0.4681    1.0000 </r>
       <r>   -0.3232    1.0000 </r>
       <r>   -0.1769    1.0000 </r>
       <r>    0.3228    1.0000 </r>
       <r>    0.6747    1.0000 </r>
       <r>    0.7011    1.0000 </r>
       <r>    0.7503    1.0000 </r>
       <r>    0.8162    1.0000 </r>
       <r>    0.8459    1.0000 </r>
       <r>    0.8667    1.0000 </r>
       <r>    0.9737    1.0000 </r>
       <r>    1.0154    1.0000 </r>
       <r>    1.0795    1.0000 </r>
       <r>    1.0997    1.0000 </r>
       <r>    1.1560    1.0000 </r>
       <r>    1.4781    1.0000 </r>
       <r>    1.5192    1.0000 </r>
       <r>    1.6571    1.0000 </r>
       <r>    1.7373    1.0000 </r>
       <r>    1.7477    1.0000 </r>
       <r>    1.8956    1.0000 </r>
       <r>    1.9438    1.0000 </r>
       <r>    1.9730    1.0000 </r>
       <r>    1.9989    1.0000 </r>
       <r>    2.0314    1.0000 </r>
       <r>    2.1496    1.0000 </r>
       <r>    2.2122    1.0000 </r>
       <r>    2.2403    1.0000 </r>
       <r>    2.2726    1.0000 </r>
       <r>    2.3321    1.0000 </r>
       <r>    2.3403    1.0000 </r>
       <r>    2.4216    1.0000 </r>
       <r>    2.4579    1.0000 </r>
       <r>    2.5074    1.0000 </r>
       <r>    2.5304    1.0000 </r>
       <r>    2.5595    1.0000 </r>
       <r>    2.5704    1.0000 </r>
       <r>    2.6039    1.0000 </r>
       <r>    2.6317    1.0000 </r>
       <r>    2.6842    1.0000 </r>
       <r>    2.7362    1.0000 </r>
       <r>    2.7535    1.0000 </r>
       <r>    2.7823    1.0000 </r>
       <r>    2.8197    1.0000 </r>
       <r>    2.8257    1.0000 </r>
       <r>    2.8657    1.0000 </r>
       <r>    2.8696    1.0000 </r>
       <r>    2.9201    1.0000 </r>
       <r>    2.9538    1.0000 </r>
       <r>    3.0156    1.0000 </r>
       <r>    3.0484    1.0000 </r>
       <r>    3.0780    1.0000 </r>
       <r>    3.1400    1.0000 </r>
       <r>    3.1699    1.0000 </r>
       <r>    3.2159    1.0000 </r>
       <r>    3.2240    1.0000 </r>
       <r>    3.2472    1.0000 </r>
       <r>    3.2872    1.0000 </r>
       <r>    3.2965    1.0000 </r>
       <r>    3.3055    1.0000 </r>
       <r>    3.3694    1.0000 </r>
       <r>    3.4120    1.0000 </r>
       <r>    3.4443    1.0000 </r>
       <r>    3.4832    1.0000 </r>
       <r>    3.5196    1.0000 </r>
       <r>    3.5294    1.0000 </r>
       <r>    3.5815    1.0000 </r>
       <r>    3.5910    1.0000 </r>
       <r>    3.6059    1.0000 </r>
       <r>    3.6891    1.0000 </r>
       <r>    3.7102    1.0000 </r>
       <r>    3.7914    1.0000 </r>
       <r>    3.8192    1.0000 </r>
       <r>    3.9489    1.0000 </r>
       <r>    4.0555    1.0000 </r>
       <r>    4.0811    1.0000 </r>
       <r>    4.2154    1.0000 </r>
       <r>    4.3928    1.0000 </r>
       <r>    4.4868    1.0000 </r>
       <r>    4.5485    1.0000 </r>
       <r>    4.6543    1.0000 </r>
       <r>    4.7736    1.0000 </r>
       <r>    4.8369    1.0000 </r>
       <r>    4.8594    1.0000 </r>
       <r>    4.9263    1.0000 </r>
       <r>    4.9757    1.0000 </r>
       <r>    5.0061    1.0000 </r>
       <r>    5.0539    1.0000 </r>
       <r>    5.1200    1.0000 </r>
       <r>    5.2208    1.0000 </r>
       <r>    5.2433    1.0000 </r>
       <r>    5.2815    1.0000 </r>
       <r>    5.3576    1.0000 </r>
       <r>    5.4202    1.0000 </r>
       <r>    5.4518    1.0000 </r>
       <r>    5.5467    1.0000 </r>
       <r>    5.6222    1.0000 </r>
       <r>    5.6418    1.0000 </r>
       <r>    5.7279    1.0000 </r>
       <r>    6.0241    1.0000 </r>
       <r>    6.0690    1.0000 </r>
       <r>    6.3015    1.0000 </r>
       <r>    6.3336    1.0000 </r>
       <r>    6.3733    1.0000 </r>
       <r>    6.5757    1.0000 </r>
       <r>    6.6435    1.0000 </r>
       <r>    6.7027    1.0000 </r>
       <r>    7.0472    1.0000 </r>
       <r>    7.1036    1.0000 </r>
       <r>    7.2526    1.0000 </r>
       <r>    7.4143    0.9999 </r>
       <r>    7.5618    0.9407 </r>
       <r>    7.6566    0.5871 </r>
       <r>    7.6977    0.3588 </r>
       <r>    7.7407    0.1661 </r>
       <r>    7.8355    0.0104 </r>
       <r>    7.8787    0.0017 </r>
       <r>    7.9211    0.0002 </r>
       <r>    8.0175    0.0000 </r>
       <r>    8.1347    0.0000 </r>
       <r>    8.1850    0.0000 </r>
       <r>    8.2075    0.0000 </r>
       <r>    8.2243    0.0000 </r>
       <r>    8.2734    0.0000 </r>
       <r>    8.3355    0.0000 </r>
       <r>    8.3851    0.0000 </r>
       <r>    8.4501    0.0000 </r>
       <r>    8.4550    0.0000 </r>
       <r>    8.5252    0.0000 </r>
       <r>    8.5451    0.0000 </r>
       <r>    8.6195    0.0000 </r>
       <r>    8.6373    0.0000 </r>
       <r>    8.6932    0.0000 </r>
       <r>    8.7119    0.0000 </r>
       <r>    8.7450    0.0000 </r>
       <r>    8.8220    0.0000 </r>
       <r>    8.8370    0.0000 </r>
       <r>    8.8620    0.0000 </r>
       <r>    8.9006    0.0000 </r>
       <r>    8.9743    0.0000 </r>
       <r>    8.9893    0.0000 </r>
       <r>    8.9953    0.0000 </r>
       <r>    9.0455    0.0000 </r>
       <r>    9.0823    0.0000 </r>
       <r>    9.1445    0.0000 </r>
       <r>    9.2022    0.0000 </r>
       <r>    9.2127    0.0000 </r>
       <r>    9.2552    0.0000 </r>
       <r>    9.3054    0.0000 </r>
       <r>    9.3356    0.0000 </r>
       <r>    9.4011    0.0000 </r>
       <r>    9.4263    0.0000 </r>
       <r>    9.4787    0.0000 </r>
       <r>    9.5006    0.0000 </r>
       <r>    9.5823    0.0000 </r>
       <r>    9.6048    0.0000 </r>
       <r>    9.6941    0.0000 </r>
       <r>    9.7460    0.0000 </r>
       <r>    9.7896    0.0000 </r>
       <r>    9.8035    0.0000 </r>
       <r>    9.8180    0.0000 </r>
       <r>    9.9150    0.0000 </r>
       <r>    9.9536    0.0000 </r>
       <r>   10.0096    0.0000 </r>
       <r>   10.0527    0.0000 </r>
       <r>   10.0677    0.0000 </r>
       <r>   10.1856    0.0000 </r>
       <r>   10.2020    0.0000 </r>
       <r>   10.2432    0.0000 </r>
       <r>   10.3073    0.0000 </r>
       <r>   10.3774    0.0000 </r>
       <r>   10.3939    0.0000 </r>
       <r>   10.4533    0.0000 </r>
       <r>   10.4808    0.0000 </r>
       <r>   10.5483    0.0000 </r>
       <r>   10.6036    0.0000 </r>
       <r>   10.6578    0.0000 </r>
       <r>   10.6765    0.0000 </r>
       <r>   10.6995    0.0000 </r>
       <r>   10.7675    0.0000 </r>
       <r>   10.8413    0.0000 </r>
       <r>   10.8652    0.0000 </r>
       <r>   10.9307    0.0000 </r>
       <r>   11.0681    0.0000 </r>
      </set>
      <set comment="kpoint 2">
       <r>  -57.2261    1.0000 </r>
       <r>  -57.2110    1.0000 </r>
       <r>  -57.1920    1.0000 </r>
       <r>  -57.1582    1.0000 </r>
       <r>  -57.1281    1.0000 </r>
       <r>  -57.0651    1.0000 </r>
       <r>  -41.6799    1.0000 </r>
       <r>  -41.2002    1.0000 </r>
       <r>  -41.1190    1.0000 </r>
       <r>  -41.0875    1.0000 </r>
       <r>  -41.0370    1.0000 </r>
       <r>  -40.9799    1.0000 </r>
       <r>  -40.9715    1.0000 </r>
       <r>  -31.8680    1.0000 </r>
       <r>  -31.7615    1.0000 </r>
       <r>  -31.7212    1.0000 </r>
       <r>  -31.6745    1.0000 </r>
       <r>  -31.6596    1.0000 </r>
       <r>  -31.6375    1.0000 </r>
       <r>  -31.6109    1.0000 </r>
       <r>  -31.5918    1.0000 </r>
       <r>  -31.5460    1.0000 </r>
       <r>  -31.5251    1.0000 </r>
       <r>  -31.5211    1.0000 </r>
       <r>  -31.5011    1.0000 </r>
       <r>  -31.4841    1.0000 </r>
       <r>  -31.4512    1.0000 </r>
       <r>  -31.4490    1.0000 </r>
       <r>  -31.4352    1.0000 </r>
       <r>  -31.4199    1.0000 </r>
       <r>  -31.3313    1.0000 </r>
       <r>  -31.2754    1.0000 </r>
       <r>  -31.2293    1.0000 </r>
       <r>  -31.2083    1.0000 </r>
       <r>  -31.1972    1.0000 </r>
       <r>  -31.1832    1.0000 </r>
       <r>  -31.1569    1.0000 </r>
       <r>  -31.1441    1.0000 </r>
       <r>  -31.1311    1.0000 </r>
       <r>  -31.1271    1.0000 </r>
       <r>  -31.0972    1.0000 </r>
       <r>  -31.0847    1.0000 </r>
       <r>  -31.0706    1.0000 </r>
       <r>  -31.0698    1.0000 </r>
       <r>  -31.0636    1.0000 </r>
       <r>  -31.0250    1.0000 </r>
       <r>  -31.0229    1.0000 </r>
       <r>  -30.9983    1.0000 </r>
       <r>  -30.9529    1.0000 </r>
       <r>  -23.5843    1.0000 </r>
       <r>  -23.4451    1.0000 </r>
       <r>  -23.4316    1.0000 </r>
       <r>  -23.4147    1.0000 </r>
       <r>  -23.3777    1.0000 </r>
       <r>  -23.3500    1.0000 </r>
       <r>  -23.3101    1.0000 </r>
       <r>  -23.2743    1.0000 </r>
       <r>  -23.2085    1.0000 </r>
       <r>  -23.0759    1.0000 </r>
       <r>  -23.0616    1.0000 </r>
       <r>  -23.0323    1.0000 </r>
       <r>  -22.9734    1.0000 </r>
       <r>  -22.9386    1.0000 </r>
       <r>  -22.9255    1.0000 </r>
       <r>  -22.9083    1.0000 </r>
       <r>  -22.8698    1.0000 </r>
       <r>  -22.8161    1.0000 </r>
       <r>  -22.4995    1.0000 </r>
       <r>  -22.4722    1.0000 </r>
       <r>  -22.4627    1.0000 </r>
       <r>  -20.0405    1.0000 </r>
       <r>  -19.9738    1.0000 </r>
       <r>  -19.9473    1.0000 </r>
       <r>  -19.6243    1.0000 </r>
       <r>  -19.5730    1.0000 </r>
       <r>  -19.5547    1.0000 </r>
       <r>  -19.5393    1.0000 </r>
       <r>  -19.5113    1.0000 </r>
       <r>  -19.4617    1.0000 </r>
[...]
      </set>
     </set>
    </set>
   </array>
  </eigenvalues>
  <separator name="orbital magnetization" >
   <v name="MAGDIPOLOUT">      0.00000000      0.00000000      0.00000000</v>
  </separator>
  <dos>
   <i name="efermi">      7.67214799 </i>
   <total>
    <array>
     <dimension dim="1">gridpoints</dimension>
     <dimension dim="2">spin</dimension>
     <field>energy</field>
     <field>total</field>
     <field>integrated</field>
     <set>
      <set comment="spin 1">
       <r>   -60.6573     0.0000     0.0000 </r>
       <r>   -60.4057     0.0000     0.0000 </r>
       <r>   -60.1541     0.0000     0.0000 </r>
       <r>   -59.9025     0.0000     0.0000 </r>
       <r>   -59.6509     0.0000     0.0000 </r>
       <r>   -59.3992     0.0000     0.0000 </r>
       <r>   -59.1476     0.0000     0.0000 </r>
       <r>   -58.8960     0.0000     0.0000 </r>
       <r>   -58.6444     0.0000     0.0000 </r>
       <r>   -58.3928     0.0000     0.0000 </r>
       <r>   -58.1411     0.0000     0.0000 </r>
       <r>   -57.8895     0.0000     0.0000 </r>
       <r>   -57.6379     0.0000     0.0000 </r>
       <r>   -57.3863     0.1755     0.0442 </r>
       <r>   -57.1347    30.0982     7.6175 </r>
       <r>   -56.8830    17.3748    11.9893 </r>
       <r>   -56.6314     0.0425    12.0000 </r>
       <r>   -56.3798     0.0000    12.0000 </r>
       <r>   -56.1282     0.0000    12.0000 </r>
       <r>   -55.8766     0.0000    12.0000 </r>
       <r>   -55.6250     0.0000    12.0000 </r>
       <r>   -55.3733     0.0000    12.0000 </r>
       <r>   -55.1217     0.0000    12.0000 </r>
       <r>   -54.8701     0.0000    12.0000 </r>
       <r>   -54.6185     0.0000    12.0000 </r>
       <r>   -54.3669     0.0000    12.0000 </r>
       <r>   -54.1152     0.0000    12.0000 </r>
       <r>   -53.8636     0.0000    12.0000 </r>
       <r>   -53.6120     0.0000    12.0000 </r>
       <r>   -53.3604     0.0000    12.0000 </r>
       <r>   -53.1088     0.0000    12.0000 </r>
       <r>   -52.8571     0.0000    12.0000 </r>
       <r>   -52.6055     0.0000    12.0000 </r>
       <r>   -52.3539     0.0000    12.0000 </r>
       <r>   -52.1023     0.0000    12.0000 </r>
       <r>   -51.8507     0.0000    12.0000 </r>
       <r>   -51.5990     0.0000    12.0000 </r>
       <r>   -51.3474     0.0000    12.0000 </r>
       <r>   -51.0958     0.0000    12.0000 </r>
       <r>   -50.8442     0.0000    12.0000 </r>
       <r>   -50.5926     0.0000    12.0000 </r>
       <r>   -50.3409     0.0000    12.0000 </r>
       <r>   -50.0893     0.0000    12.0000 </r>
       <r>   -49.8377     0.0000    12.0000 </r>
       <r>   -49.5861     0.0000    12.0000 </r>
       <r>   -49.3345     0.0000    12.0000 </r>
       <r>   -49.0828     0.0000    12.0000 </r>
       <r>   -48.8312     0.0000    12.0000 </r>
       <r>   -48.5796     0.0000    12.0000 </r>
       <r>   -48.3280     0.0000    12.0000 </r>
       <r>   -48.0764     0.0000    12.0000 </r>
       <r>   -47.8247     0.0000    12.0000 </r>
       <r>   -47.5731     0.0000    12.0000 </r>
       <r>   -47.3215     0.0000    12.0000 </r>
       <r>   -47.0699     0.0000    12.0000 </r>
       <r>   -46.8183     0.0000    12.0000 </r>
       <r>   -46.5666     0.0000    12.0000 </r>
       <r>   -46.3150     0.0000    12.0000 </r>
       <r>   -46.0634     0.0000    12.0000 </r>
       <r>   -45.8118     0.0000    12.0000 </r>
       <r>   -45.5602     0.0000    12.0000 </r>
       <r>   -45.3085     0.0000    12.0000 </r>
       <r>   -45.0569     0.0000    12.0000 </r>
       <r>   -44.8053     0.0000    12.0000 </r>
       <r>   -44.5537     0.0000    12.0000 </r>
       <r>   -44.3021     0.0000    12.0000 </r>
       <r>   -44.0505     0.0000    12.0000 </r>
       <r>   -43.7988     0.0000    12.0000 </r>
       <r>   -43.5472     0.0000    12.0000 </r>
       <r>   -43.2956     0.0000    12.0000 </r>
       <r>   -43.0440     0.0000    12.0000 </r>
       <r>   -42.7924     0.0000    12.0000 </r>
       <r>   -42.5407     0.0000    12.0000 </r>
       <r>   -42.2891     0.0000    12.0000 </r>
       <r>   -42.0375     0.0000    12.0000 </r>
       <r>   -41.7859     0.5325    12.1340 </r>
       <r>   -41.5343     7.2594    13.9606 </r>
       <r>   -41.2826     1.2318    14.2705 </r>
       <r>   -41.0310    27.8671    21.2824 </r>
       <r>   -40.7794    18.7032    25.9885 </r>
       <r>   -40.5278     0.0456    26.0000 </r>
       <r>   -40.2762     0.0000    26.0000 </r>
       <r>   -40.0245     0.0000    26.0000 </r>
       <r>   -39.7729     0.0000    26.0000 </r>
       <r>   -39.5213     0.0000    26.0000 </r>
       <r>   -39.2697     0.0000    26.0000 </r>
       <r>   -39.0181     0.0000    26.0000 </r>
       <r>   -38.7664     0.0000    26.0000 </r>
       <r>   -38.5148     0.0000    26.0000 </r>
       <r>   -38.2632     0.0000    26.0000 </r>
       <r>   -38.0116     0.0000    26.0000 </r>
       <r>   -37.7600     0.0000    26.0000 </r>
       <r>   -37.5083     0.0000    26.0000 </r>
       <r>   -37.2567     0.0000    26.0000 </r>
       <r>   -37.0051     0.0000    26.0000 </r>
       <r>   -36.7535     0.0000    26.0000 </r>
       <r>   -36.5019     0.0000    26.0000 </r>
       <r>   -36.2502     0.0000    26.0000 </r>
       <r>   -35.9986     0.0000    26.0000 </r>
       <r>   -35.7470     0.0000    26.0000 </r>
       <r>   -35.4954     0.0000    26.0000 </r>
       <r>   -35.2438     0.0000    26.0000 </r>
       <r>   -34.9921     0.0000    26.0000 </r>
       <r>   -34.7405     0.0000    26.0000 </r>
       <r>   -34.4889     0.0000    26.0000 </r>
       <r>   -34.2373     0.0000    26.0000 </r>
       <r>   -33.9857     0.0000    26.0000 </r>
       <r>   -33.7340     0.0000    26.0000 </r>
       <r>   -33.4824     0.0000    26.0000 </r>
       <r>   -33.2308     0.0000    26.0000 </r>
       <r>   -32.9792     0.0000    26.0000 </r>
       <r>   -32.7276     0.0000    26.0000 </r>
       <r>   -32.4759     0.0000    26.0000 </r>
       <r>   -32.2243     0.0000    26.0000 </r>
       <r>   -31.9727     0.5623    26.1415 </r>
       <r>   -31.7211    22.2619    31.7430 </r>
       <r>   -31.4695    80.1407    51.9080 </r>
       <r>   -31.2179    64.9552    68.2520 </r>
       <r>   -30.9662   105.0983    94.6968 </r>
       <r>   -30.7146    13.1245    97.9992 </r>
       <r>   -30.4630     0.0033    98.0000 </r>
       <r>   -30.2114     0.0000    98.0000 </r>
       <r>   -29.9598     0.0000    98.0000 </r>
       <r>   -29.7081     0.0000    98.0000 </r>
       <r>   -29.4565     0.0000    98.0000 </r>
       <r>   -29.2049     0.0000    98.0000 </r>
       <r>   -28.9533     0.0000    98.0000 </r>
       <r>   -28.7017     0.0000    98.0000 </r>
       <r>   -28.4500     0.0000    98.0000 </r>
       <r>   -28.1984     0.0000    98.0000 </r>
       <r>   -27.9468     0.0000    98.0000 </r>
       <r>   -27.6952     0.0000    98.0000 </r>
       <r>   -27.4436     0.0000    98.0000 </r>
       <r>   -27.1919     0.0000    98.0000 </r>
       <r>   -26.9403     0.0000    98.0000 </r>
       <r>   -26.6887     0.0000    98.0000 </r>
       <r>   -26.4371     0.0000    98.0000 </r>
       <r>   -26.1855     0.0000    98.0000 </r>
       <r>   -25.9338     0.0000    98.0000 </r>
       <r>   -25.6822     0.0000    98.0000 </r>
       <r>   -25.4306     0.0000    98.0000 </r>
       <r>   -25.1790     0.0000    98.0000 </r>
       <r>   -24.9274     0.0000    98.0000 </r>
       <r>   -24.6757     0.0000    98.0000 </r>
       <r>   -24.4241     0.0000    98.0000 </r>
       <r>   -24.1725     0.0000    98.0000 </r>
       <r>   -23.9209     0.0000    98.0000 </r>
       <r>   -23.6693     0.9181    98.2310 </r>
       <r>   -23.4176    24.9085   104.4985 </r>
       <r>   -23.1660    44.4250   115.6767 </r>
       <r>   -22.9144    46.8514   127.4654 </r>
       <r>   -22.6628    25.9626   133.9981 </r>
       <r>   -22.4112    19.6299   138.9373 </r>
       <r>   -22.1595     4.2232   140.0000 </r>
       <r>   -21.9079     0.0001   140.0000 </r>
       <r>   -21.6563     0.0000   140.0000 </r>
       <r>   -21.4047     0.0000   140.0000 </r>
       <r>   -21.1531     0.0000   140.0000 </r>
       <r>   -20.9014     0.0000   140.0000 </r>
       <r>   -20.6498     0.0000   140.0000 </r>
       <r>   -20.3982     0.0000   140.0000 </r>
       <r>   -20.1466     0.6086   140.1531 </r>
       <r>   -19.8950    20.2072   145.2377 </r>
       <r>   -19.6434     9.0394   147.5121 </r>
       <r>   -19.3917    69.0785   164.8936 </r>
       <r>   -19.1401    57.6759   179.4060 </r>
       <r>   -18.8885    10.2515   181.9855 </r>
       <r>   -18.6369     0.0576   182.0000 </r>
       <r>   -18.3853     0.0000   182.0000 </r>
       <r>   -18.1336     0.0000   182.0000 </r>
       <r>   -17.8820     0.0000   182.0000 </r>
       <r>   -17.6304     0.0000   182.0000 </r>
       <r>   -17.3788     0.0000   182.0000 </r>
       <r>   -17.1272     0.0000   182.0000 </r>
       <r>   -16.8755     0.0000   182.0000 </r>
       <r>   -16.6239     0.0000   182.0000 </r>
       <r>   -16.3723     0.0000   182.0000 </r>
       <r>   -16.1207     0.0000   182.0000 </r>
       <r>   -15.8691     0.0000   182.0000 </r>
       <r>   -15.6174     0.0000   182.0000 </r>
       <r>   -15.3658     0.0000   182.0000 </r>
       <r>   -15.1142     0.0000   182.0000 </r>
       <r>   -14.8626     0.0000   182.0000 </r>
       <r>   -14.6110     0.0000   182.0000 </r>
       <r>   -14.3593     0.0000   182.0000 </r>
       <r>   -14.1077     0.0000   182.0000 </r>
       <r>   -13.8561     0.0000   182.0000 </r>
       <r>   -13.6045     0.0000   182.0000 </r>
       <r>   -13.3529     0.0000   182.0000 </r>
       <r>   -13.1012     0.0000   182.0000 </r>
       <r>   -12.8496     0.0000   182.0000 </r>
       <r>   -12.5980     0.0000   182.0000 </r>
       <r>   -12.3464     0.0000   182.0000 </r>
       <r>   -12.0948     0.0000   182.0000 </r>
       <r>   -11.8431     0.0000   182.0000 </r>
       <r>   -11.5915     0.0000   182.0000 </r>
       <r>   -11.3399     0.0000   182.0000 </r>
       <r>   -11.0883     0.0000   182.0000 </r>
       <r>   -10.8367     0.0000   182.0000 </r>
       <r>   -10.5850     0.0000   182.0000 </r>
       <r>   -10.3334     0.0000   182.0000 </r>
       <r>   -10.0818     0.0000   182.0000 </r>
       <r>    -9.8302     0.0000   182.0000 </r>
       <r>    -9.5786     0.0000   182.0000 </r>
       <r>    -9.3269     0.0000   182.0000 </r>
       <r>    -9.0753     0.0007   182.0002 </r>
       <r>    -8.8237     0.9114   182.2295 </r>
       <r>    -8.5721     5.9219   183.7196 </r>
       <r>    -8.3205     4.6108   184.8798 </r>
       <r>    -8.0688    15.7556   188.8442 </r>
       <r>    -7.8172     9.4712   191.2273 </r>
       <r>    -7.5656    11.7674   194.1882 </r>
       <r>    -7.3140    23.9450   200.2132 </r>
       <r>    -7.0624    16.4776   204.3593 </r>
       <r>    -6.8108     6.6913   206.0430 </r>
       <r>    -6.5591     7.2873   207.8766 </r>
       <r>    -6.3075     0.4903   208.0000 </r>
       <r>    -6.0559     0.0000   208.0000 </r>
       <r>    -5.8043     0.0000   208.0000 </r>
       <r>    -5.5527     0.0000   208.0000 </r>
       <r>    -5.3010     0.0000   208.0000 </r>
       <r>    -5.0494     0.0965   208.0243 </r>
       <r>    -4.7978     4.7706   209.2247 </r>
       <r>    -4.5462     5.9036   210.7101 </r>
       <r>    -4.2946    10.1939   213.2751 </r>
       <r>    -4.0429    13.3931   216.6451 </r>
       <r>    -3.7913    21.3914   222.0276 </r>
       <r>    -3.5397    23.0124   227.8179 </r>
       <r>    -3.2881    27.3982   234.7119 </r>
       <r>    -3.0365    19.0901   239.5153 </r>
       <r>    -2.7848    15.2832   243.3609 </r>
       <r>    -2.5332     9.0293   245.6328 </r>
       <r>    -2.2816     1.4494   245.9975 </r>
       <r>    -2.0300     0.0099   246.0000 </r>
       <r>    -1.7784     0.0000   246.0000 </r>
       <r>    -1.5267     0.0000   246.0000 </r>
       <r>    -1.2751     0.0000   246.0000 </r>
       <r>    -1.0235     0.0000   246.0000 </r>
       <r>    -0.7719     0.0000   246.0000 </r>
       <r>    -0.5203     0.1859   246.0468 </r>
       <r>    -0.2686     2.6605   246.7162 </r>
       <r>    -0.0170     7.3438   248.5640 </r>
       <r>     0.2346     9.7983   251.0295 </r>
       <r>     0.4862    10.9885   253.7944 </r>
       <r>     0.7378    17.1009   258.0973 </r>
       <r>     0.9895    23.3443   263.9712 </r>
       <r>     1.2411    29.1648   271.3097 </r>
       <r>     1.4927    28.1268   278.3869 </r>
       <r>     1.7443    31.1502   286.2249 </r>
       <r>     1.9959    34.5691   294.9232 </r>
       <r>     2.2476    37.6413   304.3945 </r>
       <r>     2.4992    44.8687   315.6843 </r>
       <r>     2.7508    53.3240   329.1017 </r>
       <r>     3.0024    57.4919   343.5678 </r>
       <r>     3.2540    57.6875   358.0831 </r>
       <r>     3.5057    59.4811   373.0497 </r>
       <r>     3.7573    56.7397   387.3265 </r>
       <r>     4.0089    48.7020   399.5809 </r>
       <r>     4.2605    41.4587   410.0127 </r>
       <r>     4.5121    32.7014   418.2410 </r>
       <r>     4.7637    29.9444   425.7756 </r>
       <r>     5.0154    18.8617   430.5216 </r>
       <r>     5.2670    18.8387   435.2618 </r>
       <r>     5.5186    11.3485   438.1173 </r>
       <r>     5.7702    14.2739   441.7089 </r>
       <r>     6.0218    17.2575   446.0512 </r>
       <r>     6.2735    17.2719   450.3972 </r>
       <r>     6.5251    20.6849   455.6019 </r>
       <r>     6.7767    21.4503   460.9992 </r>
       <r>     7.0283    21.0709   466.3011 </r>
       <r>     7.2799    22.2853   471.9085 </r>
       <r>     7.5316    23.7057   477.8733 </r>
       <r>     7.7832    23.2372   483.7202 </r>
       <r>     8.0348    29.0345   491.0259 </r>
       <r>     8.2864    34.7707   499.7749 </r>
       <r>     8.5380    40.7527   510.0291 </r>
       <r>     8.7897    46.3407   521.6893 </r>
       <r>     9.0413    46.7567   533.4542 </r>
       <r>     9.2929    42.9480   544.2608 </r>
       <r>     9.5445    39.9850   554.3218 </r>
       <r>     9.7961    38.9531   564.1231 </r>
       <r>    10.0478    40.9823   574.4351 </r>
       <r>    10.2994    39.7172   584.4287 </r>
       <r>    10.5510    36.0562   593.5012 </r>
       <r>    10.8026    35.0153   602.3117 </r>
       <r>    11.0542    33.5251   610.7472 </r>
       <r>    11.3059    18.1498   615.3141 </r>
       <r>    11.5575     2.7139   615.9970 </r>
       <r>    11.8091     0.0121   616.0000 </r>
       <r>    12.0607     0.0000   616.0000 </r>
       <r>    12.3123     0.0000   616.0000 </r>
       <r>    12.5640     0.0000   616.0000 </r>
       <r>    12.8156     0.0000   616.0000 </r>
       <r>    13.0672     0.0000   616.0000 </r>
       <r>    13.3188     0.0000   616.0000 </r>
       <r>    13.5704     0.0000   616.0000 </r>
       <r>    13.8221     0.0000   616.0000 </r>
       <r>    14.0737     0.0000   616.0000 </r>
       <r>    14.3253     0.0000   616.0000 </r>
       <r>    14.5769     0.0000   616.0000 </r>
       <r>    14.8285     0.0000   616.0000 </r>
      </set>
     </set>
    </array>
   </total>
  </dos>
 </calculation>
 <structure name="finalpos" >
  <crystal>
   <varray name="basis" >
    <v>       8.88906671       0.00402110       0.01824111 </v>
    <v>       0.00974919       9.00954000      -0.00720777 </v>
    <v>       0.05016606      -0.02273088       8.86933959 </v>
   </varray>
   <i name="volume">    710.30344220 </i>
   <varray name="rec_basis" >
    <v>       0.11249911      -0.00012224      -0.00063662 </v>
    <v>      -0.00005079       0.11099374       0.00028475 </v>
    <v>      -0.00023141       0.00009045       0.11274951 </v>
   </varray>
  </crystal>
  <varray name="positions" >
   <v>       0.99712573       0.99653666       0.99380527 </v>
   <v>       0.25541288       0.99900968       0.25271033 </v>
   <v>       0.24338828       0.50183313       0.25077515 </v>
   <v>       0.50441414       0.50055336       0.99884170 </v>
   <v>       0.51153241       0.24466153       0.74304858 </v>
   <v>       0.99289338       0.50101174       0.50170363 </v>
   <v>       0.49377675       0.75744162       0.75180241 </v>
   <v>       0.99020079       0.22716843       0.27107885 </v>
   <v>       0.76921275       0.74038682       0.99310315 </v>
   <v>       0.01340478       0.23610286       0.73125238 </v>
   <v>       0.75718730       0.27482709       0.49012381 </v>
   <v>       0.99580859       0.73012226       0.75908425 </v>
   <v>       0.26597594       0.49499078       0.74601218 </v>
   <v>       0.24600331       0.25186916       0.99624270 </v>
   <v>       0.51153009       0.25932677       0.25224881 </v>
   <v>       0.74882626       0.99163993       0.26932138 </v>
   <v>       0.76172229       0.26085758       0.99287188 </v>
   <v>       0.24558788       0.75135935       0.00161023 </v>
   <v>       0.25653774       0.25139990       0.50050872 </v>
   <v>       0.24066364       0.75140571       0.50359610 </v>
   <v>       0.25298191       0.24838247       0.24927658 </v>
   <v>       0.26108423       0.00282407       0.99253832 </v>
   <v>       0.00301785       0.25439279       0.00978258 </v>
   <v>       0.75443312       0.24798784       0.25003624 </v>
   <v>       0.75037181       0.00180629       0.00666180 </v>
   <v>       0.50677088       0.99929903       0.23965336 </v>
   <v>       0.98813815       0.48435020       0.24445269 </v>
   <v>       0.50249507       0.76232966       0.00958847 </v>
   <v>       0.97978883       0.99227180       0.73395315 </v>
   <v>       0.76042442       0.22754575       0.74528734 </v>
   <v>       0.74213135       0.99040255       0.51220331 </v>
   <v>       0.50579412       0.22589979       0.49320803 </v>
   <v>       0.48564211       0.00108291       0.73712090 </v>
   <v>       0.99801703       0.99307790       0.26099869 </v>
   <v>       0.50653843       0.24911522       0.99980357 </v>
   <v>       0.25105001       0.75103502       0.25140998 </v>
   <v>       0.24339059       0.50201258       0.99593781 </v>
   <v>       0.00014056       0.74596935       0.01334555 </v>
   <v>       0.75503858       0.74157297       0.25332170 </v>
   <v>       0.75857405       0.50706915       0.00033246 </v>
   <v>       0.50773962       0.50516746       0.25967520 </v>
   <v>       0.25328914       0.25455196       0.74778193 </v>
   <v>       0.24972911       0.00045384       0.50829769 </v>
   <v>       0.99477158       0.23888048       0.50410466 </v>
   <v>       0.23771384       0.75933282       0.75277154 </v>
   <v>       0.25745113       0.50126041       0.50278973 </v>
   <v>       0.98809299       0.75823368       0.50120179 </v>
   <v>       0.99035065       0.48716202       0.75871345 </v>
   <v>       0.74791172       0.74653829       0.74297368 </v>
   <v>       0.73839152       0.50660108       0.50106590 </v>
   <v>       0.50188903       0.74706012       0.49816913 </v>
   <v>       0.50489722       0.50277742       0.73792077 </v>
   <v>       0.51871666       0.01409116       0.98201908 </v>
   <v>       0.99730319       0.51560759       0.98720349 </v>
   <v>       0.50769475       0.74199174       0.25895255 </v>
   <v>       0.22092016       0.01752194       0.74524034 </v>
   <v>       0.49042388       0.97972834       0.48844324 </v>
   <v>       0.73785521       0.97843859       0.76105958 </v>
   <v>       0.99592156       0.77708684       0.26247837 </v>
   <v>       0.74163806       0.51526781       0.26365861 </v>
   <v>       0.01884993       0.00055693       0.50531593 </v>
   <v>       0.50043224       0.53184280       0.49892359 </v>
   <v>       0.73212571       0.53087442       0.73832190 </v>
   <v>       0.75886343       0.73804033       0.49426399 </v>
  </varray>
 </structure>
</modeling>
