  64  64   0   0
  0.1081319E+02  0.8835075E-09  0.8832676E-09  0.8868764E-09  0.5000000E-15
  1.000000000000000E-004
  CAR 
 HECN                                    
     15.13051901    -59.37315450  301      9.02346677      1.00000000
    -59.373  0.0000E+00  0.0000E+00
    -59.125  0.0000E+00  0.0000E+00
    -58.876  0.0000E+00  0.0000E+00
    -58.628  0.0000E+00  0.0000E+00
    -58.380  0.0000E+00  0.0000E+00
    -58.131  0.0000E+00  0.0000E+00
    -57.883  0.0000E+00  0.0000E+00
    -57.635  0.0000E+00  0.0000E+00
    -57.386  0.0000E+00  0.0000E+00
    -57.138  0.0000E+00  0.0000E+00
    -56.890  0.0000E+00  0.0000E+00
    -56.641  0.0000E+00  0.0000E+00
    -56.393  0.3746E-09  0.9302E-10
    -56.145  0.1237E-02  0.3072E-03
    -55.896  0.2128E+00  0.5316E-01
    -55.648  0.3411E+00  0.1379E+00
    -55.400  0.8589E-02  0.1400E+00
    -55.151  0.1659E-07  0.1400E+00
    -54.903  0.0000E+00  0.1400E+00
    -54.655  0.0000E+00  0.1400E+00
    -54.406  0.0000E+00  0.1400E+00
    -54.158  0.0000E+00  0.1400E+00
    -53.910  0.0000E+00  0.1400E+00
    -53.661  0.0000E+00  0.1400E+00
    -53.413  0.0000E+00  0.1400E+00
    -53.165  0.0000E+00  0.1400E+00
    -52.916  0.0000E+00  0.1400E+00
    -52.668  0.0000E+00  0.1400E+00
    -52.419  0.0000E+00  0.1400E+00
    -52.171  0.0000E+00  0.1400E+00
    -51.923  0.0000E+00  0.1400E+00
    -51.674  0.0000E+00  0.1400E+00
    -51.426  0.0000E+00  0.1400E+00
    -51.178  0.0000E+00  0.1400E+00
    -50.929  0.0000E+00  0.1400E+00
    -50.681  0.0000E+00  0.1400E+00
    -50.433  0.0000E+00  0.1400E+00
    -50.184  0.0000E+00  0.1400E+00
    -49.936  0.0000E+00  0.1400E+00
    -49.688  0.0000E+00  0.1400E+00
    -49.439  0.0000E+00  0.1400E+00
    -49.191  0.0000E+00  0.1400E+00
    -48.943  0.0000E+00  0.1400E+00
    -48.694  0.0000E+00  0.1400E+00
    -48.446  0.0000E+00  0.1400E+00
    -48.198  0.0000E+00  0.1400E+00
    -47.949  0.0000E+00  0.1400E+00
    -47.701  0.0000E+00  0.1400E+00
    -47.453  0.2080E-14  0.1400E+00
    -47.204  0.2393E-05  0.1400E+00
    -46.956  0.2893E-01  0.1472E+00
    -46.708  0.2620E+00  0.2123E+00
    -46.459  0.1428E+00  0.2477E+00
    -46.211  0.4941E-01  0.2600E+00
    -45.962  0.4332E-04  0.2600E+00
    -45.714  0.4771E-12  0.2600E+00
    -45.466  0.0000E+00  0.2600E+00
    -45.217  0.0000E+00  0.2600E+00
    -44.969  0.0000E+00  0.2600E+00
    -44.721  0.0000E+00  0.2600E+00
    -44.472  0.0000E+00  0.2600E+00
    -44.224  0.0000E+00  0.2600E+00
    -43.976  0.0000E+00  0.2600E+00
    -43.727  0.0000E+00  0.2600E+00
    -43.479  0.0000E+00  0.2600E+00
    -43.231  0.0000E+00  0.2600E+00
    -42.982  0.0000E+00  0.2600E+00
    -42.734  0.0000E+00  0.2600E+00
    -42.486  0.0000E+00  0.2600E+00
    -42.237  0.0000E+00  0.2600E+00
    -41.989  0.0000E+00  0.2600E+00
    -41.741  0.0000E+00  0.2600E+00
    -41.492  0.0000E+00  0.2600E+00
    -41.244  0.0000E+00  0.2600E+00
    -40.996  0.0000E+00  0.2600E+00
    -40.747  0.0000E+00  0.2600E+00
    -40.499  0.0000E+00  0.2600E+00
    -40.251  0.0000E+00  0.2600E+00
    -40.002  0.0000E+00  0.2600E+00
    -39.754  0.0000E+00  0.2600E+00
    -39.506  0.0000E+00  0.2600E+00
    -39.257  0.0000E+00  0.2600E+00
    -39.009  0.0000E+00  0.2600E+00
    -38.760  0.0000E+00  0.2600E+00
    -38.512  0.0000E+00  0.2600E+00
    -38.264  0.0000E+00  0.2600E+00
    -38.015  0.0000E+00  0.2600E+00
    -37.767  0.0000E+00  0.2600E+00
    -37.519  0.0000E+00  0.2600E+00
    -37.270  0.0000E+00  0.2600E+00
    -37.022  0.0000E+00  0.2600E+00
    -36.774  0.0000E+00  0.2600E+00
    -36.525  0.0000E+00  0.2600E+00
    -36.277  0.0000E+00  0.2600E+00
    -36.029  0.0000E+00  0.2600E+00
    -35.780  0.0000E+00  0.2600E+00
    -35.532  0.0000E+00  0.2600E+00
    -35.284  0.0000E+00  0.2600E+00
    -35.035  0.0000E+00  0.2600E+00
    -34.787  0.0000E+00  0.2600E+00
    -34.539  0.0000E+00  0.2600E+00
    -34.290  0.0000E+00  0.2600E+00
    -34.042  0.0000E+00  0.2600E+00
    -33.794  0.0000E+00  0.2600E+00
    -33.545  0.0000E+00  0.2600E+00
    -33.297  0.0000E+00  0.2600E+00
    -33.049  0.0000E+00  0.2600E+00
    -32.800  0.0000E+00  0.2600E+00
    -32.552  0.0000E+00  0.2600E+00
    -32.303  0.0000E+00  0.2600E+00
    -32.055  0.0000E+00  0.2600E+00
    -31.807  0.0000E+00  0.2600E+00
    -31.558  0.0000E+00  0.2600E+00
    -31.310  0.0000E+00  0.2600E+00
    -31.062  0.1578E-12  0.2600E+00
    -30.813  0.2462E-04  0.2600E+00
    -30.565  0.5365E-01  0.2733E+00
    -30.317  0.3118E+00  0.3508E+00
    -30.068  0.9022E+00  0.5748E+00
    -29.820  0.8918E+00  0.7963E+00
    -29.572  0.9578E+00  0.1034E+01
    -29.323  0.2348E-01  0.1040E+01
    -29.075  0.1906E-06  0.1040E+01
    -28.827  0.0000E+00  0.1040E+01
    -28.578  0.0000E+00  0.1040E+01
    -28.330  0.0000E+00  0.1040E+01
    -28.082  0.0000E+00  0.1040E+01
    -27.833  0.0000E+00  0.1040E+01
    -27.585  0.0000E+00  0.1040E+01
    -27.337  0.0000E+00  0.1040E+01
    -27.088  0.0000E+00  0.1040E+01
    -26.840  0.7125E-10  0.1040E+01
    -26.592  0.6121E-03  0.1040E+01
    -26.343  0.1975E+00  0.1089E+01
    -26.095  0.5986E+00  0.1238E+01
    -25.847  0.6101E+00  0.1389E+01
    -25.598  0.4272E-01  0.1400E+01
    -25.350  0.3403E-05  0.1400E+01
    -25.101  0.3855E-14  0.1400E+01
    -24.853  0.0000E+00  0.1400E+01
    -24.605  0.0000E+00  0.1400E+01
    -24.356  0.0000E+00  0.1400E+01
    -24.108  0.0000E+00  0.1400E+01
    -23.860  0.8941E-17  0.1400E+01
    -23.611  0.9181E-07  0.1400E+01
    -23.363  0.9099E-02  0.1402E+01
    -23.115  0.1915E+00  0.1450E+01
    -22.866  0.7041E+00  0.1625E+01
    -22.618  0.3805E+00  0.1719E+01
    -22.370  0.1638E+00  0.1760E+01
    -22.121  0.4749E-01  0.1772E+01
    -21.873  0.2224E+00  0.1827E+01
    -21.625  0.6438E+00  0.1987E+01
    -21.376  0.5425E+00  0.2122E+01
    -21.128  0.2310E+00  0.2179E+01
    -20.880  0.4460E-02  0.2180E+01
    -20.631  0.1292E-07  0.2180E+01
    -20.383  0.0000E+00  0.2180E+01
    -20.135  0.0000E+00  0.2180E+01
    -19.886  0.0000E+00  0.2180E+01
    -19.638  0.0000E+00  0.2180E+01
    -19.390  0.0000E+00  0.2180E+01
    -19.141  0.0000E+00  0.2180E+01
    -18.893  0.0000E+00  0.2180E+01
    -18.644  0.0000E+00  0.2180E+01
    -18.396  0.0000E+00  0.2180E+01
    -18.148  0.0000E+00  0.2180E+01
    -17.899  0.0000E+00  0.2180E+01
    -17.651  0.0000E+00  0.2180E+01
    -17.403  0.0000E+00  0.2180E+01
    -17.154  0.0000E+00  0.2180E+01
    -16.906  0.0000E+00  0.2180E+01
    -16.658  0.0000E+00  0.2180E+01
    -16.409  0.0000E+00  0.2180E+01
    -16.161  0.0000E+00  0.2180E+01
    -15.913  0.0000E+00  0.2180E+01
    -15.664  0.0000E+00  0.2180E+01
    -15.416  0.0000E+00  0.2180E+01
    -15.168  0.0000E+00  0.2180E+01
    -14.919  0.0000E+00  0.2180E+01
    -14.671  0.0000E+00  0.2180E+01
    -14.423  0.0000E+00  0.2180E+01
    -14.174  0.0000E+00  0.2180E+01
    -13.926  0.0000E+00  0.2180E+01
    -13.678  0.0000E+00  0.2180E+01
    -13.429  0.0000E+00  0.2180E+01
    -13.181  0.0000E+00  0.2180E+01
    -12.933  0.0000E+00  0.2180E+01
    -12.684  0.0000E+00  0.2180E+01
    -12.436  0.0000E+00  0.2180E+01
    -12.187  0.0000E+00  0.2180E+01
    -11.939  0.0000E+00  0.2180E+01
    -11.691  0.0000E+00  0.2180E+01
    -11.442  0.0000E+00  0.2180E+01
    -11.194  0.0000E+00  0.2180E+01
    -10.946  0.0000E+00  0.2180E+01
    -10.697  0.0000E+00  0.2180E+01
    -10.449  0.0000E+00  0.2180E+01
    -10.201  0.0000E+00  0.2180E+01
     -9.952  0.0000E+00  0.2180E+01
     -9.704  0.0000E+00  0.2180E+01
     -9.456  0.0000E+00  0.2180E+01
     -9.207  0.0000E+00  0.2180E+01
     -8.959  0.0000E+00  0.2180E+01
     -8.711  0.0000E+00  0.2180E+01
     -8.462  0.0000E+00  0.2180E+01
     -8.214  0.5372E-12  0.2180E+01
     -7.966  0.1111E-04  0.2180E+01
     -7.717  0.9631E-02  0.2182E+01
     -7.469  0.5929E-01  0.2197E+01
     -7.221  0.3040E-01  0.2205E+01
     -6.972  0.1120E+00  0.2232E+01
     -6.724  0.1624E+00  0.2273E+01
     -6.476  0.1817E+00  0.2318E+01
     -6.227  0.1321E+00  0.2351E+01
     -5.979  0.1976E+00  0.2400E+01
     -5.731  0.8775E-01  0.2422E+01
     -5.482  0.7301E-01  0.2440E+01
     -5.234  0.9992E-03  0.2440E+01
     -4.985  0.8401E-09  0.2440E+01
     -4.737  0.0000E+00  0.2440E+01
     -4.489  0.3909E-10  0.2440E+01
     -4.240  0.9360E-04  0.2440E+01
     -3.992  0.1862E-01  0.2445E+01
     -3.744  0.5656E-01  0.2459E+01
     -3.495  0.4475E-01  0.2470E+01
     -3.247  0.9084E-01  0.2492E+01
     -2.999  0.1294E+00  0.2525E+01
     -2.750  0.2016E+00  0.2575E+01
     -2.502  0.2472E+00  0.2636E+01
     -2.254  0.2437E+00  0.2697E+01
     -2.005  0.1935E+00  0.2745E+01
     -1.757  0.1658E+00  0.2786E+01
     -1.509  0.1024E+00  0.2811E+01
     -1.260  0.3195E-01  0.2819E+01
     -1.012  0.3566E-02  0.2820E+01
     -0.764  0.2377E-05  0.2820E+01
     -0.515  0.3479E-13  0.2820E+01
     -0.267  0.0000E+00  0.2820E+01
     -0.019  0.2612E-12  0.2820E+01
      0.230  0.7512E-05  0.2820E+01
      0.478  0.3968E-02  0.2821E+01
      0.726  0.1636E-01  0.2825E+01
      0.975  0.6154E-01  0.2840E+01
      1.223  0.8591E-01  0.2862E+01
      1.472  0.1124E+00  0.2890E+01
      1.720  0.1585E+00  0.2929E+01
      1.968  0.2093E+00  0.2981E+01
      2.217  0.2671E+00  0.3047E+01
      2.465  0.2658E+00  0.3113E+01
      2.713  0.2849E+00  0.3184E+01
      2.962  0.3281E+00  0.3266E+01
      3.210  0.2892E+00  0.3337E+01
      3.458  0.3715E+00  0.3430E+01
      3.707  0.4792E+00  0.3549E+01
      3.955  0.5420E+00  0.3683E+01
      4.203  0.6231E+00  0.3838E+01
      4.452  0.6138E+00  0.3990E+01
      4.700  0.5996E+00  0.4139E+01
      4.948  0.5574E+00  0.4278E+01
      5.197  0.4406E+00  0.4387E+01
      5.445  0.3570E+00  0.4476E+01
      5.693  0.2961E+00  0.4549E+01
      5.942  0.2984E+00  0.4623E+01
      6.190  0.1793E+00  0.4668E+01
      6.438  0.1796E+00  0.4713E+01
      6.687  0.8436E-01  0.4734E+01
      6.935  0.8754E-01  0.4755E+01
      7.183  0.1417E+00  0.4790E+01
      7.432  0.1550E+00  0.4829E+01
      7.680  0.2012E+00  0.4879E+01
      7.928  0.1910E+00  0.4926E+01
      8.177  0.1811E+00  0.4971E+01
      8.425  0.2233E+00  0.5027E+01
      8.674  0.2644E+00  0.5092E+01
      8.922  0.2687E+00  0.5159E+01
      9.170  0.1974E+00  0.5208E+01
      9.419  0.2866E+00  0.5279E+01
      9.667  0.3601E+00  0.5369E+01
      9.915  0.4060E+00  0.5470E+01
     10.164  0.4599E+00  0.5584E+01
     10.412  0.4295E+00  0.5691E+01
     10.660  0.4312E+00  0.5798E+01
     10.909  0.4606E+00  0.5912E+01
     11.157  0.4496E+00  0.6024E+01
     11.405  0.4193E+00  0.6128E+01
     11.654  0.3790E+00  0.6222E+01
     11.902  0.7265E-01  0.6240E+01
     12.150  0.1976E-03  0.6240E+01
     12.399  0.3872E-10  0.6240E+01
     12.647  0.0000E+00  0.6240E+01
     12.895  0.0000E+00  0.6240E+01
     13.144  0.0000E+00  0.6240E+01
     13.392  0.0000E+00  0.6240E+01
     13.640  0.0000E+00  0.6240E+01
     13.889  0.0000E+00  0.6240E+01
     14.137  0.0000E+00  0.6240E+01
     14.385  0.0000E+00  0.6240E+01
     14.634  0.0000E+00  0.6240E+01
     14.882  0.0000E+00  0.6240E+01
     15.131  0.0000E+00  0.6240E+01
