<?xml version="1.0" encoding="ISO-8859-1"?>
<modeling>
 <generator>
  <i name="program" type="string">vasp </i>
  <i name="version" type="string">5.4.4.18Apr17-6-g9f103f2a35  </i>
  <i name="subversion" type="string">(build Oct 18 2021 20:38:43) complex            parallel </i>
  <i name="platform" type="string">LinuxIFC </i>
  <i name="date" type="string">2024 06 22 </i>
  <i name="time" type="string">10:20:03 </i>
 </generator>
 <incar>
  <i type="string" name="SYSTEM">HECN</i>
  <i type="int" name="ISTART">     0</i>
  <i type="string" name="PREC">normal</i>
  <i type="string" name="ALGO">Fast</i>
  <i type="int" name="ICHARG">     2</i>
  <i type="int" name="NELM">    60</i>
  <i type="int" name="IBRION">     2</i>
  <i name="EDIFF">      0.00001000</i>
  <i name="EDIFFG">     -0.01000000</i>
  <i type="int" name="NSW">   100</i>
  <i type="int" name="ISIF">     3</i>
  <i name="ENCUT">    400.00000000</i>
  <i name="POTIM">      0.50000000</i>
  <i type="logical" name="LREAL"> F  </i>
  <i type="int" name="ISMEAR">     0</i>
  <i name="SIGMA">      0.10000000</i>
  <i type="logical" name="LWAVE"> F  </i>
  <i type="logical" name="LCHARG"> F  </i>
  <v type="int" name="KPOINT_BSE">    -1     0     0     0</v>
  <i type="int" name="NELM">    60</i>
 </incar>
 <structure name="primitive_cell" >
  <crystal>
   <varray name="basis" >
    <v>       8.83502480       0.00035687       0.02965712 </v>
    <v>       0.00636585       8.83265034      -0.02033262 </v>
    <v>       0.06154655      -0.03542933       8.86847979 </v>
   </varray>
   <i name="volume">    692.04424795 </i>
   <varray name="rec_basis" >
    <v>       0.11318851      -0.00008339      -0.00078585 </v>
    <v>      -0.00000609       0.11321735       0.00045234 </v>
    <v>      -0.00037853       0.00025985       0.11276256 </v>
   </varray>
  </crystal>
  <varray name="positions" >
   <v>       0.00569294       0.00715938      -0.00251951 </v>
   <v>      -0.00349680       0.25425760       0.00220231 </v>
   <v>      -0.01201947       0.00471567      -0.25090159 </v>
   <v>      -0.24427579       0.00832040       0.01909830 </v>
   <v>       0.25825772       0.00288620      -0.00761759 </v>
   <v>      -0.00030963      -0.00054262       0.25317340 </v>
   <v>       0.00367199      -0.25158905       0.00347218 </v>
   <v>      -0.00443935       0.23685388       0.25640234 </v>
   <v>       0.23934902      -0.00230725      -0.25999633 </v>
   <v>      -0.26487707      -0.01335623      -0.22351584 </v>
   <v>      -0.23983911      -0.24846566       0.00393717 </v>
   <v>       0.00416174      -0.23800596       0.25230275 </v>
   <v>       0.00204717       0.25854609      -0.25162675 </v>
   <v>       0.00172812      -0.25281333      -0.24634577 </v>
   <v>       0.26133502       0.00665462       0.24192133 </v>
   <v>       0.23072908      -0.27230129       0.00268394 </v>
   <v>       0.25250076       0.26895233      -0.01680507 </v>
   <v>      -0.27413086       0.24322106       0.01387108 </v>
   <v>      -0.25155592      -0.00208394       0.27606275 </v>
   <v>       0.24781696       0.24658141      -0.24909400 </v>
   <v>       0.24563376      -0.24539014      -0.24700009 </v>
   <v>       0.24990477       0.24873809       0.24629349 </v>
   <v>      -0.25520677       0.24539655       0.24113687 </v>
   <v>      -0.24912177       0.24400514      -0.24894515 </v>
   <v>       0.25427681      -0.24961855       0.24573927 </v>
   <v>      -0.25160878      -0.24924516      -0.24819150 </v>
   <v>      -0.25040849      -0.24536412       0.25196179 </v>
   <v>      -0.47853603       0.01112403      -0.01247270 </v>
   <v>       0.00142453      -0.49842146      -0.01111115 </v>
   <v>       0.01312496       0.00243900      -0.49575650 </v>
   <v>       0.49010438       0.24748585       0.00230470 </v>
   <v>      -0.24628885       0.00028523      -0.47955591 </v>
   <v>      -0.48652367      -0.00091727       0.23514369 </v>
   <v>      -0.24577841       0.49222679       0.00106586 </v>
   <v>       0.24564187       0.49841468      -0.00035668 </v>
   <v>       0.49554841      -0.24299724       0.00508750 </v>
   <v>      -0.00280077       0.49890826       0.24689266 </v>
   <v>       0.49415933       0.00049122      -0.26587266 </v>
   <v>       0.00400390       0.24922133      -0.49781670 </v>
   <v>      -0.00118762      -0.49719368      -0.24960802 </v>
   <v>       0.00370375      -0.24476618      -0.49942602 </v>
   <v>       0.26337660       0.00280998       0.49696629 </v>
   <v>       0.23451288       0.24230944      -0.48174476 </v>
   <v>       0.49338730      -0.24297794      -0.24421758 </v>
   <v>      -0.24302235       0.24497468       0.48719145 </v>
   <v>       0.24802694       0.49226052       0.25136280 </v>
   <v>      -0.49954049       0.24353440      -0.25301932 </v>
   <v>       0.24899665      -0.49901588      -0.25002211 </v>
   <v>      -0.48867491       0.26303233       0.23904580 </v>
   <v>      -0.25168821       0.49893031       0.24784490 </v>
   <v>      -0.25061984      -0.49352821      -0.24562980 </v>
   <v>       0.26006337      -0.23943973       0.49425769 </v>
   <v>      -0.25569586      -0.24644242       0.49642965 </v>
   <v>       0.49573245      -0.25974015       0.25930551 </v>
   <v>      -0.49375667      -0.01370705       0.47465723 </v>
   <v>       0.49929622       0.49877476      -0.00021048 </v>
   <v>       0.00241189      -0.49850771      -0.49706100 </v>
   <v>       0.49512587      -0.25198977      -0.49742436 </v>
   <v>      -0.49984880       0.24323217       0.49004838 </v>
   <v>      -0.49906686       0.49524253       0.25201512 </v>
   <v>      -0.49937362       0.49974953      -0.25417118 </v>
   <v>       0.25424919       0.49661041      -0.49940529 </v>
   <v>      -0.25284400       0.49906018       0.49773603 </v>
   <v>       0.49654074      -0.49667833       0.49982729 </v>
  </varray>
 </structure>
 <varray name="primitive_index" >
  <v type="int" >        1 </v>
  <v type="int" >       23 </v>
  <v type="int" >       29 </v>
  <v type="int" >       25 </v>
  <v type="int" >       22 </v>
  <v type="int" >       34 </v>
  <v type="int" >       38 </v>
  <v type="int" >        8 </v>
  <v type="int" >       56 </v>
  <v type="int" >       58 </v>
  <v type="int" >        9 </v>
  <v type="int" >       59 </v>
  <v type="int" >       10 </v>
  <v type="int" >       12 </v>
  <v type="int" >        2 </v>
  <v type="int" >       18 </v>
  <v type="int" >       14 </v>
  <v type="int" >       17 </v>
  <v type="int" >       16 </v>
  <v type="int" >       42 </v>
  <v type="int" >       45 </v>
  <v type="int" >       21 </v>
  <v type="int" >       24 </v>
  <v type="int" >       30 </v>
  <v type="int" >       36 </v>
  <v type="int" >       49 </v>
  <v type="int" >       39 </v>
  <v type="int" >       53 </v>
  <v type="int" >       54 </v>
  <v type="int" >       61 </v>
  <v type="int" >       35 </v>
  <v type="int" >       31 </v>
  <v type="int" >       26 </v>
  <v type="int" >       40 </v>
  <v type="int" >       37 </v>
  <v type="int" >       28 </v>
  <v type="int" >       27 </v>
  <v type="int" >       33 </v>
  <v type="int" >       44 </v>
  <v type="int" >       48 </v>
  <v type="int" >       47 </v>
  <v type="int" >       43 </v>
  <v type="int" >       19 </v>
  <v type="int" >        7 </v>
  <v type="int" >       11 </v>
  <v type="int" >        3 </v>
  <v type="int" >        5 </v>
  <v type="int" >       13 </v>
  <v type="int" >       15 </v>
  <v type="int" >       60 </v>
  <v type="int" >       63 </v>
  <v type="int" >       20 </v>
  <v type="int" >       64 </v>
  <v type="int" >       55 </v>
  <v type="int" >       57 </v>
  <v type="int" >        4 </v>
  <v type="int" >        6 </v>
  <v type="int" >       51 </v>
  <v type="int" >       32 </v>
  <v type="int" >       41 </v>
  <v type="int" >       52 </v>
  <v type="int" >       46 </v>
  <v type="int" >       50 </v>
  <v type="int" >       62 </v>
 </varray>
 <kpoints>
  <generation param="Gamma">
   <v type="int" name="divisions">       3        3        3 </v>
   <v name="usershift">      0.00000000       0.00000000       0.00000000 </v>
   <v name="genvec1">      0.33333333       0.00000000       0.00000000 </v>
   <v name="genvec2">      0.00000000       0.33333333      -0.00000000 </v>
   <v name="genvec3">      0.00000000       0.00000000       0.33333333 </v>
   <v name="shift">      0.00000000       0.00000000       0.00000000 </v>
  </generation>
  <varray name="kpointlist" >
   <v>       0.00000000       0.00000000       0.00000000 </v>
   <v>       0.33333333       0.00000000       0.00000000 </v>
   <v>      -0.00000000       0.33333333      -0.00000000 </v>
   <v>       0.33333333       0.33333333      -0.00000000 </v>
   <v>      -0.33333333       0.33333333       0.00000000 </v>
   <v>       0.00000000      -0.00000000       0.33333333 </v>
   <v>       0.33333333      -0.00000000       0.33333333 </v>
   <v>      -0.33333333      -0.00000000       0.33333333 </v>
   <v>       0.00000000       0.33333333       0.33333333 </v>
   <v>       0.33333333       0.33333333       0.33333333 </v>
   <v>      -0.33333333       0.33333333       0.33333333 </v>
   <v>      -0.00000000      -0.33333333       0.33333333 </v>
   <v>       0.33333333      -0.33333333       0.33333333 </v>
   <v>      -0.33333333      -0.33333333       0.33333333 </v>
  </varray>
  <varray name="weights" >
   <v>       0.03703704 </v>
   <v>       0.07407407 </v>
   <v>       0.07407407 </v>
   <v>       0.07407407 </v>
   <v>       0.07407407 </v>
   <v>       0.07407407 </v>
   <v>       0.07407407 </v>
   <v>       0.07407407 </v>
   <v>       0.07407407 </v>
   <v>       0.07407407 </v>
   <v>       0.07407407 </v>
   <v>       0.07407407 </v>
   <v>       0.07407407 </v>
   <v>       0.07407407 </v>
  </varray>
 </kpoints>
 <parameters>
  <separator name="general" >
   <i type="string" name="SYSTEM">HECN</i>
   <i type="logical" name="LCOMPAT"> F  </i>
  </separator>
  <separator name="electronic" >
   <i type="string" name="PREC">normal</i>
   <i name="ENMAX">    400.00000000</i>
   <i name="ENAUG">    644.87300000</i>
   <i name="EDIFF">      0.00001000</i>
   <i type="int" name="IALGO">    68</i>
   <i type="int" name="IWAVPR">    11</i>
   <i type="int" name="NBANDS">   312</i>
   <i name="NELECT">    518.00000000</i>
   <i type="int" name="TURBO">     0</i>
   <i type="int" name="IRESTART">     0</i>
   <i type="int" name="NREBOOT">     0</i>
   <i type="int" name="NMIN">     0</i>
   <i name="EREF">      0.00000000</i>
   <separator name="electronic smearing" >
    <i type="int" name="ISMEAR">     0</i>
    <i name="SIGMA">      0.10000000</i>
    <i name="KSPACING">      0.50000000</i>
    <i type="logical" name="KGAMMA"> T  </i>
   </separator>
   <separator name="electronic projectors" >
    <i type="logical" name="LREAL"> F  </i>
    <v name="ROPT">      0.00000000      0.00000000      0.00000000      0.00000000      0.00000000      0.00000000      0.00000000</v>
    <i type="int" name="LMAXPAW">  -100</i>
    <i type="int" name="LMAXMIX">     2</i>
    <i type="logical" name="NLSPLINE"> F  </i>
   </separator>
   <separator name="electronic startup" >
    <i type="int" name="ISTART">     0</i>
    <i type="int" name="ICHARG">     2</i>
    <i type="int" name="INIWAV">     1</i>
   </separator>
   <separator name="electronic spin" >
    <i type="int" name="ISPIN">     1</i>
    <i type="logical" name="LNONCOLLINEAR"> F  </i>
    <v name="MAGMOM">      1.00000000      1.00000000      1.00000000      1.00000000      1.00000000      1.00000000      1.00000000      1.00000000      1.00000000      1.00000000      1.00000000      1.00000000      1.00000000      1.00000000      1.00000000      1.00000000      1.00000000      1.00000000      1.00000000      1.00000000
      1.00000000      1.00000000      1.00000000      1.00000000      1.00000000      1.00000000      1.00000000      1.00000000      1.00000000      1.00000000      1.00000000      1.00000000      1.00000000      1.00000000      1.00000000      1.00000000      1.00000000      1.00000000      1.00000000      1.00000000
      1.00000000      1.00000000      1.00000000      1.00000000      1.00000000      1.00000000      1.00000000      1.00000000      1.00000000      1.00000000      1.00000000      1.00000000      1.00000000      1.00000000      1.00000000      1.00000000      1.00000000      1.00000000      1.00000000      1.00000000
      1.00000000      1.00000000      1.00000000      1.00000000</v>
    <i name="NUPDOWN">     -1.00000000</i>
    <i type="logical" name="LSORBIT"> F  </i>
    <v name="SAXIS">      0.00000000      0.00000000      1.00000000</v>
    <i type="logical" name="LSPIRAL"> F  </i>
    <v name="QSPIRAL">      0.00000000      0.00000000      0.00000000</v>
    <i type="logical" name="LZEROZ"> F  </i>
   </separator>
   <separator name="electronic exchange-correlation" >
    <i type="logical" name="LASPH"> F  </i>
    <i type="logical" name="LMETAGGA"> F  </i>
   </separator>
   <separator name="electronic convergence" >
    <i type="int" name="NELM">    60</i>
    <i type="int" name="NELMDL">    -5</i>
    <i type="int" name="NELMIN">     2</i>
    <i name="ENINI">    400.00000000</i>
    <separator name="electronic convergence detail" >
     <i type="logical" name="LDIAG"> T  </i>
     <i type="logical" name="LSUBROT"> F  </i>
     <i name="WEIMIN">      0.00100000</i>
     <i name="EBREAK">      0.00000001</i>
     <i name="DEPER">      0.30000000</i>
     <i type="int" name="NRMM">     4</i>
     <i name="TIME">      0.40000000</i>
    </separator>
   </separator>
   <separator name="electronic mixer" >
    <i name="AMIX">      0.40000000</i>
    <i name="BMIX">      1.00000000</i>
    <i name="AMIN">      0.10000000</i>
    <i name="AMIX_MAG">      1.60000000</i>
    <i name="BMIX_MAG">      1.00000000</i>
    <separator name="electronic mixer details" >
     <i type="int" name="IMIX">     4</i>
     <i type="logical" name="MIXFIRST"> F  </i>
     <i type="int" name="MAXMIX">   -45</i>
     <i name="WC">    100.00000000</i>
     <i type="int" name="INIMIX">     1</i>
     <i type="int" name="MIXPRE">     1</i>
     <i type="int" name="MREMOVE">     5</i>
    </separator>
   </separator>
   <separator name="electronic dipolcorrection" >
    <i type="logical" name="LDIPOL"> F  </i>
    <i type="logical" name="LMONO"> F  </i>
    <i type="int" name="IDIPOL">     0</i>
    <i name="EPSILON">      1.00000000</i>
    <v name="DIPOL">   -100.00000000   -100.00000000   -100.00000000</v>
    <i name="EFIELD">      0.00000000</i>
   </separator>
  </separator>
  <separator name="grids" >
   <i type="int" name="NGX">    48</i>
   <i type="int" name="NGY">    48</i>
   <i type="int" name="NGZ">    48</i>
   <i type="int" name="NGXF">    96</i>
   <i type="int" name="NGYF">    96</i>
   <i type="int" name="NGZF">    96</i>
   <i type="logical" name="ADDGRID"> F  </i>
  </separator>
  <separator name="ionic" >
   <i type="int" name="NSW">   100</i>
   <i type="int" name="IBRION">     2</i>
   <i type="int" name="MDALGO">     0</i>
   <i type="int" name="ISIF">     3</i>
   <i name="PSTRESS">      0.00000000</i>
   <i name="EDIFFG">     -0.01000000</i>
   <i type="int" name="NFREE">     1</i>
   <i name="POTIM">      0.50000000</i>
   <i name="SMASS">     -3.00000000</i>
   <i name="SCALEE">      1.00000000</i>
  </separator>
  <separator name="ionic md" >
   <i name="TEBEG">      0.00010000</i>
   <i name="TEEND">      0.00010000</i>
   <i type="int" name="NBLOCK">     1</i>
   <i type="int" name="KBLOCK">   100</i>
   <i type="int" name="NPACO">   256</i>
   <i name="APACO">     16.00000000</i>
  </separator>
  <separator name="symmetry" >
   <i type="int" name="ISYM">     2</i>
   <i name="SYMPREC">      0.00001000</i>
  </separator>
  <separator name="dos" >
   <i type="int" name="LORBIT">     0</i>
   <v name="RWIGS">     -1.00000000     -1.00000000     -1.00000000     -1.00000000     -1.00000000     -1.00000000     -1.00000000</v>
   <i type="int" name="NEDOS">   301</i>
   <i name="EMIN">     10.00000000</i>
   <i name="EMAX">    -10.00000000</i>
   <i name="EFERMI">      0.00000000</i>
  </separator>
  <separator name="writing" >
   <i type="int" name="NWRITE">     2</i>
   <i type="logical" name="LWAVE"> F  </i>
   <i type="logical" name="LDOWNSAMPLE"> F  </i>
   <i type="logical" name="LCHARG"> F  </i>
   <i type="logical" name="LPARD"> F  </i>
   <i type="logical" name="LVTOT"> F  </i>
   <i type="logical" name="LVHAR"> F  </i>
   <i type="logical" name="LELF"> F  </i>
   <i type="logical" name="LOPTICS"> F  </i>
   <v name="STM">      0.00000000      0.00000000      0.00000000      0.00000000      0.00000000      0.00000000      0.00000000</v>
  </separator>
  <separator name="performance" >
   <i type="int" name="NPAR">    24</i>
   <i type="int" name="NSIM">     4</i>
   <i type="int" name="NBLK">    -1</i>
   <i type="logical" name="LPLANE"> T  </i>
   <i type="logical" name="LSCALAPACK"> T  </i>
   <i type="logical" name="LSCAAWARE"> F  </i>
   <i type="logical" name="LSCALU"> F  </i>
   <i type="logical" name="LASYNC"> F  </i>
   <i type="logical" name="LORBITALREAL"> F  </i>
  </separator>
  <separator name="miscellaneous" >
   <i type="int" name="IDIOT">     3</i>
   <i type="int" name="ISPECIAL">     0</i>
   <i type="logical" name="LMUSIC"> F  </i>
   <v name="POMASS">    178.49000000     92.91000000     50.94100000     14.00100000     12.01100000    183.85000000    180.94800000</v>
   <v name="DARWINR">      0.00000000      0.00000000      0.00000000      0.00000000      0.00000000      0.00000000      0.00000000</v>
   <v name="DARWINV">      1.00000000      1.00000000      1.00000000      1.00000000      1.00000000      1.00000000      1.00000000</v>
   <i type="logical" name="LCORR"> T  </i>
  </separator>
  <i type="logical" name="GGA_COMPAT"> T  </i>
  <i type="logical" name="LBERRY"> F  </i>
  <i type="int" name="ICORELEVEL">     0</i>
  <i type="logical" name="LDAU"> F  </i>
  <i type="int" name="I_CONSTRAINED_M">     0</i>
  <separator name="electronic exchange-correlation" >
   <i type="string" name="GGA">--</i>
   <i type="int" name="VOSKOWN">     0</i>
   <i type="logical" name="LHFCALC"> F  </i>
   <i type="string" name="PRECFOCK"></i>
   <i type="logical" name="LSYMGRAD"> F  </i>
   <i type="logical" name="LHFONE"> F  </i>
   <i type="logical" name="LRHFCALC"> F  </i>
   <i type="logical" name="LTHOMAS"> F  </i>
   <i type="logical" name="LMODELHF"> F  </i>
   <i name="ENCUT4O">     -1.00000000</i>
   <i type="int" name="EXXOEP">     0</i>
   <i type="int" name="FOURORBIT">     0</i>
   <i name="AEXX">      0.00000000</i>
   <i name="HFALPHA">      0.00000000</i>
   <i name="MCALPHA">      0.00000000</i>
   <i name="ALDAX">      1.00000000</i>
   <i name="AGGAX">      1.00000000</i>
   <i name="ALDAC">      1.00000000</i>
   <i name="AGGAC">      1.00000000</i>
   <i type="int" name="NKREDX">     1</i>
   <i type="int" name="NKREDY">     1</i>
   <i type="int" name="NKREDZ">     1</i>
   <i type="logical" name="SHIFTRED"> F  </i>
   <i type="logical" name="ODDONLY"> F  </i>
   <i type="logical" name="EVENONLY"> F  </i>
   <i type="int" name="LMAXFOCK">     0</i>
   <i type="int" name="NMAXFOCKAE">     0</i>
   <i type="logical" name="LFOCKAEDFT"> F  </i>
   <i name="HFSCREEN">      0.00000000</i>
   <i name="HFSCREENC">      0.00000000</i>
   <i type="int" name="NBANDSGWLOW">     0</i>
  </separator>
  <separator name="vdW DFT" >
   <i type="logical" name="LUSE_VDW"> F  </i>
   <i name="Zab_VDW">     -0.84910000</i>
   <i name="PARAM1">      0.12340000</i>
   <i name="PARAM2">      1.00000000</i>
   <i name="PARAM3">      0.00000000</i>
  </separator>
  <separator name="model GW" >
   <i type="int" name="MODEL_GW">     0</i>
   <i name="MODEL_EPS0">      6.48791482</i>
   <i name="MODEL_ALPHA">      1.00000000</i>
  </separator>
  <separator name="linear response parameters" >
   <i type="logical" name="LEPSILON"> F  </i>
   <i type="logical" name="LRPA"> F  </i>
   <i type="logical" name="LNABLA"> F  </i>
   <i type="logical" name="LVEL"> F  </i>
   <i type="int" name="KINTER">     0</i>
   <i name="CSHIFT">      0.10000000</i>
   <i name="OMEGAMAX">     -1.00000000</i>
   <i name="DEG_THRESHOLD">      0.00200000</i>
   <i name="RTIME">     -0.10000000</i>
   <i name="WPLASMAI">      0.00000000</i>
   <v name="DFIELD">      0.00000000      0.00000000      0.00000000</v>
   <v name="WPLASMA">      0.00000000      0.00000000      0.00000000      0.00000000      0.00000000      0.00000000      0.00000000      0.00000000      0.00000000</v>
  </separator>
  <separator name="orbital magnetization" >
   <i type="logical" name="NUCIND"> F  </i>
   <v name="MAGPOS">      0.00000000      0.00000000      0.00000000</v>
   <i type="logical" name="LNICSALL"> T  </i>
   <i type="logical" name="ORBITALMAG"> F  </i>
   <i type="logical" name="LMAGBLOCH"> F  </i>
   <i type="logical" name="LCHIMAG"> F  </i>
   <i type="logical" name="LGAUGE"> T  </i>
   <i type="int" name="MAGATOM">     0</i>
   <v name="MAGDIPOL">      0.00000000      0.00000000      0.00000000</v>
   <v name="AVECCONST">      0.00000000      0.00000000      0.00000000</v>
  </separator>
  <separator name="response functions" >
   <i type="logical" name="LADDER"> F  </i>
   <i type="logical" name="LRPAFORCE"> F  </i>
   <i type="logical" name="LFXC"> F  </i>
   <i type="logical" name="LHARTREE"> T  </i>
   <i type="int" name="IBSE">     0</i>
   <v type="int" name="KPOINT">    -1     0     0     0</v>
   <i type="logical" name="LTCTE"> F  </i>
   <i type="logical" name="LTETE"> F  </i>
   <i type="logical" name="LTRIPLET"> F  </i>
   <i type="logical" name="LFXCEPS"> F  </i>
   <i type="logical" name="LFXHEG"> F  </i>
   <i type="int" name="NATURALO">     2</i>
   <i type="logical" name="L2ORDER"> F  </i>
   <i type="logical" name="LMP2LT"> F  </i>
   <i type="logical" name="LUSEW"> F  </i>
   <i name="ENCUTGW">     -2.00000000</i>
   <i name="ENCUTGWSOFT">     -2.00000000</i>
   <i name="ENCUTLF">     -1.00000000</i>
   <i type="int" name="LMAXMP2">    -1</i>
   <i name="SCISSOR">      0.00000000</i>
   <i type="int" name="NOMEGA">     0</i>
   <i type="int" name="NOMEGAR">     0</i>
   <i type="int" name="NBANDSGW">    -1</i>
   <i type="int" name="NBANDSO">    -1</i>
   <i type="int" name="NBANDSV">    -1</i>
   <i type="int" name="NELM">    60</i>
   <i type="int" name="NELMHF">     1</i>
   <i type="int" name="DIM">     3</i>
   <i type="int" name="ANTIRES">     0</i>
   <i name="OMEGAMAX">    -30.00000000</i>
   <i name="OMEGAMIN">    -30.00000000</i>
   <i name="OMEGATL">   -200.00000000</i>
   <i type="int" name="OMEGAGRID">   140</i>
   <i name="CSHIFT">     -0.10000000</i>
   <i type="logical" name="SELFENERGY"> F  </i>
   <i type="logical" name="LSPECTRAL"> F  </i>
   <i type="logical" name="LSPECTRALGW"> F  </i>
   <i type="logical" name="LSINGLES"> F  </i>
   <i type="logical" name="LFERMIGW"> F  </i>
   <i type="logical" name="ODDONLYGW"> F  </i>
   <i type="logical" name="EVENONLYGW"> F  </i>
   <i type="int" name="NKREDLFX">     1</i>
   <i type="int" name="NKREDLFY">     1</i>
   <i type="int" name="NKREDLFZ">     1</i>
   <i type="int" name="MAXMEM">  2800</i>
   <i type="int" name="TELESCOPE">     0</i>
   <i type="int" name="TAUPAR">     1</i>
   <i type="int" name="OMEGAPAR">    -1</i>
   <i name="LAMBDA">      1.00000000</i>
  </separator>
  <separator name="External order field" >
   <i name="OFIELD_KAPPA">      0.00000000</i>
   <v name="OFIELD_K">      0.00000000      0.00000000      0.00000000</v>
   <i name="OFIELD_Q6_NEAR">      0.00000000</i>
   <i name="OFIELD_Q6_FAR">      0.00000000</i>
   <i name="OFIELD_A">      0.00000000</i>
  </separator>
 </parameters>
 <atominfo>
  <atoms>      64 </atoms>
  <types>       7 </types>
  <array name="atoms" >
   <dimension dim="1">ion</dimension>
   <field type="string">element</field>
   <field type="int">atomtype</field>
   <set>
    <rc><c>Hf</c><c>   1</c></rc>
    <rc><c>Hf</c><c>   1</c></rc>
    <rc><c>Hf</c><c>   1</c></rc>
    <rc><c>Hf</c><c>   1</c></rc>
    <rc><c>Hf</c><c>   1</c></rc>
    <rc><c>Hf</c><c>   1</c></rc>
    <rc><c>Hf</c><c>   1</c></rc>
    <rc><c>Nb</c><c>   2</c></rc>
    <rc><c>Nb</c><c>   2</c></rc>
    <rc><c>Nb</c><c>   2</c></rc>
    <rc><c>Nb</c><c>   2</c></rc>
    <rc><c>Nb</c><c>   2</c></rc>
    <rc><c>Nb</c><c>   2</c></rc>
    <rc><c>V </c><c>   3</c></rc>
    <rc><c>V </c><c>   3</c></rc>
    <rc><c>V </c><c>   3</c></rc>
    <rc><c>V </c><c>   3</c></rc>
    <rc><c>V </c><c>   3</c></rc>
    <rc><c>V </c><c>   3</c></rc>
    <rc><c>V </c><c>   3</c></rc>
    <rc><c>N </c><c>   4</c></rc>
    <rc><c>N </c><c>   4</c></rc>
    <rc><c>N </c><c>   4</c></rc>
    <rc><c>N </c><c>   4</c></rc>
    <rc><c>N </c><c>   4</c></rc>
    <rc><c>N </c><c>   4</c></rc>
    <rc><c>N </c><c>   4</c></rc>
    <rc><c>N </c><c>   4</c></rc>
    <rc><c>N </c><c>   4</c></rc>
    <rc><c>N </c><c>   4</c></rc>
    <rc><c>N </c><c>   4</c></rc>
    <rc><c>N </c><c>   4</c></rc>
    <rc><c>N </c><c>   4</c></rc>
    <rc><c>C </c><c>   5</c></rc>
    <rc><c>C </c><c>   5</c></rc>
    <rc><c>C </c><c>   5</c></rc>
    <rc><c>C </c><c>   5</c></rc>
    <rc><c>C </c><c>   5</c></rc>
    <rc><c>C </c><c>   5</c></rc>
    <rc><c>C </c><c>   5</c></rc>
    <rc><c>C </c><c>   5</c></rc>
    <rc><c>C </c><c>   5</c></rc>
    <rc><c>C </c><c>   5</c></rc>
    <rc><c>C </c><c>   5</c></rc>
    <rc><c>C </c><c>   5</c></rc>
    <rc><c>C </c><c>   5</c></rc>
    <rc><c>C </c><c>   5</c></rc>
    <rc><c>C </c><c>   5</c></rc>
    <rc><c>C </c><c>   5</c></rc>
    <rc><c>C </c><c>   5</c></rc>
    <rc><c>C </c><c>   5</c></rc>
    <rc><c>C </c><c>   5</c></rc>
    <rc><c>W </c><c>   6</c></rc>
    <rc><c>W </c><c>   6</c></rc>
    <rc><c>W </c><c>   6</c></rc>
    <rc><c>W </c><c>   6</c></rc>
    <rc><c>W </c><c>   6</c></rc>
    <rc><c>W </c><c>   6</c></rc>
    <rc><c>Ta</c><c>   7</c></rc>
    <rc><c>Ta</c><c>   7</c></rc>
    <rc><c>Ta</c><c>   7</c></rc>
    <rc><c>Ta</c><c>   7</c></rc>
    <rc><c>Ta</c><c>   7</c></rc>
    <rc><c>Ta</c><c>   7</c></rc>
   </set>
  </array>
  <array name="atomtypes" >
   <dimension dim="1">type</dimension>
   <field type="int">atomspertype</field>
   <field type="string">element</field>
   <field>mass</field>
   <field>valence</field>
   <field type="string">pseudopotential</field>
   <set>
    <rc><c>   7</c><c>Hf</c><c>    178.49000000</c><c>     10.00000000</c><c> PAW_PBE Hf_pv 06Sep2000                </c></rc>
    <rc><c>   6</c><c>Nb</c><c>     92.91000000</c><c>     13.00000000</c><c> PAW_PBE Nb_sv 17Jan2003                </c></rc>
    <rc><c>   7</c><c>V </c><c>     50.94100000</c><c>     13.00000000</c><c> PAW_PBE V_sv 07Sep2000                 </c></rc>
    <rc><c>  13</c><c>N </c><c>     14.00100000</c><c>      5.00000000</c><c> PAW_PBE N 08Apr2002                    </c></rc>
    <rc><c>  19</c><c>C </c><c>     12.01100000</c><c>      4.00000000</c><c> PAW_PBE C 08Apr2002                    </c></rc>
    <rc><c>   6</c><c>W </c><c>    183.85000000</c><c>     12.00000000</c><c> PAW_PBE W_pv 06Sep2000                 </c></rc>
    <rc><c>   6</c><c>Ta</c><c>    180.94800000</c><c>     11.00000000</c><c> PAW_PBE Ta_pv 07Sep2000                </c></rc>
   </set>
  </array>
 </atominfo>
 <structure name="initialpos" >
  <crystal>
   <varray name="basis" >
    <v>       8.83502480       0.00035687       0.02965712 </v>
    <v>       0.00636585       8.83265034      -0.02033262 </v>
    <v>       0.06154655      -0.03542933       8.86847979 </v>
   </varray>
   <i name="volume">    692.04424795 </i>
   <varray name="rec_basis" >
    <v>       0.11318851      -0.00008339      -0.00078585 </v>
    <v>      -0.00000609       0.11321735       0.00045234 </v>
    <v>      -0.00037853       0.00025985       0.11276256 </v>
   </varray>
  </crystal>
  <varray name="positions" >
   <v>       0.00569294       0.00715938       0.99748049 </v>
   <v>       0.26133502       0.00665462       0.24192133 </v>
   <v>       0.24802694       0.49226052       0.25136280 </v>
   <v>       0.49929622       0.49877476       0.99978952 </v>
   <v>       0.50045951       0.24353440       0.74698068 </v>
   <v>       0.00241189       0.50149229       0.50293900 </v>
   <v>       0.49338730       0.75702206       0.75578242 </v>
   <v>       0.99556065       0.23685388       0.25640234 </v>
   <v>       0.76016089       0.75153434       0.00393717 </v>
   <v>       0.00204717       0.25854609       0.74837325 </v>
   <v>       0.75697765       0.24497468       0.48719145 </v>
   <v>       0.00172812       0.74718667       0.75365423 </v>
   <v>       0.24899665       0.50098412       0.74997789 </v>
   <v>       0.25250076       0.26895233       0.98319493 </v>
   <v>       0.51132509       0.26303233       0.23904580 </v>
   <v>       0.74844408       0.99791606       0.27606275 </v>
   <v>       0.72586914       0.24322106       0.01387108 </v>
   <v>       0.23072908       0.72769871       0.00268394 </v>
   <v>       0.23451288       0.24230944       0.51825524 </v>
   <v>       0.26006337       0.76056027       0.49425769 </v>
   <v>       0.24990477       0.24873809       0.24629349 </v>
   <v>       0.25825772       0.00288620       0.99238241 </v>
   <v>       0.99650320       0.25425760       0.00220231 </v>
   <v>       0.74479323       0.24539655       0.24113687 </v>
   <v>       0.75572421       0.00832040       0.01909830 </v>
   <v>       0.51347633       0.99908273       0.23514369 </v>
   <v>       0.99719923       0.49890826       0.24689266 </v>
   <v>       0.49554841       0.75700276       0.00508750 </v>
   <v>       0.98798053       0.00471567       0.74909841 </v>
   <v>       0.75087823       0.24400514       0.75105485 </v>
   <v>       0.75371115       0.00028523       0.52044409 </v>
   <v>       0.50015120       0.24323217       0.49004838 </v>
   <v>       0.49415933       0.00049122       0.73412734 </v>
   <v>       0.99969037       0.99945738       0.25317340 </v>
   <v>       0.49010438       0.24748585       0.00230470 </v>
   <v>       0.25427681       0.75038145       0.24573927 </v>
   <v>       0.24564187       0.49841468       0.99964332 </v>
   <v>       0.00367199       0.74841095       0.00347218 </v>
   <v>       0.74959151       0.75463588       0.25196179 </v>
   <v>       0.75422159       0.49222679       0.00106586 </v>
   <v>       0.50093314       0.49524253       0.25201512 </v>
   <v>       0.24781696       0.24658141       0.75090600 </v>
   <v>       0.26337660       0.00280998       0.49696629 </v>
   <v>       0.00400390       0.24922133       0.50218330 </v>
   <v>       0.24563376       0.75460986       0.75299991 </v>
   <v>       0.25424919       0.49661041       0.50059471 </v>
   <v>       0.00370375       0.75523382       0.50057398 </v>
   <v>       0.99881238       0.50280632       0.75039198 </v>
   <v>       0.74839122       0.75075484       0.75180850 </v>
   <v>       0.74715600       0.49906018       0.49773603 </v>
   <v>       0.49512587       0.74801023       0.50257564 </v>
   <v>       0.50062638       0.49974953       0.74582882 </v>
   <v>       0.52146397       0.01112403       0.98752730 </v>
   <v>       0.00142453       0.50157854       0.98888885 </v>
   <v>       0.49573245       0.74025985       0.25930551 </v>
   <v>       0.23934902       0.99769275       0.74000367 </v>
   <v>       0.50624333       0.98629295       0.47465723 </v>
   <v>       0.73512293       0.98664377       0.77648416 </v>
   <v>       0.00416174       0.76199404       0.25230275 </v>
   <v>       0.74831179       0.49893031       0.24784490 </v>
   <v>       0.01312496       0.00243900       0.50424350 </v>
   <v>       0.49654074       0.50332167       0.49982729 </v>
   <v>       0.74938016       0.50647179       0.75437020 </v>
   <v>       0.74430414       0.75355758       0.49642965 </v>
  </varray>
 </structure>
 <calculation>
  <scstep>
   <time name="dav">   20.31   20.44</time>
   <time name="total">   20.35   20.49</time>
   <energy>
    <i name="alphaZ">   4656.34983046 </i>
    <i name="ewald"> -43578.25302768 </i>
    <i name="hartreedc">  -7853.99247634 </i>
    <i name="XCdc">   1879.17646920 </i>
    <i name="pawpsdc">  30280.91784812 </i>
    <i name="pawaedc"> -30048.82752361 </i>
    <i name="eentropy">     -0.07494261 </i>
    <i name="bandstr">   1352.66118563 </i>
    <i name="atom">  49076.44327936 </i>
    <i name="e_fr_energy">   5764.40064253 </i>
    <i name="e_wo_entrp">   5764.47558514 </i>
    <i name="e_0_energy">   5764.43811384 </i>
   </energy>
  </scstep>
  <scstep>
   <time name="dav">   21.39   21.46</time>
   <time name="total">   21.39   21.46</time>
   <energy>
    <i name="e_fr_energy">     39.61880619 </i>
    <i name="e_wo_entrp">     39.73854324 </i>
    <i name="e_0_energy">     39.67867472 </i>
   </energy>
  </scstep>
  <scstep>
   <time name="dav">   30.46   30.55</time>
   <time name="total">   30.46   30.55</time>
   <energy>
    <i name="e_fr_energy">   -736.69127357 </i>
    <i name="e_wo_entrp">   -736.61360680 </i>
    <i name="e_0_energy">   -736.65244019 </i>
   </energy>
  </scstep>
  <scstep>
   <time name="dav">   31.55   31.58</time>
   <time name="total">   31.55   31.58</time>
   <energy>
    <i name="e_fr_energy">   -797.59969514 </i>
    <i name="e_wo_entrp">   -797.50886213 </i>
    <i name="e_0_energy">   -797.55427863 </i>
   </energy>
  </scstep>
  <scstep>
   <time name="dav">   35.63   35.67</time>
   <time name="total">   35.88   35.94</time>
   <energy>
    <i name="e_fr_energy">   -802.81713642 </i>
    <i name="e_wo_entrp">   -802.71964173 </i>
    <i name="e_0_energy">   -802.76838907 </i>
   </energy>
  </scstep>
  <scstep>
   <time name="diag">    1.83    1.83</time>
   <time name="diis">   18.94   18.96</time>
   <time name="orth">    0.42    0.42</time>
   <time name="total">   21.48   21.51</time>
   <energy>
    <i name="e_fr_energy">   -772.13003468 </i>
    <i name="e_wo_entrp">   -771.98744293 </i>
    <i name="e_0_energy">   -772.05873881 </i>
   </energy>
  </scstep>
  <scstep>
   <time name="diag">    1.81    1.81</time>
   <time name="diis">   16.36   16.38</time>
   <time name="orth">    0.44    0.44</time>
   <time name="total">   18.90   18.92</time>
   <energy>
    <i name="e_fr_energy">   -688.21359145 </i>
    <i name="e_wo_entrp">   -688.10637961 </i>
    <i name="e_0_energy">   -688.15998553 </i>
   </energy>
  </scstep>
  <scstep>
   <time name="diag">    1.83    1.83</time>
   <time name="diis">   20.77   20.80</time>
   <time name="orth">    0.42    0.42</time>
   <time name="total">   23.30   23.33</time>
   <energy>
    <i name="e_fr_energy">   -670.55167218 </i>
    <i name="e_wo_entrp">   -670.46574035 </i>
    <i name="e_0_energy">   -670.50870627 </i>
   </energy>
  </scstep>
  <scstep>
   <time name="diag">    1.85    1.85</time>
   <time name="diis">   18.62   18.64</time>
   <time name="orth">    0.42    0.42</time>
   <time name="total">   21.19   21.21</time>
   <energy>
    <i name="e_fr_energy">   -670.15873584 </i>
    <i name="e_wo_entrp">   -670.07214897 </i>
    <i name="e_0_energy">   -670.11544241 </i>
   </energy>
  </scstep>
  <scstep>
   <time name="diag">    1.83    1.83</time>
   <time name="diis">   20.38   20.50</time>
   <time name="orth">    0.42    0.42</time>
   <time name="total">   22.92   23.05</time>
   <energy>
    <i name="e_fr_energy">   -669.75613239 </i>
    <i name="e_wo_entrp">   -669.65635194 </i>
    <i name="e_0_energy">   -669.70624217 </i>
   </energy>
  </scstep>
  <scstep>
   <time name="diag">    1.83    1.83</time>
   <time name="diis">   21.06   21.19</time>
   <time name="orth">    0.42    0.42</time>
   <time name="total">   23.60   23.73</time>
   <energy>
    <i name="e_fr_energy">   -669.49622043 </i>
    <i name="e_wo_entrp">   -669.40458045 </i>
    <i name="e_0_energy">   -669.45040044 </i>
   </energy>
  </scstep>
  <scstep>
   <time name="diag">    1.82    1.82</time>
   <time name="diis">   20.48   20.57</time>
   <time name="orth">    0.42    0.42</time>
   <time name="total">   23.00   23.10</time>
   <energy>
    <i name="e_fr_energy">   -669.55034259 </i>
    <i name="e_wo_entrp">   -669.45397153 </i>
    <i name="e_0_energy">   -669.50215706 </i>
   </energy>
  </scstep>
  <scstep>
   <time name="diag">    1.85    1.86</time>
   <time name="diis">   20.36   20.44</time>
   <time name="orth">    0.42    0.42</time>
   <time name="total">   22.92   23.01</time>
   <energy>
    <i name="e_fr_energy">   -669.40367465 </i>
    <i name="e_wo_entrp">   -669.31406410 </i>
    <i name="e_0_energy">   -669.35886938 </i>
   </energy>
  </scstep>
  <scstep>
   <time name="diag">    1.82    1.83</time>
   <time name="diis">   22.51   22.55</time>
   <time name="orth">    0.42    0.42</time>
   <time name="total">   25.04   25.09</time>
   <energy>
    <i name="e_fr_energy">   -669.42515735 </i>
    <i name="e_wo_entrp">   -669.33288771 </i>
    <i name="e_0_energy">   -669.37902253 </i>
   </energy>
  </scstep>
  <scstep>
   <time name="diag">    1.82    1.82</time>
   <time name="diis">   21.16   21.27</time>
   <time name="orth">    0.43    0.43</time>
   <time name="total">   23.70   23.82</time>
   <energy>
    <i name="e_fr_energy">   -669.41413074 </i>
    <i name="e_wo_entrp">   -669.32305947 </i>
    <i name="e_0_energy">   -669.36859510 </i>
   </energy>
  </scstep>
  <scstep>
   <time name="diag">    1.82    1.82</time>
   <time name="diis">   19.39   19.42</time>
   <time name="orth">    0.42    0.42</time>
   <time name="total">   21.91   21.95</time>
   <energy>
    <i name="e_fr_energy">   -669.41568901 </i>
    <i name="e_wo_entrp">   -669.32554445 </i>
    <i name="e_0_energy">   -669.37061673 </i>
   </energy>
  </scstep>
  <scstep>
   <time name="diag">    1.82    1.83</time>
   <time name="diis">   21.32   21.35</time>
   <time name="orth">    0.43    0.43</time>
   <time name="total">   23.86   23.90</time>
   <energy>
    <i name="e_fr_energy">   -669.41761087 </i>
    <i name="e_wo_entrp">   -669.32813087 </i>
    <i name="e_0_energy">   -669.37287087 </i>
   </energy>
  </scstep>
  <scstep>
   <time name="diag">    1.84    1.84</time>
   <time name="diis">   21.53   21.64</time>
   <time name="orth">    0.42    0.42</time>
   <time name="total">   24.07   24.19</time>
   <energy>
    <i name="e_fr_energy">   -669.41682605 </i>
    <i name="e_wo_entrp">   -669.32623841 </i>
    <i name="e_0_energy">   -669.37153223 </i>
   </energy>
  </scstep>
  <scstep>
   <time name="diag">    1.82    1.82</time>
   <time name="diis">   20.80   20.87</time>
   <time name="orth">    0.42    0.42</time>
   <time name="total">   23.34   23.41</time>
   <energy>
    <i name="e_fr_energy">   -669.41754673 </i>
    <i name="e_wo_entrp">   -669.32705348 </i>
    <i name="e_0_energy">   -669.37230010 </i>
   </energy>
  </scstep>
  <scstep>
   <time name="diag">    1.81    1.84</time>
   <time name="diis">   19.97   20.09</time>
   <time name="orth">    0.42    0.42</time>
   <time name="total">   22.49   22.64</time>
   <energy>
    <i name="e_fr_energy">   -669.41763590 </i>
    <i name="e_wo_entrp">   -669.32710823 </i>
    <i name="e_0_energy">   -669.37237207 </i>
   </energy>
  </scstep>
  <scstep>
   <time name="diag">    1.82    1.83</time>
   <time name="diis">   20.82   20.87</time>
   <time name="orth">    0.42    0.42</time>
   <time name="total">   23.35   23.41</time>
   <energy>
    <i name="e_fr_energy">   -669.41779272 </i>
    <i name="e_wo_entrp">   -669.32723043 </i>
    <i name="e_0_energy">   -669.37251157 </i>
   </energy>
  </scstep>
  <scstep>
   <time name="diag">    1.83    1.83</time>
   <time name="diis">   19.39   19.45</time>
   <time name="orth">    0.42    0.42</time>
   <time name="total">   21.94   22.00</time>
   <energy>
    <i name="e_fr_energy">   -669.41795841 </i>
    <i name="e_wo_entrp">   -669.32755384 </i>
    <i name="e_0_energy">   -669.37275613 </i>
   </energy>
  </scstep>
  <scstep>
   <time name="diag">    1.83    1.83</time>
   <time name="diis">   17.87   17.92</time>
   <time name="orth">    0.42    0.42</time>
   <time name="total">   20.40   20.46</time>
   <energy>
    <i name="e_fr_energy">   -669.41800297 </i>
    <i name="e_wo_entrp">   -669.32744060 </i>
    <i name="e_0_energy">   -669.37272178 </i>
   </energy>
  </scstep>
  <scstep>
   <time name="diag">    1.84    1.85</time>
   <time name="diis">   15.36   15.40</time>
   <time name="orth">    0.42    0.42</time>
   <time name="total">   17.91   17.96</time>
   <energy>
    <i name="e_fr_energy">   -669.41805376 </i>
    <i name="e_wo_entrp">   -669.32750571 </i>
    <i name="e_0_energy">   -669.37277974 </i>
   </energy>
  </scstep>
  <scstep>
   <time name="diag">    1.82    1.82</time>
   <time name="diis">   14.96   14.99</time>
   <time name="orth">    0.42    0.42</time>
   <time name="total">   17.48   17.52</time>
   <energy>
    <i name="e_fr_energy">   -669.41808979 </i>
    <i name="e_wo_entrp">   -669.32753850 </i>
    <i name="e_0_energy">   -669.37281414 </i>
   </energy>
  </scstep>
  <scstep>
   <time name="diag">    1.82    1.82</time>
   <time name="diis">   12.61   12.71</time>
   <time name="orth">    0.43    0.43</time>
   <time name="total">   15.15   15.27</time>
   <energy>
    <i name="e_fr_energy">   -669.41811074 </i>
    <i name="e_wo_entrp">   -669.32756430 </i>
    <i name="e_0_energy">   -669.37283752 </i>
   </energy>
  </scstep>
  <scstep>
   <time name="diag">    1.83    1.84</time>
   <time name="diis">   11.76   11.82</time>
   <time name="orth">    0.42    0.42</time>
   <time name="total">   14.30   14.37</time>
   <energy>
    <i name="e_fr_energy">   -669.41812384 </i>
    <i name="e_wo_entrp">   -669.32757518 </i>
    <i name="e_0_energy">   -669.37284951 </i>
   </energy>
  </scstep>
  <scstep>
   <time name="diag">    1.84    1.84</time>
   <time name="diis">   10.88   10.92</time>
   <time name="orth">    0.42    0.42</time>
   <time name="total">   13.17   13.22</time>
   <energy>
    <i name="alphaZ">   4656.34983046 </i>
    <i name="ewald"> -43578.25302768 </i>
    <i name="hartreedc">  -7341.54963580 </i>
    <i name="XCdc">   1867.73649498 </i>
    <i name="pawpsdc">  31791.35844630 </i>
    <i name="pawaedc"> -31625.16999594 </i>
    <i name="eentropy">     -0.09054660 </i>
    <i name="bandstr">  -5516.24297726 </i>
    <i name="atom">  49076.44327936 </i>
    <i name="e_fr_energy">   -669.41813217 </i>
    <i name="e_wo_entrp">   -669.32758557 </i>
    <i name="e_0_energy">   -669.37285887 </i>
   </energy>
  </scstep>
  <structure>
   <crystal>
    <varray name="basis" >
     <v>       8.83502480       0.00035687       0.02965712 </v>
     <v>       0.00636585       8.83265034      -0.02033262 </v>
     <v>       0.06154655      -0.03542933       8.86847979 </v>
    </varray>
    <i name="volume">    692.04424795 </i>
    <varray name="rec_basis" >
     <v>       0.11318851      -0.00008339      -0.00078585 </v>
     <v>      -0.00000609       0.11321735       0.00045234 </v>
     <v>      -0.00037853       0.00025985       0.11276256 </v>
    </varray>
   </crystal>
   <varray name="positions" >
    <v>       0.00569294       0.00715938       0.99748049 </v>
    <v>       0.26133502       0.00665462       0.24192133 </v>
    <v>       0.24802694       0.49226052       0.25136280 </v>
    <v>       0.49929622       0.49877476       0.99978952 </v>
    <v>       0.50045951       0.24353440       0.74698068 </v>
    <v>       0.00241189       0.50149229       0.50293900 </v>
    <v>       0.49338730       0.75702206       0.75578242 </v>
    <v>       0.99556065       0.23685388       0.25640234 </v>
    <v>       0.76016089       0.75153434       0.00393717 </v>
    <v>       0.00204717       0.25854609       0.74837325 </v>
    <v>       0.75697765       0.24497468       0.48719145 </v>
    <v>       0.00172812       0.74718667       0.75365423 </v>
    <v>       0.24899665       0.50098412       0.74997789 </v>
    <v>       0.25250076       0.26895233       0.98319493 </v>
    <v>       0.51132509       0.26303233       0.23904580 </v>
    <v>       0.74844408       0.99791606       0.27606275 </v>
    <v>       0.72586914       0.24322106       0.01387108 </v>
    <v>       0.23072908       0.72769871       0.00268394 </v>
    <v>       0.23451288       0.24230944       0.51825524 </v>
    <v>       0.26006337       0.76056027       0.49425769 </v>
    <v>       0.24990477       0.24873809       0.24629349 </v>
    <v>       0.25825772       0.00288620       0.99238241 </v>
    <v>       0.99650320       0.25425760       0.00220231 </v>
    <v>       0.74479323       0.24539655       0.24113687 </v>
    <v>       0.75572421       0.00832040       0.01909830 </v>
    <v>       0.51347633       0.99908273       0.23514369 </v>
    <v>       0.99719923       0.49890826       0.24689266 </v>
    <v>       0.49554841       0.75700276       0.00508750 </v>
    <v>       0.98798053       0.00471567       0.74909841 </v>
    <v>       0.75087823       0.24400514       0.75105485 </v>
    <v>       0.75371115       0.00028523       0.52044409 </v>
    <v>       0.50015120       0.24323217       0.49004838 </v>
    <v>       0.49415933       0.00049122       0.73412734 </v>
    <v>       0.99969037       0.99945738       0.25317340 </v>
    <v>       0.49010438       0.24748585       0.00230470 </v>
    <v>       0.25427681       0.75038145       0.24573927 </v>
    <v>       0.24564187       0.49841468       0.99964332 </v>
    <v>       0.00367199       0.74841095       0.00347218 </v>
    <v>       0.74959151       0.75463588       0.25196179 </v>
    <v>       0.75422159       0.49222679       0.00106586 </v>
    <v>       0.50093314       0.49524253       0.25201512 </v>
    <v>       0.24781696       0.24658141       0.75090600 </v>
    <v>       0.26337660       0.00280998       0.49696629 </v>
    <v>       0.00400390       0.24922133       0.50218330 </v>
    <v>       0.24563376       0.75460986       0.75299991 </v>
    <v>       0.25424919       0.49661041       0.50059471 </v>
    <v>       0.00370375       0.75523382       0.50057398 </v>
    <v>       0.99881238       0.50280632       0.75039198 </v>
    <v>       0.74839122       0.75075484       0.75180850 </v>
    <v>       0.74715600       0.49906018       0.49773603 </v>
    <v>       0.49512587       0.74801023       0.50257564 </v>
    <v>       0.50062638       0.49974953       0.74582882 </v>
    <v>       0.52146397       0.01112403       0.98752730 </v>
    <v>       0.00142453       0.50157854       0.98888885 </v>
    <v>       0.49573245       0.74025985       0.25930551 </v>
    <v>       0.23934902       0.99769275       0.74000367 </v>
    <v>       0.50624333       0.98629295       0.47465723 </v>
    <v>       0.73512293       0.98664377       0.77648416 </v>
    <v>       0.00416174       0.76199404       0.25230275 </v>
    <v>       0.74831179       0.49893031       0.24784490 </v>
    <v>       0.01312496       0.00243900       0.50424350 </v>
    <v>       0.49654074       0.50332167       0.49982729 </v>
    <v>       0.74938016       0.50647179       0.75437020 </v>
    <v>       0.74430414       0.75355758       0.49642965 </v>
   </varray>
  </structure>
  <varray name="forces" >
   <v>      -0.03316287      -0.03444001       0.03824363 </v>
   <v>       0.03614440       0.02993690       0.05974569 </v>
   <v>       0.07392277      -0.03398328       0.08048262 </v>
   <v>       0.01843907       0.04085003      -0.02872729 </v>
   <v>      -0.02187062      -0.11911732       0.00735037 </v>
   <v>      -0.00473999       0.02975612       0.02413102 </v>
   <v>      -0.03196024       0.06033149      -0.04329013 </v>
   <v>      -0.04701560       0.01504279      -0.01679579 </v>
   <v>      -0.04211381      -0.01967522       0.04997544 </v>
   <v>      -0.02913485      -0.01393275      -0.00390940 </v>
   <v>      -0.03162237       0.03405462       0.04971822 </v>
   <v>       0.02238602      -0.03939622      -0.02603301 </v>
   <v>      -0.07670898       0.01924317      -0.06354479 </v>
   <v>       0.03179498       0.01996118       0.02329663 </v>
   <v>       0.00982843       0.05594029      -0.03147317 </v>
   <v>      -0.09656105      -0.03282534      -0.02954177 </v>
   <v>      -0.03298023       0.07684538      -0.04985013 </v>
   <v>      -0.05912879       0.02930032      -0.03233142 </v>
   <v>      -0.01668791       0.01415875      -0.07669718 </v>
   <v>      -0.04536388      -0.03866408       0.02815896 </v>
   <v>      -0.00879013      -0.00614429      -0.01506011 </v>
   <v>       0.00717829      -0.02024485       0.00703225 </v>
   <v>       0.04530558       0.02244287       0.04651952 </v>
   <v>       0.04779028      -0.05743535       0.00140681 </v>
   <v>       0.09180129      -0.04600555      -0.05875153 </v>
   <v>      -0.00685651       0.02782004      -0.00925644 </v>
   <v>       0.01484509       0.02402808       0.01606057 </v>
   <v>      -0.01749975      -0.06345906       0.02942729 </v>
   <v>      -0.15523355      -0.04706019       0.03887553 </v>
   <v>      -0.00552371       0.04965224      -0.00089246 </v>
   <v>       0.07884124       0.01620507      -0.00301448 </v>
   <v>      -0.00564777       0.10059462       0.09684341 </v>
   <v>      -0.06672905      -0.00326352       0.01689293 </v>
   <v>      -0.07857551      -0.01600183       0.03259267 </v>
   <v>      -0.00247237      -0.02696072      -0.02637758 </v>
   <v>      -0.02632516      -0.05569223      -0.04579632 </v>
   <v>       0.00220968      -0.01903782      -0.02934527 </v>
   <v>       0.04038422      -0.02901041      -0.03014332 </v>
   <v>       0.00416542      -0.07393774       0.05306265 </v>
   <v>       0.01419252       0.00806305       0.00794919 </v>
   <v>       0.05396726      -0.03000429       0.00461707 </v>
   <v>       0.01019099       0.02240084       0.02316091 </v>
   <v>       0.05741547       0.02866421       0.06538729 </v>
   <v>       0.01119149      -0.02729424      -0.06280043 </v>
   <v>      -0.03242686       0.00919823      -0.00440000 </v>
   <v>      -0.06145712       0.00244628       0.05607451 </v>
   <v>      -0.03214434      -0.04562887       0.01760419 </v>
   <v>      -0.00805906      -0.01201790       0.01555413 </v>
   <v>       0.01466979      -0.00813902      -0.04183030 </v>
   <v>       0.02225730      -0.07434795       0.02260654 </v>
   <v>       0.02176823      -0.03496303      -0.01773216 </v>
   <v>       0.01122158      -0.01005074       0.02974102 </v>
   <v>       0.02157472      -0.00518727       0.04528551 </v>
   <v>       0.00399676       0.01727736      -0.01818032 </v>
   <v>       0.06519330       0.00923765       0.02328876 </v>
   <v>      -0.02387044       0.02787396      -0.07976000 </v>
   <v>       0.05921904       0.09890323      -0.00200383 </v>
   <v>      -0.03432474       0.05791545      -0.00373148 </v>
   <v>       0.04525147       0.09674670      -0.00578676 </v>
   <v>      -0.03618902       0.03839878       0.01870622 </v>
   <v>       0.14403924      -0.00952906      -0.00585800 </v>
   <v>       0.05480271      -0.00240234      -0.02915466 </v>
   <v>       0.01794421      -0.04235248      -0.08418618 </v>
   <v>       0.01724343       0.01491529      -0.05353583 </v>
  </varray>
  <varray name="stress" >
   <v>      -5.29594015       0.35716498      -0.18937041 </v>
   <v>       0.35716561     -11.30082948      -0.42476655 </v>
   <v>      -0.18937011      -0.42476642      -4.79969352 </v>
  </varray>
  <energy>
   <i name="e_fr_energy">   -669.41813217 </i>
   <i name="e_wo_entrp">   -669.37285887 </i>
   <i name="e_0_energy">     -0.09054660 </i>
  </energy>
  <time name="totalsc">  667.81  670.35</time>
 </calculation>
 <calculation>
  <scstep>
   <time name="dav">   25.19   25.29</time>
   <time name="total">   25.49   25.59</time>
   <energy>
    <i name="alphaZ">   4688.94638529 </i>
    <i name="ewald"> -43680.91885823 </i>
    <i name="hartreedc">  -7357.34284833 </i>
    <i name="XCdc">   1872.38217545 </i>
    <i name="pawpsdc">  31791.37298925 </i>
    <i name="pawaedc"> -31625.18468007 </i>
    <i name="eentropy">     -0.08391685 </i>
    <i name="bandstr">  -5435.18940871 </i>
    <i name="atom">  49076.44327936 </i>
    <i name="e_fr_energy">   -669.57488284 </i>
    <i name="e_wo_entrp">   -669.49096599 </i>
    <i name="e_0_energy">   -669.53292442 </i>
   </energy>
  </scstep>
  <scstep>
   <time name="diag">    1.82    1.82</time>
   <time name="diis">   15.94   15.98</time>
   <time name="orth">    0.42    0.42</time>
   <time name="total">   18.47   18.51</time>
   <energy>
    <i name="e_fr_energy">   -670.24867972 </i>
    <i name="e_wo_entrp">   -670.13719319 </i>
    <i name="e_0_energy">   -670.19293645 </i>
   </energy>
  </scstep>
  <scstep>
   <time name="diag">    1.85    1.86</time>
   <time name="diis">   15.77   15.84</time>
   <time name="orth">    0.42    0.42</time>
   <time name="total">   18.32   18.40</time>
   <energy>
    <i name="e_fr_energy">   -669.48874542 </i>
    <i name="e_wo_entrp">   -669.40257835 </i>
    <i name="e_0_energy">   -669.44566188 </i>
   </energy>
  </scstep>
  <scstep>
   <time name="diag">    1.82    1.83</time>
   <time name="diis">   18.34   18.37</time>
   <time name="orth">    0.42    0.42</time>
   <time name="total">   20.87   20.91</time>
   <energy>
    <i name="e_fr_energy">   -669.46045624 </i>
    <i name="e_wo_entrp">   -669.37093759 </i>
    <i name="e_0_energy">   -669.41569691 </i>
   </energy>
  </scstep>
  <scstep>
   <time name="diag">    1.82    1.82</time>
   <time name="diis">   17.25   17.29</time>
   <time name="orth">    0.42    0.42</time>
   <time name="total">   19.77   19.82</time>
   <energy>
    <i name="e_fr_energy">   -669.42084853 </i>
    <i name="e_wo_entrp">   -669.33165481 </i>
    <i name="e_0_energy">   -669.37625167 </i>
   </energy>
  </scstep>
  <scstep>
   <time name="diag">    1.84    1.85</time>
   <time name="diis">   17.25   17.31</time>
   <time name="orth">    0.42    0.42</time>
   <time name="total">   19.79   19.87</time>
   <energy>
    <i name="e_fr_energy">   -669.42312757 </i>
    <i name="e_wo_entrp">   -669.33379216 </i>
    <i name="e_0_energy">   -669.37845987 </i>
   </energy>
  </scstep>
  <scstep>
   <time name="diag">    1.81    1.82</time>
   <time name="diis">   18.03   18.07</time>
   <time name="orth">    0.42    0.42</time>
   <time name="total">   20.55   20.60</time>
   <energy>
    <i name="e_fr_energy">   -669.41715102 </i>
    <i name="e_wo_entrp">   -669.32769847 </i>
    <i name="e_0_energy">   -669.37242474 </i>
   </energy>
  </scstep>
  <scstep>
   <time name="diag">    1.82    1.82</time>
   <time name="diis">   22.12   22.21</time>
   <time name="orth">    0.42    0.42</time>
   <time name="total">   24.65   24.74</time>
   <energy>
    <i name="e_fr_energy">   -669.41718314 </i>
    <i name="e_wo_entrp">   -669.32727733 </i>
    <i name="e_0_energy">   -669.37223024 </i>
   </energy>
  </scstep>
  <scstep>
   <time name="diag">    1.85    1.88</time>
   <time name="diis">   21.25   21.32</time>
   <time name="orth">    0.42    0.43</time>
   <time name="total">   23.80   23.91</time>
   <energy>
    <i name="e_fr_energy">   -669.41688786 </i>
    <i name="e_wo_entrp">   -669.32730592 </i>
    <i name="e_0_energy">   -669.37209689 </i>
   </energy>
  </scstep>
  <scstep>
   <time name="diag">    1.81    1.82</time>
   <time name="diis">   20.14   20.21</time>
   <time name="orth">    0.42    0.42</time>
   <time name="total">   22.66   22.74</time>
   <energy>
    <i name="e_fr_energy">   -669.41694096 </i>
    <i name="e_wo_entrp">   -669.32720113 </i>
    <i name="e_0_energy">   -669.37207105 </i>
   </energy>
  </scstep>
  <scstep>
   <time name="diag">    1.81    1.82</time>
   <time name="diis">   19.50   19.63</time>
   <time name="orth">    0.42    0.42</time>
   <time name="total">   22.02   22.15</time>
   <energy>
    <i name="e_fr_energy">   -669.41700047 </i>
    <i name="e_wo_entrp">   -669.32743016 </i>
    <i name="e_0_energy">   -669.37221532 </i>
   </energy>
  </scstep>
  <scstep>
   <time name="diag">    1.81    1.82</time>
   <time name="diis">   18.66   18.75</time>
   <time name="orth">    0.42    0.42</time>
   <time name="total">   21.17   21.27</time>
   <energy>
    <i name="e_fr_energy">   -669.41706499 </i>
    <i name="e_wo_entrp">   -669.32739187 </i>
    <i name="e_0_energy">   -669.37222843 </i>
   </energy>
  </scstep>
  <scstep>
   <time name="diag">    1.81    1.82</time>
   <time name="diis">   18.44   18.50</time>
   <time name="orth">    0.42    0.42</time>
   <time name="total">   20.96   21.03</time>
   <energy>
    <i name="e_fr_energy">   -669.41714148 </i>
    <i name="e_wo_entrp">   -669.32732910 </i>
    <i name="e_0_energy">   -669.37223529 </i>
   </energy>
  </scstep>
  <scstep>
   <time name="diag">    1.81    1.82</time>
   <time name="diis">   17.00   17.05</time>
   <time name="orth">    0.42    0.42</time>
   <time name="total">   19.52   19.58</time>
   <energy>
    <i name="e_fr_energy">   -669.41713343 </i>
    <i name="e_wo_entrp">   -669.32743520 </i>
    <i name="e_0_energy">   -669.37228432 </i>
   </energy>
  </scstep>
  <scstep>
   <time name="diag">    1.83    1.84</time>
   <time name="diis">   14.62   14.67</time>
   <time name="orth">    0.42    0.42</time>
   <time name="total">   16.91   16.96</time>
   <energy>
    <i name="alphaZ">   4688.94638529 </i>
    <i name="ewald"> -43680.91885823 </i>
    <i name="hartreedc">  -7308.11420920 </i>
    <i name="XCdc">   1869.67176698 </i>
    <i name="pawpsdc">  31870.54891666 </i>
    <i name="pawaedc"> -31704.76546577 </i>
    <i name="eentropy">     -0.08970358 </i>
    <i name="bandstr">  -5481.13925211 </i>
    <i name="atom">  49076.44327936 </i>
    <i name="e_fr_energy">   -669.41714061 </i>
    <i name="e_wo_entrp">   -669.32743703 </i>
    <i name="e_0_energy">   -669.37228882 </i>
   </energy>
  </scstep>
  <structure>
   <crystal>
    <varray name="basis" >
     <v>       8.81978861       0.00137889       0.02906597 </v>
     <v>       0.00738328       8.80015446      -0.02152280 </v>
     <v>       0.06088950      -0.03651833       8.85462173 </v>
    </varray>
    <i name="volume">    687.23330400 </i>
    <varray name="rec_basis" >
     <v>       0.11338399      -0.00009704      -0.00078009 </v>
     <v>      -0.00001931       0.11363553       0.00046879 </v>
     <v>      -0.00037224       0.00027653       0.11293907 </v>
    </varray>
   </crystal>
   <varray name="positions" >
    <v>       0.00551054       0.00697212       0.99768871 </v>
    <v>       0.26153000       0.00681943       0.24224606 </v>
    <v>       0.24842768       0.49207664       0.25179885 </v>
    <v>       0.49939784       0.49899725       0.99963342 </v>
    <v>       0.50034028       0.24288396       0.74701957 </v>
    <v>       0.00238497       0.50165534       0.50307073 </v>
    <v>       0.49321418       0.75735064       0.75554826 </v>
    <v>       0.99530450       0.23693569       0.25631202 </v>
    <v>       0.75992911       0.75142798       0.00420956 </v>
    <v>       0.00188829       0.25846992       0.74835234 </v>
    <v>       0.75680296       0.24516178       0.48746292 </v>
    <v>       0.00185151       0.74697092       0.75351171 </v>
    <v>       0.24858011       0.50108786       0.74963385 </v>
    <v>       0.25267341       0.26906185       0.98332133 </v>
    <v>       0.51137972       0.26333718       0.23887510 </v>
    <v>       0.74791806       0.99773615       0.27590339 </v>
    <v>       0.72569064       0.24363970       0.01360147 </v>
    <v>       0.23040731       0.72785806       0.00250951 </v>
    <v>       0.23442461       0.24238511       0.51783849 </v>
    <v>       0.25981475       0.76034972       0.49441122 </v>
    <v>       0.24985737       0.24870421       0.24621165 </v>
    <v>       0.25829674       0.00277577       0.99242028 </v>
    <v>       0.99674874       0.25438118       0.00245483 </v>
    <v>       0.74505436       0.24508286       0.24114293 </v>
    <v>       0.75622790       0.00806782       0.01877644 </v>
    <v>       0.51343913       0.99923448       0.23509381 </v>
    <v>       0.99727959       0.49903985       0.24698006 </v>
    <v>       0.49545199       0.75665680       0.00524710 </v>
    <v>       0.98713159       0.00445953       0.74931213 </v>
    <v>       0.75084790       0.24427631       0.75105072 </v>
    <v>       0.75414172       0.00037366       0.52042645 </v>
    <v>       0.50011628       0.24378372       0.49057657 </v>
    <v>       0.49379433       0.00047378       0.73422042 </v>
    <v>       0.99926014       0.99937071       0.25335194 </v>
    <v>       0.49009199       0.24733802       0.00216091 </v>
    <v>       0.25413502       0.75007627       0.24548993 </v>
    <v>       0.24565513       0.49831006       0.99948341 </v>
    <v>       0.00389377       0.74825183       0.00330710 </v>
    <v>       0.74961255       0.75423320       0.25224945 </v>
    <v>       0.75429876       0.49227100       0.00110894 </v>
    <v>       0.50122778       0.49507873       0.25203887 </v>
    <v>       0.24787164       0.24670427       0.75103209 </v>
    <v>       0.26368752       0.00296795       0.49732131 </v>
    <v>       0.00406750       0.24907088       0.50184113 </v>
    <v>       0.24545682       0.75466001       0.75297668 </v>
    <v>       0.25391147       0.49662502       0.50090091 </v>
    <v>       0.00352774       0.75498499       0.50066976 </v>
    <v>       0.99876784       0.50274103       0.75047659 </v>
    <v>       0.74847294       0.75070947       0.75158057 </v>
    <v>       0.74727698       0.49865459       0.49785767 </v>
    <v>       0.49524555       0.74781887       0.50247834 </v>
    <v>       0.50068657       0.49969528       0.74599028 </v>
    <v>       0.52158009       0.01109668       0.98777319 </v>
    <v>       0.00144698       0.50167251       0.98879010 </v>
    <v>       0.49608752       0.74031079       0.25943112 </v>
    <v>       0.23922159       0.99784326       0.73957056 </v>
    <v>       0.50656638       0.98683309       0.47464649 </v>
    <v>       0.73493540       0.98696003       0.77646521 </v>
    <v>       0.00440867       0.76252232       0.25227166 </v>
    <v>       0.74811331       0.49914046       0.24794780 </v>
    <v>       0.01391175       0.00238679       0.50420889 </v>
    <v>       0.49684111       0.50330790       0.49966766 </v>
    <v>       0.74948151       0.50623862       0.75391137 </v>
    <v>       0.74440027       0.75363787       0.49613829 </v>
   </varray>
  </structure>
  <varray name="forces" >
   <v>       0.01928744      -0.01738472       0.01473798 </v>
   <v>       0.01421262      -0.02872205       0.02455964 </v>
   <v>       0.00697470       0.01896056       0.01579129 </v>
   <v>      -0.00308185       0.04627400      -0.02691881 </v>
   <v>      -0.02485725       0.04316677       0.00675693 </v>
   <v>      -0.01443493      -0.01174961      -0.03822570 </v>
   <v>      -0.00000887      -0.02720621      -0.02115516 </v>
   <v>      -0.03137634       0.06264994      -0.02127102 </v>
   <v>      -0.01461835      -0.03063067       0.00092519 </v>
   <v>      -0.00900215      -0.05962060       0.00198710 </v>
   <v>      -0.00804034      -0.01239666       0.03583099 </v>
   <v>      -0.03792970       0.04412602      -0.01015442 </v>
   <v>       0.01811830      -0.00257114      -0.01057053 </v>
   <v>       0.00347513      -0.04965555       0.03729384 </v>
   <v>       0.01078948      -0.03535167      -0.01209495 </v>
   <v>      -0.08219953      -0.00328672      -0.00690539 </v>
   <v>       0.02552726       0.06729636      -0.06634360 </v>
   <v>       0.03917430       0.06160484      -0.01951393 </v>
   <v>       0.02443593       0.06348673      -0.05597979 </v>
   <v>      -0.04711734      -0.05971796       0.02069222 </v>
   <v>       0.02182211       0.00570627      -0.00023900 </v>
   <v>       0.02405410      -0.02843809       0.01803938 </v>
   <v>       0.02668364       0.01277048       0.01747749 </v>
   <v>       0.00133113      -0.04821489      -0.01379724 </v>
   <v>       0.04856618      -0.00335455       0.00205126 </v>
   <v>      -0.00569850       0.03714498      -0.02702746 </v>
   <v>       0.01934689       0.01662369       0.00021194 </v>
   <v>      -0.01169430      -0.01838506       0.00983722 </v>
   <v>      -0.08397631      -0.02855813       0.00790391 </v>
   <v>      -0.00448771       0.02428469       0.00813139 </v>
   <v>       0.07275035       0.01019023      -0.00297583 </v>
   <v>      -0.01724135       0.04989386       0.03950175 </v>
   <v>      -0.08227913      -0.02397236       0.00041642 </v>
   <v>      -0.02845316       0.05018419       0.01800920 </v>
   <v>      -0.01886975       0.02665592       0.00199407 </v>
   <v>       0.00764914      -0.00949337      -0.02070799 </v>
   <v>       0.01152424       0.00817988       0.01415843 </v>
   <v>      -0.03595738       0.01234479      -0.00306662 </v>
   <v>       0.02461265      -0.01747540      -0.01738525 </v>
   <v>      -0.00066174      -0.02406873      -0.00848089 </v>
   <v>       0.00288380      -0.00616014      -0.01345679 </v>
   <v>      -0.01408141       0.00794353       0.00422739 </v>
   <v>       0.09035165       0.01382714      -0.01366343 </v>
   <v>      -0.00907183       0.01250412      -0.01817202 </v>
   <v>      -0.00485822      -0.00085700      -0.01203194 </v>
   <v>       0.00285043       0.01376598       0.00844128 </v>
   <v>       0.00912015      -0.00646460      -0.00237412 </v>
   <v>      -0.01430035      -0.02055775      -0.01844535 </v>
   <v>      -0.00763053       0.01395924      -0.00517530 </v>
   <v>       0.00883155      -0.01698326       0.01016557 </v>
   <v>      -0.00443917       0.04732385       0.00891275 </v>
   <v>      -0.01039634      -0.00533703      -0.01896924 </v>
   <v>      -0.02781193      -0.09597585       0.02505648 </v>
   <v>       0.00709943      -0.02814205       0.04062356 </v>
   <v>       0.01967730       0.02217466      -0.02069352 </v>
   <v>      -0.06893506       0.04275127      -0.00663051 </v>
   <v>       0.06907363       0.08942206       0.00754624 </v>
   <v>      -0.00278254       0.07117188      -0.03012548 </v>
   <v>       0.01638734      -0.09469503       0.00740668 </v>
   <v>       0.03255655      -0.01672814       0.01503279 </v>
   <v>       0.02955899      -0.03790211       0.04863612 </v>
   <v>       0.01009256      -0.07723420       0.05779860 </v>
   <v>      -0.01774049      -0.06716515      -0.01837670 </v>
   <v>       0.02521487       0.01806849       0.03077291 </v>
  </varray>
  <varray name="stress" >
   <v>      14.24845239      -0.03005335       0.09503609 </v>
   <v>      -0.03005245      19.26629150       0.08503195 </v>
   <v>       0.09503532       0.08503334      12.66663212 </v>
  </varray>
  <energy>
   <i name="e_fr_energy">   -669.41714061 </i>
   <i name="e_wo_entrp">   -669.37228882 </i>
   <i name="e_0_energy">     -0.08970358 </i>
  </energy>
  <time name="totalsc">  357.67  358.90</time>
 </calculation>
 <calculation>
  <scstep>
   <time name="dav">   24.62   24.72</time>
   <time name="total">   24.91   25.02</time>
   <energy>
    <i name="alphaZ">   4672.21006990 </i>
    <i name="ewald"> -43628.31309639 </i>
    <i name="hartreedc">  -7300.04031646 </i>
    <i name="XCdc">   1867.29348503 </i>
    <i name="pawpsdc">  31870.51598251 </i>
    <i name="pawaedc"> -31704.71850460 </i>
    <i name="eentropy">     -0.09350411 </i>
    <i name="bandstr">  -5522.76947415 </i>
    <i name="atom">  49076.44327936 </i>
    <i name="e_fr_energy">   -669.47207892 </i>
    <i name="e_wo_entrp">   -669.37857481 </i>
    <i name="e_0_energy">   -669.42532686 </i>
   </energy>
  </scstep>
  <scstep>
   <time name="diag">    1.81    1.82</time>
   <time name="diis">   15.66   15.71</time>
   <time name="orth">    0.43    0.43</time>
   <time name="total">   18.19   18.25</time>
   <energy>
    <i name="e_fr_energy">   -669.66945774 </i>
    <i name="e_wo_entrp">   -669.58806419 </i>
    <i name="e_0_energy">   -669.62876097 </i>
   </energy>
  </scstep>
  <scstep>
   <time name="diag">    1.83    1.83</time>
   <time name="diis">   15.64   15.76</time>
   <time name="orth">    0.44    0.44</time>
   <time name="total">   18.20   18.33</time>
   <energy>
    <i name="e_fr_energy">   -669.44413701 </i>
    <i name="e_wo_entrp">   -669.35282187 </i>
    <i name="e_0_energy">   -669.39847944 </i>
   </energy>
  </scstep>
  <scstep>
   <time name="diag">    1.81    1.81</time>
   <time name="diis">   17.59   17.63</time>
   <time name="orth">    0.42    0.42</time>
   <time name="total">   20.10   20.15</time>
   <energy>
    <i name="e_fr_energy">   -669.44115177 </i>
    <i name="e_wo_entrp">   -669.35064308 </i>
    <i name="e_0_energy">   -669.39589743 </i>
   </energy>
  </scstep>
  <scstep>
   <time name="diag">    1.83    1.83</time>
   <time name="diis">   17.48   17.50</time>
   <time name="orth">    0.42    0.42</time>
   <time name="total">   20.01   20.04</time>
   <energy>
    <i name="e_fr_energy">   -669.42991726 </i>
    <i name="e_wo_entrp">   -669.33956798 </i>
    <i name="e_0_energy">   -669.38474262 </i>
   </energy>
  </scstep>
  <scstep>
   <time name="diag">    1.87    1.90</time>
   <time name="diis">   17.40   17.44</time>
   <time name="orth">    0.42    0.42</time>
   <time name="total">   19.97   20.05</time>
   <energy>
    <i name="e_fr_energy">   -669.43128694 </i>
    <i name="e_wo_entrp">   -669.34091171 </i>
    <i name="e_0_energy">   -669.38609933 </i>
   </energy>
  </scstep>
  <scstep>
   <time name="diag">    1.82    1.83</time>
   <time name="diis">   17.77   17.83</time>
   <time name="orth">    0.42    0.42</time>
   <time name="total">   20.30   20.36</time>
   <energy>
    <i name="e_fr_energy">   -669.42875614 </i>
    <i name="e_wo_entrp">   -669.33851222 </i>
    <i name="e_0_energy">   -669.38363418 </i>
   </energy>
  </scstep>
  <scstep>
   <time name="diag">    1.82    1.82</time>
   <time name="diis">   20.19   20.25</time>
   <time name="orth">    0.42    0.42</time>
   <time name="total">   22.72   22.78</time>
   <energy>
    <i name="e_fr_energy">   -669.42879972 </i>
    <i name="e_wo_entrp">   -669.33868734 </i>
    <i name="e_0_energy">   -669.38374353 </i>
   </energy>
  </scstep>
  <scstep>
   <time name="diag">    1.84    1.84</time>
   <time name="diis">   18.87   18.96</time>
   <time name="orth">    0.44    0.44</time>
   <time name="total">   21.43   21.53</time>
   <energy>
    <i name="e_fr_energy">   -669.42865591 </i>
    <i name="e_wo_entrp">   -669.33850792 </i>
    <i name="e_0_energy">   -669.38358191 </i>
   </energy>
  </scstep>
  <scstep>
   <time name="diag">    1.84    1.85</time>
   <time name="diis">   17.08   17.11</time>
   <time name="orth">    0.42    0.42</time>
   <time name="total">   19.62   19.67</time>
   <energy>
    <i name="e_fr_energy">   -669.42865456 </i>
    <i name="e_wo_entrp">   -669.33858407 </i>
    <i name="e_0_energy">   -669.38361932 </i>
   </energy>
  </scstep>
  <scstep>
   <time name="diag">    1.81    1.81</time>
   <time name="diis">   13.83   13.89</time>
   <time name="orth">    0.44    0.44</time>
   <time name="total">   16.11   16.18</time>
   <energy>
    <i name="alphaZ">   4672.21006990 </i>
    <i name="ewald"> -43628.31309639 </i>
    <i name="hartreedc">  -7325.58447640 </i>
    <i name="XCdc">   1868.69552891 </i>
    <i name="pawpsdc">  31834.23952798 </i>
    <i name="pawaedc"> -31667.92044471 </i>
    <i name="eentropy">     -0.09017072 </i>
    <i name="bandstr">  -5499.10886966 </i>
    <i name="atom">  49076.44327936 </i>
    <i name="e_fr_energy">   -669.42865174 </i>
    <i name="e_wo_entrp">   -669.33848102 </i>
    <i name="e_0_energy">   -669.38356638 </i>
   </energy>
  </scstep>
  <structure>
   <crystal>
    <varray name="basis" >
     <v>       8.82759296       0.00085539       0.02936877 </v>
     <v>       0.00686212       8.81679966      -0.02091316 </v>
     <v>       0.06122606      -0.03596052       8.86172017 </v>
    </varray>
    <i name="volume">    689.69504119 </i>
    <varray name="rec_basis" >
     <v>       0.11328378      -0.00009003      -0.00078305 </v>
     <v>      -0.00001252       0.11342094       0.00046034 </v>
     <v>      -0.00037547       0.00026797       0.11284859 </v>
    </varray>
   </crystal>
   <varray name="positions" >
    <v>       0.00560411       0.00706837       0.99758191 </v>
    <v>       0.26142996       0.00673469       0.24207945 </v>
    <v>       0.24822203       0.49217117       0.25157515 </v>
    <v>       0.49934572       0.49888288       0.99971348 </v>
    <v>       0.50040142       0.24321835       0.74699967 </v>
    <v>       0.00239879       0.50157150       0.50300314 </v>
    <v>       0.49330303       0.75718172       0.75566837 </v>
    <v>       0.99543594       0.23689362       0.25635836 </v>
    <v>       0.76004802       0.75148263       0.00406983 </v>
    <v>       0.00196981       0.25850907       0.74836308 </v>
    <v>       0.75689260       0.24506556       0.48732364 </v>
    <v>       0.00178819       0.74708186       0.75358484 </v>
    <v>       0.24879386       0.50103452       0.74981036 </v>
    <v>       0.25258482       0.26900554       0.98325647 </v>
    <v>       0.51135171       0.26318047       0.23896265 </v>
    <v>       0.74818796       0.99782862       0.27598518 </v>
    <v>       0.72578226       0.24342448       0.01373976 </v>
    <v>       0.23057243       0.72777613       0.00259900 </v>
    <v>       0.23446992       0.24234623       0.51805229 </v>
    <v>       0.25994230       0.76045794       0.49433248 </v>
    <v>       0.24988169       0.24872163       0.24625364 </v>
    <v>       0.25827671       0.00283254       0.99240085 </v>
    <v>       0.99662275       0.25431765       0.00232527 </v>
    <v>       0.74492035       0.24524415       0.24113984 </v>
    <v>       0.75596945       0.00819773       0.01894156 </v>
    <v>       0.51345823       0.99915646       0.23511939 </v>
    <v>       0.99723836       0.49897220       0.24693521 </v>
    <v>       0.49550144       0.75683464       0.00516525 </v>
    <v>       0.98756717       0.00459115       0.74920253 </v>
    <v>       0.75086348       0.24413690       0.75105282 </v>
    <v>       0.75392080       0.00032822       0.52043548 </v>
    <v>       0.50013422       0.24350012       0.49030556 </v>
    <v>       0.49398161       0.00048272       0.73417268 </v>
    <v>       0.99948088       0.99941523       0.25326036 </v>
    <v>       0.49009834       0.24741403       0.00223469 </v>
    <v>       0.25420777       0.75023317       0.24561788 </v>
    <v>       0.24564832       0.49836386       0.99956545 </v>
    <v>       0.00377997       0.74833366       0.00339180 </v>
    <v>       0.74960172       0.75444020       0.25210190 </v>
    <v>       0.75425916       0.49224827       0.00108683 </v>
    <v>       0.50107659       0.49516296       0.25202669 </v>
    <v>       0.24784359       0.24664110       0.75096739 </v>
    <v>       0.26352798       0.00288673       0.49713916 </v>
    <v>       0.00403487       0.24914825       0.50201668 </v>
    <v>       0.24554761       0.75463422       0.75298860 </v>
    <v>       0.25408475       0.49661747       0.50074383 </v>
    <v>       0.00361803       0.75511290       0.50062065 </v>
    <v>       0.99879069       0.50277459       0.75043319 </v>
    <v>       0.74843101       0.75073282       0.75169750 </v>
    <v>       0.74721487       0.49886311       0.49779529 </v>
    <v>       0.49518414       0.74791727       0.50252827 </v>
    <v>       0.50065567       0.49972316       0.74590745 </v>
    <v>       0.52152050       0.01111073       0.98764704 </v>
    <v>       0.00143547       0.50162421       0.98884075 </v>
    <v>       0.49590533       0.74028462       0.25936667 </v>
    <v>       0.23928700       0.99776590       0.73979275 </v>
    <v>       0.50640066       0.98655541       0.47465195 </v>
    <v>       0.73503164       0.98679743       0.77647492 </v>
    <v>       0.00428200       0.76225074       0.25228756 </v>
    <v>       0.74821516       0.49903240       0.24789500 </v>
    <v>       0.01350804       0.00241368       0.50422663 </v>
    <v>       0.49668699       0.50331501       0.49974955 </v>
    <v>       0.74942951       0.50635854       0.75414677 </v>
    <v>       0.74435096       0.75359662       0.49628776 </v>
   </varray>
  </structure>
  <varray name="forces" >
   <v>      -0.00739837      -0.02610887       0.02762567 </v>
   <v>       0.02636490       0.00309622       0.04271987 </v>
   <v>       0.04280323      -0.01002380       0.04918584 </v>
   <v>       0.00793972       0.04328515      -0.02722424 </v>
   <v>      -0.02322382      -0.04280132       0.00759315 </v>
   <v>      -0.00905553       0.01068531      -0.00548901 </v>
   <v>      -0.01649857       0.01931337      -0.03284600 </v>
   <v>      -0.04121135       0.03922527      -0.02118562 </v>
   <v>      -0.03150548      -0.02487558       0.02936691 </v>
   <v>      -0.02138529      -0.03700666       0.00040092 </v>
   <v>      -0.02264566       0.01414444       0.04590957 </v>
   <v>      -0.00518124      -0.00082930      -0.01987689 </v>
   <v>      -0.03457248       0.00928798      -0.04072518 </v>
   <v>       0.01823967      -0.01183040       0.02918064 </v>
   <v>       0.01090909       0.01362677      -0.02326177 </v>
   <v>      -0.09117979      -0.01899634      -0.01964218 </v>
   <v>      -0.00588267       0.07352008      -0.05791591 </v>
   <v>      -0.01256649       0.04496155      -0.02668656 </v>
   <v>       0.00351032       0.03856399      -0.06854242 </v>
   <v>      -0.04711134      -0.04936641       0.02503167 </v>
   <v>       0.00551229      -0.00058272      -0.00780248 </v>
   <v>       0.01569099      -0.02423036       0.01221335 </v>
   <v>       0.03624577       0.01805925       0.03286336 </v>
   <v>       0.02695631      -0.05401140      -0.00490334 </v>
   <v>       0.07253212      -0.02666409      -0.02964521 </v>
   <v>      -0.00593083       0.03220645      -0.01832596 </v>
   <v>       0.01731336       0.02007043       0.00858036 </v>
   <v>      -0.01397136      -0.04235322       0.02015192 </v>
   <v>      -0.12185304      -0.03895736       0.02457897 </v>
   <v>      -0.00373990       0.03758383       0.00301370 </v>
   <v>       0.07637069       0.01378937      -0.00334753 </v>
   <v>      -0.01060949       0.07641471       0.06950567 </v>
   <v>      -0.07452803      -0.01290711       0.00915888 </v>
   <v>      -0.05447154       0.01639748       0.02568858 </v>
   <v>      -0.01160429      -0.00188705      -0.01161615 </v>
   <v>      -0.00993702      -0.03353798      -0.03390807 </v>
   <v>       0.00701280      -0.00702576      -0.00912307 </v>
   <v>       0.00315589      -0.00921952      -0.01784168 </v>
   <v>       0.01419645      -0.04756088       0.01836527 </v>
   <v>       0.00728400      -0.00705194       0.00027275 </v>
   <v>       0.02962953      -0.01958331      -0.00391041 </v>
   <v>      -0.00178044       0.01599520       0.01559485 </v>
   <v>       0.07318432       0.02130668       0.02752509 </v>
   <v>       0.00041841      -0.00853111      -0.04180377 </v>
   <v>      -0.02005822       0.00327617      -0.00819198 </v>
[...]
      </set>
     </set>
    </set>
   </array>
  </eigenvalues>
  <separator name="orbital magnetization" >
   <v name="MAGDIPOLOUT">      0.00000000      0.00000000      0.00000000</v>
  </separator>
  <dos>
   <i name="efermi">      9.02346677 </i>
   <total>
    <array>
     <dimension dim="1">gridpoints</dimension>
     <dimension dim="2">spin</dimension>
     <field>energy</field>
     <field>total</field>
     <field>integrated</field>
     <set>
      <set comment="spin 1">
       <r>   -59.3732     0.0000     0.0000 </r>
       <r>   -59.1248     0.0000     0.0000 </r>
       <r>   -58.8765     0.0000     0.0000 </r>
       <r>   -58.6281     0.0000     0.0000 </r>
       <r>   -58.3798     0.0000     0.0000 </r>
       <r>   -58.1314     0.0000     0.0000 </r>
       <r>   -57.8831     0.0000     0.0000 </r>
       <r>   -57.6347     0.0000     0.0000 </r>
       <r>   -57.3864     0.0000     0.0000 </r>
       <r>   -57.1380     0.0000     0.0000 </r>
       <r>   -56.8897     0.0000     0.0000 </r>
       <r>   -56.6414     0.0000     0.0000 </r>
       <r>   -56.3930     0.0000     0.0000 </r>
       <r>   -56.1447     0.1237     0.0307 </r>
       <r>   -55.8963    21.2819     5.3160 </r>
       <r>   -55.6480    34.1085    13.7867 </r>
       <r>   -55.3996     0.8589    14.0000 </r>
       <r>   -55.1513     0.0000    14.0000 </r>
       <r>   -54.9029     0.0000    14.0000 </r>
       <r>   -54.6546     0.0000    14.0000 </r>
       <r>   -54.4062     0.0000    14.0000 </r>
       <r>   -54.1579     0.0000    14.0000 </r>
       <r>   -53.9096     0.0000    14.0000 </r>
       <r>   -53.6612     0.0000    14.0000 </r>
       <r>   -53.4129     0.0000    14.0000 </r>
       <r>   -53.1645     0.0000    14.0000 </r>
       <r>   -52.9162     0.0000    14.0000 </r>
       <r>   -52.6678     0.0000    14.0000 </r>
       <r>   -52.4195     0.0000    14.0000 </r>
       <r>   -52.1711     0.0000    14.0000 </r>
       <r>   -51.9228     0.0000    14.0000 </r>
       <r>   -51.6744     0.0000    14.0000 </r>
       <r>   -51.4261     0.0000    14.0000 </r>
       <r>   -51.1778     0.0000    14.0000 </r>
       <r>   -50.9294     0.0000    14.0000 </r>
       <r>   -50.6811     0.0000    14.0000 </r>
       <r>   -50.4327     0.0000    14.0000 </r>
       <r>   -50.1844     0.0000    14.0000 </r>
       <r>   -49.9360     0.0000    14.0000 </r>
       <r>   -49.6877     0.0000    14.0000 </r>
       <r>   -49.4393     0.0000    14.0000 </r>
       <r>   -49.1910     0.0000    14.0000 </r>
       <r>   -48.9426     0.0000    14.0000 </r>
       <r>   -48.6943     0.0000    14.0000 </r>
       <r>   -48.4459     0.0000    14.0000 </r>
       <r>   -48.1976     0.0000    14.0000 </r>
       <r>   -47.9493     0.0000    14.0000 </r>
       <r>   -47.7009     0.0000    14.0000 </r>
       <r>   -47.4526     0.0000    14.0000 </r>
       <r>   -47.2042     0.0002    14.0001 </r>
       <r>   -46.9559     2.8930    14.7185 </r>
       <r>   -46.7075    26.2050    21.2264 </r>
       <r>   -46.4592    14.2762    24.7718 </r>
       <r>   -46.2108     4.9411    25.9989 </r>
       <r>   -45.9625     0.0043    26.0000 </r>
       <r>   -45.7141     0.0000    26.0000 </r>
       <r>   -45.4658     0.0000    26.0000 </r>
       <r>   -45.2175     0.0000    26.0000 </r>
       <r>   -44.9691     0.0000    26.0000 </r>
       <r>   -44.7208     0.0000    26.0000 </r>
       <r>   -44.4724     0.0000    26.0000 </r>
       <r>   -44.2241     0.0000    26.0000 </r>
       <r>   -43.9757     0.0000    26.0000 </r>
       <r>   -43.7274     0.0000    26.0000 </r>
       <r>   -43.4790     0.0000    26.0000 </r>
       <r>   -43.2307     0.0000    26.0000 </r>
       <r>   -42.9823     0.0000    26.0000 </r>
       <r>   -42.7340     0.0000    26.0000 </r>
       <r>   -42.4857     0.0000    26.0000 </r>
       <r>   -42.2373     0.0000    26.0000 </r>
       <r>   -41.9890     0.0000    26.0000 </r>
       <r>   -41.7406     0.0000    26.0000 </r>
       <r>   -41.4923     0.0000    26.0000 </r>
       <r>   -41.2439     0.0000    26.0000 </r>
       <r>   -40.9956     0.0000    26.0000 </r>
       <r>   -40.7472     0.0000    26.0000 </r>
       <r>   -40.4989     0.0000    26.0000 </r>
       <r>   -40.2505     0.0000    26.0000 </r>
       <r>   -40.0022     0.0000    26.0000 </r>
       <r>   -39.7539     0.0000    26.0000 </r>
       <r>   -39.5055     0.0000    26.0000 </r>
       <r>   -39.2572     0.0000    26.0000 </r>
       <r>   -39.0088     0.0000    26.0000 </r>
       <r>   -38.7605     0.0000    26.0000 </r>
       <r>   -38.5121     0.0000    26.0000 </r>
       <r>   -38.2638     0.0000    26.0000 </r>
       <r>   -38.0154     0.0000    26.0000 </r>
       <r>   -37.7671     0.0000    26.0000 </r>
       <r>   -37.5187     0.0000    26.0000 </r>
       <r>   -37.2704     0.0000    26.0000 </r>
       <r>   -37.0221     0.0000    26.0000 </r>
       <r>   -36.7737     0.0000    26.0000 </r>
       <r>   -36.5254     0.0000    26.0000 </r>
       <r>   -36.2770     0.0000    26.0000 </r>
       <r>   -36.0287     0.0000    26.0000 </r>
       <r>   -35.7803     0.0000    26.0000 </r>
       <r>   -35.5320     0.0000    26.0000 </r>
       <r>   -35.2836     0.0000    26.0000 </r>
       <r>   -35.0353     0.0000    26.0000 </r>
       <r>   -34.7869     0.0000    26.0000 </r>
       <r>   -34.5386     0.0000    26.0000 </r>
       <r>   -34.2903     0.0000    26.0000 </r>
       <r>   -34.0419     0.0000    26.0000 </r>
       <r>   -33.7936     0.0000    26.0000 </r>
       <r>   -33.5452     0.0000    26.0000 </r>
       <r>   -33.2969     0.0000    26.0000 </r>
       <r>   -33.0485     0.0000    26.0000 </r>
       <r>   -32.8002     0.0000    26.0000 </r>
       <r>   -32.5518     0.0000    26.0000 </r>
       <r>   -32.3035     0.0000    26.0000 </r>
       <r>   -32.0551     0.0000    26.0000 </r>
       <r>   -31.8068     0.0000    26.0000 </r>
       <r>   -31.5584     0.0000    26.0000 </r>
       <r>   -31.3101     0.0000    26.0000 </r>
       <r>   -31.0618     0.0000    26.0000 </r>
       <r>   -30.8134     0.0025    26.0006 </r>
       <r>   -30.5651     5.3652    27.3330 </r>
       <r>   -30.3167    31.1837    35.0774 </r>
       <r>   -30.0684    90.2170    57.4824 </r>
       <r>   -29.8200    89.1783    79.6294 </r>
       <r>   -29.5717    95.7840   103.4169 </r>
       <r>   -29.3233     2.3477   104.0000 </r>
       <r>   -29.0750     0.0000   104.0000 </r>
       <r>   -28.8266     0.0000   104.0000 </r>
       <r>   -28.5783     0.0000   104.0000 </r>
       <r>   -28.3300     0.0000   104.0000 </r>
       <r>   -28.0816     0.0000   104.0000 </r>
       <r>   -27.8333     0.0000   104.0000 </r>
       <r>   -27.5849     0.0000   104.0000 </r>
       <r>   -27.3366     0.0000   104.0000 </r>
       <r>   -27.0882     0.0000   104.0000 </r>
       <r>   -26.8399     0.0000   104.0000 </r>
       <r>   -26.5915     0.0612   104.0152 </r>
       <r>   -26.3432    19.7513   108.9204 </r>
       <r>   -26.0948    59.8619   123.7868 </r>
       <r>   -25.8465    61.0130   138.9391 </r>
       <r>   -25.5982     4.2715   139.9999 </r>
       <r>   -25.3498     0.0003   140.0000 </r>
       <r>   -25.1015     0.0000   140.0000 </r>
       <r>   -24.8531     0.0000   140.0000 </r>
       <r>   -24.6048     0.0000   140.0000 </r>
       <r>   -24.3564     0.0000   140.0000 </r>
       <r>   -24.1081     0.0000   140.0000 </r>
       <r>   -23.8597     0.0000   140.0000 </r>
       <r>   -23.6114     0.0000   140.0000 </r>
       <r>   -23.3630     0.9099   140.2260 </r>
       <r>   -23.1147    19.1525   144.9824 </r>
       <r>   -22.8664    70.4139   162.4694 </r>
       <r>   -22.6180    38.0525   171.9196 </r>
       <r>   -22.3697    16.3793   175.9873 </r>
       <r>   -22.1213     4.7492   177.1667 </r>
       <r>   -21.8730    22.2362   182.6890 </r>
       <r>   -21.6246    64.3823   198.6780 </r>
       <r>   -21.3763    54.2536   212.1517 </r>
       <r>   -21.1279    23.1031   217.8892 </r>
       <r>   -20.8796     0.4460   218.0000 </r>
       <r>   -20.6312     0.0000   218.0000 </r>
       <r>   -20.3829     0.0000   218.0000 </r>
       <r>   -20.1346     0.0000   218.0000 </r>
       <r>   -19.8862     0.0000   218.0000 </r>
       <r>   -19.6379     0.0000   218.0000 </r>
       <r>   -19.3895     0.0000   218.0000 </r>
       <r>   -19.1412     0.0000   218.0000 </r>
       <r>   -18.8928     0.0000   218.0000 </r>
       <r>   -18.6445     0.0000   218.0000 </r>
       <r>   -18.3961     0.0000   218.0000 </r>
       <r>   -18.1478     0.0000   218.0000 </r>
       <r>   -17.8994     0.0000   218.0000 </r>
       <r>   -17.6511     0.0000   218.0000 </r>
       <r>   -17.4028     0.0000   218.0000 </r>
       <r>   -17.1544     0.0000   218.0000 </r>
       <r>   -16.9061     0.0000   218.0000 </r>
       <r>   -16.6577     0.0000   218.0000 </r>
       <r>   -16.4094     0.0000   218.0000 </r>
       <r>   -16.1610     0.0000   218.0000 </r>
       <r>   -15.9127     0.0000   218.0000 </r>
       <r>   -15.6643     0.0000   218.0000 </r>
       <r>   -15.4160     0.0000   218.0000 </r>
       <r>   -15.1676     0.0000   218.0000 </r>
       <r>   -14.9193     0.0000   218.0000 </r>
       <r>   -14.6710     0.0000   218.0000 </r>
       <r>   -14.4226     0.0000   218.0000 </r>
       <r>   -14.1743     0.0000   218.0000 </r>
       <r>   -13.9259     0.0000   218.0000 </r>
       <r>   -13.6776     0.0000   218.0000 </r>
       <r>   -13.4292     0.0000   218.0000 </r>
       <r>   -13.1809     0.0000   218.0000 </r>
       <r>   -12.9325     0.0000   218.0000 </r>
       <r>   -12.6842     0.0000   218.0000 </r>
       <r>   -12.4358     0.0000   218.0000 </r>
       <r>   -12.1875     0.0000   218.0000 </r>
       <r>   -11.9391     0.0000   218.0000 </r>
       <r>   -11.6908     0.0000   218.0000 </r>
       <r>   -11.4425     0.0000   218.0000 </r>
       <r>   -11.1941     0.0000   218.0000 </r>
       <r>   -10.9458     0.0000   218.0000 </r>
       <r>   -10.6974     0.0000   218.0000 </r>
       <r>   -10.4491     0.0000   218.0000 </r>
       <r>   -10.2007     0.0000   218.0000 </r>
       <r>    -9.9524     0.0000   218.0000 </r>
       <r>    -9.7040     0.0000   218.0000 </r>
       <r>    -9.4557     0.0000   218.0000 </r>
       <r>    -9.2073     0.0000   218.0000 </r>
       <r>    -8.9590     0.0000   218.0000 </r>
       <r>    -8.7107     0.0000   218.0000 </r>
       <r>    -8.4623     0.0000   218.0000 </r>
       <r>    -8.2140     0.0000   218.0000 </r>
       <r>    -7.9656     0.0011   218.0003 </r>
       <r>    -7.7173     0.9631   218.2395 </r>
       <r>    -7.4689     5.9291   219.7119 </r>
       <r>    -7.2206     3.0396   220.4668 </r>
       <r>    -6.9722    11.2006   223.2484 </r>
       <r>    -6.7239    16.2353   227.2804 </r>
       <r>    -6.4755    18.1696   231.7927 </r>
       <r>    -6.2272    13.2147   235.0745 </r>
       <r>    -5.9789    19.7639   239.9828 </r>
       <r>    -5.7305     8.7751   242.1621 </r>
       <r>    -5.4822     7.3008   243.9752 </r>
       <r>    -5.2338     0.0999   244.0000 </r>
       <r>    -4.9855     0.0000   244.0000 </r>
       <r>    -4.7371     0.0000   244.0000 </r>
       <r>    -4.4888     0.0000   244.0000 </r>
       <r>    -4.2404     0.0094   244.0023 </r>
       <r>    -3.9921     1.8623   244.4648 </r>
       <r>    -3.7437     5.6558   245.8694 </r>
       <r>    -3.4954     4.4754   246.9809 </r>
       <r>    -3.2471     9.0845   249.2370 </r>
       <r>    -2.9987    12.9437   252.4515 </r>
       <r>    -2.7504    20.1585   257.4578 </r>
       <r>    -2.5020    24.7244   263.5980 </r>
       <r>    -2.2537    24.3731   269.6509 </r>
       <r>    -2.0053    19.3513   274.4567 </r>
       <r>    -1.7570    16.5809   278.5745 </r>
       <r>    -1.5086    10.2413   281.1179 </r>
       <r>    -1.2603     3.1950   281.9114 </r>
       <r>    -1.0119     0.3566   281.9999 </r>
       <r>    -0.7636     0.0002   282.0000 </r>
       <r>    -0.5153     0.0000   282.0000 </r>
       <r>    -0.2669     0.0000   282.0000 </r>
       <r>    -0.0186     0.0000   282.0000 </r>
       <r>     0.2298     0.0008   282.0002 </r>
       <r>     0.4781     0.3968   282.0987 </r>
       <r>     0.7265     1.6362   282.5051 </r>
       <r>     0.9748     6.1542   284.0334 </r>
       <r>     1.2232     8.5910   286.1670 </r>
       <r>     1.4715    11.2376   288.9578 </r>
       <r>     1.7199    15.8463   292.8932 </r>
       <r>     1.9682    20.9340   298.0920 </r>
       <r>     2.2165    26.7123   304.7259 </r>
       <r>     2.4649    26.5839   311.3279 </r>
       <r>     2.7132    28.4875   318.4026 </r>
       <r>     2.9616    32.8125   326.5515 </r>
       <r>     3.2099    28.9214   333.7340 </r>
       <r>     3.4583    37.1457   342.9590 </r>
       <r>     3.7066    47.9188   354.8594 </r>
       <r>     3.9550    54.1972   368.3190 </r>
       <r>     4.2033    62.3147   383.7946 </r>
       <r>     4.4517    61.3849   399.0393 </r>
       <r>     4.7000    59.9588   413.9298 </r>
       <r>     4.9484    55.7445   427.7737 </r>
       <r>     5.1967    44.0556   438.7147 </r>
       <r>     5.4450    35.6963   447.5797 </r>
       <r>     5.6934    29.6123   454.9338 </r>
       <r>     5.9417    29.8401   462.3444 </r>
       <r>     6.1901    17.9330   466.7980 </r>
       <r>     6.4384    17.9646   471.2594 </r>
       <r>     6.6868     8.4364   473.3545 </r>
       <r>     6.9351     8.7537   475.5285 </r>
       <r>     7.1835    14.1716   479.0479 </r>
       <r>     7.4318    15.5021   482.8978 </r>
       <r>     7.6802    20.1167   487.8937 </r>
       <r>     7.9285    19.0986   492.6367 </r>
       <r>     8.1768    18.1109   497.1345 </r>
       <r>     8.4252    22.3271   502.6793 </r>
       <r>     8.6735    26.4443   509.2466 </r>
       <r>     8.9219    26.8675   515.9191 </r>
       <r>     9.1702    19.7362   520.8205 </r>
       <r>     9.4186    28.6567   527.9372 </r>
       <r>     9.6669    36.0144   536.8812 </r>
       <r>     9.9153    40.6004   546.9642 </r>
       <r>    10.1636    45.9892   558.3854 </r>
       <r>    10.4120    42.9474   569.0512 </r>
       <r>    10.6603    43.1156   579.7588 </r>
       <r>    10.9086    46.0575   591.1969 </r>
       <r>    11.1570    44.9648   602.3637 </r>
       <r>    11.4053    41.9331   612.7776 </r>
       <r>    11.6537    37.9036   622.1908 </r>
       <r>    11.9020     7.2651   623.9951 </r>
       <r>    12.1504     0.0198   624.0000 </r>
       <r>    12.3987     0.0000   624.0000 </r>
       <r>    12.6471     0.0000   624.0000 </r>
       <r>    12.8954     0.0000   624.0000 </r>
       <r>    13.1438     0.0000   624.0000 </r>
       <r>    13.3921     0.0000   624.0000 </r>
       <r>    13.6404     0.0000   624.0000 </r>
       <r>    13.8888     0.0000   624.0000 </r>
       <r>    14.1371     0.0000   624.0000 </r>
       <r>    14.3855     0.0000   624.0000 </r>
       <r>    14.6338     0.0000   624.0000 </r>
       <r>    14.8822     0.0000   624.0000 </r>
       <r>    15.1305     0.0000   624.0000 </r>
      </set>
     </set>
    </array>
   </total>
  </dos>
 </calculation>
 <structure name="finalpos" >
  <crystal>
   <varray name="basis" >
    <v>       8.83702529       0.00161067       0.02871570 </v>
    <v>       0.00762966       8.81544280      -0.02217989 </v>
    <v>       0.06062926      -0.03722113       8.86283556 </v>
   </varray>
   <i name="volume">    690.41243288 </i>
   <varray name="rec_basis" >
    <v>       0.11316279      -0.00009989      -0.00077455 </v>
    <v>      -0.00002222       0.11343851       0.00047656 </v>
    <v>      -0.00036670       0.00028421       0.11283441 </v>
   </varray>
  </crystal>
  <varray name="positions" >
   <v>       0.00572041       0.00673037       0.99807610 </v>
   <v>       0.26211499       0.00690190       0.24298884 </v>
   <v>       0.24875013       0.49237732       0.25188676 </v>
   <v>       0.49931538       0.49963745       0.99948143 </v>
   <v>       0.49926145       0.24298780       0.74716120 </v>
   <v>       0.00219916       0.50141366       0.50293488 </v>
   <v>       0.49275824       0.75742521       0.75478287 </v>
   <v>       0.99449703       0.23708676       0.25650284 </v>
   <v>       0.75999531       0.75069048       0.00429472 </v>
   <v>       0.00221379       0.25747923       0.74838770 </v>
   <v>       0.75664749       0.24413558       0.48788441 </v>
   <v>       0.00121170       0.74715186       0.75333485 </v>
   <v>       0.24815839       0.50084354       0.74968271 </v>
   <v>       0.25376223       0.26874556       0.98400454 </v>
   <v>       0.51298705       0.26323915       0.23922525 </v>
   <v>       0.74475696       0.99818024       0.27672442 </v>
   <v>       0.72559820       0.24408500       0.00928142 </v>
   <v>       0.23007152       0.72847327       0.00214856 </v>
   <v>       0.23440879       0.24343145       0.51643761 </v>
   <v>       0.25946821       0.75977909       0.49461236 </v>
   <v>       0.24936075       0.24887524       0.24680787 </v>
   <v>       0.25816553       0.00212015       0.99286954 </v>
   <v>       0.99813962       0.25419721       0.00274312 </v>
   <v>       0.74527362       0.24427080       0.23974206 </v>
   <v>       0.75649185       0.00768153       0.01840350 </v>
   <v>       0.51278740       0.99985362       0.23489356 </v>
   <v>       0.99775341       0.49924912       0.24716256 </v>
   <v>       0.49576942       0.75652875       0.00504962 </v>
   <v>       0.98485641       0.00388328       0.74988523 </v>
   <v>       0.75018428       0.24453579       0.75163448 </v>
   <v>       0.75662382       0.00000573       0.52040082 </v>
   <v>       0.50031544       0.24501344       0.49111055 </v>
   <v>       0.49160073       0.00046968       0.73500103 </v>
   <v>       0.99879227       0.99955880       0.25419485 </v>
   <v>       0.49029100       0.24744653       0.00231075 </v>
   <v>       0.25452994       0.75018129       0.24532837 </v>
   <v>       0.24578786       0.49847304       0.99960921 </v>
   <v>       0.00352863       0.74808391       0.00337558 </v>
   <v>       0.75014058       0.75368950       0.25227754 </v>
   <v>       0.75438104       0.49186306       0.00095779 </v>
   <v>       0.50170583       0.49530067       0.25191874 </v>
   <v>       0.24742463       0.24679347       0.75104171 </v>
   <v>       0.26600229       0.00361733       0.49755844 </v>
   <v>       0.00390954       0.24881778       0.50177670 </v>
   <v>       0.24486708       0.75491824       0.75285642 </v>
   <v>       0.25396124       0.49715471       0.50097067 </v>
   <v>       0.00386818       0.75467858       0.50062311 </v>
   <v>       0.99838041       0.50223928       0.75058664 </v>
   <v>       0.74795922       0.75088414       0.75163212 </v>
   <v>       0.74730044       0.49837524       0.49788424 </v>
   <v>       0.49553422       0.74863814       0.50205004 </v>
   <v>       0.50039342       0.49973837       0.74580998 </v>
   <v>       0.52151826       0.01050701       0.98746107 </v>
   <v>       0.00175418       0.50151921       0.98911461 </v>
   <v>       0.49669397       0.74050094       0.25943952 </v>
   <v>       0.23731721       0.99848900       0.73832096 </v>
   <v>       0.50901868       0.98838138       0.47475639 </v>
   <v>       0.73386490       0.98749750       0.77671367 </v>
   <v>       0.00497324       0.76236198       0.25254294 </v>
   <v>       0.74844499       0.49836870       0.24790934 </v>
   <v>       0.01546233       0.00194796       0.50555235 </v>
   <v>       0.49709059       0.50274018       0.49983182 </v>
   <v>       0.74923410       0.50576991       0.75378520 </v>
   <v>       0.74465140       0.75398463       0.49627198 </v>
  </varray>
 </structure>
</modeling>
