 running on   24 total cores
 distrk:  each k-point on   24 cores,    1 groups
 distr:  one band on    1 cores,   24 groups
 using from now: INCAR     
 vasp.5.4.4.18Apr17-6-g9f103f2a35 (build Oct 18 2021 20:38:43) complex          
  
 POSCAR found type information on POSCAR  Hf Ta Ti N  C  Cr Mo
 POSCAR found :  7 types and      64 ions
 scaLAPACK will be used

 ----------------------------------------------------------------------------- 
|                                                                             |
|           W    W    AA    RRRRR   N    N  II  N    N   GGGG   !!!           |
|           W    W   A  A   R    R  NN   N  II  NN   N  G    G  !!!           |
|           W    W  A    A  R    R  N N  N  II  N N  N  G       !!!           |
|           W WW W  AAAAAA  RRRRR   N  N N  II  N  N N  G  GGG   !            |
|           WW  WW  A    A  R   R   N   NN  II  N   NN  G    G                |
|           W    W  A    A  R    R  N    N  II  N    N   GGGG   !!!           |
|                                                                             |
|      For optimal performance we recommend to set                            |
|        NCORE= 4 - approx SQRT( number of cores)                             |
|      NCORE specifies how many cores store one orbital (NPAR=cpu/NCORE).     |
|      This setting can  greatly improve the performance of VASP for DFT.     |
|      The default,   NCORE=1            might be grossly inefficient         |
|      on modern multi-core architectures or massively parallel machines.     |
|      Do your own testing !!!!                                               |
|      Unfortunately you need to use the default for GW and RPA calculations. |
|      (for HF NCORE is supported but not extensively tested yet)             |
|                                                                             |
 ----------------------------------------------------------------------------- 


 ----------------------------------------------------------------------------- 
|                                                                             |
|  ADVICE TO THIS USER RUNNING 'VASP/VAMP'   (HEAR YOUR MASTER'S VOICE ...):  |
|                                                                             |
|      You have a (more or less) 'large supercell' and for larger cells       |
|      it might be more efficient to use real space projection operators      |
|      So try LREAL= Auto  in the INCAR   file.                               |
|      Mind: If you want to do a very accurate calculations keep the          |
|      reciprocal projection scheme          (i.e. LREAL=.FALSE.)             |
|                                                                             |
 ----------------------------------------------------------------------------- 

 LDA part: xc-table for Pade appr. of Perdew
 POSCAR, INCAR and KPOINTS ok, starting setup
 FFT: planning ...
 WAVECAR not read
 entering main loop
       N       E                     dE             d eps       ncg     rms          rms(c)
DAV:   1     0.564326598189E+04    0.56433E+04   -0.19063E+05  8064   0.150E+03
DAV:   2     0.256830256861E+03   -0.53864E+04   -0.52321E+04  8088   0.551E+02
DAV:   3    -0.662048211090E+03   -0.91888E+03   -0.85834E+03 12480   0.189E+02
DAV:   4    -0.783632514678E+03   -0.12158E+03   -0.11830E+03 14472   0.832E+01
DAV:   5    -0.794433301079E+03   -0.10801E+02   -0.10616E+02 14616   0.213E+01    0.766E+01
RMM:   6    -0.954203706329E+03   -0.15977E+03   -0.28193E+03 11655   0.153E+02    0.122E+02
RMM:   7    -0.657418741461E+03    0.29678E+03   -0.32845E+02 13438   0.405E+01    0.463E+01
RMM:   8    -0.653193605432E+03    0.42251E+01   -0.49726E+01 13097   0.182E+01    0.347E+01
RMM:   9    -0.646582010521E+03    0.66116E+01   -0.19736E+01 12977   0.907E+00    0.252E+01
RMM:  10    -0.643838710003E+03    0.27433E+01   -0.62754E+00 12529   0.827E+00    0.150E+01
RMM:  11    -0.646330871133E+03   -0.24922E+01   -0.58660E+00 12522   0.631E+00    0.264E+01
RMM:  12    -0.643512275906E+03    0.28186E+01   -0.46180E+00 12904   0.602E+00    0.127E+01
RMM:  13    -0.643454596789E+03    0.57679E-01   -0.41148E+00 13377   0.386E+00    0.169E+01
RMM:  14    -0.642602062808E+03    0.85253E+00   -0.15454E+00 13180   0.327E+00    0.555E+00
RMM:  15    -0.642617019668E+03   -0.14957E-01   -0.11979E+00 12957   0.214E+00    0.607E+00
RMM:  16    -0.642529938796E+03    0.87081E-01   -0.43732E-01 12928   0.173E+00    0.435E+00
RMM:  17    -0.642446044390E+03    0.83894E-01   -0.49733E-01 13270   0.119E+00    0.371E+00
RMM:  18    -0.642434172985E+03    0.11871E-01   -0.23349E-01 13099   0.122E+00    0.296E+00
RMM:  19    -0.642424730595E+03    0.94424E-02   -0.28464E-01 13297   0.910E-01    0.123E+00
RMM:  20    -0.642417894319E+03    0.68363E-02   -0.91212E-02 13224   0.697E-01    0.576E-01
RMM:  21    -0.642417826723E+03    0.67596E-04   -0.50295E-02 13069   0.381E-01    0.286E-01
RMM:  22    -0.642418954654E+03   -0.11279E-02   -0.23802E-02 12972   0.286E-01    0.116E-01
RMM:  23    -0.642420101375E+03   -0.11467E-02   -0.14773E-02 12698   0.169E-01    0.882E-02
RMM:  24    -0.642420828844E+03   -0.72747E-03   -0.84484E-03 11818   0.128E-01    0.820E-02
RMM:  25    -0.642421304139E+03   -0.47530E-03   -0.59125E-03 11490   0.956E-02    0.475E-02
RMM:  26    -0.642421616325E+03   -0.31219E-03   -0.36742E-03 11457   0.765E-02    0.231E-02
RMM:  27    -0.642421835456E+03   -0.21913E-03   -0.25147E-03 11126   0.604E-02    0.158E-02
RMM:  28    -0.642421980361E+03   -0.14490E-03   -0.16267E-03 11087   0.479E-02    0.108E-02
RMM:  29    -0.642422081392E+03   -0.10103E-03   -0.11028E-03 10669   0.390E-02    0.635E-03
RMM:  30    -0.642422145889E+03   -0.64497E-04   -0.70863E-04 10329   0.319E-02    0.611E-03
RMM:  31    -0.642422189047E+03   -0.43158E-04   -0.47435E-04 10025   0.270E-02    0.311E-03
RMM:  32    -0.642422217101E+03   -0.28054E-04   -0.30968E-04  9525   0.227E-02    0.324E-03
RMM:  33    -0.642422234963E+03   -0.17862E-04   -0.20117E-04  9122   0.199E-02    0.162E-03
RMM:  34    -0.642422246468E+03   -0.11505E-04   -0.13145E-04  8617   0.173E-02    0.903E-04
RMM:  35    -0.642422253814E+03   -0.73463E-05   -0.86164E-05  8225   0.157E-02
   1 F= -.64242225E+03 E0= -.64232980E+03  d E =-.642422E+03
 curvature:   0.00 expect dE= 0.000E+00 dE for cont linesearch  0.000E+00
 trial: gam= 0.00000 g(F)=  0.360E+01 g(S)=  0.115E+02 ort = 0.000E+00 (trialstep = 0.100E+01)
 search vector abs. value=  0.151E+02
 bond charge predicted
       N       E                     dE             d eps       ncg     rms          rms(c)
DAV:   1    -0.722836194893E+03   -0.80414E+02   -0.27482E+03 11448   0.246E+02    0.701E+01
RMM:   2    -0.882213673549E+03   -0.15938E+03   -0.15093E+03  9891   0.151E+02    0.100E+02
RMM:   3    -0.650051292335E+03    0.23216E+03   -0.10687E+02 11134   0.401E+01    0.364E+01
RMM:   4    -0.652307302245E+03   -0.22560E+01   -0.43493E+01 12350   0.232E+01    0.337E+01
RMM:   5    -0.653110390017E+03   -0.80309E+00   -0.26037E+01 10453   0.194E+01    0.373E+01
RMM:   6    -0.641823433405E+03    0.11287E+02   -0.15093E+01 11812   0.110E+01    0.145E+01
RMM:   7    -0.641780974543E+03    0.42459E-01   -0.40647E+00 11154   0.686E+00    0.167E+01
RMM:   8    -0.641046222105E+03    0.73475E+00   -0.26398E+00 12051   0.456E+00    0.121E+01
RMM:   9    -0.640458210342E+03    0.58801E+00   -0.11154E+00 11896   0.314E+00    0.618E+00
RMM:  10    -0.640345584847E+03    0.11263E+00   -0.87333E-01 13251   0.180E+00    0.419E+00
RMM:  11    -0.640368276567E+03   -0.22692E-01   -0.30120E-01 12850   0.146E+00    0.424E+00
RMM:  12    -0.640316047917E+03    0.52229E-01   -0.20044E-01 12388   0.137E+00    0.219E+00
RMM:  13    -0.640332721294E+03   -0.16673E-01   -0.13807E-01 12856   0.942E-01    0.246E+00
RMM:  14    -0.640318848054E+03    0.13873E-01   -0.97741E-02 12818   0.813E-01    0.669E-01
RMM:  15    -0.640324373094E+03   -0.55250E-02   -0.60768E-02 13163   0.444E-01    0.376E-01
RMM:  16    -0.640327958192E+03   -0.35851E-02   -0.26899E-02 13208   0.340E-01    0.346E-01
RMM:  17    -0.640328514274E+03   -0.55608E-03   -0.15385E-02 13029   0.257E-01    0.120E-01
RMM:  18    -0.640329211835E+03   -0.69756E-03   -0.93009E-03 12771   0.161E-01    0.785E-02
RMM:  19    -0.640329571205E+03   -0.35937E-03   -0.46514E-03 11917   0.127E-01    0.408E-02
RMM:  20    -0.640329836806E+03   -0.26560E-03   -0.30047E-03 11432   0.839E-02    0.238E-02
RMM:  21    -0.640329964400E+03   -0.12759E-03   -0.15059E-03 11236   0.694E-02    0.168E-02
RMM:  22    -0.640330047186E+03   -0.82786E-04   -0.93962E-04 11123   0.492E-02    0.112E-02
RMM:  23    -0.640330096146E+03   -0.48960E-04   -0.55882E-04 10925   0.408E-02    0.149E-02
RMM:  24    -0.640330125743E+03   -0.29597E-04   -0.33747E-04 10535   0.296E-02    0.307E-03
RMM:  25    -0.640330144292E+03   -0.18549E-04   -0.20550E-04 10174   0.247E-02    0.739E-03
RMM:  26    -0.640330153668E+03   -0.93761E-05   -0.11483E-04  9391   0.200E-02    0.156E-03
RMM:  27    -0.640330160545E+03   -0.68767E-05   -0.78112E-05  8956   0.182E-02
   2 F= -.64033016E+03 E0= -.64026392E+03  d E =0.209209E+01
 trial-energy change:    2.092093  1 .order    3.256796  -15.124431   21.638022
 step:   0.4586(harm=  0.4114)  dis= 0.04343  next Energy=  -646.002678 (dE=-0.358E+01)
 bond charge predicted
       N       E                     dE             d eps       ncg     rms          rms(c)
DAV:   1    -0.680023193519E+03   -0.39693E+02   -0.87613E+02 11760   0.128E+02    0.631E+01
RMM:   2    -0.910641447863E+03   -0.23062E+03   -0.28598E+02 12632   0.441E+01    0.804E+01
RMM:   3    -0.680274587241E+03    0.23037E+03   -0.92023E+01 11860   0.371E+01    0.502E+01
RMM:   4    -0.654927828091E+03    0.25347E+02   -0.79043E+01 10704   0.341E+01    0.330E+01
RMM:   5    -0.658152328550E+03   -0.32245E+01   -0.30847E+01 11620   0.158E+01    0.350E+01
RMM:   6    -0.647980084039E+03    0.10172E+02   -0.66754E+00 11298   0.984E+00    0.172E+01
RMM:   7    -0.647479221517E+03    0.50086E+00   -0.30664E+00 12105   0.524E+00    0.163E+01
RMM:   8    -0.647125142562E+03    0.35408E+00   -0.20884E+00 11872   0.439E+00    0.130E+01
RMM:   9    -0.646414585663E+03    0.71056E+00   -0.77172E-01 12207   0.273E+00    0.726E+00
RMM:  10    -0.646075648226E+03    0.33894E+00   -0.52453E-01 11110   0.275E+00    0.342E+00
RMM:  11    -0.646194353521E+03   -0.11871E+00   -0.35787E-01 12660   0.171E+00    0.596E+00
RMM:  12    -0.646042937494E+03    0.15142E+00   -0.15598E-01 13085   0.109E+00    0.205E+00
RMM:  13    -0.646058043683E+03   -0.15106E-01   -0.90755E-02 13176   0.704E-01    0.280E+00
RMM:  14    -0.646034034370E+03    0.24009E-01   -0.53720E-02 13223   0.594E-01    0.785E-01
RMM:  15    -0.646036897177E+03   -0.28628E-02   -0.40644E-02 13368   0.360E-01    0.490E-01
RMM:  16    -0.646038322532E+03   -0.14254E-02   -0.19093E-02 13388   0.261E-01    0.274E-01
RMM:  17    -0.646039471387E+03   -0.11489E-02   -0.11938E-02 13008   0.214E-01    0.186E-01
RMM:  18    -0.646040184400E+03   -0.71301E-03   -0.74250E-03 12563   0.161E-01    0.154E-01
RMM:  19    -0.646040448266E+03   -0.26387E-03   -0.42353E-03 12278   0.123E-01    0.912E-02
RMM:  20    -0.646040672439E+03   -0.22417E-03   -0.27458E-03 12057   0.934E-02    0.679E-02
RMM:  21    -0.646040775787E+03   -0.10335E-03   -0.14396E-03 11462   0.711E-02    0.222E-02
RMM:  22    -0.646040859120E+03   -0.83333E-04   -0.94274E-04 11299   0.511E-02    0.195E-02
RMM:  23    -0.646040911727E+03   -0.52607E-04   -0.58984E-04 11315   0.428E-02    0.897E-03
RMM:  24    -0.646040944322E+03   -0.32594E-04   -0.37215E-04 10988   0.320E-02    0.659E-03
RMM:  25    -0.646040965340E+03   -0.21019E-04   -0.22869E-04 10515   0.267E-02    0.339E-03
RMM:  26    -0.646040977089E+03   -0.11748E-04   -0.13564E-04  9690   0.214E-02    0.190E-03
RMM:  27    -0.646040984946E+03   -0.78577E-05   -0.87593E-05  9154   0.196E-02
   3 F= -.64604098E+03 E0= -.64596187E+03  d E =-.361873E+01
 curvature:  -0.20 expect dE=-0.703E+00 dE for cont linesearch -0.465E-02
 trial: gam= 0.18864 g(F)=  0.288E+01 g(S)=  0.563E+00 ort = 0.586E+00 (trialstep = 0.892E+00)
 search vector abs. value=  0.420E+01
 bond charge predicted
       N       E                     dE             d eps       ncg     rms          rms(c)
DAV:   1    -0.643739453700E+03    0.23015E+01   -0.51994E+02  8448   0.808E+01    0.835E+00
RMM:   2    -0.659621641527E+03   -0.15882E+02   -0.50139E+01 13287   0.215E+01    0.314E+01
RMM:   3    -0.648137706049E+03    0.11484E+02   -0.80297E+00 10366   0.132E+01    0.115E+01
RMM:   4    -0.647699041691E+03    0.43866E+00   -0.32142E+00 13339   0.406E+00    0.454E+00
RMM:   5    -0.647656647291E+03    0.42394E-01   -0.79696E-01 13303   0.215E+00    0.521E+00
RMM:   6    -0.647572814543E+03    0.83833E-01   -0.37298E-01 13085   0.155E+00    0.292E+00
RMM:   7    -0.647571473606E+03    0.13409E-02   -0.29196E-01 13269   0.118E+00    0.340E+00
RMM:   8    -0.647562804434E+03    0.86692E-02   -0.15558E-01 12875   0.107E+00    0.301E+00
RMM:   9    -0.647529254599E+03    0.33550E-01   -0.10297E-01 13074   0.876E-01    0.173E+00
RMM:  10    -0.647529424797E+03   -0.17020E-03   -0.57497E-02 12874   0.638E-01    0.187E+00
RMM:  11    -0.647518133160E+03    0.11292E-01   -0.39396E-02 13052   0.456E-01    0.769E-01
RMM:  12    -0.647520492168E+03   -0.23590E-02   -0.23216E-02 12674   0.270E-01    0.833E-01
RMM:  13    -0.647517728397E+03    0.27638E-02   -0.11193E-02 12273   0.227E-01    0.209E-01
RMM:  14    -0.647518013311E+03   -0.28491E-03   -0.71891E-03 12364   0.115E-01    0.733E-02
RMM:  15    -0.647518207910E+03   -0.19460E-03   -0.28953E-03 11655   0.907E-02    0.384E-02
RMM:  16    -0.647518373492E+03   -0.16558E-03   -0.18707E-03 11141   0.613E-02    0.324E-02
RMM:  17    -0.647518452449E+03   -0.78958E-04   -0.10091E-03 10615   0.484E-02    0.158E-02
RMM:  18    -0.647518515971E+03   -0.63522E-04   -0.71212E-04 10552   0.367E-02    0.772E-03
RMM:  19    -0.647518553659E+03   -0.37687E-04   -0.42760E-04 10448   0.298E-02    0.577E-03
RMM:  20    -0.647518578182E+03   -0.24523E-04   -0.27654E-04  9793   0.234E-02    0.375E-03
RMM:  21    -0.647518593397E+03   -0.15215E-04   -0.17347E-04  9515   0.203E-02    0.214E-03
RMM:  22    -0.647518602350E+03   -0.89524E-05   -0.10489E-04  8811   0.172E-02    0.106E-03
RMM:  23    -0.647518608070E+03   -0.57199E-05   -0.67987E-05  8288   0.153E-02
   4 F= -.64751861E+03 E0= -.64744499E+03  d E =-.147762E+01
 trial-energy change:   -1.477623  1 .order   -1.532410   -3.165728    0.100908
 step:   0.8612(harm=  0.8642)  dis= 0.08661  next Energy=  -647.520337 (dE=-0.148E+01)
 bond charge predicted
       N       E                     dE             d eps       ncg     rms          rms(c)
DAV:   1    -0.647515983663E+03    0.26187E-02   -0.61017E-01  9072   0.277E+00    0.268E-01
RMM:   2    -0.647540423585E+03   -0.24440E-01   -0.65353E-02 12996   0.792E-01    0.200E+00
RMM:   3    -0.647522240539E+03    0.18183E-01   -0.10043E-02 10779   0.411E-01    0.601E-01
RMM:   4    -0.647520664633E+03    0.15759E-02   -0.35652E-03 11629   0.177E-01    0.233E-01
RMM:   5    -0.647520620708E+03    0.43924E-04   -0.13088E-03 11695   0.886E-02    0.241E-01
RMM:   6    -0.647520364098E+03    0.25661E-03   -0.47887E-04 10841   0.650E-02    0.835E-02
RMM:   7    -0.647520386697E+03   -0.22600E-04   -0.39961E-04 10951   0.438E-02    0.131E-01
RMM:   8    -0.647520330668E+03    0.56029E-04   -0.16177E-04  9862   0.422E-02    0.754E-02
RMM:   9    -0.647520367149E+03   -0.36481E-04   -0.15828E-04 10057   0.326E-02    0.123E-01
RMM:  10    -0.647520304846E+03    0.62304E-04   -0.55191E-05  6599   0.280E-02    0.267E-02
RMM:  11    -0.647520308832E+03   -0.39862E-05   -0.48841E-05  6614   0.196E-02
   5 F= -.64752031E+03 E0= -.64744648E+03  d E =-.147932E+01
 curvature:  -0.51 expect dE=-0.305E+00 dE for cont linesearch -0.196E-05
 trial: gam= 0.13794 g(F)=  0.577E+00 g(S)=  0.275E-01 ort = 0.403E-02 (trialstep = 0.886E+00)
 search vector abs. value=  0.685E+00
 bond charge predicted
       N       E                     dE             d eps       ncg     rms          rms(c)
DAV:   1    -0.646164027902E+03    0.13563E+01   -0.99888E+01  8472   0.562E+01    0.458E+00
RMM:   2    -0.651053935492E+03   -0.48899E+01   -0.21825E+01 13482   0.129E+01    0.209E+01
RMM:   3    -0.648041043263E+03    0.30129E+01   -0.22560E+00 11062   0.619E+00    0.571E+00
RMM:   4    -0.648032564674E+03    0.84786E-02   -0.79216E-01 12765   0.241E+00    0.535E+00
RMM:   5    -0.647908715200E+03    0.12385E+00   -0.25464E-01 13126   0.127E+00    0.238E+00
RMM:   6    -0.647901868677E+03    0.68465E-02   -0.12111E-01 13060   0.846E-01    0.211E+00
RMM:   7    -0.647887855186E+03    0.14013E-01   -0.65177E-02 13149   0.604E-01    0.159E+00
RMM:   8    -0.647893999722E+03   -0.61445E-02   -0.42463E-02 12512   0.642E-01    0.200E+00
RMM:   9    -0.647879316041E+03    0.14684E-01   -0.33446E-02 12950   0.528E-01    0.114E+00
RMM:  10    -0.647876122391E+03    0.31937E-02   -0.18668E-02 12841   0.368E-01    0.712E-01
RMM:  11    -0.647874401636E+03    0.17208E-02   -0.11133E-02 13083   0.217E-01    0.222E-01
RMM:  12    -0.647875247255E+03   -0.84562E-03   -0.68420E-03 11979   0.145E-01    0.353E-01
WARNING in EDDRMM: call to ZHEGV failed, returncode =   8  4      5
RMM:  13    -0.647874860709E+03    0.38655E-03   -0.30774E-03 11926   0.109E-01    0.812E-02
RMM:  14    -0.647874989297E+03   -0.12859E-03   -0.19575E-03 11372   0.650E-02    0.449E-02
RMM:  15    -0.647875048088E+03   -0.58791E-04   -0.77431E-04 11148   0.514E-02    0.270E-02
WARNING in EDDRMM: call to ZHEGV failed, returncode =   8  4      5
RMM:  16    -0.647875090003E+03   -0.41915E-04   -0.50440E-04 10425   0.391E-02    0.155E-02
RMM:  17    -0.647875114289E+03   -0.24286E-04   -0.30574E-04 10703   0.325E-02    0.812E-03
RMM:  18    -0.647875131812E+03   -0.17524E-04   -0.19966E-04 10141   0.245E-02    0.528E-03
RMM:  19    -0.647875141408E+03   -0.95953E-05   -0.11268E-04  9488   0.201E-02    0.294E-03
RMM:  20    -0.647875147051E+03   -0.56434E-05   -0.67980E-05  8924   0.176E-02
   6 F= -.64787515E+03 E0= -.64780524E+03  d E =-.354838E+00
 trial-energy change:   -0.354838  1 .order   -0.353506   -0.535640   -0.171371
 step:   1.2894(harm=  1.3023)  dis= 0.07039  next Energy=  -647.914336 (dE=-0.394E+00)
 bond charge predicted
       N       E                     dE             d eps       ncg     rms          rms(c)
DAV:   1    -0.647558497672E+03    0.31664E+00   -0.20662E+01  8448   0.258E+01    0.205E+00
RMM:   2    -0.648521602741E+03   -0.96311E+00   -0.44751E+00 13424   0.591E+00    0.994E+00
RMM:   3    -0.647981569094E+03    0.54003E+00   -0.52710E-01 11115   0.309E+00    0.385E+00
RMM:   4    -0.647939630812E+03    0.41938E-01   -0.18173E-01 12676   0.124E+00    0.200E+00
RMM:   5    -0.647928945624E+03    0.10685E-01   -0.63495E-02 13087   0.622E-01    0.161E+00
RMM:   6    -0.647919064528E+03    0.98811E-02   -0.23838E-02 12670   0.434E-01    0.716E-01
RMM:   7    -0.647917807503E+03    0.12570E-02   -0.15810E-02 13144   0.261E-01    0.706E-01
RMM:   8    -0.647918892408E+03   -0.10849E-02   -0.88666E-03 12304   0.315E-01    0.890E-01
RMM:   9    -0.647916316710E+03    0.25757E-02   -0.74382E-03 12909   0.245E-01    0.560E-01
RMM:  10    -0.647915388399E+03    0.92831E-03   -0.41569E-03 12273   0.171E-01    0.298E-01
RMM:  11    -0.647915112905E+03    0.27549E-03   -0.24889E-03 12156   0.103E-01    0.960E-02
RMM:  12    -0.647915292030E+03   -0.17912E-03   -0.14814E-03 11416   0.709E-02    0.155E-01
RMM:  13    -0.647915219508E+03    0.72522E-04   -0.67450E-04 11195   0.519E-02    0.370E-02
WARNING in EDDRMM: call to ZHEGV failed, returncode =   8  4      6
RMM:  14    -0.647915245865E+03   -0.26358E-04   -0.43042E-04 10719   0.329E-02    0.212E-02
RMM:  15    -0.647915257192E+03   -0.11327E-04   -0.17516E-04 10206   0.272E-02    0.987E-03
RMM:  16    -0.647915266514E+03   -0.93217E-05   -0.11740E-04  9656   0.222E-02    0.636E-03
RMM:  17    -0.647915271203E+03   -0.46895E-05   -0.65088E-05  8960   0.182E-02
   7 F= -.64791527E+03 E0= -.64784692E+03  d E =-.394962E+00
 curvature:  -0.74 expect dE=-0.292E+00 dE for cont linesearch -0.130E-04
 trial: gam= 0.63525 g(F)=  0.237E+00 g(S)=  0.159E+00 ort = 0.348E-02 (trialstep = 0.966E+00)
 search vector abs. value=  0.677E+00
 bond charge predicted
       N       E                     dE             d eps       ncg     rms          rms(c)
DAV:   1    -0.646420496558E+03    0.14948E+01   -0.12876E+02 10728   0.702E+01    0.821E+00
RMM:   2    -0.658197540943E+03   -0.11777E+02   -0.38035E+01 10908   0.212E+01    0.334E+01
RMM:   3    -0.648251873979E+03    0.99457E+01   -0.63504E+00 10724   0.106E+01    0.604E+00
RMM:   4    -0.648391674475E+03   -0.13980E+00   -0.16660E+00 13178   0.321E+00    0.717E+00
RMM:   5    -0.648128549077E+03    0.26313E+00   -0.34136E-01 12430   0.195E+00    0.315E+00
RMM:   6    -0.648156753426E+03   -0.28204E-01   -0.20528E-01 12551   0.127E+00    0.439E+00
RMM:   7    -0.648067451480E+03    0.89302E-01   -0.12941E-01 12689   0.118E+00    0.182E+00
RMM:   8    -0.648102658887E+03   -0.35207E-01   -0.10140E-01 12149   0.986E-01    0.322E+00
RMM:   9    -0.648050219770E+03    0.52439E-01   -0.56430E-02 12305   0.800E-01    0.840E-01
RMM:  10    -0.648052686686E+03   -0.24669E-02   -0.35889E-02 13199   0.347E-01    0.929E-01
RMM:  11    -0.648049586176E+03    0.31005E-02   -0.11904E-02 13092   0.239E-01    0.248E-01
RMM:  12    -0.648050794651E+03   -0.12085E-02   -0.81612E-03 12643   0.155E-01    0.412E-01
RMM:  13    -0.648050321596E+03    0.47305E-03   -0.31435E-03 12044   0.136E-01    0.154E-01
RMM:  14    -0.648050653924E+03   -0.33233E-03   -0.27451E-03 12201   0.838E-02    0.774E-02
RMM:  15    -0.648050775524E+03   -0.12160E-03   -0.11985E-03 11653   0.713E-02    0.398E-02
RMM:  16    -0.648050846774E+03   -0.71250E-04   -0.75459E-04 10969   0.488E-02    0.252E-02
RMM:  17    -0.648050882846E+03   -0.36072E-04   -0.43747E-04 10901   0.421E-02    0.165E-02
RMM:  18    -0.648050904974E+03   -0.22127E-04   -0.27653E-04 10486   0.302E-02    0.107E-02
RMM:  19    -0.648050918329E+03   -0.13355E-04   -0.16667E-04 10232   0.249E-02    0.550E-03
RMM:  20    -0.648050925286E+03   -0.69571E-05   -0.84564E-05  9213   0.196E-02
   8 F= -.64805093E+03 E0= -.64798896E+03  d E =-.135654E+00
 trial-energy change:   -0.135654  1 .order   -0.127537   -0.384869    0.129796
 step:   0.7391(harm=  0.7227)  dis= 0.03463  next Energy=  -648.066082 (dE=-0.151E+00)
 bond charge predicted
       N       E                     dE             d eps       ncg     rms          rms(c)
DAV:   1    -0.647976455594E+03    0.74463E-01   -0.71533E+00 10752   0.165E+01    0.200E+00
RMM:   2    -0.648722209975E+03   -0.74575E+00   -0.18555E+00 11649   0.443E+00    0.985E+00
RMM:   3    -0.648142011243E+03    0.58020E+00   -0.37207E-01 10704   0.254E+00    0.380E+00
RMM:   4    -0.648081273503E+03    0.60738E-01   -0.96471E-02 12245   0.984E-01    0.144E+00
RMM:   5    -0.648076429007E+03    0.48445E-02   -0.33359E-02 12751   0.493E-01    0.130E+00
RMM:   6    -0.648069811054E+03    0.66180E-02   -0.11778E-02 11500   0.365E-01    0.699E-01
RMM:   7    -0.648066897712E+03    0.29133E-02   -0.85705E-03 13034   0.237E-01    0.368E-01
RMM:   8    -0.648069400757E+03   -0.25030E-02   -0.45228E-03 11859   0.227E-01    0.831E-01
RMM:   9    -0.648066317558E+03    0.30832E-02   -0.29969E-03 12390   0.180E-01    0.233E-01
RMM:  10    -0.648066404979E+03   -0.87420E-04   -0.16771E-03 11834   0.105E-01    0.252E-01
RMM:  11    -0.648066109011E+03    0.29597E-03   -0.69166E-04 11688   0.702E-02    0.451E-02
RMM:  12    -0.648066155291E+03   -0.46280E-04   -0.45833E-04 11129   0.382E-02    0.716E-02
RMM:  13    -0.648066145964E+03    0.93270E-05   -0.16770E-04 10628   0.341E-02    0.383E-02
RMM:  14    -0.648066151638E+03   -0.56740E-05   -0.14571E-04  9760   0.218E-02    0.152E-02
RMM:  15    -0.648066155684E+03   -0.40458E-05   -0.76052E-05  9753   0.215E-02
   9 F= -.64806616E+03 E0= -.64800272E+03  d E =-.150884E+00
 curvature:  -0.61 expect dE=-0.152E+00 dE for cont linesearch -0.205E-07
 trial: gam= 0.56913 g(F)=  0.158E+00 g(S)=  0.902E-01 ort =-0.151E-03 (trialstep = 0.921E+00)
 search vector abs. value=  0.467E+00
 bond charge predicted
       N       E                     dE             d eps       ncg     rms          rms(c)
DAV:   1    -0.646849414267E+03    0.12167E+01   -0.76223E+01  8568   0.513E+01    0.393E+00
RMM:   2    -0.650292219246E+03   -0.34428E+01   -0.16179E+01 13444   0.112E+01    0.171E+01
RMM:   3    -0.648328333068E+03    0.19639E+01   -0.17042E+00 10941   0.541E+00    0.537E+00
RMM:   4    -0.648266554783E+03    0.61778E-01   -0.57537E-01 12853   0.202E+00    0.382E+00
RMM:   5    -0.648198500632E+03    0.68054E-01   -0.17232E-01 12966   0.103E+00    0.176E+00
RMM:   6    -0.648198617546E+03   -0.11691E-03   -0.77344E-02 12899   0.710E-01    0.181E+00
RMM:   7    -0.648183042631E+03    0.15575E-01   -0.42701E-02 13154   0.520E-01    0.839E-01
RMM:   8    -0.648197267374E+03   -0.14225E-01   -0.30275E-02 12461   0.542E-01    0.198E+00
RMM:   9    -0.648178919803E+03    0.18348E-01   -0.20312E-02 12801   0.442E-01    0.485E-01
RMM:  10    -0.648181798117E+03   -0.28783E-02   -0.13409E-02 12821   0.259E-01    0.828E-01
RMM:  11    -0.648178597907E+03    0.32002E-02   -0.60567E-03 12501   0.202E-01    0.122E-01
RMM:  12    -0.648179169244E+03   -0.57134E-03   -0.47426E-03 12004   0.106E-01    0.242E-01
RMM:  13    -0.648179005340E+03    0.16390E-03   -0.15295E-03 11465   0.902E-02    0.847E-02
RMM:  14    -0.648179101401E+03   -0.96061E-04   -0.13659E-03 11123   0.511E-02    0.414E-02
RMM:  15    -0.648179136893E+03   -0.35492E-04   -0.47098E-04 10955   0.452E-02    0.221E-02
RMM:  16    -0.648179162982E+03   -0.26088E-04   -0.31465E-04 10232   0.318E-02    0.120E-02
RMM:  17    -0.648179178256E+03   -0.15274E-04   -0.19357E-04 10551   0.282E-02    0.695E-03
RMM:  18    -0.648179187462E+03   -0.92060E-05   -0.10729E-04  9316   0.204E-02    0.422E-03
RMM:  19    -0.648179193976E+03   -0.65144E-05   -0.74808E-05  9153   0.185E-02
  10 F= -.64817919E+03 E0= -.64811930E+03  d E =-.113038E+00
 trial-energy change:   -0.113038  1 .order   -0.113513   -0.228435    0.001409
 step:   0.9152(harm=  0.9153)  dis= 0.03153  next Energy=  -648.179198 (dE=-0.113E+00)
 bond charge predicted
       N       E                     dE             d eps       ncg     rms          rms(c)
DAV:   1    -0.648179155860E+03    0.31602E-04   -0.30273E-03 10368   0.323E-01    0.260E-02
RMM:   2    -0.648179309444E+03   -0.15358E-03   -0.69521E-04 11539   0.768E-02    0.128E-01
RMM:   3    -0.648179224335E+03    0.85109E-04   -0.90450E-05  6661   0.398E-02    0.551E-02
RMM:   4    -0.648179212636E+03    0.11698E-04   -0.25282E-05  5433   0.223E-02    0.196E-02
RMM:   5    -0.648179212770E+03   -0.13380E-06   -0.13400E-05  4901   0.186E-02
  11 F= -.64817921E+03 E0= -.64811929E+03  d E =-.113057E+00
 curvature:  -0.86 expect dE=-0.772E-01 dE for cont linesearch -0.324E-05
 trial: gam= 0.30009 g(F)=  0.816E-01 g(S)=  0.800E-02 ort = 0.133E-02 (trialstep = 0.920E+00)
 search vector abs. value=  0.132E+00
 bond charge predicted
       N       E                     dE             d eps       ncg     rms          rms(c)
DAV:   1    -0.647751773247E+03    0.42744E+00   -0.21665E+01  8376   0.269E+01    0.122E+00
RMM:   2    -0.648245863106E+03   -0.49409E+00   -0.48244E+00 13402   0.587E+00    0.291E+00
RMM:   3    -0.648243752791E+03    0.21103E-02   -0.43107E-01 13035   0.172E+00    0.186E+00
RMM:   4    -0.648243864620E+03   -0.11183E-03   -0.88125E-02 12737   0.822E-01    0.150E+00
RMM:   5    -0.648231151618E+03    0.12713E-01   -0.23983E-02 12683   0.508E-01    0.624E-01
RMM:   6    -0.648233839079E+03   -0.26875E-02   -0.17974E-02 12995   0.290E-01    0.937E-01
RMM:   7    -0.648232251725E+03    0.15874E-02   -0.10532E-02 12869   0.275E-01    0.777E-01
RMM:   8    -0.648230916059E+03    0.13357E-02   -0.72201E-03 12244   0.254E-01    0.553E-01
RMM:   9    -0.648229170550E+03    0.17455E-02   -0.46651E-03 12652   0.178E-01    0.164E-01
RMM:  10    -0.648229557436E+03   -0.38689E-03   -0.28594E-03 11992   0.119E-01    0.261E-01
RMM:  11    -0.648229315712E+03    0.24172E-03   -0.14581E-03 11504   0.780E-02    0.637E-02
WARNING in EDDRMM: call to ZHEGV failed, returncode =   8  4      9
RMM:  12    -0.648229409882E+03   -0.94170E-04   -0.89454E-04 11065   0.559E-02    0.105E-01
RMM:  13    -0.648229385377E+03    0.24505E-04   -0.45340E-04 10745   0.425E-02    0.250E-02
RMM:  14    -0.648229403142E+03   -0.17765E-04   -0.25521E-04 10065   0.277E-02    0.115E-02
RMM:  15    -0.648229414719E+03   -0.11577E-04   -0.13288E-04  9330   0.225E-02    0.568E-03
RMM:  16    -0.648229421960E+03   -0.72418E-05   -0.87207E-05  9091   0.186E-02
  12 F= -.64822942E+03 E0= -.64817118E+03  d E =-.502092E-01
 trial-energy change:   -0.050209  1 .order   -0.050228   -0.082737   -0.017719
 step:   1.1704(harm=  1.1704)  dis= 0.02316  next Energy=  -648.231855 (dE=-0.526E-01)
 bond charge predicted
       N       E                     dE             d eps       ncg     rms          rms(c)
DAV:   1    -0.648193571148E+03    0.35844E-01   -0.15773E+00  8208   0.734E+00    0.336E-01
RMM:   2    -0.648232228609E+03   -0.38657E-01   -0.37878E-01 13422   0.166E+00    0.775E-01
RMM:   3    -0.648233142783E+03   -0.91417E-03   -0.38861E-02 13066   0.457E-01    0.541E-01
RMM:   4    -0.648232875318E+03    0.26747E-03   -0.58162E-03 12608   0.217E-01    0.426E-01
RMM:   5    -0.648232134844E+03    0.74047E-03   -0.18418E-03 11953   0.134E-01    0.223E-01
RMM:   6    -0.648232135378E+03   -0.53403E-06   -0.13382E-03 11628   0.833E-02    0.202E-01
RMM:   7    -0.648232059631E+03    0.75747E-04   -0.84760E-04 11851   0.769E-02    0.174E-01
RMM:   8    -0.648232047218E+03    0.12413E-04   -0.53563E-04 10835   0.758E-02    0.170E-01
RMM:   9    -0.648231892403E+03    0.15482E-03   -0.37434E-04 11439   0.543E-02    0.578E-02
RMM:  10    -0.648231910901E+03   -0.18499E-04   -0.24898E-04 10788   0.380E-02    0.613E-02
RMM:  11    -0.648231900597E+03    0.10304E-04   -0.13036E-04 10014   0.243E-02    0.134E-02
RMM:  12    -0.648231907202E+03   -0.66047E-05   -0.75784E-05  9100   0.195E-02
  13 F= -.64823191E+03 E0= -.64817404E+03  d E =-.526944E-01
 curvature:  -0.86 expect dE=-0.326E-01 dE for cont linesearch -0.120E-06
 trial: gam= 0.40630 g(F)=  0.350E-01 g(S)=  0.290E-02 ort =-0.136E-03 (trialstep = 0.970E+00)
 search vector abs. value=  0.596E-01
 bond charge predicted
       N       E                     dE             d eps       ncg     rms          rms(c)
DAV:   1    -0.647923497391E+03    0.30840E+00   -0.12227E+01  8496   0.226E+01    0.103E+00
RMM:   2    -0.648322400958E+03   -0.39890E+00   -0.34300E+00 13366   0.450E+00    0.344E+00
RMM:   3    -0.648270796664E+03    0.51604E-01   -0.27012E-01 12152   0.157E+00    0.193E+00
RMM:   4    -0.648270247840E+03    0.54882E-03   -0.67686E-02 12506   0.729E-01    0.149E+00
RMM:   5    -0.648259504546E+03    0.10743E-01   -0.19415E-02 12809   0.390E-01    0.605E-01
RMM:   6    -0.648258880968E+03    0.62358E-03   -0.10044E-02 12539   0.201E-01    0.452E-01
RMM:   7    -0.648258298862E+03    0.58211E-03   -0.50149E-03 12918   0.158E-01    0.376E-01
RMM:   8    -0.648258872116E+03   -0.57325E-03   -0.33541E-03 12188   0.186E-01    0.527E-01
RMM:   9    -0.648257533713E+03    0.13384E-02   -0.32171E-03 13001   0.162E-01    0.231E-01
RMM:  10    -0.648257416166E+03    0.11755E-03   -0.14414E-03 11712   0.827E-02    0.119E-01
RMM:  11    -0.648257397258E+03    0.18908E-04   -0.73375E-04 11222   0.555E-02    0.361E-02
RMM:  12    -0.648257421216E+03   -0.23957E-04   -0.38022E-04 10578   0.324E-02    0.244E-02
RMM:  13    -0.648257452689E+03   -0.31473E-04   -0.18559E-04 10515   0.319E-02    0.588E-02
RMM:  14    -0.648257447225E+03    0.54639E-05   -0.14600E-04  9814   0.239E-02    0.116E-02
RMM:  15    -0.648257451788E+03   -0.45628E-05   -0.58834E-05  8552   0.184E-02
  14 F= -.64825745E+03 E0= -.64820001E+03  d E =-.255446E-01
 trial-energy change:   -0.025545  1 .order   -0.025329   -0.036673   -0.013984
 step:   1.5187(harm=  1.5677)  dis= 0.02864  next Energy=  -648.261447 (dE=-0.295E-01)
 bond charge predicted
       N       E                     dE             d eps       ncg     rms          rms(c)
DAV:   1    -0.648149771774E+03    0.10768E+00   -0.38603E+00  8328   0.128E+01    0.586E-01
RMM:   2    -0.648279620092E+03   -0.12985E+00   -0.11350E+00 13385   0.257E+00    0.188E+00
RMM:   3    -0.648266306198E+03    0.13314E-01   -0.93619E-02 12280   0.873E-01    0.111E+00
RMM:   4    -0.648266046300E+03    0.25990E-03   -0.21340E-02 12290   0.415E-01    0.868E-01
RMM:   5    -0.648262584347E+03    0.34620E-02   -0.63670E-03 12488   0.228E-01    0.392E-01
RMM:   6    -0.648262198194E+03    0.38615E-03   -0.34844E-03 11795   0.119E-01    0.239E-01
RMM:   7    -0.648262089937E+03    0.10826E-03   -0.17139E-03 12461   0.910E-02    0.227E-01
RMM:   8    -0.648262189662E+03   -0.99725E-04   -0.10785E-03 11597   0.105E-01    0.278E-01
RMM:   9    -0.648261836506E+03    0.35316E-03   -0.11171E-03 12530   0.921E-02    0.144E-01
RMM:  10    -0.648261775700E+03    0.60807E-04   -0.45551E-04 11125   0.546E-02    0.633E-02
WARNING in EDDRMM: call to ZHEGV failed, returncode =   6  3      8
RMM:  11    -0.648261777419E+03   -0.17194E-05   -0.27034E-04 10584   0.332E-02    0.220E-02
RMM:  12    -0.648261793541E+03   -0.16122E-04   -0.13897E-04  9898   0.249E-02    0.421E-02
RMM:  13    -0.648261791110E+03    0.24309E-05   -0.75998E-05  9255   0.222E-02
  15 F= -.64826179E+03 E0= -.64820452E+03  d E =-.298839E-01
 curvature:  -1.23 expect dE=-0.241E-01 dE for cont linesearch -0.164E-04
 trial: gam= 0.47524 g(F)=  0.141E-01 g(S)=  0.548E-02 ort = 0.892E-03 (trialstep = 0.108E+01)
 search vector abs. value=  0.339E-01
 bond charge predicted
       N       E                     dE             d eps       ncg     rms          rms(c)
DAV:   1    -0.648102020890E+03    0.15977E+00   -0.95714E+00 11256   0.202E+01    0.191E+00
RMM:   2    -0.648749216190E+03   -0.64720E+00   -0.25612E+00 12161   0.466E+00    0.807E+00
RMM:   3    -0.648311050508E+03    0.43817E+00   -0.39521E-01 10577   0.266E+00    0.278E+00
RMM:   4    -0.648289588370E+03    0.21462E-01   -0.11217E-01 12741   0.958E-01    0.171E+00
RMM:   5    -0.648282050678E+03    0.75377E-02   -0.32815E-02 12618   0.506E-01    0.130E+00
RMM:   6    -0.648275318649E+03    0.67320E-02   -0.12426E-02 11700   0.363E-01    0.656E-01
RMM:   7    -0.648273128880E+03    0.21898E-02   -0.88691E-03 13102   0.230E-01    0.422E-01
RMM:   8    -0.648275028460E+03   -0.18996E-02   -0.46568E-03 11754   0.235E-01    0.765E-01
RMM:   9    -0.648272295713E+03    0.27327E-02   -0.37298E-03 12666   0.188E-01    0.232E-01
RMM:  10    -0.648272457350E+03   -0.16164E-03   -0.20358E-03 12058   0.109E-01    0.263E-01
RMM:  11    -0.648272139584E+03    0.31777E-03   -0.92775E-04 11693   0.737E-02    0.482E-02
RMM:  12    -0.648272172619E+03   -0.33035E-04   -0.57024E-04 11010   0.399E-02    0.396E-02
RMM:  13    -0.648272212432E+03   -0.39813E-04   -0.23607E-04 10776   0.377E-02    0.751E-02
RMM:  14    -0.648272197818E+03    0.14614E-04   -0.19432E-04 10465   0.289E-02    0.173E-02
RMM:  15    -0.648272202867E+03   -0.50489E-05   -0.90208E-05  9501   0.207E-02
  16 F= -.64827220E+03 E0= -.64821465E+03  d E =-.104118E-01
 trial-energy change:   -0.010412  1 .order   -0.010305   -0.021638    0.001029
 step:   1.0319(harm=  1.0306)  dis= 0.01761  next Energy=  -648.272226 (dE=-0.104E-01)
 bond charge predicted
       N       E                     dE             d eps       ncg     rms          rms(c)
DAV:   1    -0.648271926625E+03    0.27119E-03   -0.18999E-02 11784   0.895E-01    0.858E-02
RMM:   2    -0.648273207773E+03   -0.12811E-02   -0.47115E-03 11536   0.211E-01    0.367E-01
RMM:   3    -0.648272327551E+03    0.88022E-03   -0.90174E-04  8988   0.134E-01    0.140E-01
RMM:   4    -0.648272274430E+03    0.53122E-04   -0.23809E-04  9549   0.543E-02    0.728E-02
RMM:   5    -0.648272259876E+03    0.14553E-04   -0.76854E-05  6952   0.283E-02    0.557E-02
RMM:   6    -0.648272247745E+03    0.12131E-04   -0.24939E-05  5213   0.243E-02    0.310E-02
RMM:   7    -0.648272242156E+03    0.55892E-05   -0.14010E-05  4857   0.168E-02
  17 F= -.64827224E+03 E0= -.64821470E+03  d E =-.104510E-01
 curvature:  -0.87 expect dE=-0.181E-01 dE for cont linesearch -0.333E-05
 trial: gam= 1.12294 g(F)=  0.760E-02 g(S)=  0.132E-01 ort =-0.360E-03 (trialstep = 0.579E+00)
 search vector abs. value=  0.627E-01
 bond charge predicted
       N       E                     dE             d eps       ncg     rms          rms(c)
DAV:   1    -0.648153584933E+03    0.11866E+00   -0.51069E+00  8496   0.151E+01    0.959E-01
RMM:   2    -0.648426387105E+03   -0.27280E+00   -0.14753E+00 13399   0.301E+00    0.503E+00
RMM:   3    -0.648294260566E+03    0.13213E+00   -0.15033E-01 10926   0.163E+00    0.179E+00
RMM:   4    -0.648284882384E+03    0.93782E-02   -0.46186E-02 12421   0.652E-01    0.889E-01
RMM:   5    -0.648281423203E+03    0.34592E-02   -0.14899E-02 12869   0.320E-01    0.510E-01
RMM:   6    -0.648280876789E+03    0.54641E-03   -0.51357E-03 12392   0.175E-01    0.384E-01
RMM:   7    -0.648280161180E+03    0.71561E-03   -0.26679E-03 12846   0.120E-01    0.210E-01
RMM:   8    -0.648281376243E+03   -0.12151E-02   -0.20920E-03 12006   0.150E-01    0.555E-01
RMM:   9    -0.648279849933E+03    0.15263E-02   -0.14921E-03 11942   0.134E-01    0.849E-02
RMM:  10    -0.648279991349E+03   -0.14142E-03   -0.90677E-04 11740   0.663E-02    0.158E-01
RMM:  11    -0.648279884741E+03    0.10661E-03   -0.35556E-04 11071   0.504E-02    0.331E-02
WARNING in EDDRMM: call to ZHEGV failed, returncode =   6  3      6
RMM:  12    -0.648279907567E+03   -0.22827E-04   -0.26265E-04 10632   0.270E-02    0.350E-02
RMM:  13    -0.648279917486E+03   -0.99190E-05   -0.10449E-04 10045   0.269E-02    0.377E-02
RMM:  14    -0.648279920281E+03   -0.27951E-05   -0.84642E-05  8960   0.179E-02
  18 F= -.64827992E+03 E0= -.64822251E+03  d E =-.767813E-02
 trial-energy change:   -0.007678  1 .order   -0.007816   -0.011781   -0.003852
 step:   0.9155(harm=  0.8599)  dis= 0.02364  next Energy=  -648.281014 (dE=-0.877E-02)
 bond charge predicted
       N       E                     dE             d eps       ncg     rms          rms(c)
DAV:   1    -0.648237134474E+03    0.42783E-01   -0.17210E+00  8400   0.879E+00    0.547E-01
RMM:   2    -0.648326517896E+03   -0.89383E-01   -0.50635E-01 13460   0.175E+00    0.285E+00
RMM:   3    -0.648286134144E+03    0.40384E-01   -0.45823E-02 10975   0.869E-01    0.107E+00
RMM:   4    -0.648282509836E+03    0.36243E-02   -0.14965E-02 12068   0.362E-01    0.507E-01
RMM:   5    -0.648281533253E+03    0.97658E-03   -0.46759E-03 12494   0.179E-01    0.363E-01
RMM:   6    -0.648281102625E+03    0.43063E-03   -0.17779E-03 11585   0.107E-01    0.197E-01
RMM:   7    -0.648280952849E+03    0.14978E-03   -0.99353E-04 12394   0.712E-02    0.145E-01
RMM:   8    -0.648281169177E+03   -0.21633E-03   -0.64536E-04 11274   0.866E-02    0.254E-01
RMM:   9    -0.648280845534E+03    0.32364E-03   -0.55315E-04 11975   0.749E-02    0.767E-02
RMM:  10    -0.648280860061E+03   -0.14527E-04   -0.29496E-04 11026   0.429E-02    0.755E-02
RMM:  11    -0.648280841884E+03    0.18177E-04   -0.13737E-04 10577   0.296E-02    0.197E-02
RMM:  12    -0.648280855872E+03   -0.13988E-04   -0.98587E-05  9404   0.203E-02    0.367E-02
WARNING in EDDRMM: call to ZHEGV failed, returncode =   6  3      6
RMM:  13    -0.648280853100E+03    0.27720E-05   -0.46594E-05  7744   0.210E-02
  19 F= -.64828085E+03 E0= -.64822351E+03  d E =-.861094E-02
 curvature:  -1.27 expect dE=-0.126E-01 dE for cont linesearch -0.305E-04
 trial: gam= 0.42654 g(F)=  0.898E-02 g(S)=  0.895E-03 ort =-0.123E-02 (trialstep = 0.646E+00)
 search vector abs. value=  0.202E-01
 bond charge predicted
       N       E                     dE             d eps       ncg     rms          rms(c)
DAV:   1    -0.648240050750E+03    0.40805E-01   -0.20733E+00  9096   0.929E+00    0.339E-01
RMM:   2    -0.648290851869E+03   -0.50801E-01   -0.46581E-01 13308   0.167E+00    0.126E+00
RMM:   3    -0.648285865002E+03    0.49869E-02   -0.30008E-02 12715   0.544E-01    0.418E-01
RMM:   4    -0.648287236422E+03   -0.13714E-02   -0.91599E-03 12486   0.247E-01    0.573E-01
RMM:   5    -0.648285686793E+03    0.15496E-02   -0.20109E-03 11276   0.140E-01    0.152E-01
RMM:   6    -0.648285776246E+03   -0.89452E-04   -0.13548E-03 11527   0.789E-02    0.179E-01
RMM:   7    -0.648285709241E+03    0.67005E-04   -0.69784E-04 11480   0.677E-02    0.146E-01
RMM:   8    -0.648285687916E+03    0.21325E-04   -0.42232E-04 10985   0.649E-02    0.127E-01
RMM:   9    -0.648285637520E+03    0.50396E-04   -0.33052E-04 11337   0.487E-02    0.926E-02
RMM:  10    -0.648285613392E+03    0.24128E-04   -0.15781E-04 10407   0.360E-02    0.443E-02
WARNING in EDDRMM: call to ZHEGV failed, returncode =   8  4      9
RMM:  11    -0.648285610148E+03    0.32440E-05   -0.10613E-04  9193   0.200E-02    0.121E-02
RMM:  12    -0.648285615985E+03   -0.58371E-05   -0.53851E-05  8512   0.190E-02
  20 F= -.64828562E+03 E0= -.64822824E+03  d E =-.476289E-02
 trial-energy change:   -0.004763  1 .order   -0.004664   -0.006044   -0.003285
 step:   1.1969(harm=  1.4153)  dis= 0.01751  next Energy=  -648.287077 (dE=-0.622E-02)
 bond charge predicted
       N       E                     dE             d eps       ncg     rms          rms(c)
DAV:   1    -0.648254427232E+03    0.31183E-01   -0.15076E+00  9168   0.794E+00    0.288E-01
RMM:   2    -0.648290716802E+03   -0.36290E-01   -0.33573E-01 13297   0.142E+00    0.103E+00
RMM:   3    -0.648287618511E+03    0.30983E-02   -0.22379E-02 12610   0.480E-01    0.366E-01
RMM:   4    -0.648288648586E+03   -0.10301E-02   -0.68400E-03 12341   0.221E-01    0.493E-01
RMM:   5    -0.648287516658E+03    0.11319E-02   -0.16180E-03 11164   0.124E-01    0.135E-01
RMM:   6    -0.648287565844E+03   -0.49186E-04   -0.10187E-03 11395   0.683E-02    0.146E-01
RMM:   7    -0.648287534319E+03    0.31525E-04   -0.52784E-04 11426   0.583E-02    0.127E-01
RMM:   8    -0.648287514705E+03    0.19614E-04   -0.30885E-04 10855   0.558E-02    0.107E-01
RMM:   9    -0.648287480576E+03    0.34128E-04   -0.25335E-04 11207   0.417E-02    0.800E-02
RMM:  10    -0.648287462239E+03    0.18337E-04   -0.11589E-04 10171   0.310E-02    0.375E-02
RMM:  11    -0.648287459824E+03    0.24159E-05   -0.75079E-05  8637   0.175E-02
  21 F= -.64828746E+03 E0= -.64823008E+03  d E =-.660672E-02
 curvature:  -1.41 expect dE=-0.590E-02 dE for cont linesearch -0.154E-03
 ZBRENT: extrapolating
 opt :   1.4243  next Energy=  -648.287629 (dE=-0.678E-02)
 bond charge predicted
       N       E                     dE             d eps       ncg     rms          rms(c)
DAV:   1    -0.648281999193E+03    0.54630E-02   -0.25712E-01  9840   0.328E+00    0.119E-01
RMM:   2    -0.648288155633E+03   -0.61564E-02   -0.57317E-02 13305   0.579E-01    0.410E-01
RMM:   3    -0.648287657067E+03    0.49857E-03   -0.37965E-03 12110   0.198E-01    0.158E-01
RMM:   4    -0.648287852888E+03   -0.19582E-03   -0.12117E-03 11784   0.985E-02    0.215E-01
RMM:   5    -0.648287634733E+03    0.21816E-03   -0.28908E-04 10541   0.557E-02    0.591E-02
RMM:   6    -0.648287643385E+03   -0.86516E-05   -0.20484E-04 10436   0.320E-02    0.607E-02
RMM:   7    -0.648287641838E+03    0.15463E-05   -0.10626E-04 10014   0.280E-02    0.561E-02
RMM:   8    -0.648287634900E+03    0.69383E-05   -0.57377E-05  8797   0.261E-02
  22 F= -.64828763E+03 E0= -.64823028E+03  d E =-.678180E-02
 curvature:  -1.55 expect dE=-0.944E-02 dE for cont linesearch -0.130E-05
 trial: gam= 0.52005 g(F)=  0.393E-02 g(S)=  0.216E-02 ort =-0.130E-03 (trialstep = 0.802E+00)
 search vector abs. value=  0.114E-01
 bond charge predicted
       N       E                     dE             d eps       ncg     rms          rms(c)
DAV:   1    -0.648265335400E+03    0.22306E-01   -0.16755E+00 11328   0.831E+00    0.104E+00
RMM:   2    -0.648445689586E+03   -0.18035E+00   -0.50173E-01 11434   0.234E+00    0.469E+00
RMM:   3    -0.648304859390E+03    0.14083E+00   -0.99503E-02 10561   0.129E+00    0.169E+00
RMM:   4    -0.648293254831E+03    0.11605E-01   -0.24124E-02 12245   0.470E-01    0.711E-01
RMM:   5    -0.648293213588E+03    0.41243E-04   -0.88622E-03 12739   0.249E-01    0.793E-01
RMM:   6    -0.648290287733E+03    0.29259E-02   -0.31829E-03 11095   0.197E-01    0.277E-01
RMM:   7    -0.648289870880E+03    0.41685E-03   -0.24120E-03 12995   0.120E-01    0.208E-01
RMM:   8    -0.648290235416E+03   -0.36454E-03   -0.11668E-03 11386   0.125E-01    0.340E-01
RMM:   9    -0.648289681627E+03    0.55379E-03   -0.77158E-04 11808   0.876E-02    0.130E-01
RMM:  10    -0.648289680204E+03    0.14236E-05   -0.43629E-04 11152   0.547E-02    0.115E-01
RMM:  11    -0.648289625254E+03    0.54950E-04   -0.20489E-04 10935   0.349E-02    0.302E-02
RMM:  12    -0.648289641324E+03   -0.16070E-04   -0.12842E-04 10149   0.261E-02    0.510E-02
RMM:  13    -0.648289631833E+03    0.94907E-05   -0.69691E-05  9065   0.212E-02
  23 F= -.64828963E+03 E0= -.64823222E+03  d E =-.199693E-02
 trial-energy change:   -0.001997  1 .order   -0.002215   -0.004832    0.000402
 step:   0.7223(harm=  0.7402)  dis= 0.00669  next Energy=  -648.289652 (dE=-0.202E-02)
 bond charge predicted
       N       E                     dE             d eps       ncg     rms          rms(c)
DAV:   1    -0.648289425331E+03    0.21599E-03   -0.16652E-02 11688   0.828E-01    0.100E-01
RMM:   2    -0.648291041699E+03   -0.16164E-02   -0.48605E-03 11310   0.230E-01    0.434E-01
RMM:   3    -0.648289780493E+03    0.12612E-02   -0.88975E-04  9306   0.126E-01    0.156E-01
RMM:   4    -0.648289697716E+03    0.82777E-04   -0.23517E-04  9604   0.537E-02    0.797E-02
RMM:   5    -0.648289685977E+03    0.11739E-04   -0.79763E-05  7477   0.299E-02    0.734E-02
RMM:   6    -0.648289662266E+03    0.23712E-04   -0.29197E-05  5215   0.252E-02    0.320E-02
RMM:   7    -0.648289656063E+03    0.62024E-05   -0.18258E-05  4988   0.180E-02
  24 F= -.64828966E+03 E0= -.64823223E+03  d E =-.202116E-02
 curvature:  -0.64 expect dE=-0.404E-02 dE for cont linesearch -0.205E-05
 trial: gam= 1.04214 g(F)=  0.219E-02 g(S)=  0.410E-02 ort =-0.191E-03 (trialstep = 0.491E+00)
 search vector abs. value=  0.183E-01
 bond charge predicted
       N       E                     dE             d eps       ncg     rms          rms(c)
DAV:   1    -0.648267166077E+03    0.22496E-01   -0.97828E-01  8352   0.640E+00    0.346E-01
RMM:   2    -0.648302215370E+03   -0.35049E-01   -0.26746E-01 13486   0.130E+00    0.131E+00
RMM:   3    -0.648293277529E+03    0.89378E-02   -0.20437E-02 11363   0.531E-01    0.648E-01
RMM:   4    -0.648292631949E+03    0.64558E-03   -0.64556E-03 12079   0.235E-01    0.413E-01
RMM:   5    -0.648291727005E+03    0.90494E-03   -0.18441E-03 12013   0.124E-01    0.162E-01
RMM:   6    -0.648291742676E+03   -0.15671E-04   -0.98624E-04 11532   0.727E-02    0.164E-01
WARNING in EDDRMM: call to ZHEGV failed, returncode =   6  3      5
RMM:   7    -0.648291627907E+03    0.11477E-03   -0.46093E-04 11919   0.589E-02    0.915E-02
RMM:   8    -0.648291775123E+03   -0.14722E-03   -0.40228E-04 11162   0.642E-02    0.193E-01
RMM:   9    -0.648291569548E+03    0.20557E-03   -0.23158E-04 10776   0.540E-02    0.268E-02
RMM:  10    -0.648291604765E+03   -0.35217E-04   -0.16474E-04 10377   0.300E-02    0.769E-02
RMM:  11    -0.648291582519E+03    0.22245E-04   -0.68852E-05  8712   0.261E-02    0.156E-02
RMM:  12    -0.648291588696E+03   -0.61769E-05   -0.48662E-05  7567   0.175E-02
  25 F= -.64829159E+03 E0= -.64823433E+03  d E =-.193263E-02
 trial-energy change:   -0.001933  1 .order   -0.001970   -0.002988   -0.000952
 step:   0.7201(harm=  0.7201)  dis= 0.00801  next Energy=  -648.291848 (dE=-0.219E-02)
 bond charge predicted
       N       E                     dE             d eps       ncg     rms          rms(c)
DAV:   1    -0.648286531948E+03    0.50506E-02   -0.21436E-01  8472   0.300E+00    0.161E-01
RMM:   2    -0.648294131089E+03   -0.75991E-02   -0.58095E-02 13478   0.601E-01    0.612E-01
RMM:   3    -0.648292192821E+03    0.19383E-02   -0.43338E-03 11197   0.250E-01    0.306E-01
RMM:   4    -0.648292047268E+03    0.14555E-03   -0.15428E-03 11719   0.116E-01    0.191E-01
RMM:   5    -0.648291865392E+03    0.18188E-03   -0.44889E-04 11308   0.611E-02    0.844E-02
RMM:   6    -0.648291870230E+03   -0.48382E-05   -0.24910E-04 10925   0.379E-02    0.822E-02
RMM:   7    -0.648291845019E+03    0.25210E-04   -0.12089E-04 10473   0.289E-02    0.436E-02
RMM:   8    -0.648291880006E+03   -0.34986E-04   -0.85054E-05  9344   0.327E-02    0.929E-02
RMM:   9    -0.648291835284E+03    0.44722E-04   -0.56940E-05  8481   0.279E-02    0.177E-02
RMM:  10    -0.648291842803E+03   -0.75196E-05   -0.41788E-05  6913   0.190E-02
  26 F= -.64829184E+03 E0= -.64823466E+03  d E =-.218674E-02
 curvature:  -1.08 expect dE=-0.227E-02 dE for cont linesearch -0.942E-06
 trial: gam= 0.19652 g(F)=  0.181E-02 g(S)=  0.286E-03 ort = 0.126E-03 (trialstep = 0.537E+00)
 search vector abs. value=  0.285E-02
 bond charge predicted
       N       E                     dE             d eps       ncg     rms          rms(c)
DAV:   1    -0.648289539462E+03    0.22958E-02   -0.15548E-01  9216   0.238E+00    0.168E-01
RMM:   2    -0.648295774105E+03   -0.62346E-02   -0.37909E-02 13343   0.554E-01    0.665E-01
RMM:   3    -0.648293053399E+03    0.27207E-02   -0.44053E-03 10715   0.243E-01    0.283E-01
RMM:   4    -0.648292879073E+03    0.17433E-03   -0.11731E-03 11495   0.997E-02    0.172E-01
RMM:   5    -0.648292745053E+03    0.13402E-03   -0.36528E-04 11280   0.521E-02    0.841E-02
RMM:   6    -0.648292743939E+03    0.11144E-05   -0.16252E-04 10437   0.386E-02    0.876E-02
RMM:   7    -0.648292710658E+03    0.33281E-04   -0.10065E-04 10272   0.288E-02    0.483E-02
RMM:   8    -0.648292733665E+03   -0.23007E-04   -0.71722E-05  8044   0.315E-02    0.819E-02
RMM:   9    -0.648292699227E+03    0.34438E-04   -0.42043E-05  6251   0.268E-02    0.230E-02
RMM:  10    -0.648292701431E+03   -0.22039E-05   -0.29329E-05  5701   0.200E-02
  27 F= -.64829270E+03 E0= -.64823555E+03  d E =-.858627E-03
 trial-energy change:   -0.000859  1 .order   -0.000854   -0.001137   -0.000571
 step:   1.0778(harm=  1.0778)  dis= 0.00272  next Energy=  -648.292985 (dE=-0.114E-02)
 bond charge predicted
       N       E                     dE             d eps       ncg     rms          rms(c)
DAV:   1    -0.648289722742E+03    0.29765E-02   -0.15755E-01  9120   0.239E+00    0.169E-01
RMM:   2    -0.648296034002E+03   -0.63113E-02   -0.38775E-02 13372   0.558E-01    0.663E-01
RMM:   3    -0.648293320123E+03    0.27139E-02   -0.44871E-03 10792   0.243E-01    0.283E-01
RMM:   4    -0.648293155394E+03    0.16473E-03   -0.12350E-03 11581   0.996E-02    0.174E-01
RMM:   5    -0.648293014271E+03    0.14112E-03   -0.37370E-04 11329   0.524E-02    0.793E-02
RMM:   6    -0.648293021586E+03   -0.73149E-05   -0.17645E-04 10642   0.386E-02    0.916E-02
RMM:   7    -0.648292985129E+03    0.36457E-04   -0.10831E-04 10405   0.293E-02    0.467E-02
RMM:   8    -0.648293012467E+03   -0.27339E-04   -0.78818E-05  8638   0.321E-02    0.857E-02
RMM:   9    -0.648292974507E+03    0.37961E-04   -0.44409E-05  6664   0.268E-02    0.211E-02
RMM:  10    -0.648292978022E+03   -0.35148E-05   -0.34715E-05  6078   0.201E-02
  28 F= -.64829298E+03 E0= -.64823586E+03  d E =-.113522E-02
 curvature:  -0.73 expect dE=-0.104E-02 dE for cont linesearch -0.448E-06
 trial: gam= 0.74265 g(F)=  0.701E-03 g(S)=  0.736E-03 ort =-0.420E-04 (trialstep = 0.624E+00)
 search vector abs. value=  0.295E-02
 bond charge predicted
       N       E                     dE             d eps       ncg     rms          rms(c)
DAV:   1    -0.648290628363E+03    0.23461E-02   -0.23861E-01 11112   0.300E+00    0.351E-01
RMM:   2    -0.648311645321E+03   -0.21017E-01   -0.60134E-02 11462   0.828E-01    0.161E+00
RMM:   3    -0.648295539720E+03    0.16106E-01   -0.11540E-02 10463   0.453E-01    0.626E-01
RMM:   4    -0.648293939721E+03    0.16000E-02   -0.29460E-03 11560   0.173E-01    0.234E-01
RMM:   5    -0.648293862505E+03    0.77216E-04   -0.10562E-03 11557   0.885E-02    0.240E-01
RMM:   6    -0.648293605840E+03    0.25667E-03   -0.37578E-04  9856   0.705E-02    0.107E-01
RMM:   7    -0.648293545354E+03    0.60486E-04   -0.28878E-04 11643   0.447E-02    0.790E-02
RMM:   8    -0.648293570754E+03   -0.25400E-04   -0.14206E-04  9117   0.453E-02    0.106E-01
RMM:   9    -0.648293514987E+03    0.55767E-04   -0.96972E-05  9171   0.334E-02    0.456E-02
RMM:  10    -0.648293513004E+03    0.19831E-05   -0.51932E-05  6877   0.232E-02
  29 F= -.64829351E+03 E0= -.64823638E+03  d E =-.534982E-03
 trial-energy change:   -0.000535  1 .order   -0.000517   -0.000877   -0.000158
 step:   0.7613(harm=  0.7613)  dis= 0.00192  next Energy=  -648.293513 (dE=-0.535E-03)
 bond charge predicted
       N       E                     dE             d eps       ncg     rms          rms(c)
DAV:   1    -0.648293394013E+03    0.12097E-03   -0.11609E-02 11568   0.664E-01    0.789E-02
RMM:   2    -0.648294480069E+03   -0.10861E-02   -0.29411E-03 11258   0.183E-01    0.368E-01
RMM:   3    -0.648293626886E+03    0.85318E-03   -0.59101E-04  8816   0.104E-01    0.137E-01
RMM:   4    -0.648293549165E+03    0.77721E-04   -0.13977E-04  8530   0.444E-02    0.503E-02
RMM:   5    -0.648293550059E+03   -0.89461E-06   -0.58219E-05  7225   0.254E-02
  30 F= -.64829355E+03 E0= -.64823641E+03  d E =-.572037E-03
 curvature:  -0.80 expect dE=-0.559E-03 dE for cont linesearch -0.255E-05
 trial: gam= 0.23342 g(F)=  0.549E-03 g(S)=  0.151E-03 ort = 0.970E-04 (trialstep = 0.651E+00)
 search vector abs. value=  0.906E-03
 bond charge predicted
       N       E                     dE             d eps       ncg     rms          rms(c)
DAV:   1    -0.648293079958E+03    0.46921E-03   -0.69763E-02  8496   0.125E+00    0.795E-02
RMM:   2    -0.648293976618E+03   -0.89666E-03   -0.93851E-03 13240   0.284E-01    0.151E-01
RMM:   3    -0.648293932981E+03    0.43638E-04   -0.81799E-04 12174   0.972E-02    0.113E-01
RMM:   4    -0.648293953866E+03   -0.20886E-04   -0.31419E-04 11059   0.599E-02    0.135E-01
RMM:   5    -0.648293872753E+03    0.81113E-04   -0.12604E-04  9363   0.400E-02    0.576E-02
RMM:   6    -0.648293888269E+03   -0.15516E-04   -0.96291E-05  9023   0.313E-02    0.806E-02
RMM:   7    -0.648293866163E+03    0.22106E-04   -0.57251E-05  7852   0.265E-02    0.495E-02
RMM:   8    -0.648293860065E+03    0.60975E-05   -0.39792E-05  6121   0.226E-02
  31 F= -.64829386E+03 E0= -.64823681E+03  d E =-.310006E-03
 trial-energy change:   -0.000310  1 .order   -0.000318   -0.000471   -0.000164
 step:   1.0007(harm=  1.0007)  dis= 0.00151  next Energy=  -648.293912 (dE=-0.362E-03)
 bond charge predicted
       N       E                     dE             d eps       ncg     rms          rms(c)
DAV:   1    -0.648293657064E+03    0.20910E-03   -0.19892E-02  9024   0.670E-01    0.434E-02
RMM:   2    -0.648293926191E+03   -0.26913E-03   -0.27119E-03 13192   0.152E-01    0.904E-02
RMM:   3    -0.648293899991E+03    0.26199E-04   -0.26610E-04 11524   0.539E-02    0.517E-02
RMM:   4    -0.648293903508E+03   -0.35173E-05   -0.10489E-04  9377   0.336E-02    0.586E-02
RMM:   5    -0.648293889177E+03    0.14331E-04   -0.36981E-05  6302   0.242E-02    0.290E-02
RMM:   6    -0.648293892338E+03   -0.31602E-05   -0.30065E-05  6037   0.201E-02
  32 F= -.64829389E+03 E0= -.64823685E+03  d E =-.342278E-03
 curvature:  -0.63 expect dE=-0.215E-03 dE for cont linesearch -0.281E-05
 trial: gam= 0.67839 g(F)=  0.293E-03 g(S)=  0.499E-04 ort =-0.637E-04 (trialstep = 0.721E+00)
 search vector abs. value=  0.673E-03
 bond charge predicted
       N       E                     dE             d eps       ncg     rms          rms(c)
DAV:   1    -0.648292816482E+03    0.10727E-02   -0.74196E-02  9792   0.161E+00    0.106E-01
RMM:   2    -0.648295221112E+03   -0.24046E-02   -0.15559E-02 13168   0.338E-01    0.383E-01
RMM:   3    -0.648294111522E+03    0.11096E-02   -0.13943E-03 10298   0.157E-01    0.883E-02
RMM:   4    -0.648294196860E+03   -0.85338E-04   -0.54043E-04 11199   0.644E-02    0.147E-01
RMM:   5    -0.648294098552E+03    0.98308E-04   -0.11902E-04  9592   0.385E-02    0.453E-02
RMM:   6    -0.648294102162E+03   -0.36094E-05   -0.67447E-05  8388   0.242E-02
  33 F= -.64829410E+03 E0= -.64823712E+03  d E =-.209824E-03
 trial-energy change:   -0.000210  1 .order   -0.000187   -0.000216   -0.000158
 step:   2.6844(harm=  2.6844)  dis= 0.00503  next Energy=  -648.294294 (dE=-0.402E-03)
 bond charge predicted
       N       E                     dE             d eps       ncg     rms          rms(c)
DAV:   1    -0.648284734407E+03    0.93641E-02   -0.54843E-01  9336   0.436E+00    0.292E-01
RMM:   2    -0.648303021235E+03   -0.18287E-01   -0.11587E-01 13167   0.918E-01    0.107E+00
RMM:   3    -0.648294496876E+03    0.85244E-02   -0.10309E-02 11104   0.418E-01    0.330E-01
RMM:   4    -0.648294786820E+03   -0.28994E-03   -0.38117E-03 12065   0.158E-01    0.371E-01
RMM:   5    -0.648294210698E+03    0.57612E-03   -0.90614E-04 11362   0.922E-02    0.163E-01
RMM:   6    -0.648294139919E+03    0.70779E-04   -0.48727E-04 10898   0.613E-02    0.118E-01
RMM:   7    -0.648294096811E+03    0.43108E-04   -0.29876E-04 11471   0.429E-02    0.958E-02
RMM:   8    -0.648294121201E+03   -0.24390E-04   -0.18250E-04 10403   0.484E-02    0.118E-01
RMM:   9    -0.648294053786E+03    0.67415E-04   -0.14486E-04 10564   0.373E-02    0.444E-02
RMM:  10    -0.648294058885E+03   -0.50986E-05   -0.71874E-05  8655   0.267E-02
  34 F= -.64829406E+03 E0= -.64823746E+03  d E =-.166547E-03
 curvature:  -3.02 expect dE=-0.439E-02 dE for cont linesearch -0.274E-03
 ZBRENT: interpolating
 opt :   1.6432  next Energy=  -648.294203 (dE=-0.311E-03)
 bond charge predicted
       N       E                     dE             d eps       ncg     rms          rms(c)
DAV:   1    -0.648291489954E+03    0.25638E-02   -0.15372E-01  8784   0.231E+00    0.152E-01
RMM:   2    -0.648296654039E+03   -0.51641E-02   -0.32848E-02 13264   0.489E-01    0.594E-01
RMM:   3    -0.648294461274E+03    0.21928E-02   -0.28131E-03 10511   0.223E-01    0.243E-01
RMM:   4    -0.648294361076E+03    0.10020E-03   -0.99861E-04 11206   0.961E-02    0.165E-01
RMM:   5    -0.648294249695E+03    0.11138E-03   -0.27448E-04 10402   0.498E-02    0.989E-02
RMM:   6    -0.648294215816E+03    0.33878E-04   -0.10653E-04  9288   0.339E-02    0.597E-02
RMM:   7    -0.648294199496E+03    0.16320E-04   -0.73092E-05  8715   0.230E-02    0.429E-02
RMM:   8    -0.648294207042E+03   -0.75459E-05   -0.41381E-05  5484   0.266E-02
  35 F= -.64829421E+03 E0= -.64823739E+03  d E =-.314705E-03
 curvature:  -1.11 expect dE=-0.826E-03 dE for cont linesearch -0.228E-05
 trial: gam= 1.67516 g(F)=  0.315E-03 g(S)=  0.429E-03 ort =-0.372E-04 (trialstep = 0.243E+00)
 search vector abs. value=  0.251E-02
 bond charge predicted
       N       E                     dE             d eps       ncg     rms          rms(c)
DAV:   1    -0.648293562233E+03    0.63726E-03   -0.34355E-02  9024   0.119E+00    0.707E-02
RMM:   2    -0.648294915467E+03   -0.13532E-02   -0.86128E-03 13045   0.233E-01    0.323E-01
RMM:   3    -0.648294367841E+03    0.54763E-03   -0.68723E-04  9048   0.109E-01    0.108E-01
RMM:   4    -0.648294351850E+03    0.15991E-04   -0.20582E-04  8669   0.516E-02    0.864E-02
RMM:   5    -0.648294336342E+03    0.15508E-04   -0.74494E-05  7077   0.301E-02    0.740E-02
RMM:   6    -0.648294308763E+03    0.27579E-04   -0.27599E-05  5220   0.246E-02    0.214E-02
RMM:   7    -0.648294306419E+03    0.23440E-05   -0.21867E-05  5330   0.160E-02
  36 F= -.64829431E+03 E0= -.64823758E+03  d E =-.993765E-04
 trial-energy change:   -0.000099  1 .order   -0.000133   -0.000166   -0.000101
 step:   0.6218(harm=  0.6218)  dis= 0.00213  next Energy=  -648.294419 (dE=-0.212E-03)
 bond charge predicted
       N       E                     dE             d eps       ncg     rms          rms(c)
DAV:   1    -0.648292551497E+03    0.17573E-02   -0.82132E-02  8400   0.185E+00    0.113E-01
RMM:   2    -0.648295993589E+03   -0.34421E-02   -0.21393E-02 13241   0.366E-01    0.532E-01
RMM:   3    -0.648294546617E+03    0.14470E-02   -0.16608E-03 10165   0.166E-01    0.180E-01
RMM:   4    -0.648294477326E+03    0.69291E-04   -0.59539E-04 10749   0.764E-02    0.119E-01
RMM:   5    -0.648294461403E+03    0.15923E-04   -0.20434E-04  9880   0.425E-02    0.124E-01
RMM:   6    -0.648294391404E+03    0.69999E-04   -0.73865E-05  7557   0.329E-02    0.341E-02
RMM:   7    -0.648294388446E+03    0.29579E-05   -0.74172E-05  8505   0.230E-02
  37 F= -.64829439E+03 E0= -.64823774E+03  d E =-.181404E-03
 curvature:  -1.14 expect dE=-0.250E-03 dE for cont linesearch -0.172E-06
 trial: gam= 0.04138 g(F)=  0.193E-03 g(S)=  0.258E-04 ort = 0.194E-04 (trialstep = 0.319E+00)
 search vector abs. value=  0.225E-03
 bond charge predicted
       N       E                     dE             d eps       ncg     rms          rms(c)
DAV:   1    -0.648294403220E+03   -0.11816E-04   -0.41085E-03 10632   0.320E-01    0.582E-02
RMM:   2    -0.648295329850E+03   -0.92663E-03   -0.11641E-03 10596   0.118E-01    0.398E-01
RMM:   3    -0.648294449696E+03    0.88015E-03   -0.35868E-04  7716   0.861E-02    0.504E-02
RMM:   4    -0.648294437919E+03    0.11777E-04   -0.55860E-05  6808   0.264E-02    0.406E-02
RMM:   5    -0.648294436759E+03    0.11603E-05   -0.20432E-05  5142   0.194E-02
  38 F= -.64829444E+03 E0= -.64823783E+03  d E =-.483128E-04
 trial-energy change:   -0.000048  1 .order   -0.000057   -0.000070   -0.000044
 step:   0.8643(harm=  0.8643)  dis= 0.00054  next Energy=  -648.294483 (dE=-0.949E-04)
 bond charge predicted
       N       E                     dE             d eps       ncg     rms          rms(c)
DAV:   1    -0.648294320101E+03    0.11782E-03   -0.11518E-02  8880   0.531E-01    0.399E-02
RMM:   2    -0.648294531026E+03   -0.21092E-03   -0.18564E-03 13227   0.123E-01    0.101E-01
RMM:   3    -0.648294485952E+03    0.45074E-04   -0.18627E-04  9712   0.518E-02    0.550E-02
RMM:   4    -0.648294493965E+03   -0.80124E-05   -0.75492E-05  7825   0.320E-02
  39 F= -.64829449E+03 E0= -.64823779E+03  d E =-.105518E-03
 curvature:  -0.44 expect dE=-0.897E-04 dE for cont linesearch -0.399E-06
 trial: gam= 0.89100 g(F)=  0.605E-04 g(S)=  0.142E-03 ort = 0.142E-04 (trialstep = 0.236E+00)
 search vector abs. value=  0.407E-03
 bond charge predicted
       N       E                     dE             d eps       ncg     rms          rms(c)
DAV:   1    -0.648294522161E+03   -0.36209E-04   -0.41868E-03 11760   0.365E-01    0.110E-01
RMM:   2    -0.648296913845E+03   -0.23917E-02   -0.25230E-03 10315   0.195E-01    0.650E-01
RMM:   3    -0.648294732425E+03    0.21814E-02   -0.96542E-04  8540   0.141E-01    0.218E-01
RMM:   4    -0.648294483795E+03    0.24863E-03   -0.19209E-04  7845   0.586E-02    0.569E-02
RMM:   5    -0.648294494925E+03   -0.11130E-04   -0.70236E-05  7141   0.295E-02    0.859E-02
RMM:   6    -0.648294457985E+03    0.36941E-04   -0.28679E-05  5124   0.244E-02    0.263E-02
RMM:   7    -0.648294460254E+03   -0.22689E-05   -0.21937E-05  5092   0.196E-02
  40 F= -.64829446E+03 E0= -.64823783E+03  d E =0.337110E-04
 trial-energy change:    0.000034  1 .order   -0.000015   -0.000051    0.000021
 step:   0.1677(harm=  0.1677)  dis= 0.00014  next Energy=  -648.294512 (dE=-0.181E-04)
 bond charge predicted
       N       E                     dE             d eps       ncg     rms          rms(c)
DAV:   1    -0.648294463884E+03   -0.58994E-05   -0.47148E-04 12456   0.123E-01    0.269E-02
RMM:   2    -0.648294595368E+03   -0.13148E-03   -0.16348E-04  7354   0.488E-02    0.150E-01
RMM:   3    -0.648294469111E+03    0.12626E-03   -0.53026E-05  5671   0.377E-02    0.374E-02
RMM:   4    -0.648294462342E+03    0.67690E-05   -0.10844E-05  4874   0.164E-02
  41 F= -.64829446E+03 E0= -.64823782E+03  d E =0.316231E-04
 curvature:  -0.16 expect dE=-0.998E-04 dE for cont linesearch -0.173E-04
 ZBRENT: interpolating
 opt :   0.0848  next Energy=  -648.294471 (dE= 0.229E-04)
 bond charge predicted
       N       E                     dE             d eps       ncg     rms          rms(c)
DAV:   1    -0.648294478112E+03   -0.90017E-05   -0.54341E-04 11952   0.133E-01    0.457E-02
RMM:   2    -0.648294940744E+03   -0.46263E-03   -0.42810E-04  8008   0.787E-02    0.293E-01
RMM:   3    -0.648294515310E+03    0.42543E-03   -0.17082E-04  6697   0.618E-02    0.888E-02
RMM:   4    -0.648294469899E+03    0.45411E-04   -0.26079E-05  5262   0.246E-02    0.207E-02
RMM:   5    -0.648294470167E+03   -0.26798E-06   -0.89183E-06  4220   0.162E-02
  42 F= -.64829447E+03 E0= -.64823779E+03  d E =0.237975E-04
 curvature:  -0.08 expect dE=-0.386E-04 dE for cont linesearch -0.515E-05
 ZBRENT: bisectioning
 opt :   0.0424  next Energy=  -648.294477 (dE= 0.175E-04)
 bond charge predicted
       N       E                     dE             d eps       ncg     rms          rms(c)
DAV:   1    -0.648294471073E+03   -0.11744E-05   -0.15217E-04 11880   0.737E-02    0.218E-02
RMM:   2    -0.648294545294E+03   -0.74220E-04   -0.82977E-05  6244   0.355E-02    0.114E-01
RMM:   3    -0.648294475980E+03    0.69314E-04   -0.34036E-05  5362   0.321E-02    0.355E-02
RMM:   4    -0.648294471007E+03    0.49730E-05   -0.68997E-06  4339   0.121E-02
  43 F= -.64829447E+03 E0= -.64823783E+03  d E =0.229574E-04
 curvature:  -0.10 expect dE=-0.385E-04 dE for cont linesearch -0.346E-05
 ZBRENT: bisectioning
 opt :   0.0212  next Energy=  -648.294473 (dE= 0.206E-04)
 bond charge predicted
       N       E                     dE             d eps       ncg     rms          rms(c)
DAV:   1    -0.648294470916E+03    0.50641E-05   -0.49247E-05  7128   0.414E-02    0.220E-02
RMM:   2    -0.648294611564E+03   -0.14065E-03   -0.89911E-05  6298   0.408E-02    0.166E-01
RMM:   3    -0.648294477921E+03    0.13364E-03   -0.40541E-05  5525   0.323E-02    0.347E-02
RMM:   4    -0.648294470230E+03    0.76902E-05   -0.55546E-06  4131   0.110E-02
  44 F= -.64829447E+03 E0= -.64823782E+03  d E =0.237341E-04
 curvature:  -0.07 expect dE=-0.173E-04 dE for cont linesearch -0.193E-06
 ZBRENT: interpolating
 opt :   0.0146  next Energy=  -648.294470 (dE= 0.236E-04)
 bond charge predicted
       N       E                     dE             d eps       ncg     rms          rms(c)
DAV:   1    -0.648294470174E+03    0.77465E-05   -0.12401E-05  5040   0.196E-02    0.131E-02
RMM:   2    -0.648294517248E+03   -0.47074E-04   -0.30153E-05  5382   0.247E-02    0.950E-02
RMM:   3    -0.648294471986E+03    0.45263E-04   -0.15276E-05  4934   0.212E-02    0.174E-02
RMM:   4    -0.648294470113E+03    0.18724E-05   -0.21476E-06  3923   0.635E-03
  45 F= -.64829447E+03 E0= -.64823782E+03  d E =0.238514E-04
 curvature:  -0.05 expect dE=-0.113E-04 dE for cont linesearch -0.110E-06
 trial: gam= 1.41969 g(F)=  0.928E-04 g(S)=  0.143E-03 ort =-0.306E-04 (trialstep = 0.807E-01)
 search vector abs. value=  0.968E-03
 bond charge predicted
       N       E                     dE             d eps       ncg     rms          rms(c)
DAV:   1    -0.648294461401E+03    0.10584E-04   -0.12742E-03 11232   0.231E-01    0.184E-02
RMM:   2    -0.648294518102E+03   -0.56701E-04   -0.31093E-04  9373   0.504E-02    0.673E-02
RMM:   3    -0.648294484132E+03    0.33970E-04   -0.36717E-05  5354   0.315E-02    0.140E-02
RMM:   4    -0.648294486095E+03   -0.19630E-05   -0.95828E-06  4305   0.149E-02
  46 F= -.64829449E+03 E0= -.64823783E+03  d E =-.159820E-04
 trial-energy change:   -0.000016  1 .order   -0.000008   -0.000016   -0.000001
 step:   0.0866(harm=  0.0866)  dis= 0.00017  next Energy=  -648.294478 (dE=-0.832E-05)
 reached required accuracy - stopping structural energy minimisation
