 running on   24 total cores
 distrk:  each k-point on   24 cores,    1 groups
 distr:  one band on    1 cores,   24 groups
 using from now: INCAR     
 vasp.5.4.4.18Apr17-6-g9f103f2a35 (build Oct 18 2021 20:38:43) complex          
  
 POSCAR found type information on POSCAR  Ti Ta Hf N  C  Nb V 
 POSCAR found :  7 types and      64 ions
 scaLAPACK will be used

 ----------------------------------------------------------------------------- 
|                                                                             |
|           W    W    AA    RRRRR   N    N  II  N    N   GGGG   !!!           |
|           W    W   A  A   R    R  NN   N  II  NN   N  G    G  !!!           |
|           W    W  A    A  R    R  N N  N  II  N N  N  G       !!!           |
|           W WW W  AAAAAA  RRRRR   N  N N  II  N  N N  G  GGG   !            |
|           WW  WW  A    A  R   R   N   NN  II  N   NN  G    G                |
|           W    W  A    A  R    R  N    N  II  N    N   GGGG   !!!           |
|                                                                             |
|      For optimal performance we recommend to set                            |
|        NCORE= 4 - approx SQRT( number of cores)                             |
|      NCORE specifies how many cores store one orbital (NPAR=cpu/NCORE).     |
|      This setting can  greatly improve the performance of VASP for DFT.     |
|      The default,   NCORE=1            might be grossly inefficient         |
|      on modern multi-core architectures or massively parallel machines.     |
|      Do your own testing !!!!                                               |
|      Unfortunately you need to use the default for GW and RPA calculations. |
|      (for HF NCORE is supported but not extensively tested yet)             |
|                                                                             |
 ----------------------------------------------------------------------------- 


 ----------------------------------------------------------------------------- 
|                                                                             |
|  ADVICE TO THIS USER RUNNING 'VASP/VAMP'   (HEAR YOUR MASTER'S VOICE ...):  |
|                                                                             |
|      You have a (more or less) 'large supercell' and for larger cells       |
|      it might be more efficient to use real space projection operators      |
|      So try LREAL= Auto  in the INCAR   file.                               |
|      Mind: If you want to do a very accurate calculations keep the          |
|      reciprocal projection scheme          (i.e. LREAL=.FALSE.)             |
|                                                                             |
 ----------------------------------------------------------------------------- 

 LDA part: xc-table for Pade appr. of Perdew
 POSCAR, INCAR and KPOINTS ok, starting setup
 FFT: planning ...
 WAVECAR not read
 entering main loop
       N       E                     dE             d eps       ncg     rms          rms(c)
DAV:   1     0.509549330608E+04    0.50955E+04   -0.22889E+05  9336   0.132E+03
DAV:   2     0.257436665826E+03   -0.48381E+04   -0.47283E+04  9360   0.546E+02
DAV:   3    -0.536648321915E+03   -0.79408E+03   -0.76346E+03 14736   0.168E+02
DAV:   4    -0.631305976262E+03   -0.94658E+02   -0.92112E+02 13752   0.580E+01
DAV:   5    -0.648694560913E+03   -0.17389E+02   -0.16952E+02 17424   0.235E+01    0.753E+01
RMM:   6    -0.771605999171E+03   -0.12291E+03   -0.33031E+03 12078   0.809E+01    0.121E+02
RMM:   7    -0.520863633650E+03    0.25074E+03   -0.44063E+02 13356   0.332E+01    0.551E+01
RMM:   8    -0.478439152188E+03    0.42424E+02   -0.90379E+01 12426   0.197E+01    0.225E+01
RMM:   9    -0.475851795690E+03    0.25874E+01   -0.34750E+01 13184   0.968E+00    0.332E+01
RMM:  10    -0.473232570073E+03    0.26192E+01   -0.16193E+01 13424   0.516E+00    0.190E+01
RMM:  11    -0.479030479847E+03   -0.57979E+01   -0.18373E+01 13086   0.576E+00    0.367E+01
RMM:  12    -0.472952524457E+03    0.60780E+01   -0.14777E+01 12714   0.582E+00    0.244E+01
RMM:  13    -0.472327078526E+03    0.62545E+00   -0.63367E+00 13079   0.424E+00    0.191E+01
RMM:  14    -0.471768008549E+03    0.55907E+00   -0.56201E+00 12685   0.279E+00    0.137E+01
RMM:  15    -0.471426362919E+03    0.34165E+00   -0.25701E+00 12622   0.291E+00    0.136E+01
RMM:  16    -0.471610878025E+03   -0.18452E+00   -0.18077E+00 13127   0.163E+00    0.155E+01
RMM:  17    -0.471061318832E+03    0.54956E+00   -0.14499E+00 12944   0.169E+00    0.601E+00
RMM:  18    -0.471096285262E+03   -0.34966E-01   -0.10866E+00 13188   0.123E+00    0.837E+00
RMM:  19    -0.471038668837E+03    0.57616E-01   -0.73448E-01 13434   0.904E-01    0.441E+00
RMM:  20    -0.471037939991E+03    0.72885E-03   -0.60765E-01 12813   0.844E-01    0.263E+00
RMM:  21    -0.471051793020E+03   -0.13853E-01   -0.44996E-01 13178   0.693E-01    0.173E+00
RMM:  22    -0.471069992033E+03   -0.18199E-01   -0.32626E-01 13179   0.595E-01    0.126E+00
RMM:  23    -0.471082842625E+03   -0.12851E-01   -0.24984E-01 13382   0.486E-01    0.111E+00
RMM:  24    -0.471097839873E+03   -0.14997E-01   -0.23144E-01 13263   0.356E-01    0.490E-01
RMM:  25    -0.471110857361E+03   -0.13017E-01   -0.15808E-01 13116   0.291E-01    0.443E-01
RMM:  26    -0.471122202263E+03   -0.11345E-01   -0.13146E-01 12779   0.195E-01    0.275E-01
RMM:  27    -0.471132032493E+03   -0.98302E-02   -0.10619E-01 12602   0.170E-01    0.261E-01
RMM:  28    -0.471141126396E+03   -0.90939E-02   -0.91386E-02 12474   0.143E-01    0.239E-01
RMM:  29    -0.471148254988E+03   -0.71286E-02   -0.75673E-02 11772   0.121E-01    0.159E-01
RMM:  30    -0.471154678468E+03   -0.64235E-02   -0.66343E-02 11127   0.987E-02    0.889E-02
RMM:  31    -0.471160025543E+03   -0.53471E-02   -0.54828E-02 11215   0.903E-02    0.738E-02
RMM:  32    -0.471164795022E+03   -0.47695E-02   -0.48554E-02 11408   0.819E-02    0.649E-02
RMM:  33    -0.471168888922E+03   -0.40939E-02   -0.41280E-02 11312   0.758E-02    0.627E-02
RMM:  34    -0.471172376372E+03   -0.34874E-02   -0.35492E-02 10741   0.711E-02    0.515E-02
RMM:  35    -0.471175403311E+03   -0.30269E-02   -0.30734E-02 10126   0.567E-02    0.261E-02
RMM:  36    -0.471178041881E+03   -0.26386E-02   -0.26783E-02 10495   0.519E-02    0.516E-02
RMM:  37    -0.471180334270E+03   -0.22924E-02   -0.23257E-02 10274   0.483E-02    0.338E-02
RMM:  38    -0.471182329348E+03   -0.19951E-02   -0.20144E-02  9822   0.461E-02    0.342E-02
RMM:  39    -0.471184070542E+03   -0.17412E-02   -0.17609E-02  9118   0.396E-02    0.324E-02
RMM:  40    -0.471185576835E+03   -0.15063E-02   -0.15272E-02  9229   0.361E-02    0.354E-02
RMM:  41    -0.471186897851E+03   -0.13210E-02   -0.13386E-02  9245   0.335E-02    0.336E-02
RMM:  42    -0.471188067790E+03   -0.11699E-02   -0.11738E-02  7693   0.305E-02    0.523E-02
RMM:  43    -0.471189070746E+03   -0.10030E-02   -0.10229E-02  8799   0.296E-02    0.427E-02
RMM:  44    -0.471189952408E+03   -0.88166E-03   -0.89708E-03  9041   0.280E-02    0.382E-02
RMM:  45    -0.471190722246E+03   -0.76984E-03   -0.78459E-03  9138   0.266E-02    0.278E-02
RMM:  46    -0.471191404443E+03   -0.68220E-03   -0.68868E-03  7929   0.245E-02    0.342E-02
RMM:  47    -0.471192006027E+03   -0.60158E-03   -0.60651E-03  6516   0.223E-02    0.424E-02
WARNING in EDDRMM: call to ZHEGV failed, returncode =   8  4      8
RMM:  48    -0.471192534243E+03   -0.52822E-03   -0.53366E-03  6436   0.212E-02    0.476E-02
RMM:  49    -0.471192999777E+03   -0.46553E-03   -0.47044E-03  5648   0.205E-02    0.523E-02
RMM:  50    -0.471193407358E+03   -0.40758E-03   -0.41429E-03  6103   0.188E-02    0.535E-02
RMM:  51    -0.471193768019E+03   -0.36066E-03   -0.36296E-03  6052   0.188E-02    0.616E-02
RMM:  52    -0.471194086645E+03   -0.31863E-03   -0.32286E-03  5952   0.169E-02    0.651E-02
RMM:  53    -0.471194366267E+03   -0.27962E-03   -0.28371E-03  5460   0.170E-02    0.674E-02
RMM:  54    -0.471194613529E+03   -0.24726E-03   -0.24970E-03  5315   0.150E-02    0.712E-02
RMM:  55    -0.471194831779E+03   -0.21825E-03   -0.22101E-03  5150   0.151E-02    0.740E-02
RMM:  56    -0.471195026583E+03   -0.19480E-03   -0.19778E-03  5136   0.134E-02    0.759E-02
RMM:  57    -0.471195194985E+03   -0.16840E-03   -0.17302E-03  5341   0.136E-02    0.759E-02
RMM:  58    -0.471195345271E+03   -0.15029E-03   -0.15378E-03  5331   0.125E-02    0.764E-02
RMM:  59    -0.471195480913E+03   -0.13564E-03   -0.13591E-03  5092   0.125E-02    0.804E-02
RMM:  60    -0.471195599498E+03   -0.11859E-03   -0.12132E-03  5003   0.114E-02
   1 F= -.47119560E+03 E0= -.47093063E+03  d E =-.471196E+03
 curvature:   0.00 expect dE= 0.000E+00 dE for cont linesearch  0.000E+00
 trial: gam= 0.00000 g(F)=  0.105E+01 g(S)=  0.314E+03 ort = 0.000E+00 (trialstep = 0.100E+01)
 search vector abs. value=  0.315E+03
 bond charge predicted
       N       E                     dE             d eps       ncg     rms          rms(c)
DAV:   1    -0.414158789947E+04   -0.36704E+04   -0.10978E+05  9720   0.114E+03    0.393E+02
RMM:   2    -0.132984988966E+04    0.28117E+04   -0.80770E+03 12851   0.313E+02    0.186E+02
RMM:   3    -0.583571825892E+03    0.74628E+03   -0.29814E+03  9902   0.224E+02    0.541E+01
RMM:   4    -0.737999623493E+03   -0.15443E+03   -0.10508E+03 11909   0.873E+01    0.610E+01
RMM:   5    -0.612393580853E+03    0.12561E+03   -0.19452E+02 12578   0.387E+01    0.346E+01
RMM:   6    -0.592225983617E+03    0.20168E+02   -0.13997E+02 14365   0.290E+01    0.142E+01
RMM:   7    -0.605542548041E+03   -0.13317E+02   -0.91932E+01 14696   0.182E+01    0.273E+01
RMM:   8    -0.601280068981E+03    0.42625E+01   -0.23020E+01 14116   0.131E+01    0.188E+01
RMM:   9    -0.599945664225E+03    0.13344E+01   -0.26545E+01 14058   0.117E+01    0.118E+01
RMM:  10    -0.601276671633E+03   -0.13310E+01   -0.10138E+01 15060   0.776E+00    0.123E+01
RMM:  11    -0.600841881056E+03    0.43479E+00   -0.56319E+00 14639   0.497E+00    0.829E+00
RMM:  12    -0.601612679464E+03   -0.77080E+00   -0.38961E+00 15477   0.382E+00    0.725E+00
RMM:  13    -0.601941604368E+03   -0.32892E+00   -0.59229E+00 14668   0.545E+00    0.574E+00
RMM:  14    -0.601813607866E+03    0.12800E+00   -0.18306E+00 15238   0.339E+00    0.410E+00
RMM:  15    -0.601683965167E+03    0.12964E+00   -0.11870E+00 15091   0.206E+00    0.168E+00
RMM:  16    -0.601700450638E+03   -0.16485E-01   -0.54815E-01 15560   0.154E+00    0.131E+00
RMM:  17    -0.601718195052E+03   -0.17744E-01   -0.32072E-01 15539   0.105E+00    0.858E-01
RMM:  18    -0.601723957855E+03   -0.57628E-02   -0.17699E-01 15205   0.933E-01    0.313E-01
RMM:  19    -0.601732331416E+03   -0.83736E-02   -0.10530E-01 15383   0.636E-01    0.340E-01
RMM:  20    -0.601735071274E+03   -0.27399E-02   -0.53227E-02 15193   0.516E-01    0.231E-01
RMM:  21    -0.601738014030E+03   -0.29428E-02   -0.33601E-02 15359   0.359E-01    0.259E-01
RMM:  22    -0.601738845204E+03   -0.83117E-03   -0.16979E-02 15589   0.302E-01    0.986E-02
RMM:  23    -0.601739771062E+03   -0.92586E-03   -0.12150E-02 15306   0.211E-01    0.917E-02
RMM:  24    -0.601740285305E+03   -0.51424E-03   -0.62949E-03 15269   0.190E-01    0.709E-02
RMM:  25    -0.601740626766E+03   -0.34146E-03   -0.43001E-03 15278   0.124E-01    0.302E-02
RMM:  26    -0.601740807655E+03   -0.18089E-03   -0.21763E-03 14887   0.113E-01    0.258E-02
RMM:  27    -0.601740957472E+03   -0.14982E-03   -0.17050E-03 14643   0.780E-02    0.167E-02
RMM:  28    -0.601741032987E+03   -0.75515E-04   -0.88088E-04 14267   0.729E-02    0.229E-02
RMM:  29    -0.601741091810E+03   -0.58823E-04   -0.67613E-04 13486   0.492E-02    0.514E-03
RMM:  30    -0.601741121401E+03   -0.29591E-04   -0.34727E-04 12924   0.473E-02    0.309E-03
RMM:  31    -0.601741147172E+03   -0.25771E-04   -0.28562E-04 11714   0.326E-02    0.911E-03
RMM:  32    -0.601741159380E+03   -0.12208E-04   -0.14777E-04 11599   0.326E-02    0.537E-03
RMM:  33    -0.601741170357E+03   -0.10977E-04   -0.12309E-04 10168   0.248E-02    0.442E-03
RMM:  34    -0.601741175458E+03   -0.51009E-05   -0.67070E-05  9508   0.243E-02
   2 F= -.60174118E+03 E0= -.60167058E+03  d E =-.130546E+03
 trial-energy change: -130.545576  1 .order   28.305493 -315.481231  372.092218
 step:   0.7313(harm=  0.4588)  dis= 0.02900  next Energy=  -648.657506 (dE=-0.177E+03)
 bond charge predicted
       N       E                     dE             d eps       ncg     rms          rms(c)
DAV:   1    -0.109315730304E+04   -0.49142E+03   -0.97583E+03 10464   0.362E+02    0.201E+02
RMM:   2    -0.141137715795E+04   -0.31822E+03   -0.38719E+03 10879   0.155E+02    0.108E+02
RMM:   3    -0.882488191795E+03    0.52889E+03   -0.10548E+03 12590   0.688E+01    0.708E+01
RMM:   4    -0.684485914316E+03    0.19800E+03   -0.27709E+02 11473   0.485E+01    0.393E+01
RMM:   5    -0.698659011214E+03   -0.14173E+02   -0.56144E+02 13359   0.434E+01    0.539E+01
RMM:   6    -0.660096306975E+03    0.38563E+02   -0.59606E+01 12440   0.243E+01    0.198E+01
RMM:   7    -0.655932585895E+03    0.41637E+01   -0.18714E+01 13164   0.883E+00    0.937E+00
RMM:   8    -0.655353465246E+03    0.57912E+00   -0.57810E+00 13193   0.707E+00    0.984E+00
RMM:   9    -0.655118587002E+03    0.23488E+00   -0.40933E+00 14247   0.361E+00    0.700E+00
RMM:  10    -0.654863531248E+03    0.25506E+00   -0.20811E+00 13508   0.298E+00    0.396E+00
RMM:  11    -0.654921348925E+03   -0.57818E-01   -0.10328E+00 14802   0.189E+00    0.394E+00
RMM:  12    -0.654961979390E+03   -0.40630E-01   -0.58285E-01 14619   0.143E+00    0.354E+00
RMM:  13    -0.654913556545E+03    0.48423E-01   -0.42961E-01 14465   0.113E+00    0.266E+00
RMM:  14    -0.654918545502E+03   -0.49890E-02   -0.52458E-01 14108   0.138E+00    0.190E+00
RMM:  15    -0.654986264095E+03   -0.67719E-01   -0.31531E-01 14497   0.105E+00    0.269E+00
RMM:  16    -0.654973994756E+03    0.12269E-01   -0.13031E-01 14872   0.584E-01    0.216E+00
RMM:  17    -0.654940824863E+03    0.33170E-01   -0.13287E-01 14043   0.655E-01    0.856E-01
RMM:  18    -0.654946269992E+03   -0.54451E-02   -0.12456E-01 14065   0.610E-01    0.934E-01
RMM:  19    -0.654948598619E+03   -0.23286E-02   -0.47827E-02 14557   0.507E-01    0.796E-01
RMM:  20    -0.654948630475E+03   -0.31856E-04   -0.24946E-02 14640   0.216E-01    0.824E-01
RMM:  21    -0.654941262837E+03    0.73676E-02   -0.32803E-02 13766   0.354E-01    0.149E-01
RMM:  22    -0.654941728977E+03   -0.46614E-03   -0.88972E-03 14075   0.189E-01    0.714E-02
RMM:  23    -0.654942042424E+03   -0.31345E-03   -0.42937E-03 14397   0.976E-02    0.590E-02
WARNING in EDDRMM: call to ZHEGV failed, returncode =   6  3     10
RMM:  24    -0.654942181762E+03   -0.13934E-03   -0.21671E-03 13496   0.732E-02    0.336E-02
RMM:  25    -0.654942283382E+03   -0.10162E-03   -0.13498E-03 13055   0.522E-02    0.186E-02
RMM:  26    -0.654942354689E+03   -0.71306E-04   -0.94250E-04 12369   0.458E-02    0.171E-02
RMM:  27    -0.654942401151E+03   -0.46462E-04   -0.61519E-04 11995   0.357E-02    0.127E-02
RMM:  28    -0.654942429661E+03   -0.28510E-04   -0.39380E-04 11389   0.300E-02    0.127E-02
RMM:  29    -0.654942447968E+03   -0.18307E-04   -0.26676E-04 10939   0.253E-02    0.322E-03
WARNING in EDDRMM: call to ZHEGV failed, returncode =   6  3      6
RMM:  30    -0.654942460999E+03   -0.13031E-04   -0.17185E-04 10029   0.222E-02    0.579E-03
RMM:  31    -0.654942469216E+03   -0.82173E-05   -0.11107E-04  9052   0.190E-02    0.238E-03
RMM:  32    -0.654942474343E+03   -0.51274E-05   -0.73051E-05  8478   0.178E-02
   3 F= -.65494247E+03 E0= -.65483931E+03  d E =-.183747E+03
 curvature:  -0.17 expect dE=-0.887E+00 dE for cont linesearch -0.541E+00
 ZBRENT: interpolating
 opt :   0.7523  next Energy=  -655.274205 (dE=-0.184E+03)
 bond charge predicted
       N       E                     dE             d eps       ncg     rms          rms(c)
DAV:   1    -0.657511901779E+03   -0.25694E+01   -0.53740E+01  9336   0.266E+01    0.117E+01
RMM:   2    -0.666091468830E+03   -0.85796E+01   -0.31757E+01 10854   0.146E+01    0.328E+01
RMM:   3    -0.656090231581E+03    0.10001E+02   -0.64166E+00 10787   0.764E+00    0.619E+00
RMM:   4    -0.655987752412E+03    0.10248E+00   -0.15635E+00 12142   0.330E+00    0.709E+00
RMM:   5    -0.655760896522E+03    0.22686E+00   -0.73129E-01 11872   0.189E+00    0.510E+00
RMM:   6    -0.655538426900E+03    0.22247E+00   -0.42138E-01 11078   0.174E+00    0.240E+00
RMM:   7    -0.655524554428E+03    0.13872E-01   -0.17139E-01 12181   0.109E+00    0.237E+00
RMM:   8    -0.655489099803E+03    0.35455E-01   -0.66615E-02 12611   0.625E-01    0.796E-01
RMM:   9    -0.655487686005E+03    0.14138E-02   -0.21186E-02 13098   0.367E-01    0.761E-01
RMM:  10    -0.655485164771E+03    0.25212E-02   -0.10057E-02 13818   0.203E-01    0.381E-01
RMM:  11    -0.655485691857E+03   -0.52709E-03   -0.48882E-03 13309   0.145E-01    0.276E-01
RMM:  12    -0.655486672551E+03   -0.98069E-03   -0.35790E-03 13382   0.107E-01    0.319E-01
RMM:  13    -0.655487195748E+03   -0.52320E-03   -0.30109E-03 13117   0.102E-01    0.181E-01
RMM:  14    -0.655488037946E+03   -0.84220E-03   -0.36031E-03 13324   0.106E-01    0.108E-01
RMM:  15    -0.655488361939E+03   -0.32399E-03   -0.21849E-03 12436   0.809E-02    0.165E-01
RMM:  16    -0.655488308822E+03    0.53116E-04   -0.13506E-03 12088   0.606E-02    0.591E-02
RMM:  17    -0.655488363887E+03   -0.55064E-04   -0.77877E-04 11487   0.450E-02    0.381E-02
RMM:  18    -0.655488402911E+03   -0.39024E-04   -0.48548E-04 11219   0.349E-02    0.182E-02
RMM:  19    -0.655488420428E+03   -0.17517E-04   -0.29030E-04 10665   0.285E-02    0.135E-02
RMM:  20    -0.655488431326E+03   -0.10898E-04   -0.18599E-04 10200   0.228E-02    0.124E-02
WARNING in EDDRMM: call to ZHEGV failed, returncode =   8  4      6
RMM:  21    -0.655488438943E+03   -0.76165E-05   -0.11005E-04  9344   0.195E-02    0.797E-03
RMM:  22    -0.655488444533E+03   -0.55901E-05   -0.66983E-05  8663   0.170E-02
   4 F= -.65548844E+03 E0= -.65538813E+03  d E =-.184293E+03
 curvature:  -0.11 expect dE=-0.268E+00 dE for cont linesearch -0.300E-01
 ZBRENT: interpolating
 opt :   0.7611  next Energy=  -655.531319 (dE=-0.184E+03)
 bond charge predicted
       N       E                     dE             d eps       ncg     rms          rms(c)
DAV:   1    -0.655899491271E+03   -0.41105E+00   -0.95086E+00  9816   0.112E+01    0.510E+00
RMM:   2    -0.657706266469E+03   -0.18068E+01   -0.54777E+00 10829   0.604E+00    0.149E+01
RMM:   3    -0.655646071390E+03    0.20602E+01   -0.12349E+00 10661   0.329E+00    0.243E+00
RMM:   4    -0.655633141526E+03    0.12930E-01   -0.29785E-01 11951   0.147E+00    0.320E+00
RMM:   5    -0.655584076109E+03    0.49065E-01   -0.13641E-01 11790   0.791E-01    0.211E+00
RMM:   6    -0.655549575925E+03    0.34500E-01   -0.75245E-02 11333   0.738E-01    0.105E+00
RMM:   7    -0.655547821813E+03    0.17541E-02   -0.30585E-02 12198   0.452E-01    0.110E+00
RMM:   8    -0.655540073559E+03    0.77483E-02   -0.12947E-02 12501   0.284E-01    0.337E-01
RMM:   9    -0.655539675617E+03    0.39794E-03   -0.37521E-03 13061   0.158E-01    0.285E-01
RMM:  10    -0.655539417405E+03    0.25821E-03   -0.18429E-03 12894   0.832E-02    0.167E-01
RMM:  11    -0.655539505435E+03   -0.88031E-04   -0.90636E-04 12359   0.622E-02    0.114E-01
WARNING in EDDRMM: call to ZHEGV failed, returncode =   8  4      6
RMM:  12    -0.655539694420E+03   -0.18898E-03   -0.64321E-04 12070   0.455E-02    0.130E-01
WARNING in EDDRMM: call to ZHEGV failed, returncode =   8  4      6
RMM:  13    -0.655539811975E+03   -0.11755E-03   -0.49272E-04 11775   0.437E-02    0.856E-02
RMM:  14    -0.655540053167E+03   -0.24119E-03   -0.70097E-04 12207   0.480E-02    0.692E-02
RMM:  15    -0.655540113288E+03   -0.60121E-04   -0.44500E-04 11518   0.418E-02    0.624E-02
WARNING in EDDRMM: call to ZHEGV failed, returncode =   6  3      6
WARNING in EDDRMM: call to ZHEGV failed, returncode =   6  3      6
RMM:  16    -0.655540123323E+03   -0.10035E-04   -0.29643E-04 11116   0.319E-02    0.205E-02
RMM:  17    -0.655540135090E+03   -0.11766E-04   -0.16931E-04 10236   0.262E-02    0.143E-02
RMM:  18    -0.655540143476E+03   -0.83866E-05   -0.10388E-04  9708   0.195E-02    0.834E-03
RMM:  19    -0.655540146268E+03   -0.27916E-05   -0.51717E-05  8204   0.171E-02
   5 F= -.65554015E+03 E0= -.65544100E+03  d E =-.184345E+03
 curvature:  -0.15 expect dE=-0.357E+00 dE for cont linesearch -0.107E-04
 trial: gam= 0.00802 g(F)=  0.236E+01 g(S)=  0.216E-01 ort =-0.150E+00 (trialstep = 0.952E+00)
 search vector abs. value=  0.240E+01
 bond charge predicted
       N       E                     dE             d eps       ncg     rms          rms(c)
DAV:   1    -0.652787405830E+03    0.27527E+01   -0.37406E+02  9072   0.713E+01    0.399E+00
RMM:   2    -0.657459441377E+03   -0.46720E+01   -0.48125E+01 13643   0.204E+01    0.618E+00
RMM:   3    -0.657288818200E+03    0.17062E+00   -0.44656E+00 13261   0.671E+00    0.394E+00
RMM:   4    -0.657160010308E+03    0.12881E+00   -0.86790E-01 13865   0.296E+00    0.232E+00
RMM:   5    -0.657153886140E+03    0.61242E-02   -0.39212E-01 13787   0.115E+00    0.230E+00
RMM:   6    -0.657132138064E+03    0.21748E-01   -0.33008E-01 13242   0.125E+00    0.189E+00
RMM:   7    -0.657113263710E+03    0.18874E-01   -0.16472E-01 13469   0.946E-01    0.124E+00
RMM:   8    -0.657106919723E+03    0.63440E-02   -0.70573E-02 13998   0.525E-01    0.653E-01
RMM:   9    -0.657107233961E+03   -0.31424E-03   -0.39779E-02 13524   0.389E-01    0.613E-01
RMM:  10    -0.657106359859E+03    0.87410E-03   -0.21973E-02 13929   0.270E-01    0.332E-01
RMM:  11    -0.657106888580E+03   -0.52872E-03   -0.12253E-02 13820   0.192E-01    0.268E-01
RMM:  12    -0.657107295368E+03   -0.40679E-03   -0.67259E-03 13652   0.138E-01    0.256E-01
RMM:  13    -0.657107161536E+03    0.13383E-03   -0.41976E-03 13495   0.110E-01    0.929E-02
RMM:  14    -0.657107436683E+03   -0.27515E-03   -0.26278E-03 13614   0.856E-02    0.609E-02
RMM:  15    -0.657107570228E+03   -0.13354E-03   -0.14495E-03 12506   0.653E-02    0.671E-02
RMM:  16    -0.657107618015E+03   -0.47787E-04   -0.87138E-04 11853   0.474E-02    0.404E-02
RMM:  17    -0.657107659204E+03   -0.41189E-04   -0.63010E-04 11390   0.407E-02    0.150E-02
RMM:  18    -0.657107684582E+03   -0.25378E-04   -0.34258E-04 10874   0.326E-02    0.109E-02
RMM:  19    -0.657107698858E+03   -0.14276E-04   -0.21305E-04 10254   0.248E-02    0.501E-03
RMM:  20    -0.657107710680E+03   -0.11822E-04   -0.14524E-04  9852   0.218E-02    0.313E-03
RMM:  21    -0.657107717727E+03   -0.70467E-05   -0.88816E-05  8954   0.183E-02
   6 F= -.65710772E+03 E0= -.65701741E+03  d E =-.156757E+01
 trial-energy change:   -1.567571  1 .order   -1.547108   -2.266432   -0.827785
 step:   1.4376(harm=  1.5001)  dis= 0.09506  next Energy=  -657.321396 (dE=-0.178E+01)
 bond charge predicted
       N       E                     dE             d eps       ncg     rms          rms(c)
DAV:   1    -0.656196916258E+03    0.91079E+00   -0.97372E+01  9072   0.365E+01    0.202E+00
RMM:   2    -0.657381412987E+03   -0.11845E+01   -0.12436E+01 13602   0.104E+01    0.266E+00
RMM:   3    -0.657363415915E+03    0.17997E-01   -0.11770E+00 13374   0.341E+00    0.210E+00
RMM:   4    -0.657322314866E+03    0.41101E-01   -0.21018E-01 13830   0.148E+00    0.910E-01
RMM:   5    -0.657327470421E+03   -0.51556E-02   -0.11147E-01 13715   0.607E-01    0.126E+00
RMM:   6    -0.657319619313E+03    0.78511E-02   -0.78952E-02 13378   0.635E-01    0.800E-01
RMM:   7    -0.657316656850E+03    0.29625E-02   -0.38337E-02 13441   0.414E-01    0.523E-01
RMM:   8    -0.657315867796E+03    0.78905E-03   -0.15973E-02 14065   0.259E-01    0.331E-01
RMM:   9    -0.657315764317E+03    0.10348E-03   -0.10424E-02 13661   0.175E-01    0.249E-01
RMM:  10    -0.657315991848E+03   -0.22753E-03   -0.57534E-03 13698   0.144E-01    0.196E-01
RMM:  11    -0.657315984653E+03    0.71954E-05   -0.30126E-03 12948   0.945E-02    0.114E-01
RMM:  12    -0.657316111444E+03   -0.12679E-03   -0.17597E-03 12586   0.762E-02    0.134E-01
RMM:  13    -0.657316080508E+03    0.30935E-04   -0.11626E-03 12509   0.592E-02    0.502E-02
RMM:  14    -0.657316163536E+03   -0.83027E-04   -0.71702E-04 11883   0.490E-02    0.420E-02
WARNING in EDDRMM: call to ZHEGV failed, returncode =   6  3      8
RMM:  15    -0.657316195067E+03   -0.31531E-04   -0.39593E-04 11371   0.370E-02    0.426E-02
RMM:  16    -0.657316198011E+03   -0.29441E-05   -0.23246E-04 10468   0.287E-02    0.135E-02
WARNING in EDDRMM: call to ZHEGV failed, returncode =   8  4      6
RMM:  17    -0.657316212481E+03   -0.14470E-04   -0.18970E-04 10458   0.251E-02    0.803E-03
WARNING in EDDRMM: call to ZHEGV failed, returncode =   8  4     11
RMM:  18    -0.657316218785E+03   -0.63036E-05   -0.96695E-05  9471   0.216E-02
   7 F= -.65731622E+03 E0= -.65723149E+03  d E =-.177607E+01
 curvature:  -0.75 expect dE=-0.567E+00 dE for cont linesearch -0.242E-03
 trial: gam= 0.30405 g(F)=  0.542E+00 g(S)=  0.218E+00 ort =-0.279E-01 (trialstep = 0.105E+01)
 search vector abs. value=  0.965E+00
 bond charge predicted
       N       E                     dE             d eps       ncg     rms          rms(c)
DAV:   1    -0.655419511648E+03    0.18967E+01   -0.23083E+02  8832   0.651E+01    0.120E+01
RMM:   2    -0.665435172270E+03   -0.10016E+02   -0.59392E+01 11287   0.239E+01    0.216E+01
RMM:   3    -0.658012137145E+03    0.74230E+01   -0.97542E+00 12047   0.102E+01    0.391E+00
RMM:   4    -0.658013835800E+03   -0.16987E-02   -0.20799E+00 13514   0.368E+00    0.558E+00
RMM:   5    -0.657768467032E+03    0.24537E+00   -0.63011E-01 13707   0.197E+00    0.303E+00
RMM:   6    -0.657695691520E+03    0.72776E-01   -0.34677E-01 13305   0.137E+00    0.216E+00
RMM:   7    -0.657715675057E+03   -0.19984E-01   -0.26099E-01 13460   0.122E+00    0.277E+00
RMM:   8    -0.657655233473E+03    0.60442E-01   -0.11611E-01 13588   0.809E-01    0.733E-01
WARNING in EDDRMM: call to ZHEGV failed, returncode =   8  4      6
RMM:   9    -0.657653377848E+03    0.18556E-02   -0.40194E-02 13966   0.466E-01    0.696E-01
RMM:  10    -0.657651927970E+03    0.14499E-02   -0.21393E-02 14543   0.282E-01    0.429E-01
RMM:  11    -0.657651714014E+03    0.21396E-03   -0.11901E-02 14485   0.204E-01    0.233E-01
RMM:  12    -0.657652498911E+03   -0.78490E-03   -0.63373E-03 14321   0.137E-01    0.244E-01
RMM:  13    -0.657652695123E+03   -0.19621E-03   -0.38693E-03 13683   0.113E-01    0.172E-01
RMM:  14    -0.657653111784E+03   -0.41666E-03   -0.33823E-03 13959   0.977E-02    0.102E-01
RMM:  15    -0.657653276030E+03   -0.16425E-03   -0.23903E-03 13644   0.868E-02    0.650E-02
RMM:  16    -0.657653330194E+03   -0.54164E-04   -0.12596E-03 12914   0.613E-02    0.670E-02
RMM:  17    -0.657653330421E+03   -0.22790E-06   -0.79445E-04 12157   0.492E-02    0.290E-02
RMM:  18    -0.657653359453E+03   -0.29031E-04   -0.53710E-04 11803   0.394E-02    0.181E-02
RMM:  19    -0.657653374904E+03   -0.15452E-04   -0.24577E-04 11264   0.323E-02    0.119E-02
RMM:  20    -0.657653382721E+03   -0.78171E-05   -0.15239E-04 10391   0.229E-02    0.835E-03
RMM:  21    -0.657653389767E+03   -0.70461E-05   -0.10259E-04  9633   0.220E-02    0.468E-03
RMM:  22    -0.657653392254E+03   -0.24865E-05   -0.51254E-05  7834   0.179E-02
   8 F= -.65765339E+03 E0= -.65757523E+03  d E =-.337173E+00
 trial-energy change:   -0.337173  1 .order   -0.332040   -0.788836    0.124755
 step:   0.9101(harm=  0.9060)  dis= 0.04891  next Energy=  -657.661656 (dE=-0.345E+00)
 bond charge predicted
       N       E                     dE             d eps       ncg     rms          rms(c)
DAV:   1    -0.657625065555E+03    0.28324E-01   -0.40368E+00  9744   0.875E+00    0.152E+00
RMM:   2    -0.657823239154E+03   -0.19817E+00   -0.11601E+00 11034   0.325E+00    0.377E+00
RMM:   3    -0.657669431568E+03    0.15381E+00   -0.17663E-01 11233   0.147E+00    0.673E-01
RMM:   4    -0.657668805983E+03    0.62559E-03   -0.40118E-02 13487   0.496E-01    0.814E-01
RMM:   5    -0.657663750759E+03    0.50552E-02   -0.11271E-02 13069   0.272E-01    0.428E-01
RMM:   6    -0.657662181137E+03    0.15696E-02   -0.62861E-03 12981   0.195E-01    0.293E-01
RMM:   7    -0.657662568607E+03   -0.38747E-03   -0.45512E-03 12785   0.169E-01    0.376E-01
RMM:   8    -0.657661464133E+03    0.11045E-02   -0.20218E-03 12591   0.112E-01    0.119E-01
RMM:   9    -0.657661432093E+03    0.32041E-04   -0.69590E-04 12550   0.677E-02    0.117E-01
RMM:  10    -0.657661360289E+03    0.71804E-04   -0.32934E-04 11696   0.374E-02    0.472E-02
RMM:  11    -0.657661375498E+03   -0.15209E-04   -0.17743E-04 11114   0.277E-02    0.358E-02
RMM:  12    -0.657661387224E+03   -0.11726E-04   -0.96958E-05 10182   0.203E-02    0.327E-02
RMM:  13    -0.657661396675E+03   -0.94505E-05   -0.58055E-05  8804   0.176E-02
   9 F= -.65766140E+03 E0= -.65758236E+03  d E =-.345178E+00
 curvature:  -0.58 expect dE=-0.306E+00 dE for cont linesearch -0.838E-05
 trial: gam= 0.66078 g(F)=  0.250E+00 g(S)=  0.277E+00 ort =-0.373E-02 (trialstep = 0.102E+01)
 search vector abs. value=  0.944E+00
 bond charge predicted
       N       E                     dE             d eps       ncg     rms          rms(c)
DAV:   1    -0.654091179481E+03    0.35702E+01   -0.22110E+02  9072   0.651E+01    0.572E+00
RMM:   2    -0.659428293595E+03   -0.53371E+01   -0.51281E+01 12687   0.200E+01    0.105E+01
RMM:   3    -0.657985145650E+03    0.14431E+01   -0.50766E+00 12460   0.747E+00    0.368E+00
RMM:   4    -0.657951766642E+03    0.33379E-01   -0.10046E+00 14065   0.234E+00    0.341E+00
RMM:   5    -0.657854323429E+03    0.97443E-01   -0.26597E-01 13317   0.138E+00    0.180E+00
RMM:   6    -0.657840925458E+03    0.13398E-01   -0.19416E-01 13254   0.103E+00    0.166E+00
RMM:   7    -0.657835435169E+03    0.54903E-02   -0.12248E-01 13366   0.884E-01    0.152E+00
RMM:   8    -0.657815491658E+03    0.19944E-01   -0.50535E-02 13544   0.508E-01    0.547E-01
RMM:   9    -0.657815535392E+03   -0.43734E-04   -0.21784E-02 13953   0.314E-01    0.483E-01
RMM:  10    -0.657814775646E+03    0.75975E-03   -0.12697E-02 14047   0.207E-01    0.198E-01
RMM:  11    -0.657815212583E+03   -0.43694E-03   -0.63964E-03 13879   0.148E-01    0.150E-01
RMM:  12    -0.657815590832E+03   -0.37825E-03   -0.35018E-03 13535   0.967E-02    0.165E-01
RMM:  13    -0.657815747023E+03   -0.15619E-03   -0.23500E-03 13299   0.814E-02    0.860E-02
RMM:  14    -0.657815984183E+03   -0.23716E-03   -0.14827E-03 13089   0.645E-02    0.553E-02
RMM:  15    -0.657816068863E+03   -0.84681E-04   -0.88880E-04 12593   0.524E-02    0.415E-02
RMM:  16    -0.657816108272E+03   -0.39409E-04   -0.59221E-04 12032   0.411E-02    0.376E-02
RMM:  17    -0.657816125046E+03   -0.16773E-04   -0.39237E-04 11369   0.348E-02    0.154E-02
RMM:  18    -0.657816136276E+03   -0.11230E-04   -0.21198E-04 10887   0.270E-02    0.115E-02
RMM:  19    -0.657816143202E+03   -0.69265E-05   -0.11186E-04  9575   0.210E-02    0.649E-03
RMM:  20    -0.657816150263E+03   -0.70608E-05   -0.83525E-05  9492   0.185E-02
  10 F= -.65781615E+03 E0= -.65774706E+03  d E =-.154754E+00
 trial-energy change:   -0.154754  1 .order   -0.131173   -0.536208    0.273862
 step:   0.7137(harm=  0.6761)  dis= 0.04530  next Energy=  -657.856763 (dE=-0.195E+00)
 bond charge predicted
       N       E                     dE             d eps       ncg     rms          rms(c)
DAV:   1    -0.657514287838E+03    0.30186E+00   -0.20150E+01  9096   0.198E+01    0.174E+00
RMM:   2    -0.657954754253E+03   -0.44047E+00   -0.43530E+00 12758   0.590E+00    0.277E+00
RMM:   3    -0.657874152758E+03    0.80601E-01   -0.47557E-01 12879   0.214E+00    0.119E+00
RMM:   4    -0.657866468626E+03    0.76841E-02   -0.74390E-02 13940   0.664E-01    0.932E-01
RMM:   5    -0.657860283144E+03    0.61855E-02   -0.22403E-02 13392   0.391E-01    0.553E-01
RMM:   6    -0.657857909758E+03    0.23734E-02   -0.14669E-02 13139   0.288E-01    0.355E-01
RMM:   7    -0.657858532735E+03   -0.62298E-03   -0.94545E-03 13255   0.241E-01    0.486E-01
RMM:   8    -0.657856551184E+03    0.19816E-02   -0.42765E-03 13462   0.146E-01    0.132E-01
RMM:   9    -0.657856703241E+03   -0.15206E-03   -0.18863E-03 13323   0.941E-02    0.171E-01
RMM:  10    -0.657856546294E+03    0.15695E-03   -0.99669E-04 12320   0.588E-02    0.574E-02
RMM:  11    -0.657856561805E+03   -0.15510E-04   -0.54166E-04 11898   0.426E-02    0.402E-02
RMM:  12    -0.657856592371E+03   -0.30566E-04   -0.27544E-04 11209   0.309E-02    0.489E-02
WARNING in EDDRMM: call to ZHEGV failed, returncode =   6  3      6
RMM:  13    -0.657856591730E+03    0.64086E-06   -0.18224E-04 10865   0.271E-02    0.243E-02
RMM:  14    -0.657856594779E+03   -0.30486E-05   -0.11114E-04  9860   0.223E-02    0.110E-02
WARNING in EDDRMM: call to ZHEGV failed, returncode =   8  4      6
RMM:  15    -0.657856596938E+03   -0.21586E-05   -0.73467E-05  9508   0.198E-02
  11 F= -.65785660E+03 E0= -.65778455E+03  d E =-.195200E+00
 curvature:  -0.60 expect dE=-0.850E-01 dE for cont linesearch -0.305E-05
 trial: gam= 0.16668 g(F)=  0.132E+00 g(S)=  0.989E-02 ort = 0.219E-02 (trialstep = 0.960E+00)
 search vector abs. value=  0.168E+00
 bond charge predicted
       N       E                     dE             d eps       ncg     rms          rms(c)
DAV:   1    -0.657596598093E+03    0.26000E+00   -0.29318E+01  9072   0.204E+01    0.135E+00
RMM:   2    -0.657956318180E+03   -0.35972E+00   -0.38558E+00 13329   0.578E+00    0.137E+00
RMM:   3    -0.657950782852E+03    0.55353E-02   -0.39166E-01 13376   0.192E+00    0.117E+00
RMM:   4    -0.657941805331E+03    0.89775E-02   -0.72158E-02 14180   0.769E-01    0.661E-01
RMM:   5    -0.657941555681E+03    0.24965E-03   -0.31331E-02 13612   0.346E-01    0.571E-01
RMM:   6    -0.657939948477E+03    0.16072E-02   -0.16330E-02 13403   0.291E-01    0.381E-01
RMM:   7    -0.657939996621E+03   -0.48144E-04   -0.11361E-02 13522   0.222E-01    0.396E-01
WARNING in EDDRMM: call to ZHEGV failed, returncode =   6  3      6
RMM:   8    -0.657938840510E+03    0.11561E-02   -0.50997E-03 13765   0.159E-01    0.106E-01
RMM:   9    -0.657938940141E+03   -0.99631E-04   -0.25240E-03 12997   0.893E-02    0.779E-02
RMM:  10    -0.657939045830E+03   -0.10569E-03   -0.14122E-03 12405   0.655E-02    0.903E-02
RMM:  11    -0.657939038553E+03    0.72764E-05   -0.78813E-04 11916   0.483E-02    0.325E-02
RMM:  12    -0.657939077565E+03   -0.39012E-04   -0.45929E-04 11330   0.376E-02    0.372E-02
RMM:  13    -0.657939090022E+03   -0.12456E-04   -0.25895E-04 10410   0.291E-02    0.217E-02
RMM:  14    -0.657939102664E+03   -0.12642E-04   -0.18831E-04 10474   0.253E-02    0.124E-02
RMM:  15    -0.657939109219E+03   -0.65549E-05   -0.10339E-04  9484   0.204E-02    0.122E-02
RMM:  16    -0.657939112900E+03   -0.36809E-05   -0.64723E-05  9067   0.175E-02
  12 F= -.65793911E+03 E0= -.65786901E+03  d E =-.825160E-01
 trial-energy change:   -0.082516  1 .order   -0.082393   -0.136198   -0.028588
 step:   1.2149(harm=  1.2149)  dis= 0.01845  next Energy=  -657.942788 (dE=-0.862E-01)
 bond charge predicted
       N       E                     dE             d eps       ncg     rms          rms(c)
DAV:   1    -0.657918814729E+03    0.20294E-01   -0.20677E+00  9696   0.540E+00    0.357E-01
RMM:   2    -0.657944165822E+03   -0.25351E-01   -0.27222E-01 13377   0.153E+00    0.353E-01
RMM:   3    -0.657943797153E+03    0.36867E-03   -0.27898E-02 13428   0.506E-01    0.308E-01
RMM:   4    -0.657943160163E+03    0.63699E-03   -0.51879E-03 13941   0.208E-01    0.174E-01
RMM:   5    -0.657943169289E+03   -0.91261E-05   -0.24085E-03 12710   0.969E-02    0.152E-01
RMM:   6    -0.657943060467E+03    0.10882E-03   -0.12698E-03 12917   0.816E-02    0.997E-02
RMM:   7    -0.657943069839E+03   -0.93723E-05   -0.86746E-04 12571   0.608E-02    0.104E-01
RMM:   8    -0.657942993426E+03    0.76413E-04   -0.39486E-04 11767   0.448E-02    0.283E-02
RMM:   9    -0.657943001489E+03   -0.80631E-05   -0.19519E-04 10471   0.280E-02    0.233E-02
RMM:  10    -0.657943009107E+03   -0.76177E-05   -0.12246E-04 10241   0.230E-02    0.242E-02
WARNING in EDDRMM: call to ZHEGV failed, returncode =   6  3     11
RMM:  11    -0.657943007267E+03    0.18394E-05   -0.59146E-05  9102   0.178E-02
  13 F= -.65794301E+03 E0= -.65787346E+03  d E =-.864103E-01
 curvature:  -0.72 expect dE=-0.240E-01 dE for cont linesearch -0.108E-06
 trial: gam= 0.20484 g(F)=  0.309E-01 g(S)=  0.233E-02 ort =-0.159E-03 (trialstep = 0.101E+01)
 search vector abs. value=  0.402E-01
 bond charge predicted
       N       E                     dE             d eps       ncg     rms          rms(c)
DAV:   1    -0.657867289475E+03    0.75720E-01   -0.79055E+00  8736   0.108E+01    0.681E-01
RMM:   2    -0.657969172730E+03   -0.10188E+00   -0.10966E+00 13511   0.302E+00    0.716E-01
RMM:   3    -0.657970094329E+03   -0.92160E-03   -0.11057E-01 13238   0.102E+00    0.765E-01
RMM:   4    -0.657965247226E+03    0.48471E-02   -0.22164E-02 13976   0.482E-01    0.248E-01
RMM:   5    -0.657965436276E+03   -0.18905E-03   -0.11118E-02 13750   0.184E-01    0.257E-01
RMM:   6    -0.657965280664E+03    0.15561E-03   -0.56058E-03 13495   0.177E-01    0.217E-01
RMM:   7    -0.657965030886E+03    0.24978E-03   -0.33245E-03 13522   0.114E-01    0.131E-01
RMM:   8    -0.657965020866E+03    0.10020E-04   -0.15097E-03 12845   0.841E-02    0.884E-02
RMM:   9    -0.657965044893E+03   -0.24027E-04   -0.88730E-04 12068   0.520E-02    0.636E-02
WARNING in EDDRMM: call to ZHEGV failed, returncode =   8  4     10
RMM:  10    -0.657965057683E+03   -0.12790E-04   -0.52811E-04 11864   0.429E-02    0.395E-02
RMM:  11    -0.657965064900E+03   -0.72173E-05   -0.27421E-04 10695   0.298E-02    0.171E-02
RMM:  12    -0.657965079969E+03   -0.15069E-04   -0.17582E-04 10526   0.250E-02    0.192E-02
RMM:  13    -0.657965083918E+03   -0.39495E-05   -0.90285E-05  9350   0.194E-02
  14 F= -.65796508E+03 E0= -.65789599E+03  d E =-.220767E-01
 trial-energy change:   -0.022077  1 .order   -0.021884   -0.033543   -0.010225
 step:   1.4253(harm=  1.4542)  dis= 0.01537  next Energy=  -657.967193 (dE=-0.242E-01)
 bond charge predicted
       N       E                     dE             d eps       ncg     rms          rms(c)
DAV:   1    -0.657950859322E+03    0.14221E-01   -0.13283E+00  9264   0.442E+00    0.279E-01
RMM:   2    -0.657968097382E+03   -0.17238E-01   -0.18541E-01 13552   0.124E+00    0.295E-01
RMM:   3    -0.657968215231E+03   -0.11785E-03   -0.18840E-02 13257   0.417E-01    0.313E-01
RMM:   4    -0.657967418412E+03    0.79682E-03   -0.38969E-03 13806   0.199E-01    0.102E-01
RMM:   5    -0.657967464123E+03   -0.45711E-04   -0.19986E-03 12938   0.788E-02    0.107E-01
RMM:   6    -0.657967441514E+03    0.22608E-04   -0.10372E-03 12815   0.750E-02    0.881E-02
RMM:   7    -0.657967400953E+03    0.40561E-04   -0.61247E-04 12416   0.488E-02    0.491E-02
RMM:   8    -0.657967407191E+03   -0.62373E-05   -0.29534E-04 11438   0.380E-02    0.370E-02
RMM:   9    -0.657967410477E+03   -0.32857E-05   -0.15641E-04 10215   0.251E-02    0.258E-02
RMM:  10    -0.657967415312E+03   -0.48359E-05   -0.11273E-04 10003   0.219E-02    0.169E-02
RMM:  11    -0.657967415547E+03   -0.23451E-06   -0.46793E-05  8283   0.174E-02
  15 F= -.65796742E+03 E0= -.65789850E+03  d E =-.244083E-01
 curvature:  -0.88 expect dE=-0.933E-02 dE for cont linesearch -0.879E-05
 trial: gam= 0.29856 g(F)=  0.875E-02 g(S)=  0.188E-02 ort = 0.635E-03 (trialstep = 0.109E+01)
 search vector abs. value=  0.146E-01
 bond charge predicted
       N       E                     dE             d eps       ncg     rms          rms(c)
DAV:   1    -0.657935791307E+03    0.31624E-01   -0.33135E+00  9072   0.697E+00    0.494E-01
RMM:   2    -0.657975624616E+03   -0.39833E-01   -0.45127E-01 13348   0.192E+00    0.374E-01
RMM:   3    -0.657977763281E+03   -0.21387E-02   -0.47219E-02 13282   0.648E-01    0.629E-01
RMM:   4    -0.657974582180E+03    0.31811E-02   -0.95341E-03 14007   0.301E-01    0.192E-01
RMM:   5    -0.657974819001E+03   -0.23682E-03   -0.45782E-03 13076   0.126E-01    0.238E-01
RMM:   6    -0.657974451050E+03    0.36795E-03   -0.23583E-03 13204   0.115E-01    0.119E-01
RMM:   7    -0.657974388012E+03    0.63038E-04   -0.13018E-03 12733   0.704E-02    0.804E-02
RMM:   8    -0.657974365475E+03    0.22538E-04   -0.56639E-04 11585   0.509E-02    0.365E-02
RMM:   9    -0.657974383165E+03   -0.17691E-04   -0.31824E-04 10639   0.319E-02    0.308E-02
WARNING in EDDRMM: call to ZHEGV failed, returncode =   8  4      8
RMM:  10    -0.657974392354E+03   -0.91886E-05   -0.20666E-04 10393   0.268E-02    0.185E-02
RMM:  11    -0.657974397115E+03   -0.47616E-05   -0.98738E-05  9243   0.200E-02
  16 F= -.65797440E+03 E0= -.65790589E+03  d E =-.698157E-02
 trial-energy change:   -0.006982  1 .order   -0.006861   -0.011843   -0.001879
 step:   1.2838(harm=  1.3000)  dis= 0.01006  next Energy=  -657.974561 (dE=-0.715E-02)
 bond charge predicted
       N       E                     dE             d eps       ncg     rms          rms(c)
DAV:   1    -0.657973402505E+03    0.98985E-03   -0.99961E-02  9744   0.121E+00    0.860E-02
RMM:   2    -0.657974650621E+03   -0.12481E-02   -0.13932E-02 13388   0.335E-01    0.752E-02
RMM:   3    -0.657974692401E+03   -0.41779E-04   -0.15516E-03 12966   0.115E-01    0.104E-01
RMM:   4    -0.657974610083E+03    0.82318E-04   -0.34607E-04 12157   0.553E-02    0.358E-02
RMM:   5    -0.657974620774E+03   -0.10691E-04   -0.17801E-04 10270   0.289E-02    0.434E-02
RMM:   6    -0.657974611075E+03    0.96991E-05   -0.10672E-04 10540   0.253E-02    0.191E-02
RMM:   7    -0.657974611874E+03   -0.79886E-06   -0.53603E-05  8845   0.158E-02
  17 F= -.65797461E+03 E0= -.65790620E+03  d E =-.719633E-02
 curvature:  -0.87 expect dE=-0.339E-02 dE for cont linesearch -0.472E-05
 trial: gam= 0.36230 g(F)=  0.327E-02 g(S)=  0.620E-03 ort = 0.281E-03 (trialstep = 0.113E+01)
 search vector abs. value=  0.601E-02
 bond charge predicted
       N       E                     dE             d eps       ncg     rms          rms(c)
DAV:   1    -0.657955059671E+03    0.19551E-01   -0.14867E+00  8976   0.505E+00    0.346E-01
RMM:   2    -0.657979877462E+03   -0.24818E-01   -0.25392E-01 13625   0.139E+00    0.478E-01
RMM:   3    -0.657977936995E+03    0.19405E-02   -0.25200E-02 13538   0.480E-01    0.245E-01
RMM:   4    -0.657977692585E+03    0.24441E-03   -0.48276E-03 14055   0.196E-01    0.171E-01
RMM:   5    -0.657977578747E+03    0.11384E-03   -0.18365E-03 12633   0.879E-02    0.113E-01
RMM:   6    -0.657977558767E+03    0.19980E-04   -0.10430E-03 12720   0.734E-02    0.101E-01
RMM:   7    -0.657977532243E+03    0.26524E-04   -0.65101E-04 12631   0.560E-02    0.909E-02
RMM:   8    -0.657977473697E+03    0.58545E-04   -0.31136E-04 12066   0.409E-02    0.243E-02
RMM:   9    -0.657977483821E+03   -0.10124E-04   -0.15580E-04 10583   0.265E-02    0.280E-02
RMM:  10    -0.657977483935E+03   -0.11386E-06   -0.92038E-05 10118   0.213E-02
  18 F= -.65797748E+03 E0= -.65790930E+03  d E =-.287206E-02
 trial-energy change:   -0.002872  1 .order   -0.002801   -0.004514   -0.001087
 step:   1.4417(harm=  1.4909)  dis= 0.00730  next Energy=  -657.977634 (dE=-0.302E-02)
 bond charge predicted
       N       E                     dE             d eps       ncg     rms          rms(c)
DAV:   1    -0.657975932254E+03    0.15516E-02   -0.11143E-01  9360   0.138E+00    0.958E-02
RMM:   2    -0.657977851686E+03   -0.19194E-02   -0.19617E-02 13586   0.387E-01    0.134E-01
RMM:   3    -0.657977698098E+03    0.15359E-03   -0.20472E-03 13286   0.136E-01    0.697E-02
WARNING in EDDRMM: call to ZHEGV failed, returncode =   6  3      6
RMM:   4    -0.657977686465E+03    0.11633E-04   -0.43827E-04 12683   0.582E-02    0.519E-02
RMM:   5    -0.657977675631E+03    0.10834E-04   -0.16814E-04 10614   0.297E-02    0.307E-02
RMM:   6    -0.657977678463E+03   -0.28315E-05   -0.11403E-04 10738   0.256E-02    0.307E-02
RMM:   7    -0.657977676014E+03    0.24484E-05   -0.73167E-05  9673   0.186E-02
  19 F= -.65797768E+03 E0= -.65790957E+03  d E =-.306414E-02
 curvature:  -1.10 expect dE=-0.151E-02 dE for cont linesearch -0.470E-05
 trial: gam= 0.33357 g(F)=  0.119E-02 g(S)=  0.180E-03 ort = 0.160E-03 (trialstep = 0.119E+01)
 search vector abs. value=  0.215E-02
 bond charge predicted
       N       E                     dE             d eps       ncg     rms          rms(c)
DAV:   1    -0.657969519765E+03    0.81587E-02   -0.60769E-01  8832   0.324E+00    0.259E-01
RMM:   2    -0.657979897874E+03   -0.10378E-01   -0.10635E-01 13251   0.954E-01    0.374E-01
RMM:   3    -0.657978954767E+03    0.94311E-03   -0.12020E-02 13675   0.334E-01    0.207E-01
RMM:   4    -0.657978848049E+03    0.10672E-03   -0.22928E-03 13636   0.124E-01    0.171E-01
RMM:   5    -0.657978639390E+03    0.20866E-03   -0.75669E-04 12603   0.620E-02    0.771E-02
RMM:   6    -0.657978613074E+03    0.26316E-04   -0.40176E-04 12389   0.475E-02    0.650E-02
RMM:   7    -0.657978624093E+03   -0.11018E-04   -0.30457E-04 12148   0.409E-02    0.726E-02
RMM:   8    -0.657978583122E+03    0.40971E-04   -0.16033E-04 11782   0.301E-02    0.219E-02
RMM:   9    -0.657978588944E+03   -0.58225E-05   -0.76486E-05  9884   0.212E-02
  20 F= -.65797859E+03 E0= -.65791078E+03  d E =-.912930E-03
 trial-energy change:   -0.000913  1 .order   -0.000905   -0.001701   -0.000109
 step:   1.2754(harm=  1.2754)  dis= 0.00314  next Energy=  -657.978585 (dE=-0.909E-03)
 bond charge predicted
       N       E                     dE             d eps       ncg     rms          rms(c)
DAV:   1    -0.657978545370E+03    0.37752E-04   -0.29049E-03 10296   0.225E-01    0.195E-02
RMM:   2    -0.657978606965E+03   -0.61595E-04   -0.56259E-04 12440   0.679E-02    0.360E-02
RMM:   3    -0.657978597159E+03    0.98061E-05   -0.84280E-05  9181   0.271E-02
  21 F= -.65797860E+03 E0= -.65791081E+03  d E =-.921145E-03
 curvature:  -0.96 expect dE=-0.573E-03 dE for cont linesearch -0.443E-05
 trial: gam= 0.50730 g(F)=  0.332E-03 g(S)=  0.264E-03 ort =-0.994E-04 (trialstep = 0.121E+01)
 search vector abs. value=  0.105E-02
 bond charge predicted
       N       E                     dE             d eps       ncg     rms          rms(c)
DAV:   1    -0.657976000569E+03    0.26064E-02   -0.31492E-01  9648   0.236E+00    0.342E-01
RMM:   2    -0.657985152362E+03   -0.91518E-02   -0.69340E-02 11520   0.787E-01    0.693E-01
RMM:   3    -0.657979361102E+03    0.57913E-02   -0.93249E-03 11722   0.339E-01    0.160E-01
RMM:   4    -0.657979342561E+03    0.18542E-04   -0.21917E-03 13311   0.110E-01    0.190E-01
RMM:   5    -0.657979053388E+03    0.28917E-03   -0.69744E-04 12266   0.696E-02    0.991E-02
RMM:   6    -0.657978965368E+03    0.88020E-04   -0.40549E-04 12744   0.507E-02    0.633E-02
RMM:   7    -0.657978982048E+03   -0.16680E-04   -0.24992E-04 11616   0.417E-02    0.770E-02
RMM:   8    -0.657978928057E+03    0.53990E-04   -0.10675E-04 10738   0.269E-02    0.232E-02
RMM:   9    -0.657978926785E+03    0.12724E-05   -0.45069E-05  8294   0.190E-02
  22 F= -.65797893E+03 E0= -.65791127E+03  d E =-.329626E-03
 trial-energy change:   -0.000330  1 .order   -0.000202   -0.000660    0.000257
 step:   1.0104(harm=  0.8708)  dis= 0.00220  next Energy=  -657.978947 (dE=-0.350E-03)
 bond charge predicted
       N       E                     dE             d eps       ncg     rms          rms(c)
DAV:   1    -0.657978867086E+03    0.60972E-04   -0.86024E-03  9744   0.391E-01    0.584E-02
RMM:   2    -0.657979119968E+03   -0.25288E-03   -0.19352E-03 11106   0.131E-01    0.118E-01
RMM:   3    -0.657978951168E+03    0.16880E-03   -0.25929E-04  9710   0.580E-02    0.276E-02
RMM:   4    -0.657978949420E+03    0.17476E-05   -0.63914E-05  8797   0.217E-02
  23 F= -.65797895E+03 E0= -.65791126E+03  d E =-.352261E-03
 curvature:  -0.69 expect dE=-0.515E-03 dE for cont linesearch -0.755E-05
 ZBRENT: interpolating
 opt :   0.8452  next Energy=  -657.978958 (dE=-0.361E-03)
 bond charge predicted
       N       E                     dE             d eps       ncg     rms          rms(c)
DAV:   1    -0.657978889767E+03    0.61401E-04   -0.58623E-03  9744   0.323E-01    0.571E-02
RMM:   2    -0.657979108252E+03   -0.21848E-03   -0.14362E-03 10889   0.114E-01    0.127E-01
RMM:   3    -0.657978946216E+03    0.16204E-03   -0.21603E-04  9101   0.514E-02    0.378E-02
RMM:   4    -0.657978941674E+03    0.45426E-05   -0.64139E-05  8464   0.222E-02
  24 F= -.65797894E+03 E0= -.65791124E+03  d E =-.344515E-03
 curvature:  -0.81 expect dE=-0.621E-03 dE for cont linesearch -0.266E-05
 trial: gam= 1.58039 g(F)=  0.200E-03 g(S)=  0.566E-03 ort =-0.586E-04 (trialstep = 0.373E+00)
 search vector abs. value=  0.320E-02
 bond charge predicted
       N       E                     dE             d eps       ncg     rms          rms(c)
DAV:   1    -0.657977596835E+03    0.13494E-02   -0.92606E-02  9216   0.128E+00    0.749E-02
RMM:   2    -0.657979067708E+03   -0.14709E-02   -0.15074E-02 13338   0.349E-01    0.105E-01
RMM:   3    -0.657979087533E+03   -0.19825E-04   -0.15513E-03 12816   0.112E-01    0.822E-02
RMM:   4    -0.657979043138E+03    0.44395E-04   -0.22222E-04 11910   0.465E-02    0.285E-02
RMM:   5    -0.657979040775E+03    0.23630E-05   -0.71735E-05  9344   0.220E-02
  25 F= -.65797904E+03 E0= -.65791146E+03  d E =-.991012E-04
 trial-energy change:   -0.000099  1 .order   -0.000125   -0.000251    0.000001
 step:   0.3708(harm=  0.3708)  dis= 0.00162  next Energy=  -657.979066 (dE=-0.125E-03)
 reached required accuracy - stopping structural energy minimisation
