HECN                                    
           1
    11.240000    0.000000    0.000000
     0.000000   11.240000    0.000000
     0.000000    0.000000   11.240000
   Ti   Ta   Hf   N    C    Nb   V 
   7   6   7  13  19   6   6
Direct configuration=     1
   0.00000000  0.00000000  0.00000000
   0.25000000  0.00000000  0.25000000
   0.25000000  0.50000000  0.25000000
   0.50000000  0.50000000  0.00000000
   0.50000000  0.25000000  0.75000004
   0.00000000  0.50000000  0.50000000
   0.50000000  0.75000004  0.75000004
   0.00000000  0.25000000  0.25000000
   0.75000004  0.75000004  0.00000000
   0.00000000  0.25000000  0.75000004
   0.75000004  0.25000000  0.50000000
   0.00000000  0.75000004  0.75000004
   0.25000000  0.50000000  0.75000004
   0.25000000  0.25000000  0.00000000
   0.50000000  0.25000000  0.25000000
   0.75000004  0.00000000  0.25000000
   0.75000004  0.25000000  0.00000000
   0.25000000  0.75000004  0.00000000
   0.25000000  0.25000000  0.50000000
   0.25000000  0.75000004  0.50000000
   0.25000000  0.25000000  0.25000000
   0.25000000  0.00000000  0.00000000
   0.00000000  0.25000000  0.00000000
   0.75000004  0.25000000  0.25000000
   0.75000004  0.00000000  0.00000000
   0.50000000  0.00000000  0.25000000
   0.00000000  0.50000000  0.25000000
   0.50000000  0.75000004  0.00000000
   0.00000000  0.00000000  0.75000004
   0.75000004  0.25000000  0.75000004
   0.75000004  0.00000000  0.50000000
   0.50000000  0.25000000  0.50000000
   0.50000000  0.00000000  0.75000004
   0.00000000  0.00000000  0.25000000
   0.50000000  0.25000000  0.00000000
   0.25000000  0.75000004  0.25000000
   0.25000000  0.50000000  0.00000000
   0.00000000  0.75000004  0.00000000
   0.75000004  0.75000004  0.25000000
   0.75000004  0.50000000  0.00000000
   0.50000000  0.50000000  0.25000000
   0.25000000  0.25000000  0.75000004
   0.25000000  0.00000000  0.50000000
   0.00000000  0.25000000  0.50000000
   0.25000000  0.75000004  0.75000004
   0.25000000  0.50000000  0.50000000
   0.00000000  0.75000004  0.50000000
   0.00000000  0.50000000  0.75000004
   0.75000004  0.75000004  0.75000004
   0.75000004  0.50000000  0.50000000
   0.50000000  0.75000004  0.50000000
   0.50000000  0.50000000  0.75000004
   0.50000000  0.00000000  0.00000000
   0.00000000  0.50000000  0.00000000
   0.50000000  0.75000004  0.25000000
   0.25000000  0.00000000  0.75000004
   0.50000000  0.00000000  0.50000000
   0.75000004  0.00000000  0.75000004
   0.00000000  0.75000004  0.25000000
   0.75000004  0.50000000  0.25000000
   0.00000000  0.00000000  0.50000000
   0.50000000  0.50000000  0.50000000
   0.75000004  0.50000000  0.75000004
   0.75000004  0.75000004  0.50000000
HECN                                    
           1
     8.084537    0.001236    0.001079
     0.001236    8.075745    0.001789
     0.001079    0.001789    8.081720
   Ti   Ta   Hf   N    C    Nb   V 
   7   6   7  13  19   6   6
Direct configuration=     2
  -0.00010968 -0.00191081  0.00111895
   0.24851725 -0.00206503  0.25164269
   0.25099134  0.50213474  0.25018577
   0.50044632  0.49910020 -0.00008135
   0.49884264  0.25105520  0.75096465
  -0.00036949  0.50057251  0.50090614
   0.50040511  0.74894682  0.74835831
  -0.00054856  0.24814822  0.25303460
   0.75212268  0.74742845 -0.00003631
   0.00159766  0.25201023  0.74699015
   0.75274583  0.25235290  0.50107158
  -0.00061933  0.74819085  0.74932977
   0.25061351  0.50008212  0.74980775
   0.25096184  0.25101163 -0.00181562
   0.50024075  0.25181626  0.24918338
   0.75154681 -0.00233623  0.25074631
   0.74884819  0.25185492 -0.00094050
   0.24883866  0.74900958  0.00024159
   0.24854365  0.24989319  0.50175256
   0.24990694  0.75013742  0.49979212
   0.25028771  0.24982646  0.24969336
   0.25095835  0.00021285 -0.00073290
   0.00008637  0.25063539  0.00009454
   0.74960427  0.24703068  0.24973423
   0.74904027  0.00058908  0.00129906
   0.50247068  0.00173182  0.24997153
   0.00045720  0.49650506  0.24875990
   0.49981899  0.75118967  0.00075960
  -0.00043875  0.00028305  0.75077799
   0.75174585  0.24802653  0.75021164
   0.74836704  0.00312056  0.49870997
   0.50005124  0.24813553  0.49771794
   0.50038116  0.00014260  0.74996641
  -0.00206045  0.00352788  0.24944633
   0.50018452  0.24812052  0.00200804
   0.25199006  0.75014892  0.24957820
   0.24843627  0.49980535 -0.00186726
  -0.00084231  0.74889943 -0.00264595
   0.74818281  0.75231687  0.24719803
   0.75150840  0.50055777  0.00017714
   0.49987229  0.49951209  0.24983045
   0.24776614  0.25068764  0.75030993
   0.25189769  0.00042756  0.50133276
  -0.00102788  0.25017422  0.49995253
   0.24800974  0.74924424  0.75041127
   0.24960299  0.49956341  0.50204838
   0.00154347  0.74970588  0.50300831
   0.00211280  0.49974304  0.75137339
   0.75217006  0.75204502  0.75272055
   0.75023659  0.49669600  0.49983474
   0.49848215  0.75197450  0.49866762
   0.49746517  0.49990976  0.75013697
   0.50043096  0.00154053 -0.00068998
  -0.00062506  0.50231084 -0.00134105
   0.50026501  0.74769951  0.25224425
   0.25027480 -0.00005909  0.74773045
   0.49817588 -0.00273856  0.50065450
   0.74965615 -0.00241068  0.74941558
  -0.00027878  0.75141734  0.25023620
   0.74862751  0.50233780  0.25020774
   0.00138972 -0.00028205  0.49885220
   0.50051980  0.50202849  0.50006666
   0.74964501  0.50184553  0.74988867
   0.75003666  0.74838847  0.49999820
HECN                                    
           1
     8.932565    0.000904    0.000789
     0.000904    8.926136    0.001308
     0.000789    0.001308    8.930505
   Ti   Ta   Hf   N    C    Nb   V 
   7   6   7  13  19   6   6
Direct configuration=     3
  -0.00006875 -0.00119599  0.00070055
   0.24907124 -0.00129255  0.25102845
   0.25062106  0.50133631  0.25011656
   0.50027950  0.49943679 -0.00005100
   0.49927519  0.25066052  0.75060414
  -0.00023135  0.50035842  0.50056748
   0.50025360  0.74934067  0.74897188
  -0.00034355  0.24884110  0.25190016
   0.75132942  0.74839047 -0.00002284
   0.00100067  0.25125814  0.74811541
   0.75172007  0.25147304  0.50067138
  -0.00038806  0.74886749  0.74958012
   0.25038427  0.50005142  0.74987966
   0.25060242  0.25063314 -0.00113686
   0.50015086  0.25113683  0.24948878
   0.75096877 -0.00146221  0.25046724
   0.74927863  0.25116094 -0.00058887
   0.24927255  0.74938002  0.00015115
   0.24908789  0.24993320  0.50109741
   0.24994171  0.75008601  0.49986983
   0.25018018  0.24989137  0.24980798
   0.25060024  0.00013323 -0.00045889
   0.00005414  0.25039773  0.00005926
   0.74975196  0.24814131  0.24983331
   0.74939898  0.00036879  0.00081351
   0.50154762  0.00108417  0.24998244
   0.00028611  0.49781227  0.24922315
   0.49988673  0.75074474  0.00047577
  -0.00027476  0.00017722  0.75048721
   0.75109344  0.24876482  0.75013248
   0.74897731  0.00195311  0.49919233
   0.50003187  0.24883275  0.49857077
   0.50023875  0.00008928  0.74997901
  -0.00129040  0.00220811  0.24965347
   0.50011557  0.24882372  0.00125734
   0.25124647  0.75009331  0.24973597
   0.24902044  0.49987792 -0.00116942
  -0.00052778  0.74931085 -0.00165710
   0.74886180  0.75144992  0.24824544
   0.75094485  0.50034924  0.00011105
   0.49991997  0.49969457  0.24989377
   0.24860086  0.25043032  0.75019405
   0.25118872  0.00026785  0.50083474
  -0.00064381  0.25010899  0.49997024
   0.24875337  0.74952687  0.75025740
   0.24975141  0.49972686  0.50128269
   0.00096689  0.74981625  0.50188393
   0.00132342  0.49983939  0.75086015
   0.75135950  0.75128044  0.75170397
   0.75014801  0.49793187  0.49989625
   0.49904933  0.75123575  0.49916572
   0.49841230  0.49994338  0.75008566
   0.50026999  0.00096426 -0.00043193
  -0.00039145  0.50144632 -0.00083964
   0.50016597  0.74856023  0.25140523
   0.25017201 -0.00003716  0.74857877
   0.49885733 -0.00171425  0.50040955
   0.74978448 -0.00150903  0.74963382
  -0.00017452  0.75088720  0.25014802
   0.74914049  0.50146328  0.25013022
   0.00087038 -0.00017657  0.49928127
   0.50032570  0.50126976  0.50004194
   0.74977776  0.50115518  0.74993043
   0.75002289  0.74899128  0.49999874
HECN                                    
           1
     8.866246    0.000930    0.000812
     0.000930    8.859632    0.001346
     0.000812    0.001346    8.864127
   Ti   Ta   Hf   N    C    Nb   V 
   7   6   7  13  19   6   6
Direct configuration=     4
  -0.00007165 -0.00124656  0.00073016
   0.24903203 -0.00134721  0.25107191
   0.25064727  0.50139281  0.25012146
   0.50029131  0.49941297 -0.00005315
   0.49924458  0.25068844  0.75062965
  -0.00024113  0.50037357  0.50059145
   0.50026432  0.74931280  0.74892846
  -0.00035806  0.24879208  0.25198045
   0.75138556  0.74832241 -0.00002380
   0.00104292  0.25131135  0.74803578
   0.75179268  0.25153530  0.50069971
  -0.00040443  0.74881961  0.74956240
   0.25040050  0.50005359  0.74987457
   0.25062786  0.25065991 -0.00118489
   0.50015723  0.25118490  0.24946717
   0.75100968 -0.00152405  0.25048699
   0.74924817  0.25121004 -0.00061375
   0.24924184  0.74935381  0.00015755
   0.24904937  0.24993037  0.50114378
   0.24993925  0.75008965  0.49986433
   0.25018779  0.24988677  0.24979987
   0.25062559  0.00013886 -0.00047828
   0.00005642  0.25041455  0.00006176
   0.74974151  0.24806273  0.24982629
   0.74937359  0.00038438  0.00084787
   0.50161296  0.00113000  0.24998167
   0.00029821  0.49771978  0.24919036
   0.49988194  0.75077623  0.00049586
  -0.00028636  0.00018471  0.75050779
   0.75113961  0.24871259  0.75013808
   0.74893412  0.00203570  0.49915819
   0.50003324  0.24878342  0.49851041
   0.50024883  0.00009305  0.74997812
  -0.00134490  0.00230148  0.24963881
   0.50012045  0.24877397  0.00131046
   0.25129910  0.75009725  0.24972481
   0.24897909  0.49987278 -0.00121881
  -0.00055005  0.74928173 -0.00172708
   0.74881375  0.75151125  0.24817132
   0.75098474  0.50036400  0.00011573
   0.49991659  0.49968166  0.24988929
   0.24854178  0.25044853  0.75020225
   0.25123890  0.00027915  0.50086999
  -0.00067100  0.25011360  0.49996898
   0.24870073  0.74950687  0.75026828
   0.24974091  0.49971530  0.50133688
   0.00100770  0.74980845  0.50196351
   0.00137929  0.49983258  0.75089648
   0.75141688  0.75133455  0.75177592
   0.75015427  0.49784443  0.49989189
   0.49900919  0.75128802  0.49913047
   0.49834526  0.49994100  0.75008929
   0.50028138  0.00100503 -0.00045019
  -0.00040798  0.50150749 -0.00087512
   0.50017298  0.74849933  0.25146461
   0.25017928 -0.00003872  0.74851874
   0.49880910 -0.00178673  0.50042688
   0.74977539 -0.00157283  0.74961837
  -0.00018190  0.75092471  0.25015426
   0.74910419  0.50152515  0.25013571
   0.00090714 -0.00018403  0.49925090
   0.50033944  0.50132345  0.50004369
   0.74976837  0.50120402  0.74992748
   0.75002386  0.74894863  0.49999870
HECN                                    
           1
     8.838436    0.000941    0.000821
     0.000941    8.831744    0.001362
     0.000821    0.001362    8.836291
   Ti   Ta   Hf   N    C    Nb   V 
   7   6   7  13  19   6   6
Direct configuration=     5
  -0.00007287 -0.00126793  0.00074266
   0.24901546 -0.00137030  0.25109028
   0.25065835  0.50141667  0.25012353
   0.50029629  0.49940291 -0.00005406
   0.49923164  0.25070024  0.75064043
  -0.00024526  0.50037997  0.50060157
   0.50026885  0.74930102  0.74891011
  -0.00036419  0.24877137  0.25201436
   0.75140928  0.74829365 -0.00002420
   0.00106078  0.25133383  0.74800214
   0.75182335  0.25156161  0.50071168
  -0.00041135  0.74879938  0.74955491
   0.25040735  0.50005451  0.74987242
   0.25063861  0.25067123 -0.00120518
   0.50015991  0.25120521  0.24945804
   0.75102697 -0.00155017  0.25049533
   0.74923529  0.25123079 -0.00062426
   0.24922886  0.74934273  0.00016025
   0.24903310  0.24992918  0.50116336
   0.24993821  0.75009119  0.49986200
   0.25019101  0.24988483  0.24979644
   0.25063630  0.00014124 -0.00048647
   0.00005739  0.25042165  0.00006281
   0.74973709  0.24802953  0.24982332
   0.74936287  0.00039096  0.00086239
   0.50164056  0.00114936  0.24998135
   0.00030333  0.49768070  0.24917651
   0.49987991  0.75078953  0.00050434
  -0.00029127  0.00018787  0.75051649
   0.75115912  0.24869052  0.75014044
   0.74891587  0.00207060  0.49914377
   0.50003382  0.24876257  0.49848491
   0.50025309  0.00009464  0.74997774
  -0.00136792  0.00234093  0.24963262
   0.50012251  0.24875295  0.00133291
   0.25132134  0.75009891  0.24972009
   0.24896162  0.49987061 -0.00123967
  -0.00055945  0.74926943 -0.00175665
   0.74879344  0.75153716  0.24814000
   0.75100160  0.50037023  0.00011771
   0.49991517  0.49967621  0.24988740
   0.24851682  0.25045622  0.75020571
   0.25126010  0.00028393  0.50088488
  -0.00068248  0.25011555  0.49996845
   0.24867850  0.74949842  0.75027288
   0.24973647  0.49971041  0.50135977
   0.00102495  0.74980515  0.50199713
   0.00140290  0.49982970  0.75091182
   0.75144112  0.75135740  0.75180632
   0.75015692  0.49780748  0.49989005
   0.49899223  0.75131010  0.49911558
   0.49831694  0.49993999  0.75009082
   0.50028620  0.00102226 -0.00045790
  -0.00041496  0.50153333 -0.00089011
   0.50017594  0.74847361  0.25148969
   0.25018235 -0.00003937  0.74849337
   0.49878872 -0.00181735  0.50043420
   0.74977155 -0.00159978  0.74961184
  -0.00018501  0.75094056  0.25015690
   0.74908885  0.50155129  0.25013803
   0.00092267 -0.00018718  0.49923807
   0.50034524  0.50134613  0.50004443
   0.74976440  0.50122466  0.74992623
   0.75002427  0.74893061  0.49999869
HECN                                    
           1
     8.811237    0.013670   -0.005826
     0.013656    8.835462    0.003843
    -0.005823    0.003852    8.805320
   Ti   Ta   Hf   N    C    Nb   V 
   7   6   7  13  19   6   6
Direct configuration=     6
  -0.00027899 -0.00459491  0.00371330
   0.24602197 -0.00431134  0.25275812
   0.25248557  0.50501182  0.25109043
   0.50228997  0.49746275 -0.00077184
   0.49780326  0.25225438  0.75130922
  -0.00241616  0.50234728  0.50026307
   0.50283544  0.74696588  0.74577836
  -0.00062935  0.24533121  0.25749314
   0.75297138  0.74450471  0.00024053
   0.00163920  0.25261572  0.74349559
   0.75453632  0.25654306  0.50348203
  -0.00378361  0.74762060  0.74691281
   0.25473954  0.49917823  0.74888663
   0.24995887  0.24772502 -0.00020334
   0.49959413  0.25475662  0.25044052
   0.75435168 -0.00603366  0.25280726
   0.74924916  0.25281714 -0.00351849
   0.24952800  0.75163022  0.00236601
   0.24886007  0.25016549  0.49991507
   0.24845058  0.74979918  0.49762486
   0.24834327  0.24964776  0.24957528
   0.24799040 -0.00009166  0.00249140
   0.00037493  0.24776199  0.00057521
   0.75109782  0.25086137  0.25151830
   0.75236068 -0.00082434  0.00062478
   0.49892213  0.00130335  0.25039783
  -0.00064821  0.49856410  0.25165411
   0.50155098  0.74799707 -0.00273471
  -0.00147301  0.00040215  0.75031999
   0.74876591  0.25104296  0.74820683
   0.75198695  0.00058553  0.49966210
   0.50244881  0.25097495  0.50206674
   0.50102450 -0.00008581  0.74939388
   0.00338406 -0.00003615  0.25058733
   0.50046763  0.25083909 -0.00333076
   0.24801342  0.75014174  0.24958094
   0.25042308  0.50030655  0.00193245
  -0.00299294  0.75207685  0.00153961
   0.75276249  0.74491646  0.25216110
   0.74880480  0.50356834  0.00038621
   0.50161595  0.50250671  0.25163501
   0.25107325  0.25025989  0.75015205
   0.24798184  0.00030560  0.49822938
  -0.00333603  0.24936854  0.49958032
   0.25133366  0.74980913  0.75035534
   0.25062669  0.49948881  0.49816134
  -0.00641455  0.75084650  0.49845539
  -0.00344770  0.49975330  0.74805913
   0.74812033  0.74772189  0.74755219
   0.74878666  0.50169277  0.49977940
   0.50611625  0.74745020  0.50271126
   0.50305039  0.50017865  0.74811399
   0.50095669  0.00471990 -0.00297548
  -0.00294815  0.50542960 -0.00048166
   0.50111364  0.74320649  0.25517722
   0.25097829  0.00092204  0.74660378
   0.49620940 -0.00734101  0.50268689
   0.74818523 -0.00631458  0.74815679
  -0.00118005  0.75487937  0.25107052
   0.74534748  0.50645661  0.25081059
   0.00325271 -0.00009175  0.49582738
   0.50324754  0.50623126  0.50025213
   0.74720857  0.50572940  0.74966882
   0.75030786  0.74504965  0.49972694
HECN                                    
           1
     8.797374    0.020158   -0.009214
     0.020137    8.837357    0.005108
    -0.009209    0.005121    8.789534
   Ti   Ta   Hf   N    C    Nb   V 
   7   6   7  13  19   6   6
Direct configuration=     7
  -0.00038078 -0.00629030  0.00523321
   0.24449423 -0.00580784  0.25361050
   0.25341754  0.50684207  0.25158519
   0.50331046  0.49647286 -0.00113794
   0.49707205  0.25304717  0.75165053
  -0.00352770  0.50335129  0.50008880
   0.50414822  0.74577467  0.74417777
  -0.00076029  0.24357784  0.26029599
   0.75377296  0.74257305  0.00037709
   0.00193226  0.25326907  0.74119048
   0.75592084  0.25907873  0.50489942
  -0.00550797  0.74702287  0.74556022
   0.25695481  0.49872870  0.74838419
   0.24961388  0.24622428  0.00030928
   0.49930262  0.25656636  0.25094234
   0.75605576 -0.00832080  0.25399176
   0.74925397  0.25362581 -0.00499913
   0.24968011  0.75279516  0.00349407
   0.24877095  0.25028620  0.49927645
   0.24768933  0.74965182  0.49648001
   0.24739863  0.24952837  0.24946147
   0.24663890 -0.00020880  0.00401362
   0.00053944  0.24640658  0.00083782
   0.75179213  0.25230295  0.25238541
   0.75389424 -0.00144571  0.00050457
   0.49753226  0.00138375  0.25060979
  -0.00113442  0.49901454  0.25292094
   0.50240619  0.74657354 -0.00439048
  -0.00207746  0.00051223  0.75021900
   0.74753980  0.25224358  0.74721650
   0.75355845 -0.00017345  0.49992863
   0.50368333  0.25209986  0.50389950
   0.50141882 -0.00017824  0.74909556
   0.00581583 -0.00125092  0.25107785
   0.50064076  0.25190241 -0.00571644
   0.24632203  0.75016602  0.24950848
   0.25117121  0.50052713  0.00355553
  -0.00423795  0.75350855  0.00322433
   0.75479825  0.74153968  0.25422043
   0.74767934  0.50519937  0.00052225
   0.50248414  0.50394735  0.25252918
   0.25238045  0.25015799  0.75012562
   0.24630466  0.00031944  0.49686980
  -0.00469237  0.24898994  0.49938088
   0.25269102  0.74996546  0.75039850
   0.25108079  0.49937570  0.49652569
  -0.01022043  0.75138307  0.49664073
  -0.00592882  0.49971836  0.74659809
   0.74642347  0.74587265  0.74537541
   0.74808316  0.50367337  0.49972171
   0.50976293  0.74547779  0.50455379
   0.50546962  0.50029705  0.74710462
   0.50129582  0.00660373 -0.00426351
  -0.00424606  0.50741657 -0.00027427
   0.50159837  0.74052166  0.25706455
   0.25138380  0.00141157  0.74563741
   0.49489554 -0.01015376  0.50383896
   0.74737706 -0.00871540  0.74741259
  -0.00169134  0.75688681  0.25153690
   0.74343120  0.50895854  0.25115246
   0.00444266 -0.00004436  0.49408367
   0.50472795  0.50871809  0.50035879
   0.74589839  0.50802650  0.74953551
   0.75045561  0.74307212  0.49958861
HECN                                    
           1
     8.842688    0.011174   -0.008226
     0.011043    8.910757   -0.000139
    -0.008196   -0.000085    8.852967
   Ti   Ta   Hf   N    C    Nb   V 
   7   6   7  13  19   6   6
Direct configuration=     8
  -0.00146207 -0.00856741  0.00897351
   0.24322143 -0.00733904  0.25557001
   0.25459573  0.50839412  0.25131837
   0.50316564  0.49575950 -0.00215996
   0.49561719  0.25382433  0.75022936
  -0.00502357  0.50433804  0.49837646
   0.50558658  0.74366702  0.74348284
  -0.00164236  0.24198396  0.26084525
   0.75057609  0.74393454  0.00167040
   0.00331604  0.25449733  0.74034832
   0.75273501  0.26367139  0.50587760
  -0.00650697  0.74653691  0.74437574
   0.25821260  0.49946806  0.74881216
   0.24661244  0.24804537  0.00097774
   0.50127548  0.25664421  0.25207153
   0.75556771 -0.01050861  0.25554478
   0.75201974  0.25443711 -0.00633338
   0.25092483  0.75151387  0.00068635
   0.24916987  0.25106953  0.49852068
   0.24592004  0.74869870  0.49957118
   0.24711054  0.24969940  0.24969231
   0.24560733 -0.00071805  0.00556655
  -0.00026318  0.24535552  0.00105926
   0.75249122  0.25233068  0.25318288
   0.75499522 -0.00167683  0.00057895
   0.49761953  0.00162592  0.25048235
  -0.00195381  0.49819263  0.25329847
   0.50351441  0.74701997 -0.00466249
  -0.00303523  0.00121887  0.75019792
   0.74709263  0.25245881  0.74664775
   0.75412630  0.00020728  0.50100799
   0.50573054  0.25169798  0.50452459
   0.50091109 -0.00075725  0.74832228
   0.00617342 -0.00338764  0.25180732
   0.50090570  0.25304916 -0.00515037
   0.24564197  0.74959619  0.25035762
   0.25103629  0.50104850  0.00418129
  -0.00306973  0.75440770  0.00340370
   0.75620296  0.73843138  0.25544594
   0.74668930  0.50334680  0.00100297
   0.50303851  0.50308833  0.25342597
   0.25325371  0.25084961  0.74988252
   0.24519388 -0.00095024  0.49571256
  -0.00216194  0.24923006  0.50006502
   0.25264573  0.74974426  0.74966369
   0.25170735  0.50030025  0.49563047
  -0.01199143  0.75266833  0.49487410
  -0.00657064  0.49962512  0.74597622
   0.74526398  0.74347235  0.74426610
   0.74772454  0.50581241  0.49946626
   0.50949593  0.74354268  0.50502867
   0.50731301  0.50013953  0.74597446
   0.50328065  0.00858378 -0.00663640
  -0.00299246  0.50745860  0.00086367
   0.50451505  0.74190115  0.25832833
   0.25291074  0.00086280  0.74420994
   0.49287294 -0.01358047  0.50486562
   0.74596434 -0.01324114  0.74717158
  -0.00227316  0.76071410  0.25291032
   0.73985888  0.51237975  0.25185658
   0.00755943 -0.00001794  0.48919633
   0.50837858  0.51278579  0.50060164
   0.74302308  0.51441482  0.74901289
   0.75058205  0.73700079  0.49794794
HECN                                    
           1
     8.836676    0.012366   -0.008357
     0.012249    8.901019    0.000557
    -0.008330    0.000606    8.844551
   Ti   Ta   Hf   N    C    Nb   V 
   7   6   7  13  19   6   6
Direct configuration=     9
  -0.00131897 -0.00826793  0.00848098
   0.24338968 -0.00713754  0.25531199
   0.25443999  0.50818976  0.25135341
   0.50318484  0.49585347 -0.00202528
   0.49580910  0.25372237  0.75041648
  -0.00482629  0.50420854  0.49860192
   0.50539700  0.74394421  0.74357457
  -0.00152570  0.24219376  0.26077301
   0.75099790  0.74375572  0.00149988
   0.00313320  0.25433559  0.74045918
   0.75315490  0.26306743  0.50574834
  -0.00637506  0.74660108  0.74453179
   0.25804648  0.49937058  0.74875574
   0.24700837  0.24780610  0.00088950
   0.50101508  0.25663362  0.25192281
   0.75563246 -0.01022079  0.25534038
   0.75165454  0.25433009 -0.00615765
   0.25076067  0.75168252  0.00105632
   0.24911709  0.25096646  0.49862018
   0.24615376  0.74882412  0.49916404
   0.24714855  0.24967691  0.24966188
   0.24574359 -0.00065102  0.00536201
  -0.00015709  0.24549391  0.00103016
   0.75239896  0.25232687  0.25307784
   0.75484993 -0.00164658  0.00056919
   0.49760797  0.00159405  0.25049912
  -0.00184553  0.49830086  0.25324879
   0.50336807  0.74696110 -0.00462668
  -0.00290891  0.00112602  0.75020063
   0.74715161  0.25243059  0.74672264
   0.75405131  0.00015702  0.50086579
   0.50546039  0.25175054  0.50444231
   0.50097817 -0.00068094  0.74842418
   0.00612652 -0.00310659  0.25171140
   0.50087058  0.25289819 -0.00522502
   0.24573183  0.74967120  0.25024580
   0.25105404  0.50097987  0.00409882
  -0.00322405  0.75428922  0.00338002
   0.75601799  0.73884010  0.25528478
   0.74682024  0.50359066  0.00093978
   0.50296547  0.50320121  0.25330792
   0.25313835  0.25075851  0.74991450
   0.24534065 -0.00078294  0.49586508
  -0.00249597  0.24919807  0.49997492
   0.25265172  0.74977343  0.74976050
   0.25162451  0.50017858  0.49574833
  -0.01175787  0.75249959  0.49510668
  -0.00648592  0.49963752  0.74605813
   0.74541734  0.74378843  0.74441240
   0.74777158  0.50553102  0.49949973
   0.50953145  0.74379730  0.50496627
   0.50706969  0.50016010  0.74612337
   0.50301835  0.00832316 -0.00632396
  -0.00315792  0.50745282  0.00071379
   0.50412989  0.74171914  0.25816180
   0.25270924  0.00093491  0.74439804
   0.49314041 -0.01312939  0.50473062
   0.74615143 -0.01264542  0.74720367
  -0.00219687  0.76021047  0.25272910
   0.74032995  0.51193000  0.25176350
   0.00714795 -0.00002146  0.48984016
   0.50789616  0.51225004  0.50056939
   0.74340172  0.51357465  0.74908119
   0.75056617  0.73779978  0.49816453
HECN                                    
           1
     8.791618    0.000838   -0.004837
     0.000604    8.877367   -0.004198
    -0.004796   -0.004112    8.805328
   Ti   Ta   Hf   N    C    Nb   V 
   7   6   7  13  19   6   6
Direct configuration=    10
  -0.00253885 -0.01012884  0.01282641
   0.24328922 -0.00890479  0.25677001
   0.25603288  0.50968692  0.25147471
   0.50255507  0.49501838 -0.00274157
   0.49437448  0.25438413  0.74903913
  -0.00598190  0.50466957  0.49638326
   0.50604141  0.74235811  0.74351084
  -0.00234117  0.24086444  0.26058670
   0.74805655  0.74499660  0.00309082
   0.00508132  0.25585918  0.74026897
   0.75048334  0.26844998  0.50659349
  -0.00708674  0.74628469  0.74375984
   0.25811695  0.49998955  0.74851156
   0.24445512  0.24994814  0.00141445
   0.50328837  0.25521405  0.25249376
   0.75385397 -0.01137648  0.25722539
   0.75414014  0.25447648 -0.00740919
   0.25273067  0.75036100 -0.00105404
   0.25080070  0.25208455  0.49834876
   0.24422304  0.74729586  0.50123480
   0.24753541  0.24991959  0.24987473
   0.24590672 -0.00078780  0.00584667
  -0.00096114  0.24505261  0.00121947
   0.75277669  0.25090781  0.25363921
   0.75496887 -0.00142542  0.00071278
   0.49882313  0.00175990  0.25021575
  -0.00238930  0.49625779  0.25248079
   0.50397679  0.74878833 -0.00393253
  -0.00409759  0.00192197  0.75021564
   0.74781309  0.25110478  0.74636730
   0.75328002  0.00194606  0.50246578
   0.50705330  0.25012509  0.50370302
   0.50020618 -0.00148382  0.74750575
   0.00426226 -0.00434504  0.25219750
   0.50096304  0.25302327 -0.00315981
   0.24634831  0.74896556  0.25085993
   0.25037543  0.50140367  0.00365084
  -0.00208895  0.75368003  0.00216227
   0.75655155  0.73828578  0.25501074
   0.74677411  0.50190393  0.00143912
   0.50304978  0.50230141  0.25366686
   0.25306339  0.25152694  0.74969438
   0.24527023 -0.00183269  0.49595106
  -0.00110508  0.24960222  0.50050053
   0.25136906  0.74944737  0.74937777
   0.25214791  0.50101820  0.49597898
  -0.01107690  0.75383468  0.49478639
  -0.00576756  0.49979580  0.74650555
   0.74555997  0.74273951  0.74498771
   0.74817050  0.50632181  0.49922214
   0.50669139  0.74344358  0.50417851
   0.50729428  0.49981915  0.74564908
   0.50514135  0.01042568 -0.00868748
  -0.00150751  0.50722817  0.00174590
   0.50615961  0.74442061  0.25886687
   0.25409831  0.00070496  0.74365666
   0.49136519 -0.01594935  0.50527806
   0.74485179 -0.01789590  0.74759810
  -0.00243865  0.76425665  0.25487754
   0.73641947  0.51414727  0.25253819
   0.01064046 -0.00060469  0.48405829
   0.51129543  0.51584934  0.50077373
   0.74072097  0.52086218  0.74840018
   0.75093481  0.73000215  0.49559261
HECN                                    
           1
     8.805194    0.004312   -0.005898
     0.004113    8.884494   -0.002765
    -0.005861   -0.002690    8.817146
   Ti   Ta   Hf   N    C    Nb   V 
   7   6   7  13  19   6   6
Direct configuration=    11
  -0.00216814 -0.00956687  0.01151144
   0.24332052 -0.00837109  0.25632902
   0.25554990  0.50923398  0.25143795
   0.50274604  0.49527102 -0.00252473
   0.49480852  0.25418499  0.74945570
  -0.00563238  0.50453110  0.49705451
   0.50584688  0.74283704  0.74353046
  -0.00209370  0.24126639  0.26064320
   0.74894703  0.74462262  0.00260877
   0.00449071  0.25539817  0.74032652
   0.75129037  0.26682479  0.50633651
  -0.00687117  0.74638068  0.74399344
   0.25809533  0.49980256  0.74858537
   0.24522757  0.24930193  0.00125492
   0.50260055  0.25564193  0.25232147
   0.75439327 -0.01102695  0.25665488
   0.75338717  0.25443148 -0.00703015
   0.25213433  0.75075981 -0.00041490
   0.25029034  0.25174615  0.49843092
   0.24480862  0.74775798  0.50060811
   0.24741818  0.24984609  0.24981032
   0.24585743 -0.00074662  0.00570003
  -0.00071744  0.24518622  0.00116215
   0.75266293  0.25133628  0.25346959
   0.75493278 -0.00149230  0.00066930
   0.49845502  0.00170937  0.25030163
  -0.00222390  0.49687535  0.25271349
   0.50379179  0.74823596 -0.00414284
  -0.00373792  0.00168197  0.75021082
   0.74761325  0.25150511  0.74647514
   0.75351308  0.00140562  0.50198117
   0.50657145  0.25061564  0.50392722
   0.50044019 -0.00124081  0.74778375
   0.00482740 -0.00397025  0.25205037
   0.50093524  0.25298511 -0.00378485
   0.24616197  0.74917840  0.25067426
   0.25058072  0.50127597  0.00378627
  -0.00243262  0.75386382  0.00253105
   0.75639015  0.73845308  0.25509383
   0.74678881  0.50241344  0.00128826
   0.50302465  0.50257316  0.25355839
   0.25308576  0.25129486  0.74976087
   0.24529199 -0.00151554  0.49592520
  -0.00152641  0.24947950  0.50034156
   0.25175760  0.74954644  0.74949350
   0.25198909  0.50076430  0.49590910
  -0.01128370  0.75343112  0.49488319
  -0.00598513  0.49974763  0.74637020
   0.74551726  0.74305625  0.74481379
   0.74804934  0.50608280  0.49930607
   0.50755154  0.74355168  0.50441664
   0.50722635  0.49992214  0.74579271
   0.50449728  0.00979005 -0.00797226
  -0.00200712  0.50729522  0.00143377
   0.50554392  0.74360357  0.25865328
   0.25367764  0.00077400  0.74388124
   0.49190400 -0.01509682  0.50511263
   0.74524753 -0.01630925  0.74747943
  -0.00236679  0.76303402  0.25422664
   0.73760295  0.51347882  0.25230291
   0.00958229 -0.00042893  0.48580866
   0.51026455  0.51476061  0.50071171
   0.74152983  0.51866173  0.74860477
   0.75082597  0.73235813  0.49637231
HECN                                    
           1
     8.815199    0.004264   -0.006454
     0.004064    8.895996   -0.001650
    -0.006429   -0.001589    8.811114
   Ti   Ta   Hf   N    C    Nb   V 
   7   6   7  13  19   6   6
Direct configuration=    12
  -0.00210301 -0.00951252  0.01261610
   0.24450463 -0.00893006  0.25557290
   0.25660552  0.50940343  0.25207151