       N       E                     dE             d eps       ncg     rms          rms(c)
DAV:   1    -0.560988730384E+03   -0.56099E+03   -0.33256E+03 99344   0.203E+02
RMM:   2    -0.625294433374E+03   -0.64306E+02   -0.64192E+02135244   0.663E+01
RMM:   3    -0.637361230138E+03   -0.12067E+02   -0.11454E+02142515   0.287E+01
RMM:   4    -0.643076341234E+03   -0.57151E+01   -0.55442E+01143360   0.158E+01
RMM:   5    -0.646155827100E+03   -0.30795E+01   -0.29168E+01146506   0.107E+01
RMM:   6    -0.648171318210E+03   -0.20155E+01   -0.19397E+01148775   0.758E+00
RMM:   7    -0.649458061638E+03   -0.12867E+01   -0.12480E+01148741   0.597E+00
RMM:   8    -0.650368493138E+03   -0.91043E+00   -0.90513E+00148757   0.507E+00
RMM:   9    -0.651001435722E+03   -0.63294E+00   -0.63839E+00148677   0.447E+00
RMM:  10    -0.651472780109E+03   -0.47134E+00   -0.48533E+00148438   0.398E+00
RMM:  11    -0.651816793001E+03   -0.34401E+00   -0.35921E+00148112   0.363E+00
RMM:  12    -0.652084942067E+03   -0.26815E+00   -0.28525E+00147599   0.332E+00
RMM:  13    -0.652287646397E+03   -0.20270E+00   -0.21884E+00147024   0.309E+00
RMM:  14    -0.652451240247E+03   -0.16359E+00   -0.17958E+00146288   0.288E+00
RMM:  15    -0.652578863606E+03   -0.12762E+00   -0.14236E+00145295   0.272E+00
RMM:  16    -0.652684168204E+03   -0.10530E+00   -0.11940E+00144528   0.257E+00
RMM:  17    -0.652768859677E+03   -0.84691E-01   -0.97739E-01143890   0.244E+00
RMM:  18    -0.652839630222E+03   -0.70771E-01   -0.83154E-01143081   0.233E+00
RMM:  19    -0.652898315948E+03   -0.58686E-01   -0.70293E-01142415   0.223E+00
RMM:  20    -0.652947643391E+03   -0.49327E-01   -0.60371E-01141641   0.215E+00
RMM:  21    -0.652989850959E+03   -0.42208E-01   -0.52695E-01141051   0.207E+00
RMM:  22    -0.653025344557E+03   -0.35494E-01   -0.45527E-01140421   0.200E+00
RMM:  23    -0.653056696817E+03   -0.31352E-01   -0.40992E-01139871   0.194E+00
RMM:  24    -0.653082952488E+03   -0.26256E-01   -0.35534E-01139354   0.188E+00
RMM:  25    -0.653106891830E+03   -0.23939E-01   -0.32939E-01138926   0.183E+00
RMM:  26    -0.653126774205E+03   -0.19882E-01   -0.28593E-01138509   0.179E+00
RMM:  27    -0.653145489293E+03   -0.18715E-01   -0.27229E-01138196   0.174E+00
RMM:  28    -0.653160852584E+03   -0.15363E-01   -0.23645E-01137815   0.170E+00
RMM:  29    -0.653175778211E+03   -0.14926E-01   -0.23070E-01137576   0.167E+00
RMM:  30    -0.653187851077E+03   -0.12073E-01   -0.20028E-01137233   0.163E+00
RMM:  31    -0.653199962841E+03   -0.12112E-01   -0.19972E-01136947   0.160E+00
RMM:  32    -0.653209598861E+03   -0.96360E-02   -0.17342E-01136666   0.158E+00
RMM:  33    -0.653219552962E+03   -0.99541E-02   -0.17595E-01136454   0.155E+00
RMM:  34    -0.653227309795E+03   -0.77568E-02   -0.15273E-01136224   0.153E+00
RMM:  35    -0.653235572370E+03   -0.82626E-02   -0.15737E-01136075   0.150E+00
RMM:  36    -0.653241856503E+03   -0.62841E-02   -0.13655E-01135903   0.148E+00
RMM:  37    -0.653248759503E+03   -0.69030E-02   -0.14249E-01135736   0.146E+00
RMM:  38    -0.653253858279E+03   -0.50988E-02   -0.12359E-01135535   0.145E+00
RMM:  39    -0.653259631362E+03   -0.57731E-02   -0.13022E-01135329   0.143E+00
RMM:  40    -0.653263745894E+03   -0.41145E-02   -0.11293E-01135104   0.142E+00
RMM:  41    -0.653268557200E+03   -0.48113E-02   -0.11989E-01134884   0.140E+00
RMM:  42    -0.653271839999E+03   -0.32828E-02   -0.10402E-01134699   0.139E+00
RMM:  43    -0.653275802688E+03   -0.39627E-02   -0.11091E-01134491   0.138E+00
RMM:  44    -0.653278338954E+03   -0.25363E-02   -0.96156E-02134347   0.137E+00
RMM:  45    -0.653281551370E+03   -0.32124E-02   -0.10306E-01134162   0.136E+00
RMM:  46    -0.653283424229E+03   -0.18729E-02   -0.89280E-02133966   0.135E+00
RMM:  47    -0.653285946901E+03   -0.25227E-02   -0.95971E-02133803   0.134E+00
RMM:  48    -0.653287211145E+03   -0.12642E-02   -0.83087E-02133598   0.134E+00
RMM:  49    -0.653289086793E+03   -0.18756E-02   -0.89444E-02133377   0.133E+00
RMM:  50    -0.653289785830E+03   -0.69904E-03   -0.77454E-02133151   0.132E+00
RMM:  51    -0.653291050159E+03   -0.12643E-02   -0.83392E-02132887   0.132E+00
RMM:  52    -0.653291201949E+03   -0.15179E-03   -0.72108E-02132657   0.131E+00
RMM:  53    -0.653291878962E+03   -0.67701E-03   -0.77685E-02132392   0.131E+00
RMM:  54    -0.653291498308E+03    0.38065E-03   -0.67014E-02132151   0.130E+00
RMM:  55    -0.653291608983E+03   -0.11067E-03   -0.72285E-02131896   0.130E+00
RMM:  56    -0.653290720001E+03    0.88898E-03   -0.62252E-02131587   0.130E+00
RMM:  57    -0.653290274005E+03    0.44600E-03   -0.67073E-02131231   0.129E+00
RMM:  58    -0.653288866410E+03    0.14076E-02   -0.57478E-02130918   0.129E+00
RMM:  59    -0.653287858707E+03    0.10077E-02   -0.61904E-02130537   0.129E+00
RMM:  60    -0.653285936384E+03    0.19223E-02   -0.52835E-02130106   0.129E+00
   1 F= -.65328594E+03 E0= -.65328594E+03  d E =0.000000E+00
