HEBCN                                   
           1
     8.963221    0.013325   -0.013291
     0.019309    8.992279   -0.023307
     0.018939   -0.038659    8.986136
   Hf   Nb   Zr   N    C    Cr   Ta
     7     6     7    13    19     6     6
Direct configuration=     1
   0.99788660  0.99353413  0.99378316
   0.26246545  0.99658901  0.25528298
   0.24373700  0.50004432  0.24532877
   0.49871619  0.50085396  0.99765038
   0.50454281  0.24455275  0.74280518
   0.99917412  0.50047482  0.50469564
   0.49863580  0.75788148  0.74681921
   0.99390872  0.23548157  0.26119476
   0.74978898  0.74728072  0.00213515
   0.00301066  0.24694301  0.73959626
   0.75623440  0.25589193  0.49988864
   0.00099639  0.74882233  0.75429608
   0.24606723  0.49494900  0.75387639
   0.24740621  0.24185602  0.99554333
   0.50414820  0.25316564  0.25105549
   0.73572629  0.99286962  0.25501981
   0.75385526  0.25107402  0.99381069
   0.25697606  0.75685134  0.99936717
   0.25185599  0.24927842  0.50202310
   0.24933669  0.75055923  0.50252591
   0.24735771  0.24730112  0.24828918
   0.24580175  0.00061996  0.00627096
   0.00073975  0.24208519  0.99997165
   0.75351307  0.25195351  0.25058174
   0.74577829  0.99645995  0.99445960
   0.49679221  0.99742674  0.27950014
   0.99512739  0.49775281  0.24834445
   0.50675192  0.76092803  0.99630884
   0.98639979  0.00189223  0.74730562
   0.75257744  0.25778195  0.74406074
   0.75626755  0.00154844  0.50822541
   0.50640444  0.25080657  0.50194481
   0.53089944  0.99933726  0.73734737
   0.99854312  0.99678892  0.25187366
   0.50290973  0.23894329  0.99423776
   0.25104994  0.74875630  0.25020198
   0.24240821  0.50133230  0.99715459
   0.99848956  0.74571420  0.00189927
   0.74492905  0.74494872  0.25132140
   0.75924018  0.50428197  0.00037654
   0.50258138  0.50520847  0.25131063
   0.24942524  0.24354148  0.74890998
   0.25237718  0.99958707  0.51181723
   0.99912630  0.24845256  0.50134540
   0.24475165  0.75909121  0.75167788
   0.25315059  0.49978838  0.49836749
   0.99322090  0.75345111  0.50079794
   0.99832963  0.49946697  0.75725400
   0.75102170  0.75261882  0.75137348
   0.74793935  0.50294860  0.49864934
   0.50235671  0.76015195  0.49400389
   0.50316352  0.50102300  0.74521718
   0.52621422  0.01117092  0.95330123
   0.00411752  0.52430148  0.98108864
   0.50240518  0.73434803  0.26638257
   0.22497381  0.00901140  0.73486874
   0.47368958  0.98549252  0.52363921
   0.74190860  0.96632674  0.77216640
   0.00044319  0.75865614  0.25030982
   0.74893552  0.50628481  0.24839164
   0.00348576  0.00208080  0.50529415
   0.49908017  0.51054143  0.49822670
   0.75185750  0.51163770  0.75255638
   0.74899560  0.74920538  0.49667641
