HECN                                    
           1
     8.932500    0.000000    0.000000
     0.005753    9.055598    0.000000
     0.032102   -0.015743    8.937128
   Zr   Nb   V    N    C    Mo   Ta
     7     6     7    13    19     6     6
Direct configuration=     1
   0.99688001  0.99204997  0.99924002
   0.25398003  0.99714995  0.24912000
   0.24803003  0.50165000  0.24955001
   0.50501006  0.49745998  0.99834003
   0.50479003  0.24631001  0.74710002
   0.99427992  0.50449999  0.49779000
   0.49950005  0.75481999  0.74817004
   0.99437004  0.23617001  0.26379999
   0.75718000  0.74102998  0.01100000
   0.00201000  0.25541000  0.73894001
   0.75307001  0.26163001  0.50533002
   0.99514004  0.74492004  0.74511997
   0.25679999  0.49462002  0.74545002
   0.24788999  0.24839000  0.99657997
   0.50833000  0.25676999  0.25376001
   0.74879004  0.98787999  0.26967001
   0.75719000  0.25603001  0.99591997
   0.24762001  0.74973999  0.99974006
   0.25272001  0.24823001  0.50015003
   0.24457999  0.75048999  0.49983999
   0.24982001  0.24942998  0.24825000
   0.26146999  0.99984002  0.99295996
   0.00281000  0.25024000  0.00130000
   0.75313998  0.24617000  0.25492002
   0.74767001  0.99748000  0.01202000
   0.50714994  0.99977000  0.24673000
   0.99051999  0.48088002  0.24100998
   0.50519005  0.76130999  0.00855000
   0.98896989  0.00202000  0.73708999
   0.75744996  0.24437997  0.74896999
   0.73632001  0.00417000  0.51063000
   0.50563996  0.23264999  0.49544997
   0.50008998  0.00061000  0.73471998
   0.99720000  0.99771992  0.25899999
   0.50427997  0.24673000  0.00262000
   0.25133999  0.74958002  0.24910999
   0.24328000  0.50072997  0.99510994
   0.99837005  0.74313996  0.00460000
   0.75633000  0.73891003  0.25767000
   0.75839004  0.50315998  0.00288000
   0.50700002  0.50333002  0.25878999
   0.24900999  0.25315000  0.74854000
   0.24446000  0.99823996  0.50287998
   0.99804009  0.24229999  0.50128003
   0.24177002  0.75340997  0.75018002
   0.25841001  0.50062002  0.50129001
   0.99000004  0.76215003  0.49746000
   0.99203996  0.50055999  0.75138002
   0.75036005  0.74888000  0.74756004
   0.74036002  0.50197000  0.50067003
   0.50575006  0.74958002  0.49720000
   0.50501003  0.50217998  0.73912003
   0.51588997  0.01358000  0.98075008
   0.99841994  0.50976998  0.98613004
   0.50379003  0.73926997  0.25905001
   0.23780002  0.01082000  0.74607998
   0.47957999  0.98308000  0.49717999
   0.74279003  0.97869994  0.76450995
   0.99864998  0.77573999  0.26102000
   0.73551001  0.51468004  0.26666001
   0.02362000  0.99783001  0.49557002
   0.50539000  0.52833005  0.49917999
   0.73876003  0.52828003  0.73814999
   0.75400003  0.72937999  0.49116997
HECN                                    
           1
     8.755250    0.020337    0.012255
     0.026256    8.859393   -0.008833
     0.043690   -0.024054    8.786237
   Zr   Nb   V    N    C    Mo   Ta
     7     6     7    13    19     6     6
Direct configuration=     2
   0.99744271  0.99820365  0.99695589
   0.26326075  0.00180567  0.24486501
   0.24838063  0.49782409  0.24799700
   0.50120539  0.49534458  0.00152634
   0.50290325  0.24325845  0.74763197
   0.00161578  0.49877485  0.49979352
   0.49202993  0.76285027  0.75287134
   0.99299187  0.23575364  0.25933631
   0.75548877  0.74480043  0.01129739
   0.00491939  0.25404898  0.74323952
   0.75047720  0.25689176  0.50131053
   0.00223111  0.74741512  0.74925823
   0.25234797  0.49461641  0.74690596
   0.25058478  0.25089273  0.99299320
   0.50975925  0.25815013  0.25079841
   0.74614991  0.98855711  0.27070250
   0.75309582  0.25733710  0.99559721
   0.24137147  0.74550544  0.99956248
   0.25040568  0.24895982  0.50319408
   0.24628884  0.75037584  0.50028806
   0.25069293  0.24879667  0.24830561
   0.26017118  0.99983770  0.99250856
   0.00260965  0.24921799  0.00071462
   0.74966473  0.24515081  0.25307199
   0.74689337  0.00010166  0.01322449
   0.51129050  0.00053683  0.24746467
   0.99187808  0.48463310  0.24328355
   0.50262391  0.75982361  0.00651330
   0.98988229  0.00203443  0.74025491
   0.75671892  0.24616587  0.75182645
   0.73863016  0.00283640  0.50582550
   0.50259282  0.23483263  0.49193722
   0.49968493  0.00114716  0.73702384
   0.99364392  0.00317797  0.25375926
   0.50476252  0.24525688  0.00676669
   0.25072059  0.74948437  0.24856454
   0.24409351  0.50088809  0.99450091
   0.00348754  0.74331388  0.00347202
   0.75480894  0.75130928  0.25103469
   0.75678538  0.49775429  0.00235302
   0.49942243  0.49637923  0.25445221
   0.24868462  0.25215889  0.74844674
   0.25490530  0.99766344  0.50306064
   0.00196470  0.24478334  0.50097797
   0.24225887  0.75341993  0.75036884
   0.25664932  0.50072016  0.50105433
   0.99841007  0.75805197  0.50074450
   0.99510361  0.50031964  0.75020525
   0.74993178  0.75610218  0.75055257
   0.74601976  0.49538715  0.50198722
   0.49823293  0.75764421  0.49832280
   0.49948690  0.50107173  0.74443931
   0.51820262  0.01682605  0.98202649
   0.00210462  0.50892617  0.98569625
   0.50049970  0.74617922  0.25516481
   0.24124224  0.01339250  0.74794271
   0.48052556  0.98469629  0.49332207
   0.74079456  0.97928898  0.76705770
   0.00266233  0.76198611  0.25376774
   0.74743429  0.49714200  0.25178735
   0.00931246  0.00380209  0.50492944
   0.49155877  0.51263050  0.49948358
   0.74807652  0.50930314  0.74851909
   0.75193008  0.75445917  0.49715974
HECN                                    
           1
     8.789898    0.016362    0.009860
     0.022248    8.897746   -0.007106
     0.041425   -0.022430    8.815733
   Zr   Nb   V    N    C    Mo   Ta
     7     6     7    13    19     6     6
Direct configuration=     3
   0.99733276  0.99697481  0.99740897
   0.26141087  0.00088051  0.24571269
   0.24830847  0.49858899  0.24830666
   0.50196406  0.49576489  0.00089216
   0.50327825  0.24386720  0.74752629
   0.00015061  0.49992174  0.49939835
   0.49352482  0.76124144  0.75193287
   0.99326530  0.23583706  0.26022354
   0.75582792  0.74404624  0.01123703
   0.00433970  0.25432142  0.74238572
   0.75099095  0.25783808  0.50210997
   0.00081923  0.74691904  0.74843688
   0.25323626  0.49461481  0.74661523
   0.25004753  0.25039460  0.99370661
   0.50947404  0.25787560  0.25138739
   0.74667705  0.98842041  0.27049634
   0.75391287  0.25707412  0.99565998
   0.24261560  0.74634870  0.99959690
   0.25086842  0.24881235  0.50258803
   0.24594811  0.75039935  0.50019947
   0.25051856  0.24892360  0.24829493
   0.26043008  0.99983765  0.99259796
   0.00264896  0.24942222  0.00083117
   0.75035682  0.24535321  0.25343867
   0.74704983  0.99957724  0.01298425
   0.51046529  0.00038537  0.24731960
   0.99160963  0.48388340  0.24283111
   0.50313442  0.76011981  0.00691785
   0.98970121  0.00203136  0.73962588
   0.75686634  0.24580815  0.75125793
   0.73816748  0.00310484  0.50678170
   0.50320059  0.23439580  0.49263438
   0.49976660  0.00103920  0.73656554
   0.99435426  0.00208680  0.25479920
   0.50466673  0.24555063  0.00594263
   0.25084393  0.74950330  0.24867284
   0.24393117  0.50085699  0.99462220
   0.00246670  0.74328169  0.00369769
   0.75511631  0.74883242  0.25235108
   0.75710271  0.49883374  0.00245844
   0.50092919  0.49776540  0.25531399
   0.24874902  0.25235679  0.74846539
   0.25282192  0.99778338  0.50302774
   0.00118308  0.24428901  0.50103862
   0.24216143  0.75341813  0.75033143
   0.25700044  0.50069939  0.50110068
   0.99673179  0.75887401  0.50009460
   0.99449217  0.50036930  0.75043973
   0.75002142  0.75465837  0.74995598
   0.74488827  0.49670478  0.50172822
   0.49973623  0.75602928  0.49809583
   0.50058935  0.50128961  0.74338035
   0.51774328  0.01617829  0.98177269
   0.00136924  0.50909654  0.98578370
   0.50115809  0.74479795  0.25593500
   0.24055747  0.01287972  0.74757278
   0.48033668  0.98437453  0.49408909
   0.74119351  0.97916988  0.76655045
   0.00185363  0.76473745  0.25521362
   0.74504379  0.50065453  0.25475137
   0.01217129  0.00260047  0.50306329
   0.49430987  0.51576096  0.49942253
   0.74621239  0.51309709  0.74646380
   0.75235638  0.74944611  0.49596315
HECN                                    
           1
     8.905950    0.020355    0.023440
     0.026554    8.915883   -0.019749
     0.055454   -0.034909    8.950787
   Zr   Nb   V    N    C    Mo   Ta
     7     6     7    13    19     6     6
Direct configuration=     4
   0.99854072  0.00140907  0.99594601
   0.26440130  0.00380031  0.24286013
   0.24757316  0.49489650  0.24636471
   0.49814612  0.49497327  0.00216213
   0.50159220  0.24280273  0.74889569
   0.00470302  0.49693077  0.50138765
   0.48973644  0.76090659  0.75602908
   0.99268537  0.23612319  0.25597916
   0.75503001  0.74629311  0.00863804
   0.00578432  0.25283227  0.74649913
   0.75109751  0.25194583  0.49853083
   0.00490957  0.74774393  0.75301465
   0.24810493  0.49526060  0.74974372
   0.25351348  0.25302530  0.98970617
   0.51167812  0.25981669  0.24793530
   0.74414406  0.98944672  0.27027728
   0.74836656  0.25698600  0.99673178
   0.23635790  0.74121125  0.99978268
   0.24657074  0.24858171  0.50593581
   0.24808330  0.75084144  0.50042006
   0.25115898  0.24816720  0.24833864
   0.25958961  0.00004980  0.99255555
   0.00264327  0.25019758  0.00084115
   0.74622641  0.24500612  0.24973810
   0.74796448  0.00300572  0.01434337
   0.51534186  0.00157340  0.24635399
   0.99304569  0.48986414  0.24401054
   0.49993921  0.75895461  0.00558290
   0.99020743  0.00274733  0.74433429
   0.75639174  0.24897332  0.75411015
   0.74418128  0.00105145  0.50438730
   0.49971283  0.24000962  0.48960836
   0.49855279  0.00326641  0.73799728
   0.99306486  0.99887184  0.25314720
   0.50385355  0.24609201  0.00992236
   0.25093858  0.74991036  0.24786562
   0.24508345  0.50065577  0.99423950
   0.00647839  0.74525303  0.00249983
   0.75247531  0.75337700  0.25176690
   0.75594022  0.49384122  0.00158115
   0.50042717  0.49321613  0.25405792
   0.24932566  0.25207194  0.74832572
   0.24992337  0.99864221  0.50320457
   0.00488780  0.24687837  0.50073078
   0.24237502  0.75364787  0.75031450
   0.25436457  0.50020060  0.50070094
   0.00313537  0.75551623  0.50133846
   0.99903368  0.50025520  0.74951272
   0.74985212  0.75051479  0.75233015
   0.74539632  0.49909714  0.50007588
   0.49341673  0.75210526  0.49928481
   0.49876080  0.50070314  0.74614077
   0.51863993  0.01637737  0.98325291
   0.00408957  0.50743807  0.98747253
   0.50016046  0.74588936  0.25458415
   0.24321266  0.01309820  0.74917828
   0.48507975  0.98719847  0.48838374
   0.73884459  0.98450965  0.77024120
   0.00495087  0.76077675  0.25056918
   0.74885754  0.49466354  0.24817440
   0.00896495  0.00540146  0.50354964
   0.49362280  0.51077803  0.49823584
   0.74958254  0.50627270  0.75369563
   0.74928733  0.75805210  0.49658122
HECN                                    
           1
     8.881476    0.019513    0.020576
     0.025646    8.912059   -0.017083
     0.052496   -0.032277    8.922306
   Zr   Nb   V    N    C    Mo   Ta
     7     6     7    13    19     6     6
Direct configuration=     5
   0.99828929  0.00047637  0.99624894
   0.26377828  0.00318689  0.24345269
   0.24772522  0.49567409  0.24676893
   0.49894110  0.49513917  0.00189739
   0.50194345  0.24302622  0.74861105
   0.00375580  0.49756009  0.50097678
   0.49052620  0.76097556  0.75517719
   0.99280477  0.23606413  0.25686047
   0.75519551  0.74582090  0.00917695
   0.00548478  0.25314463  0.74564565
   0.75107361  0.25318692  0.49927602
   0.00405973  0.74756939  0.75206486
   0.24917401  0.49512334  0.74909212
   0.25279110  0.25247309  0.99053738
   0.51121849  0.25940935  0.24865243
   0.74467131  0.98923056  0.27032168
   0.74952129  0.25700375  0.99650745
   0.23765990  0.74229185  0.99974366
   0.24746628  0.24862892  0.50523919
   0.24763900  0.75074853  0.50037478
   0.25102562  0.24832644  0.24832998
   0.25976455  0.00000509  0.99256404
   0.00264454  0.25003440  0.00083884
   0.74708492  0.24507985  0.25050553
   0.74777489  0.00228386  0.01406034
   0.51432667  0.00132408  0.24655572
   0.99274778  0.48860524  0.24376424
   0.50060372  0.75919993  0.00585952
   0.99010362  0.00259536  0.74335628
   0.75649174  0.24830634  0.75351664
   0.74292861  0.00148482  0.50488712
   0.50043839  0.23882869  0.49023411
   0.49880611  0.00279716  0.73769886
   0.99333239  0.99954880  0.25349088
   0.50402411  0.24597687  0.00909533
   0.25091867  0.74982493  0.24803319
   0.24484348  0.50069833  0.99431941
   0.00564322  0.74483884  0.00274930
   0.75302529  0.75242049  0.25188606
   0.75618139  0.49489208  0.00176449
   0.50053080  0.49417387  0.25432001
   0.24920557  0.25213198  0.74835500
   0.25052681  0.99846115  0.50316668
   0.00411687  0.24633384  0.50079511
   0.24233058  0.75359954  0.75031802
   0.25491302  0.50030546  0.50078329
   0.00180258  0.75622312  0.50108311
   0.99808811  0.50027988  0.74970672
   0.74988768  0.75138615  0.75183820
   0.74529030  0.49859416  0.50041853
   0.49473203  0.75293020  0.49903704
   0.49914220  0.50082562  0.74556702
   0.51845379  0.01633514  0.98294568
   0.00352373  0.50778687  0.98712309
   0.50036780  0.74565996  0.25486409
   0.24266053  0.01305200  0.74884557
   0.48409103  0.98660619  0.48956941
   0.73933520  0.98338460  0.76947229
   0.00430435  0.76161190  0.25153599
   0.74806107  0.49592660  0.24954344
   0.00963276  0.00481154  0.50344679
   0.49376492  0.51182700  0.49848359
   0.74888265  0.50770720  0.75219663
   0.74992720  0.75624046  0.49644933
HECN                                    
           1
     8.835277    0.015363    0.029664
     0.021514    8.836648   -0.024641
     0.061490   -0.039709    8.876579
   Zr   Nb   V    N    C    Mo   Ta
     7     6     7    13    19     6     6
Direct configuration=     6
   0.99935167  0.00326147  0.99626171
   0.26501257  0.00433112  0.24237018
   0.24727129  0.49314208  0.24601836
   0.49685100  0.49583187  0.00202635
   0.50106058  0.24363039  0.75004100
   0.00364041  0.49691506  0.50230808
   0.49020197  0.75945215  0.75751136
   0.99152007  0.23584705  0.25485852
   0.75619332  0.74682526  0.00631860
   0.00646882  0.25228300  0.74767537
   0.75353199  0.24846219  0.49552173
   0.00493118  0.74765717  0.75503929
   0.24641880  0.49592592  0.75140768
   0.25658148  0.25510459  0.98615484
   0.51496541  0.26133548  0.24531903
   0.74189705  0.99065912  0.27075059
   0.74258108  0.25530243  0.99833436
   0.23207999  0.73665372  0.00014039
   0.24226595  0.24780576  0.50967247
   0.25046335  0.75141643  0.49993980
   0.25060620  0.24744849  0.24826106
   0.25934275  0.00080844  0.99279377
   0.00264892  0.25189350  0.00123341
   0.74414052  0.24512464  0.24709168
   0.74891095  0.00534820  0.01426422
   0.51773403  0.00225258  0.24480332
   0.99382234  0.49452518  0.24463543
   0.49845684  0.75830611  0.00532646
   0.99053026  0.00325827  0.74569972
   0.75608443  0.25114893  0.75535575
   0.74896356  0.00026157  0.50432959
   0.49777557  0.24506496  0.48859126
   0.49757930  0.00355321  0.73825048
   0.99379027  0.99579615  0.25344771
   0.50219308  0.24649546  0.01099835
   0.25118813  0.75018549  0.24706421
   0.24530419  0.50017163  0.99438129
   0.00667072  0.74691145  0.00225209
   0.75167372  0.75333570  0.25306079
   0.75553829  0.49216415  0.00100199
   0.50271229  0.49195906  0.25492659
   0.24962449  0.25202606  0.74811684
   0.24816719  0.99975581  0.50309565
   0.00629362  0.24743059  0.50049316
   0.24212773  0.75378333  0.75025085
   0.25480818  0.49968452  0.50071840
   0.00445331  0.75482337  0.50086380
   0.00075089  0.50045410  0.75024874
   0.74982426  0.74784183  0.75315208
   0.74482811  0.50112498  0.49897624
   0.49097758  0.74823019  0.49985188
   0.49934877  0.50064093  0.74567782
   0.52027148  0.01545750  0.98360018
   0.00500977  0.50668116  0.98796669
   0.49963912  0.74439364  0.25623562
   0.24351129  0.01178614  0.74917018
   0.48730925  0.98686046  0.48388646
   0.73644377  0.98620374  0.77382969
   0.00558503  0.76095645  0.24927991
   0.74846997  0.49479417  0.24710577
   0.01012976  0.00537820  0.50248956
   0.49568579  0.51000263  0.49804299
   0.75031447  0.50555928  0.75583335
   0.74747222  0.75827524  0.49567541
HECN                                    
           1
     8.839962    0.015784    0.028743
     0.021933    8.844295   -0.023874
     0.060578   -0.038955    8.881216
   Zr   Nb   V    N    C    Mo   Ta
     7     6     7    13    19     6     6
Direct configuration=     7
   0.99924324  0.00297658  0.99626028
   0.26488658  0.00421413  0.24248056
   0.24731759  0.49340113  0.24609505
   0.49706404  0.49576111  0.00201292
   0.50115071  0.24356851  0.74989510
   0.00365234  0.49698092  0.50217243
   0.49023534  0.75960776  0.75727353
   0.99165082  0.23586948  0.25506247
   0.75609125  0.74672274  0.00660998
   0.00636877  0.25237090  0.74746865
   0.75328119  0.24894563  0.49590509
   0.00484266  0.74764789  0.75473618
   0.24669988  0.49584376  0.75117129
   0.25619450  0.25483567  0.98660173
   0.51458300  0.26113861  0.24565904
   0.74217984  0.99051310  0.27070645
   0.74328883  0.25547659  0.99814756
   0.23264910  0.73723058  0.00009987
   0.24279658  0.24788980  0.50922010
   0.25017535  0.75134803  0.49998437
   0.25064899  0.24753831  0.24826812
   0.25938574  0.00072628  0.99277024
   0.00264843  0.25170333  0.00119302
   0.74444030  0.24512049  0.24743935
   0.74879503  0.00503472  0.01424329
   0.51738645  0.00215761  0.24498222
   0.99371263  0.49391959  0.24454621
   0.49867568  0.75839768  0.00538065
   0.99048699  0.00319024  0.74546083
   0.75612603  0.25085806  0.75516799
   0.74834835  0.00038645  0.50438716
   0.49804657  0.24442742  0.48875788
   0.49770438  0.00347590  0.73819406
   0.99374376  0.99617994  0.25345249
   0.50237991  0.24644234  0.01080413
   0.25116054  0.75014869  0.24716297
   0.24525726  0.50022547  0.99437507
   0.00656583  0.74669947  0.00230269
   0.75181158  0.75324206  0.25294082
   0.75560389  0.49244324  0.00107989
   0.50249007  0.49218542  0.25486519
   0.24958177  0.25203690  0.74814117
   0.24840766  0.99962351  0.50310253
   0.00607164  0.24731834  0.50052407
   0.24214840  0.75376455  0.75025766
   0.25481888  0.49974804  0.50072506
   0.00418314  0.75496642  0.50088656
   0.00047950  0.50043611  0.75019376
   0.74983103  0.74820422  0.75301846
   0.74487496  0.50086629  0.49912298
   0.49136061  0.74871099  0.49976884
   0.49932773  0.50065980  0.74566656
   0.52008630  0.01554711  0.98353374
   0.00485842  0.50679410  0.98788095
   0.49971360  0.74452306  0.25609586
   0.24342465  0.01191554  0.74913729
   0.48698056  0.98683481  0.48446605
   0.73673886  0.98591517  0.77338497
   0.00545426  0.76102362  0.24951007
   0.74842807  0.49491018  0.24735439
   0.01007897  0.00532031  0.50258714
   0.49549001  0.51018917  0.49808826
   0.75016900  0.50577857  0.75546299
   0.74772231  0.75806731  0.49575385
HECN                                    
           1
     8.858764    0.011306    0.032221
     0.017439    8.875352   -0.025009
     0.064219   -0.040267    8.882557
   Zr   Nb   V    N    C    Mo   Ta
     7     6     7    13    19     6     6
Direct configuration=     8
   0.00060472  0.00461325  0.99751259
   0.26524331  0.00405913  0.24238888
   0.24718611  0.49230397  0.24724655
   0.49715508  0.49808300  0.00146563
   0.50152504  0.24508193  0.75012870
   0.00099312  0.49853897  0.50212547
   0.49201664  0.75873855  0.75767706
   0.99022367  0.23586717  0.25424085
   0.75792170  0.74720585  0.00477696
   0.00630088  0.25218861  0.74834239
   0.75616109  0.24542985  0.49267127
   0.00283452  0.74821838  0.75534380
   0.24716896  0.49720539  0.75132252
   0.25932556  0.25684281  0.98312184
   0.51848294  0.26207577  0.24358138
   0.74033062  0.99247826  0.27181184
   0.73602073  0.25240591  0.00069759
   0.23018735  0.73287166  0.00054111
   0.23865564  0.24699335  0.51376871
   0.25303408  0.75204786  0.49848775
   0.24934157  0.24691209  0.24801505
   0.25969040  0.00196302  0.99298734
   0.00258472  0.25423731  0.00184568
   0.74319839  0.24456600  0.24422585
   0.75078198  0.00737680  0.01483576
   0.51870474  0.00285707  0.24200375
   0.99428991  0.49816580  0.24497667
   0.49747697  0.75806187  0.00601682
   0.99017180  0.00334067  0.74528501
   0.75585167  0.25186364  0.75593967
   0.75254010  0.00053091  0.50571316
   0.49640954  0.24884570  0.48801026
   0.49639785  0.00253306  0.73749446
   0.99486046  0.99574994  0.25391217
   0.49945423  0.24714014  0.01058980
   0.25168358  0.74982634  0.24614228
   0.24524685  0.49903773  0.99511711
   0.00457706  0.74827717  0.00251826
   0.75170179  0.75243941  0.25345757
   0.75548336  0.49198629  0.00081424
   0.50426483  0.49206242  0.25547134
   0.24980979  0.25208520  0.74796073
   0.25032448  0.00055799  0.50225762
   0.00663228  0.24697011  0.50033032
   0.24207804  0.75383210  0.75039203
   0.25582368  0.49914762  0.50106071
   0.00415599  0.75523721  0.50024075
   0.00029421  0.50068311  0.75135851
   0.74986867  0.74799215  0.75313285
   0.74478939  0.50159112  0.49847191
   0.49047407  0.74749778  0.50068130
   0.50047575  0.50078971  0.74464564
   0.52086102  0.01334780  0.98401893
   0.00478837  0.50591555  0.98870001
   0.49848408  0.74276451  0.25841455
   0.24245798  0.00918390  0.74853179
   0.48986226  0.98542126  0.48111959
   0.73472401  0.98625529  0.77598028
   0.00549301  0.75978483  0.24942710
   0.74858334  0.49656492  0.24746515
   0.01045423  0.00395624  0.50225879
   0.49729894  0.50751909  0.49920199
   0.75076395  0.50520847  0.75589484
   0.74541932  0.75667075  0.49582961
HECN                                    
           1
     8.865298    0.009750    0.033430
     0.015877    8.886145   -0.025403
     0.065484   -0.040723    8.883023
   Zr   Nb   V    N    C    Mo   Ta
     7     6     7    13    19     6     6
Direct configuration=     9
   0.00107695  0.00518032  0.99794760
   0.26536699  0.00400552  0.24235698
   0.24714015  0.49192407  0.24764661
   0.49718714  0.49888703  0.00127556
   0.50165509  0.24560608  0.75020988
   0.00007128  0.49907803  0.50210958
   0.49263412  0.75843789  0.75781699
   0.98972890  0.23586608  0.25395556
   0.75855678  0.74737338  0.00413985
   0.00627718  0.25212552  0.74864597
   0.75715957  0.24421272  0.49154715
   0.00213818  0.74841562  0.75555520
   0.24733185  0.49767699  0.75137505
   0.26041216  0.25753823  0.98191241
   0.51983577  0.26240088  0.24285902
   0.73968957  0.99315850  0.27219624
   0.73349948  0.25134142  0.00158445
   0.22933286  0.73136181  0.00069457
   0.23721889  0.24668243  0.51534965
   0.25402573  0.75229062  0.49796740
   0.24888813  0.24669500  0.24792727
   0.25979624  0.00239135  0.99306279
   0.00256298  0.25511482  0.00207256
   0.74276809  0.24437360  0.24310945
   0.75147132  0.00818821  0.01504144
   0.51916242  0.00309936  0.24096872
   0.99449080  0.49963634  0.24512632
   0.49706114  0.75794541  0.00623800
   0.99006255  0.00339270  0.74522397
   0.75575661  0.25221185  0.75620786
   0.75399349  0.00058173  0.50617333
   0.49584277  0.25037538  0.48775089
   0.49594472  0.00220631  0.73725152
   0.99524755  0.99560126  0.25407172
   0.49843986  0.24738126  0.01051575
   0.25186505  0.74971475  0.24578756
   0.24524292  0.49862646  0.99537488
   0.00388767  0.74882317  0.00259349
   0.75166350  0.75216147  0.25363710
   0.75544152  0.49182802  0.00072194
   0.50488014  0.49202017  0.25568170
   0.24988889  0.25210196  0.74789801
   0.25098945  0.00088188  0.50196383
   0.00682665  0.24684961  0.50026291
   0.24205364  0.75385549  0.75043873
   0.25617195  0.49893989  0.50117717
   0.00414672  0.75533095  0.50001637
   0.00022984  0.50076867  0.75176323
   0.74988166  0.74791872  0.75317259
   0.74475994  0.50184208  0.49824574
   0.49016630  0.74707755  0.50099840
   0.50087401  0.50083484  0.74429077
   0.52112921  0.01258637  0.98418732
   0.00476380  0.50561134  0.98898457
   0.49805708  0.74215545  0.25922028
   0.24212237  0.00823777  0.74832142
   0.49086176  0.98493210  0.47995641
   0.73402502  0.98637285  0.77688230
   0.00550624  0.75935585  0.24939822
   0.74863746  0.49713797  0.24750368
   0.01058416  0.00348394  0.50214460
   0.49792558  0.50659485  0.49958861
   0.75097010  0.50501118  0.75604478
   0.74462046  0.75618674  0.49585618
HECN                                    
           1
     8.873709    0.013128    0.027123
     0.019334    8.847218   -0.024315
     0.059188   -0.039405    8.888675
   Zr   Nb   V    N    C    Mo   Ta
     7     6     7    13    19     6     6
Direct configuration=    10
   0.00294732  0.00632524  0.99832934
   0.26571367  0.00437749  0.24236289
   0.24783352  0.49108303  0.24984146
   0.49848189  0.50080945  0.00130874
   0.50269154  0.24405375  0.74825046
   0.00012484  0.50016394  0.50224562
   0.49330901  0.75926570  0.75685436
   0.98975751  0.23589076  0.25345383
   0.75938584  0.74810077  0.00467352
   0.00517741  0.25271541  0.74936296
   0.75757131  0.24299900  0.49025647
   0.00087048  0.74923875  0.75448518
   0.24806549  0.49929245  0.74957341
   0.26133845  0.25838585  0.98079640
   0.52087891  0.26261232  0.24343001
   0.73941986  0.99399161  0.27362122
   0.72934959  0.24890532  0.00368182
   0.22898600  0.72980656  0.00068074
   0.23617426  0.24580311  0.51776711
   0.25608367  0.75322998  0.49612724
   0.24667474  0.24670737  0.24749352
   0.26056209  0.00374555  0.99289442
   0.00231365  0.25605759  0.00250682
   0.74410370  0.24404767  0.24110869
   0.75292946  0.00889399  0.01560457
   0.51822939  0.00315490  0.23842540
   0.99439858  0.50065640  0.24570387
   0.49701995  0.75804152  0.00726763
   0.98871695  0.00320519  0.74426540
   0.75566247  0.25133615  0.75584992
   0.75496526  0.00037764  0.50823426
   0.49645138  0.25117486  0.48742840
   0.49543568  0.00194983  0.73607240
   0.99572854  0.99759963  0.25461076
   0.49569856  0.24776322  0.00874171
   0.25209417  0.74866699  0.24520091
   0.24537983  0.49704986  0.99611449
   0.00229896  0.74885970  0.00288447
   0.75164111  0.75178819  0.25292672
   0.75557176  0.49261207  0.00112046
   0.50458534  0.49299202  0.25517039
   0.24964630  0.25179334  0.74825220
   0.25536097  0.00103206  0.50117602
   0.00578905  0.24625387  0.50047438
   0.24202592  0.75363930  0.75112368
   0.25571260  0.49866363  0.50204822
   0.00278054  0.75608977  0.49989328
   0.99911284  0.50104245  0.75202148
   0.74995947  0.74975547  0.75228085
   0.74516191  0.50063900  0.49848088
   0.49194690  0.74808564  0.50184666
   0.50173235  0.50096961  0.74431113
   0.52048714  0.01139171  0.98432877
   0.00349057  0.50606787  0.98924473
   0.49679270  0.74168540  0.26045618
   0.23983565  0.00596080  0.74708643
   0.49396861  0.98363776  0.48003268
   0.73334983  0.98486633  0.77681660
   0.00554643  0.75920373  0.25033083
   0.74946194  0.49900449  0.24793949
   0.01129038  0.00197279  0.50289322
   0.49776344  0.50371141  0.50050058
   0.75103250  0.50503636  0.75501335
   0.74313020  0.75576609  0.49672048
HECN                                    
           1
     8.876435    0.014223    0.025078
     0.020455    8.834601   -0.023963
     0.057148   -0.038977    8.890506
   Zr   Nb   V    N    C    Mo   Ta
     7     6     7    13    19     6     6
Direct configuration=    11
   0.00355289  0.00669771  0.99845338
   0.26582588  0.00449854  0.24236487
   0.24805865  0.49080905  0.25055257
   0.49890089  0.50143510  0.00131972
   0.50302689  0.24354839  0.74761609
   0.00014207  0.50051743  0.50228967
   0.49352720  0.75953515  0.75654269
   0.98976666  0.23589882  0.25329133
   0.75965432  0.74833743  0.00484654
   0.00482139  0.25290753  0.74959492
   0.75770448  0.24260391  0.48983856
   0.00045965  0.74950691  0.75413827
   0.24830241  0.49981833  0.74898997
   0.26163801  0.25866172  0.98043510
   0.52121678  0.26268100  0.24361518
   0.73933276  0.99426278  0.27408269
   0.72800666  0.24811269  0.00436028
   0.22887389  0.72930031  0.00067624
   0.23583668  0.24551688  0.51854992
   0.25674948  0.75353561  0.49553166
   0.24595794  0.24671168  0.24735251
   0.26080986  0.00418630  0.99284002
   0.00223290  0.25636451  0.00264739
   0.74453574  0.24394151  0.24046096
   0.75340164  0.00912354  0.01578728
   0.51792668  0.00317322  0.23760140
   0.99436872  0.50098845  0.24589088
   0.49700683  0.75807276  0.00760111
   0.98828104  0.00314437  0.74395462
   0.75563202  0.25105111  0.75573399
   0.75528043  0.00031098  0.50890203
   0.49664827  0.25143507  0.48732406
   0.49527061  0.00186646  0.73569037
   0.99588415  0.99825007  0.25478540
   0.49481047  0.24788798  0.00816646
   0.25216836  0.74832592  0.24501098
   0.24542454  0.49653658  0.99635413
   0.00178460  0.74887177  0.00297835
   0.75163375  0.75166671  0.25269664
   0.75561393  0.49286727  0.00124955
   0.50448963  0.49330846  0.25500467
   0.24956787  0.25169289  0.74836687
   0.25677626  0.00108046  0.50092185
   0.00545321  0.24606005  0.50054265
   0.24201713  0.75356889  0.75134554
   0.25556410  0.49857372  0.50233026
   0.00233805  0.75633696  0.49985307
   0.99875118  0.50113170  0.75210486
   0.74998422  0.75035343  0.75199197
   0.74529228  0.50024729  0.49855718
   0.49252353  0.74841355  0.50212179
   0.50201027  0.50101337  0.74431791
   0.52027943  0.01100289  0.98437449
   0.00307830  0.50621663  0.98932869
   0.49638365  0.74153247  0.26085621
   0.23909523  0.00521991  0.74668597
   0.49497479  0.98321603  0.48005815
   0.73313138  0.98437599  0.77679521
   0.00555968  0.75915416  0.25063291
   0.74972876  0.49961198  0.24808078
   0.01151942  0.00148074  0.50313592
   0.49771152  0.50277273  0.50079603
   0.75105246  0.50504460  0.75467928
   0.74264791  0.75562929  0.49700009
HECN                                    
           1
     8.886050    0.016672    0.021283
     0.022879    8.865577   -0.025357
     0.053386   -0.040479    8.895409
   Zr   Nb   V    N    C    Mo   Ta