  64  64   0   0
  0.2218804E+02  0.1124000E-08  0.1124000E-08  0.1124000E-08  0.5000000E-15
  1.000000000000000E-004
  CAR 
 HECN                                    
     13.01009562    -30.30773321  301      7.93681640      1.00000000
    -30.308  0.0000E+00  0.0000E+00
    -30.163  0.0000E+00  0.0000E+00
    -30.019  0.0000E+00  0.0000E+00
    -29.875  0.0000E+00  0.0000E+00
    -29.730  0.0000E+00  0.0000E+00
    -29.586  0.0000E+00  0.0000E+00
    -29.441  0.0000E+00  0.0000E+00
    -29.297  0.0000E+00  0.0000E+00
    -29.153  0.0000E+00  0.0000E+00
    -29.008  0.0000E+00  0.0000E+00
    -28.864  0.6920E-14  0.9992E-15
    -28.719  0.4645E-08  0.6707E-09
    -28.575  0.5527E-04  0.7981E-05
    -28.431  0.1458E-01  0.2113E-02
    -28.286  0.1982E+00  0.3073E-01
    -28.142  0.5874E+00  0.1155E+00
    -27.997  0.9160E+00  0.2478E+00
    -27.853  0.6927E+00  0.3478E+00
    -27.709  0.2799E+00  0.3883E+00
    -27.564  0.4606E+00  0.4548E+00
    -27.420  0.4232E+00  0.5159E+00
    -27.275  0.5517E+00  0.5955E+00
    -27.131  0.4234E+00  0.6567E+00
    -26.987  0.2940E+00  0.6991E+00
    -26.842  0.1386E+00  0.7191E+00
    -26.698  0.6014E-02  0.7200E+00
    -26.554  0.1306E-04  0.7200E+00
    -26.409  0.3017E-02  0.7204E+00
    -26.265  0.8234E-01  0.7323E+00
    -26.120  0.3484E+00  0.7826E+00
    -25.976  0.6609E+00  0.8781E+00
    -25.832  0.1032E+01  0.1027E+01
    -25.687  0.6797E+00  0.1125E+01
    -25.543  0.1008E+00  0.1140E+01
    -25.398  0.1960E-02  0.1140E+01
    -25.254  0.1397E-05  0.1140E+01
    -25.110  0.1971E-10  0.1140E+01
    -24.965  0.0000E+00  0.1140E+01
    -24.821  0.0000E+00  0.1140E+01
    -24.676  0.0000E+00  0.1140E+01
    -24.532  0.0000E+00  0.1140E+01
    -24.388  0.0000E+00  0.1140E+01
    -24.243  0.0000E+00  0.1140E+01
    -24.099  0.0000E+00  0.1140E+01
    -23.954  0.0000E+00  0.1140E+01
    -23.810  0.1373E-10  0.1140E+01
    -23.666  0.1077E-05  0.1140E+01
    -23.521  0.1577E-02  0.1140E+01
    -23.377  0.6087E-01  0.1149E+01
    -23.232  0.2800E+00  0.1189E+01
    -23.088  0.5637E+00  0.1271E+01
    -22.944  0.3083E+00  0.1315E+01
    -22.799  0.7394E-01  0.1326E+01
    -22.655  0.3564E+00  0.1377E+01
    -22.511  0.5020E+00  0.1450E+01
    -22.366  0.3156E+00  0.1496E+01
    -22.222  0.3061E-01  0.1500E+01
    -22.077  0.1202E-03  0.1500E+01
    -21.933  0.1038E-07  0.1500E+01
    -21.789  0.1616E-13  0.1500E+01
    -21.644  0.0000E+00  0.1500E+01
    -21.500  0.0000E+00  0.1500E+01
    -21.355  0.0000E+00  0.1500E+01
    -21.211  0.0000E+00  0.1500E+01
    -21.067  0.0000E+00  0.1500E+01
    -20.922  0.0000E+00  0.1500E+01
    -20.778  0.0000E+00  0.1500E+01
    -20.633  0.0000E+00  0.1500E+01
    -20.489  0.0000E+00  0.1500E+01
    -20.345  0.0000E+00  0.1500E+01
    -20.200  0.0000E+00  0.1500E+01
    -20.056  0.0000E+00  0.1500E+01
    -19.911  0.0000E+00  0.1500E+01
    -19.767  0.0000E+00  0.1500E+01
    -19.623  0.0000E+00  0.1500E+01
    -19.478  0.0000E+00  0.1500E+01
    -19.334  0.0000E+00  0.1500E+01
    -19.189  0.0000E+00  0.1500E+01
    -19.045  0.0000E+00  0.1500E+01
    -18.901  0.0000E+00  0.1500E+01
    -18.756  0.0000E+00  0.1500E+01
    -18.612  0.0000E+00  0.1500E+01
    -18.468  0.0000E+00  0.1500E+01
    -18.323  0.0000E+00  0.1500E+01
    -18.179  0.0000E+00  0.1500E+01
    -18.034  0.0000E+00  0.1500E+01
    -17.890  0.0000E+00  0.1500E+01
    -17.746  0.0000E+00  0.1500E+01
    -17.601  0.0000E+00  0.1500E+01
    -17.457  0.0000E+00  0.1500E+01
    -17.312  0.0000E+00  0.1500E+01
    -17.168  0.0000E+00  0.1500E+01
    -17.024  0.0000E+00  0.1500E+01
    -16.879  0.0000E+00  0.1500E+01
    -16.735  0.0000E+00  0.1500E+01
    -16.590  0.0000E+00  0.1500E+01
    -16.446  0.0000E+00  0.1500E+01
    -16.302  0.0000E+00  0.1500E+01
    -16.157  0.0000E+00  0.1500E+01
    -16.013  0.0000E+00  0.1500E+01
    -15.868  0.0000E+00  0.1500E+01
    -15.724  0.0000E+00  0.1500E+01
    -15.580  0.0000E+00  0.1500E+01
    -15.435  0.0000E+00  0.1500E+01
    -15.291  0.0000E+00  0.1500E+01
    -15.146  0.0000E+00  0.1500E+01
    -15.002  0.0000E+00  0.1500E+01
    -14.858  0.0000E+00  0.1500E+01
    -14.713  0.0000E+00  0.1500E+01
    -14.569  0.0000E+00  0.1500E+01
    -14.425  0.0000E+00  0.1500E+01
    -14.280  0.0000E+00  0.1500E+01
    -14.136  0.0000E+00  0.1500E+01
    -13.991  0.0000E+00  0.1500E+01
    -13.847  0.0000E+00  0.1500E+01
    -13.703  0.0000E+00  0.1500E+01
    -13.558  0.0000E+00  0.1500E+01
    -13.414  0.0000E+00  0.1500E+01
    -13.269  0.0000E+00  0.1500E+01
    -13.125  0.0000E+00  0.1500E+01
    -12.981  0.0000E+00  0.1500E+01
    -12.836  0.0000E+00  0.1500E+01
    -12.692  0.0000E+00  0.1500E+01
    -12.547  0.0000E+00  0.1500E+01
    -12.403  0.0000E+00  0.1500E+01
    -12.259  0.0000E+00  0.1500E+01
    -12.114  0.0000E+00  0.1500E+01
    -11.970  0.0000E+00  0.1500E+01
    -11.825  0.0000E+00  0.1500E+01
    -11.681  0.0000E+00  0.1500E+01
    -11.537  0.0000E+00  0.1500E+01
    -11.392  0.0000E+00  0.1500E+01
    -11.248  0.0000E+00  0.1500E+01
    -11.103  0.0000E+00  0.1500E+01
    -10.959  0.0000E+00  0.1500E+01
    -10.815  0.0000E+00  0.1500E+01
    -10.670  0.0000E+00  0.1500E+01
    -10.526  0.0000E+00  0.1500E+01
    -10.382  0.0000E+00  0.1500E+01
    -10.237  0.0000E+00  0.1500E+01
    -10.093  0.0000E+00  0.1500E+01
     -9.948  0.0000E+00  0.1500E+01
     -9.804  0.0000E+00  0.1500E+01
     -9.660  0.0000E+00  0.1500E+01
     -9.515  0.0000E+00  0.1500E+01
     -9.371  0.0000E+00  0.1500E+01
     -9.226  0.0000E+00  0.1500E+01
     -9.082  0.0000E+00  0.1500E+01
     -8.938  0.0000E+00  0.1500E+01
     -8.793  0.1310E-16  0.1500E+01
     -8.649  0.2136E-10  0.1500E+01
     -8.504  0.6475E-06  0.1500E+01
     -8.360  0.4453E-03  0.1500E+01
     -8.216  0.1287E-01  0.1502E+01
     -8.071  0.5117E-01  0.1509E+01
     -7.927  0.6117E-01  0.1518E+01
     -7.782  0.1639E-01  0.1521E+01
     -7.638  0.5913E-01  0.1529E+01
     -7.494  0.1328E+00  0.1548E+01
     -7.349  0.1880E+00  0.1575E+01
     -7.205  0.2217E+00  0.1607E+01
     -7.060  0.2729E+00  0.1647E+01
     -6.916  0.3191E+00  0.1693E+01
     -6.772  0.1980E+00  0.1721E+01
     -6.627  0.1740E+00  0.1747E+01
     -6.483  0.7745E-01  0.1758E+01
     -6.339  0.1507E-01  0.1760E+01
     -6.194  0.3937E-03  0.1760E+01
     -6.050  0.4226E-06  0.1760E+01
     -5.905  0.9378E-11  0.1760E+01
     -5.761  0.3417E-17  0.1760E+01
     -5.617  0.0000E+00  0.1760E+01
     -5.472  0.0000E+00  0.1760E+01
     -5.328  0.0000E+00  0.1760E+01
     -5.183  0.2559E-12  0.1760E+01
     -5.039  0.3054E-07  0.1760E+01
     -4.895  0.6946E-04  0.1760E+01
     -4.750  0.4988E-02  0.1761E+01
     -4.606  0.3924E-01  0.1766E+01
     -4.461  0.6809E-01  0.1776E+01
     -4.317  0.2977E-01  0.1781E+01
     -4.173  0.6710E-01  0.1790E+01
     -4.028  0.1130E+00  0.1807E+01
     -3.884  0.1339E+00  0.1826E+01
     -3.739  0.1481E+00  0.1847E+01
     -3.595  0.1715E+00  0.1872E+01
     -3.451  0.1986E+00  0.1901E+01
     -3.306  0.2529E+00  0.1937E+01
     -3.162  0.2236E+00  0.1969E+01
     -3.018  0.2470E+00  0.2005E+01
     -2.873  0.2172E+00  0.2037E+01
     -2.729  0.2016E+00  0.2066E+01
     -2.584  0.2015E+00  0.2095E+01
     -2.440  0.1283E+00  0.2113E+01
     -2.296  0.1130E+00  0.2130E+01
     -2.151  0.5746E-01  0.2138E+01
     -2.007  0.1332E-01  0.2140E+01
     -1.862  0.1529E-02  0.2140E+01
     -1.718  0.1958E-04  0.2140E+01
     -1.574  0.6300E-08  0.2140E+01
     -1.429  0.3694E-13  0.2140E+01
     -1.285  0.0000E+00  0.2140E+01
     -1.140  0.0000E+00  0.2140E+01
     -0.996  0.0000E+00  0.2140E+01
     -0.852  0.0000E+00  0.2140E+01
     -0.707  0.0000E+00  0.2140E+01
     -0.563  0.0000E+00  0.2140E+01
     -0.418  0.9967E-13  0.2140E+01
     -0.274  0.1370E-07  0.2140E+01
     -0.130  0.3676E-04  0.2140E+01
      0.015  0.2473E-02  0.2140E+01
      0.159  0.7547E-02  0.2141E+01
      0.304  0.1844E-01  0.2144E+01
      0.448  0.4934E-01  0.2151E+01
      0.592  0.8719E-01  0.2164E+01
      0.737  0.8870E-01  0.2177E+01
      0.881  0.1083E+00  0.2192E+01
      1.025  0.1219E+00  0.2210E+01
      1.170  0.1454E+00  0.2231E+01
      1.314  0.1964E+00  0.2259E+01
      1.459  0.2491E+00  0.2295E+01
      1.603  0.3099E+00  0.2340E+01
      1.747  0.3171E+00  0.2386E+01
      1.892  0.2570E+00  0.2423E+01
      2.036  0.2439E+00  0.2458E+01
      2.181  0.3230E+00  0.2505E+01
      2.325  0.3525E+00  0.2556E+01
      2.469  0.3312E+00  0.2603E+01
      2.614  0.3626E+00  0.2656E+01
      2.758  0.4307E+00  0.2718E+01
      2.903  0.5158E+00  0.2792E+01
      3.047  0.5995E+00  0.2879E+01
      3.191  0.6366E+00  0.2971E+01
      3.336  0.6535E+00  0.3065E+01
      3.480  0.6761E+00  0.3163E+01
      3.625  0.6627E+00  0.3259E+01
      3.769  0.6555E+00  0.3353E+01
      3.913  0.6255E+00  0.3444E+01
      4.058  0.5828E+00  0.3528E+01
      4.202  0.5230E+00  0.3603E+01
      4.347  0.4867E+00  0.3674E+01
      4.491  0.4095E+00  0.3733E+01
      4.635  0.3768E+00  0.3787E+01
      4.780  0.3290E+00  0.3835E+01
      4.924  0.2730E+00  0.3874E+01
      5.068  0.2950E+00  0.3917E+01
      5.213  0.2626E+00  0.3954E+01
      5.357  0.2096E+00  0.3985E+01
      5.502  0.1767E+00  0.4010E+01
      5.646  0.1556E+00  0.4033E+01
      5.790  0.1420E+00  0.4053E+01
      5.935  0.5869E-01  0.4062E+01
      6.079  0.7706E-01  0.4073E+01
      6.224  0.1177E+00  0.4090E+01
      6.368  0.1519E+00  0.4112E+01
      6.512  0.1831E+00  0.4138E+01
      6.657  0.1858E+00  0.4165E+01
      6.801  0.1489E+00  0.4186E+01
      6.946  0.1107E+00  0.4202E+01
      7.090  0.1415E+00  0.4223E+01
      7.234  0.1816E+00  0.4249E+01
      7.379  0.1588E+00  0.4272E+01
      7.523  0.1613E+00  0.4295E+01
      7.668  0.1818E+00  0.4322E+01
      7.812  0.1699E+00  0.4346E+01
      7.956  0.1941E+00  0.4374E+01
      8.101  0.2316E+00  0.4408E+01
      8.245  0.2622E+00  0.4445E+01
      8.390  0.2729E+00  0.4485E+01
      8.534  0.2665E+00  0.4523E+01
      8.678  0.3088E+00  0.4568E+01
      8.823  0.3805E+00  0.4623E+01
      8.967  0.3874E+00  0.4679E+01
      9.111  0.4102E+00  0.4738E+01
      9.256  0.4293E+00  0.4800E+01
      9.400  0.4372E+00  0.4863E+01
      9.545  0.4577E+00  0.4929E+01
      9.689  0.4817E+00  0.4999E+01
      9.833  0.4854E+00  0.5069E+01
      9.978  0.5034E+00  0.5142E+01
     10.122  0.4913E+00  0.5213E+01
     10.267  0.4696E+00  0.5280E+01
     10.411  0.4499E+00  0.5345E+01
     10.555  0.4863E+00  0.5416E+01
     10.700  0.5092E+00  0.5489E+01
     10.844  0.4461E+00  0.5553E+01
     10.989  0.2448E+00  0.5589E+01
     11.133  0.7307E-01  0.5599E+01
     11.277  0.4454E-02  0.5600E+01
     11.422  0.1281E-04  0.5600E+01
     11.566  0.8888E-09  0.5600E+01
     11.711  0.1177E-14  0.5600E+01
     11.855  0.0000E+00  0.5600E+01
     11.999  0.0000E+00  0.5600E+01
     12.144  0.0000E+00  0.5600E+01
     12.288  0.0000E+00  0.5600E+01
     12.433  0.0000E+00  0.5600E+01
     12.577  0.0000E+00  0.5600E+01
     12.721  0.0000E+00  0.5600E+01
     12.866  0.0000E+00  0.5600E+01
     13.010  0.0000E+00  0.5600E+01
