HECN                                    
           1
    11.240000    0.000000    0.000000
     0.000000   11.240000    0.000000
     0.000000    0.000000   11.240000
   Ti   Ta   Hf   N    C    Zr   Mo
     7     6     6    13    19     7     6
Direct configuration=     1
   0.00000000  0.00000000  0.00000000
   0.25000000  0.00000000  0.25000000
   0.25000000  0.50000000  0.25000000
   0.50000000  0.50000000  0.00000000
   0.50000000  0.25000000  0.75000004
   0.00000000  0.50000000  0.50000000
   0.50000000  0.75000004  0.75000004
   0.00000000  0.25000000  0.25000000
   0.75000004  0.75000004  0.00000000
   0.00000000  0.25000000  0.75000004
   0.75000004  0.25000000  0.50000000
   0.00000000  0.75000004  0.75000004
   0.25000000  0.50000000  0.75000004
   0.25000000  0.25000000  0.00000000
   0.50000000  0.25000000  0.25000000
   0.75000004  0.00000000  0.25000000
   0.75000004  0.25000000  0.00000000
   0.25000000  0.75000004  0.00000000
   0.25000000  0.25000000  0.50000000
   0.25000000  0.25000000  0.25000000
   0.25000000  0.00000000  0.00000000
   0.00000000  0.25000000  0.00000000
   0.75000004  0.25000000  0.25000000
   0.75000004  0.00000000  0.00000000
   0.50000000  0.00000000  0.25000000
   0.00000000  0.50000000  0.25000000
   0.50000000  0.75000004  0.00000000
   0.00000000  0.00000000  0.75000004
   0.75000004  0.25000000  0.75000004
   0.75000004  0.00000000  0.50000000
   0.50000000  0.25000000  0.50000000
   0.50000000  0.00000000  0.75000004
   0.00000000  0.00000000  0.25000000
   0.50000000  0.25000000  0.00000000
   0.25000000  0.75000004  0.25000000
   0.25000000  0.50000000  0.00000000
   0.00000000  0.75000004  0.00000000
   0.75000004  0.75000004  0.25000000
   0.75000004  0.50000000  0.00000000
   0.50000000  0.50000000  0.25000000
   0.25000000  0.25000000  0.75000004
   0.25000000  0.00000000  0.50000000
   0.00000000  0.25000000  0.50000000
   0.25000000  0.75000004  0.75000004
   0.25000000  0.50000000  0.50000000
   0.00000000  0.75000004  0.50000000
   0.00000000  0.50000000  0.75000004
   0.75000004  0.75000004  0.75000004
   0.75000004  0.50000000  0.50000000
   0.50000000  0.75000004  0.50000000
   0.50000000  0.50000000  0.75000004
   0.50000000  0.00000000  0.00000000
   0.00000000  0.50000000  0.00000000
   0.50000000  0.75000004  0.25000000
   0.25000000  0.00000000  0.75000004
   0.50000000  0.00000000  0.50000000
   0.75000004  0.00000000  0.75000004
   0.25000000  0.75000004  0.50000000
   0.00000000  0.75000004  0.25000000
   0.75000004  0.50000000  0.25000000
   0.00000000  0.00000000  0.50000000
   0.50000000  0.50000000  0.50000000
   0.75000004  0.50000000  0.75000004
   0.75000004  0.75000004  0.50000000
HECN                                    
           1
     8.067273    0.004994    0.000811
     0.004994    8.082393    0.000221
     0.000811    0.000221    8.061014
   Ti   Ta   Hf   N    C    Zr   Mo
     7     6     6    13    19     7     6
Direct configuration=     2
   0.99990109  0.99787549  0.00163947
   0.24707633  0.99792109  0.25193195
   0.25149108  0.50214075  0.25037718
   0.50070275  0.49893981  0.99990504
   0.49893938  0.25246811  0.75079088
   0.00003176  0.50049757  0.50089711
   0.50064750  0.74754388  0.74782709
   0.99915616  0.24783893  0.25359407
   0.75285913  0.74641202  0.00010705
   0.00155829  0.25251277  0.74643601
   0.75305182  0.25305291  0.50047602
   0.99928435  0.74761091  0.74925584
   0.25089653  0.50005985  0.74950475
   0.25105131  0.25160837  0.99852200
   0.50043064  0.25300955  0.24926467
   0.75296313  0.99765791  0.25135668
   0.74876362  0.25270333  0.99955433
   0.24821794  0.74847558  0.00044456
   0.24827415  0.25035694  0.50141610
   0.25034699  0.24969294  0.24981433
   0.25188651  0.00026912  0.99858143
   0.00004974  0.25129689  0.00013490
   0.74953722  0.24733004  0.24982353
   0.74826555  0.00079631  0.00056397
   0.50264954  0.00122318  0.24961249
   0.99997464  0.49727888  0.24855953
   0.49975930  0.75207216  0.00142307
   0.99935740  0.00021144  0.75053804
   0.75167314  0.24762939  0.75017778
   0.74809936  0.00257146  0.49932630
   0.50005323  0.24794593  0.49750342
   0.50073409  0.00015755  0.75034829
   0.99796522  0.00219853  0.25049172
   0.50028675  0.24800432  0.00223620
   0.25077839  0.75020612  0.24907611
   0.24859244  0.49966791  0.99798377
   0.99915920  0.74912261  0.99822470
   0.74946592  0.75129723  0.24824751
   0.75112052  0.50049548  0.00008979
   0.50084761  0.49900520  0.25073986
   0.24767741  0.25062525  0.75022578
   0.25108668  0.00101425  0.50102412
   0.99896762  0.24945557  0.49982555
   0.24799301  0.74936008  0.75091370
   0.25037630  0.49899118  0.50217522
   0.00007856  0.75044802  0.50173982
   0.00135237  0.49975408  0.75079344
   0.75192920  0.75090235  0.75176030
   0.74942465  0.49816775  0.49992932
   0.49988197  0.75072800  0.49910264
   0.49851595  0.50001623  0.74916499
   0.49992997  0.00121161  0.99946087
   0.99935935  0.50192826  0.99975941
   0.50012150  0.74702927  0.25182426
   0.24899060  0.99989249  0.74816920
   0.49829882  0.99789681  0.50057148
   0.75104266  0.99794097  0.74856003
   0.24966453  0.74970250  0.49960174
   0.99956147  0.75245095  0.25063629
   0.74760841  0.50282975  0.24993105
   0.00175711  0.99987181  0.49792846
   0.50067162  0.50272751  0.50010910
   0.74940360  0.50253457  0.75015479
   0.75040761  0.74736297  0.49984159
HECN                                    
           1
     9.096143    0.003374    0.000548
     0.003374    9.106359    0.000149
     0.000548    0.000149    9.091913
   Ti   Ta   Hf   N    C    Zr   Mo
     7     6     6    13    19     7     6
Direct configuration=     3
   0.99994526  0.99883359  0.00089812
   0.24839682  0.99885784  0.25105822
   0.25081799  0.50117574  0.25020672
   0.50038493  0.49941813  0.99994800
   0.49941932  0.25135476  0.75043327
   0.00001759  0.50027320  0.50049147
   0.50035416  0.74865171  0.74880964
   0.99953699  0.24881333  0.25196887
   0.75156634  0.74803093  0.00005873
   0.00085476  0.25137996  0.74804767
   0.75167384  0.25167698  0.50026095
   0.99960699  0.74868814  0.74959228
   0.25049145  0.50003311  0.74972875
   0.25057669  0.25088331  0.99919038
   0.50023687  0.25165243  0.24959722
   0.75162375  0.99871498  0.25074333
   0.74932300  0.25148384  0.99975583
   0.24902271  0.74916259  0.00024344
   0.24905409  0.25019550  0.50077570
   0.25019012  0.24983151  0.24989830
   0.25103415  0.00014826  0.99922296
   0.00002763  0.25071204  0.00007392
   0.74974558  0.24853400  0.24990327
   0.74904948  0.00043672  0.00030889
   0.50145274  0.00067229  0.24978785
   0.99998527  0.49850602  0.24921084
   0.49986870  0.75113763  0.00077961
   0.99964783  0.00011591  0.75029475
   0.75091654  0.24869895  0.75009746
   0.74895882  0.00141125  0.49963087
   0.50002849  0.24887225  0.49863228
   0.50040247  0.00008671  0.75019086
   0.99888521  0.00120648  0.25026931
   0.50015673  0.24890444  0.00122504
   0.25042671  0.75011339  0.24949391
   0.24922822  0.49981726  0.99889538
   0.99953877  0.74951805  0.99902739
   0.74970753  0.75071206  0.24903993
   0.75061441  0.50027234  0.00004925
   0.50046439  0.49945408  0.25040534
   0.24872699  0.25034263  0.75012361
   0.25059602  0.00055716  0.50056111
   0.99943391  0.24970080  0.49990438
   0.24889967  0.74964814  0.75050047
   0.25020610  0.49944627  0.50119165
   0.00004327  0.75024603  0.50095313
   0.00074131  0.49986537  0.75043474
   0.75105790  0.75049599  0.75096446
   0.74968411  0.49899389  0.49996123
   0.49993546  0.75039966  0.49950840
   0.49918644  0.50000848  0.74954251
   0.49996192  0.00066517  0.99970466
   0.99964934  0.50105848  0.99986819
   0.50006585  0.74836907  0.25099935
   0.24944656  0.99994067  0.74899701
   0.49906689  0.99884483  0.50031297
   0.75057094  0.99886982  0.74921119
   0.24981600  0.74983659  0.49978180
   0.99976032  0.75134553  0.25034859
   0.74868979  0.50155293  0.24996215
   0.00096308  0.99993009  0.49886523
   0.50036894  0.50149766  0.50005983
   0.74967380  0.50139137  0.75008482
   0.75022272  0.74855234  0.49991321
HECN                                    
           1
     9.016535    0.003500    0.000569
     0.003500    9.027131    0.000155
     0.000569    0.000155    9.012149
   Ti   Ta   Hf   N    C    Zr   Mo
     7     6     6    13    19     7     6
Direct configuration=     4
   0.99994222  0.99876779  0.00094897
   0.24830619  0.99879349  0.25111815
   0.25086420  0.50124203  0.25021842
   0.50040673  0.49938528  0.99994505
   0.49938640  0.25143121  0.75045780
   0.00001856  0.50028861  0.50051930
   0.50037427  0.74857563  0.74874223
   0.99951084  0.24874641  0.25208036
   0.75165502  0.74791978  0.00006205
   0.00090305  0.25145776  0.74793711
   0.75176842  0.25177149  0.50027571
   0.99958483  0.74861416  0.74956920
   0.25051925  0.50003495  0.74971338
   0.25060927  0.25093311  0.99914453
   0.50025019  0.25174563  0.24957441
   0.75171565  0.99864241  0.25078541
   0.74928463  0.25156758  0.99974200
   0.24896747  0.74911539  0.00025723
   0.24900057  0.25020658  0.50081963
   0.25020088  0.24982200  0.24989254
   0.25109265  0.00015657  0.99917895
   0.00002916  0.25075220  0.00007810
   0.74973126  0.24845131  0.24989780
   0.74899569  0.00046140  0.00032638
   0.50153488  0.00071014  0.24977582
   0.99998452  0.49842174  0.24916616
   0.49986121  0.75120181  0.00082375
   0.99962790  0.00012247  0.75031144
   0.75096844  0.24862551  0.75010297
   0.74889986  0.00149091  0.49960998
   0.50003017  0.24880864  0.49855484
   0.50042523  0.00009158  0.75020166
   0.99882210  0.00127459  0.25028457
   0.50016564  0.24884262  0.00129440
   0.25045085  0.75011976  0.24946525
   0.24918459  0.49980699  0.99883284
   0.99951271  0.74949089  0.99897233
   0.74969096  0.75075224  0.24898557
   0.75064914  0.50028767  0.00005203
   0.50049068  0.49942326  0.25042829
   0.24865497  0.25036202  0.75013061
   0.25062970  0.00058856  0.50059287
   0.99940191  0.24968395  0.49989897
   0.24883745  0.74962834  0.75052882
   0.25021777  0.49941502  0.50125912
   0.00004570  0.75025991  0.50100710
   0.00078324  0.49985774  0.75045935
   0.75111770  0.75052391  0.75101906
   0.74966629  0.49893715  0.49995904
   0.49993179  0.75042221  0.49948057
   0.49914043  0.50000900  0.74951661
   0.49995974  0.00070270  0.99968794
   0.99962945  0.50111820  0.99986073
   0.50006965  0.74827707  0.25105594
   0.24941527  0.99993735  0.74894022
   0.49901417  0.99877972  0.50033070
   0.75060329  0.99880604  0.74916652
   0.24980560  0.74982737  0.49976945
   0.99974669  0.75142144  0.25036832
   0.74861560  0.50164059  0.24996002
   0.00101756  0.99992610  0.49880097
   0.50038973  0.50158212  0.50006321
   0.74965528  0.50146987  0.75008962
   0.75023539  0.74847066  0.49990829
HECN                                    
           1
     8.973699    0.003567    0.000579
     0.003567    8.984498    0.000158
     0.000579    0.000158    8.969227
   Ti   Ta   Hf   N    C    Zr   Mo
     7     6     6    13    19     7     6
Direct configuration=     5
   0.99994056  0.99873208  0.00097658
   0.24825699  0.99875856  0.25115069
   0.25088928  0.50127800  0.25022477
   0.50041857  0.49936746  0.99994345
   0.49936854  0.25147271  0.75047112
   0.00001909  0.50029697  0.50053440
   0.50038519  0.74853434  0.74870564
   0.99949665  0.24871009  0.25214088
   0.75170317  0.74785944  0.00006385
   0.00092926  0.25150000  0.74787710
   0.75181976  0.25182279  0.50028372
   0.99957281  0.74857400  0.74955667
   0.25053434  0.50003595  0.74970504
   0.25062695  0.25096014  0.99911964
   0.50025742  0.25179622  0.24956202
   0.75176553  0.99860302  0.25080825
   0.74926381  0.25161303  0.99973450
   0.24893749  0.74908978  0.00026472
   0.24897152  0.25021259  0.50084348
   0.25020672  0.24981683  0.24988941
   0.25112440  0.00016109  0.99915506
   0.00002999  0.25077400  0.00008038
   0.74972349  0.24840643  0.24989483
   0.74896649  0.00047480  0.00033588
   0.50157946  0.00073069  0.24976929
   0.99998411  0.49837600  0.24914190
   0.49985714  0.75123664  0.00084772
   0.99961708  0.00012603  0.75032050
   0.75099662  0.24858565  0.75010596
   0.74886785  0.00153416  0.49959863
   0.50003108  0.24877411  0.49851280
   0.50043758  0.00009423  0.75020752
   0.99878784  0.00131157  0.25029285
   0.50017048  0.24880907  0.00133206
   0.25046395  0.75012322  0.24944969
   0.24916090  0.49980141  0.99879889
   0.99949857  0.74947615  0.99894243
   0.74968196  0.75077405  0.24895606
   0.75066800  0.50029600  0.00005354
   0.50050496  0.49940653  0.25044075
   0.24861588  0.25037255  0.75013442
   0.25064798  0.00060560  0.50061011
   0.99938454  0.24967481  0.49989603
   0.24880368  0.74961760  0.75054420
   0.25022411  0.49939806  0.50129575
   0.00004702  0.75026744  0.50103640
   0.00080600  0.49985359  0.75047271
   0.75115016  0.75053907  0.75104870
   0.74965662  0.49890636  0.49995785
   0.49992980  0.75043445  0.49946546
   0.49911546  0.50000929  0.74950255
   0.49995855  0.00072307  0.99967886
   0.99961866  0.50115062  0.99985668
   0.50007171  0.74822712  0.25108666
   0.24939828  0.99993555  0.74890939
   0.49898555  0.99874437  0.50034033
   0.75062086  0.99877142  0.74914227
   0.24979996  0.74982237  0.49976274
   0.99973930  0.75146265  0.25037904
   0.74857533  0.50168818  0.24995886
   0.00104714  0.99992393  0.49876609
   0.50040101  0.50162797  0.50006505
   0.74964522  0.50151249  0.75009223
   0.75024227  0.74842633  0.49990563
HECN                                    
           1
     8.955759    0.006601   -0.001959
     0.006601    8.974921   -0.001283
    -0.001957   -0.001279    8.949248
   Ti   Ta   Hf   N    C    Zr   Mo
     7     6     6    13    19     7     6
Direct configuration=     6
   0.00036081  0.99616539  0.00514008
   0.24224342  0.99600590  0.25284774
   0.25414011  0.50389619  0.25069020
   0.50201828  0.49866226  0.99966619
   0.49850727  0.25592994  0.75102044
   0.00063570  0.49992363  0.50076140
   0.50263491  0.74351670  0.74631458
   0.99894970  0.24499870  0.25845774
   0.75357428  0.74400785  0.00005172
   0.00197176  0.25491441  0.74203981
   0.75608814  0.25659563  0.50138104
   0.99777341  0.74507855  0.74857031
   0.25402258  0.49936077  0.74917348
   0.25042498  0.25011986  0.00045411
   0.50002268  0.25551428  0.25005107
   0.75614710  0.99581722  0.25306660
   0.74893706  0.25378986  0.99836157
   0.24895265  0.75006616  0.00190322
   0.24740172  0.25156573  0.49927716
   0.24851383  0.24961357  0.24997686
   0.24700577  0.00031299  0.00386871
   0.00024385  0.24691104  0.00071515
   0.75070379  0.24742484  0.25124924
   0.75339882  0.99986789  0.00206674
   0.50074860  0.00354027  0.24914370
   0.00238002  0.49606262  0.25429503
   0.50142131  0.74714526  0.99649415
   0.99858833  0.99997402  0.75374956
   0.74941231  0.24939246  0.74843429
   0.74997815  0.00364026  0.49754724
   0.50197350  0.25027116  0.50034068
   0.50189136  0.00020580  0.75038517
   0.00313113  0.00163081  0.24813659
   0.50067896  0.25372873  0.99854694
   0.24592429  0.75027119  0.24738433
   0.25392219  0.49968713  0.00069594
   0.99704701  0.75512750  0.99887271
   0.75374172  0.74812468  0.24935886
   0.74503045  0.50311158  0.00006226
   0.49928550  0.49740820  0.24958084
   0.24950296  0.25367682  0.74982315
   0.24733204  0.00287590  0.49408637
   0.99701330  0.25239332  0.49935555
   0.25014251  0.74624570  0.75228301
   0.24850569  0.49718021  0.49949592
   0.99530991  0.74815114  0.50065656
   0.00019126  0.49978926  0.74359798
   0.74847218  0.74629296  0.75051316
   0.75185498  0.49959882  0.49999511
   0.50474719  0.74574281  0.50640726
   0.50003558  0.50030217  0.75017164
   0.49859197  0.00066771  0.99783852
   0.99860526  0.50221438  0.00263890
   0.49977947  0.74423662  0.25101319
   0.24816462  0.00021922  0.74979437
   0.49689296  0.99715549  0.50234132
   0.75136957  0.99691783  0.74685446
   0.24827769  0.74820686  0.49824691
   0.99972844  0.75708494  0.25097557
   0.74276524  0.50543548  0.24820243
   0.00362403  0.00147476  0.49337176
   0.50207519  0.50579640  0.50010691
   0.74682079  0.50546722  0.75193978
   0.75037039  0.74349364  0.50015738
HECN                                    
           1
     8.948187    0.007881   -0.003030
     0.007881    8.970879   -0.001891
    -0.003027   -0.001885    8.940815
   Ti   Ta   Hf   N    C    Zr   Mo
     7     6     6    13    19     7     6
Direct configuration=     7
   0.00053940  0.99508114  0.00690114
   0.23970082  0.99484384  0.25356469
   0.25551460  0.50500198  0.25088765
   0.50269487  0.49836405  0.99954905
   0.49814246  0.25781335  0.75125300
   0.00089655  0.49976582  0.50085747
   0.50358677  0.74139618  0.74530307
   0.99871968  0.24343108  0.26112950
   0.75436614  0.74238023  0.00004655
   0.00241145  0.25635650  0.73957096
   0.75789273  0.25861168  0.50184605
   0.99701281  0.74360186  0.74815262
   0.25549783  0.49907495  0.74894900
   0.25033985  0.24976494  0.00101851
   0.49992294  0.25708529  0.25025817
   0.75800077  0.99463971  0.25402223
   0.74879841  0.25470955  0.99778093
   0.24895912  0.75047880  0.00259638
   0.24673745  0.25213758  0.49861450
   0.24779793  0.24952793  0.25001363
   0.24526451  0.00037809  0.00586213
   0.00033493  0.24527890  0.00098343
   0.75111867  0.24701006  0.25182221
   0.75527358  0.99961095  0.00279940
   0.50039674  0.00472743  0.24887916
   0.00339422  0.49508519  0.25647497
   0.50208288  0.74541607  0.99465248
   0.99815369  0.99991017  0.75519994
   0.74874197  0.24973347  0.74772702
   0.75044715  0.00452982  0.49667977
   0.50279498  0.25090354  0.50111421
   0.50250618  0.00025275  0.75046050
   0.00496764  0.00176492  0.24722502
   0.50089297  0.25580710  0.99736921
   0.24400416  0.75033421  0.24651013
   0.25593602  0.49963828  0.00149897
   0.99600941  0.75751563  0.99884331
   0.75545906  0.74700473  0.24952956
   0.74264587  0.50430201  0.00006546
   0.49876996  0.49656400  0.24921681
   0.24987761  0.25507277  0.74969181
   0.24592858  0.00383517  0.49132653
   0.99601002  0.25354223  0.49912683
   0.25070941  0.74482095  0.75301847
   0.24777906  0.49624326  0.49873422
   0.99330680  0.74725763  0.50049518
   0.99993047  0.49976171  0.74068985
   0.74734018  0.74449927  0.75028602
   0.75278459  0.49989109  0.50001118
   0.50678601  0.74376030  0.50934395
   0.50042475  0.50042583  0.75045480
   0.49801381  0.00064439  0.99705988
   0.99817686  0.50266417  0.00381575
   0.49965644  0.74255061  0.25098181
   0.24764296  0.00033932  0.75016859
   0.49600845  0.99648460  0.50318740
   0.75168620  0.99613440  0.74588666
   0.24763396  0.74752440  0.49760541
   0.99972312  0.75946048  0.25122828
   0.74030735  0.50701949  0.24745900
   0.00471296  0.00212927  0.49109034
   0.50278262  0.50755738  0.50012510
   0.74562596  0.50713868  0.75272124
   0.75042531  0.74140951  0.50026355
HECN                                    
           1
     9.012539    0.000765   -0.001867
     0.000723    9.059946   -0.008857
    -0.001860   -0.008833    8.997719
   Ti   Ta   Hf   N    C    Zr   Mo
     7     6     6    13    19     7     6
Direct configuration=     8
   0.00063297  0.99490545  0.01019749
   0.23772669  0.99319496  0.25371409
   0.25857642  0.50571344  0.25052939
   0.50201996  0.49915801  0.99932144
   0.49653359  0.26100716  0.75051355
   0.00226651  0.49906597  0.49872240
   0.50420815  0.73727054  0.74598008
   0.99844778  0.24262061  0.26263474
   0.75322497  0.74297634  0.00069367
   0.00306383  0.25966599  0.73717799
   0.75747093  0.26338840  0.50257389
   0.99695873  0.73975263  0.74659293
   0.25776869  0.49996559  0.74952775
   0.24775398  0.25133181  0.00181879
   0.50073433  0.25447053  0.25151526
   0.75782394  0.99238455  0.25470199
   0.75042012  0.25532804  0.99637172
   0.24833128  0.74937254  0.00043349
   0.24641982  0.25223696  0.49772661
   0.24686740  0.24980936  0.24999225
   0.24363509  0.00024729  0.00789220
   0.99973180  0.24383095  0.00132071
   0.75196905  0.24683522  0.25260960
   0.75672418  0.99983038  0.00295953
   0.50074150  0.00528973  0.24854339
   0.00431689  0.49294258  0.25842311
   0.50304143  0.74443182  0.99350078
   0.99749348  0.00029893  0.75660577
   0.74842332  0.24959387  0.74667631
   0.75036792  0.00642101  0.49654986
   0.50453611  0.25108743  0.50211593
   0.50259977  0.00073046  0.75025714
   0.00609805  0.00147569  0.24589282
   0.50140763  0.25630039  0.99635900
   0.24338976  0.74955043  0.24733218
   0.25622422  0.49978344  0.00290259
   0.99623064  0.75803701  0.99885608
   0.75523258  0.74467752  0.24942126
   0.74209739  0.50359619  0.00056067
   0.49674329  0.49781815  0.24839860
   0.25087156  0.25511115  0.74962985
   0.24480617  0.00265307  0.49028152
   0.99809085  0.25497283  0.50000042
   0.25078887  0.74428754  0.75247236
   0.24801154  0.49754039  0.49723004
   0.99248622  0.74792926  0.50020847
   0.00000305  0.49964071  0.74060427
   0.74644944  0.74408025  0.75072996
   0.75413508  0.49988745  0.49929182
   0.50574611  0.74342942  0.50970135
   0.50096941  0.50016448  0.75047900
   0.49913676  0.00119288  0.99809731
   0.99947608  0.50167317  0.00522736
   0.50101645  0.74471841  0.25188516
   0.24637044  0.99986344  0.74907777
   0.49434669  0.99528586  0.50213687
   0.75265673  0.99341661  0.74527813
   0.24631170  0.74733594  0.49961985
   0.00068184  0.76457988  0.25201302
   0.73465452  0.50905796  0.24486913
   0.00680999  0.00441646  0.48718494
   0.50495379  0.50891960  0.50092889
   0.74217066  0.50944674  0.75545590
   0.75080255  0.73399977  0.49968022
HECN                                    
           1
     9.001413    0.001996   -0.002068
     0.001961    9.044547   -0.007652
    -0.002062   -0.007632    8.987881
   Ti   Ta   Hf   N    C    Zr   Mo
     7     6     6    13    19     7     6
Direct configuration=     9
   0.00061700  0.99493509  0.00963119
   0.23806580  0.99347749  0.25368860
   0.25805072  0.50559127  0.25059091
   0.50213570  0.49902221  0.99936043
   0.49680932  0.26046071  0.75064013
   0.00203139  0.49918588  0.49908933
   0.50410207  0.73797666  0.74586433
   0.99849460  0.24275920  0.26237624
   0.75342080  0.74287436  0.00058239
   0.00295133  0.25909964  0.73758869
   0.75754269  0.26257061  0.50244820
   0.99696851  0.74041182  0.74686140
   0.25737876  0.49981273  0.74942826
   0.24819768  0.25106381  0.00168103
   0.50059543  0.25491789  0.25129965
   0.75785462  0.99277056  0.25458550
   0.75014162  0.25522213  0.99661378
   0.24843916  0.74956229  0.00080521
   0.24647431  0.25222011  0.49787913
   0.24702710  0.24976131  0.24999587
   0.24391486  0.00026964  0.00754341
   0.99983554  0.24407887  0.00126295
   0.75182311  0.24686493  0.25247436
   0.75647514  0.99979260  0.00293202
   0.50068223  0.00519347  0.24860101
   0.00415884  0.49330901  0.25808872
   0.50287699  0.74460034  0.99369880
   0.99760679  0.00023228  0.75636418
   0.74847802  0.24961795  0.74685684
   0.75038126  0.00609727  0.49657192
   0.50423722  0.25105558  0.50194385
   0.50258363  0.00064870  0.75029202
   0.00590401  0.00152523  0.24612176
   0.50131919  0.25621600  0.99653250
   0.24349535  0.74968459  0.24719104
   0.25617476  0.49975836  0.00266143
   0.99619260  0.75794772  0.99885382
   0.75527178  0.74507597  0.24944017
   0.74219165  0.50371703  0.00047567
   0.49709100  0.49760382  0.24853896
   0.25070093  0.25510446  0.74964051
   0.24499898  0.00285573  0.49046119
   0.99773347  0.25472752  0.49985019
   0.25077529  0.74437892  0.75256626
   0.24797142  0.49731849  0.49748829
   0.99262698  0.74781443  0.50025762
   0.99999061  0.49966143  0.74061899
   0.74660241  0.74415205  0.75065372
   0.75390323  0.49988798  0.49941544
   0.50592467  0.74348616  0.50963997
   0.50087595  0.50020915  0.75047489
   0.49894395  0.00109869  0.99791903
   0.99925322  0.50184246  0.00498500
   0.50078271  0.74434699  0.25172971
   0.24658892  0.99994523  0.74926521
   0.49463209  0.99549144  0.50231747
   0.75249049  0.99388184  0.74538306
   0.24653875  0.74736812  0.49927376
   0.00051658  0.76370322  0.25187754
   0.73562456  0.50871009  0.24531368
   0.00644961  0.00402513  0.48785564
   0.50458091  0.50868599  0.50079067
   0.74276355  0.50905172  0.75498570
   0.75073880  0.73526832  0.49978143
HECN                                    
           1
     8.971282   -0.004317   -0.001667
    -0.004388    9.036244   -0.012014
    -0.001657   -0.011993    8.946198
   Ti   Ta   Hf   N    C    Zr   Mo
     7     6     6    13    19     7     6
Direct configuration=    10
   0.00058588  0.99514504  0.01210324
   0.23758710  0.99167813  0.25309478
   0.26129305  0.50612661  0.25047688
   0.50101760  0.49964352  0.99933690
   0.49485536  0.26312009  0.74959152
   0.00404598  0.49833526  0.49591789
   0.50424312  0.73479730  0.74692533
   0.99831281  0.24301664  0.26271948
   0.75294842  0.74342321  0.00139880
   0.00397401  0.26287439  0.73663732
   0.75652886  0.26819405  0.50316590
   0.99678204  0.73604019  0.74505659
   0.25924001  0.50050318  0.74958173
   0.24593466  0.25240899  0.00209593
   0.50158334  0.25287516  0.25217289
   0.75719410  0.99106995  0.25520956
   0.75185741  0.25530745  0.99518675
   0.24767804  0.74854020  0.99908294
   0.24711681  0.25238494  0.49758385
   0.24660120  0.24994589  0.24997881
   0.24374575  0.00013865  0.00810362
   0.99912806  0.24369223  0.00163243
   0.75250932  0.24652764  0.25307140
   0.75654976  0.00026502  0.00254741
   0.50166531  0.00522304  0.24842004
   0.00450930  0.49080989  0.25857227
   0.50338008  0.74511667  0.99375021
   0.99697504  0.00096392  0.75686064
   0.74881405  0.24875429  0.74600755
   0.74996491  0.00827680  0.49727185
   0.50578803  0.25049799  0.50239579
   0.50241849  0.00127223  0.75025766
   0.00500135  0.00174618  0.24557423
   0.50155160  0.25514132  0.99642859
   0.24402957  0.74893676  0.24813287
   0.25516512  0.49996165  0.00347846
   0.99676358  0.75673431  0.99896903
   0.75453588  0.74318303  0.24921461
   0.74332876  0.50249189  0.00107338
   0.49527832  0.49882299  0.24801517
   0.25134909  0.25450071  0.74955557
   0.24469892  0.00144913  0.49123078
   0.99979555  0.25538603  0.50058155
   0.25026628  0.74457276  0.75185901
   0.24923501  0.49891051  0.49657412
   0.99268704  0.74976880  0.50000520
   0.00018144  0.49946264  0.74256439
   0.74671057  0.74470409  0.75139986
   0.75520929  0.49938869  0.49853756
   0.50373023  0.74440248  0.50834472
   0.50097502  0.49963924  0.75061610
   0.49972607  0.00206096  0.99825802
   0.00052186  0.50105346  0.00652611
   0.50115455  0.74677603  0.25252274
   0.24516164  0.99963268  0.74860978
   0.49334362  0.99449372  0.50178627
   0.75356244  0.99099853  0.74466601
   0.24517329  0.74719347  0.50099323
   0.00125101  0.76828825  0.25355977
   0.72951335  0.51037121  0.24236649
   0.00878150  0.00613103  0.48431022
   0.50637628  0.50958530  0.50131178
   0.73879238  0.51110354  0.75811616
   0.75132216  0.72614076  0.49861093
HECN                                    
           1
     8.973728   -0.003805   -0.001699
    -0.003873    9.036918   -0.011660
    -0.001690   -0.011639    8.949582
   Ti   Ta   Hf   N    C    Zr   Mo
     7     6     6    13    19     7     6
Direct configuration=    11
   0.00058842  0.99512788  0.01190160
   0.23762619  0.99182439  0.25314328
   0.26102891  0.50608293  0.25048617
   0.50110864  0.49959310  0.99933879
   0.49501437  0.26290414  0.74967694
   0.00388192  0.49840440  0.49617660
   0.50423182  0.73505560  0.74683892
   0.99832761  0.24299572  0.26269147
   0.75298687  0.74337860  0.00133219
   0.00389049  0.26256763  0.73671477
   0.75661112  0.26773712  0.50310714
   0.99679747  0.73639551  0.74520397
   0.25908836  0.50044696  0.74956919
   0.24611892  0.25229980  0.00206203
   0.50150299  0.25304107  0.25210175
   0.75724800  0.99120815  0.25515873
   0.75171764  0.25530048  0.99530315
   0.24774009  0.74862336  0.99922346
   0.24706446  0.25237152  0.49760793
   0.24663589  0.24993091  0.24998019
   0.24375953  0.00014928  0.00805793
   0.99918571  0.24372368  0.00160230
   0.75245344  0.24655498  0.25302272
   0.75654366  0.00022664  0.00257876
   0.50158523  0.00522059  0.24843480
   0.00448089  0.49101293  0.25853293
   0.50333907  0.74507468  0.99374600
   0.99702646  0.00090448  0.75682011
   0.74878672  0.24882449  0.74607686
   0.74999870  0.00809968  0.49721468
   0.50566174  0.25054320  0.50235895
   0.50243191  0.00122157  0.75026044
   0.00507486  0.00172830  0.24561887
   0.50153273  0.25522864  0.99643711
   0.24398610  0.74899746  0.24805608
   0.25524735  0.49994516  0.00341181
   0.99671714  0.75683287  0.99895968
   0.75459593  0.74333690  0.24923308
   0.74323620  0.50259136  0.00102468
   0.49542591  0.49872404  0.24805784
   0.25129633  0.25454973  0.74956252
   0.24472345  0.00156342  0.49116807
   0.99962755  0.25533237  0.50052188
   0.25030773  0.74455707  0.75191668
   0.24913199  0.49878111  0.49664862
   0.99268203  0.74960999  0.50002571
   0.00016591  0.49947871  0.74240573
   0.74670173  0.74465919  0.75133898
   0.75510293  0.49942922  0.49860919
   0.50390892  0.74432819  0.50845032
   0.50096698  0.49968554  0.75060461
   0.49966230  0.00198271  0.99823033
   0.00041857  0.50111744  0.00640044
   0.50112413  0.74657859  0.25245796
   0.24527792  0.99965819  0.74866325
   0.49344863  0.99457489  0.50182963
   0.75347529  0.99123280  0.74472461
   0.24528453  0.74720767  0.50085299
   0.00119093  0.76791556  0.25342239
   0.73001105  0.51023669  0.24260679
   0.00859142  0.00595991  0.48459933
   0.50622998  0.50951210  0.50126924
   0.73911575  0.51093691  0.75786074
   0.75127516  0.72688247  0.49870676
HECN                                    
           1
     8.978099   -0.001929   -0.003760
    -0.001976    9.050573   -0.008706
    -0.003749   -0.008742    8.942187
   Ti   Ta   Hf   N    C    Zr   Mo