<?xml version="1.0" encoding="ISO-8859-1"?>
<modeling>
 <generator>
  <i name="program" type="string">vasp </i>
  <i name="version" type="string">5.4.4.18Apr17-6-g9f103f2a35  </i>
  <i name="subversion" type="string">(build Oct 18 2021 20:38:43) complex            parallel </i>
  <i name="platform" type="string">LinuxIFC </i>
  <i name="date" type="string">2025 11 12 </i>
  <i name="time" type="string">16:18:34 </i>
 </generator>
 <incar>
  <i type="string" name="SYSTEM">HEBCN</i>
  <i type="int" name="ISTART">     0</i>
  <i type="string" name="PREC">normal</i>
  <i type="string" name="ALGO">Fast</i>
  <i type="int" name="ICHARG">     2</i>
  <i type="int" name="NELM">    60</i>
  <i type="int" name="IBRION">    -1</i>
  <i name="EDIFF">      0.00001000</i>
  <i name="EDIFFG">     -0.01000000</i>
  <i type="int" name="NSW">     0</i>
  <i type="int" name="ISIF">     2</i>
  <i name="ENCUT">    400.00000000</i>
  <i name="POTIM">      0.50000000</i>
  <i type="logical" name="LREAL"> F  </i>
  <i type="int" name="ISMEAR">     0</i>
  <i name="SIGMA">      0.10000000</i>
  <i type="logical" name="LWAVE"> T  </i>
  <i type="logical" name="LCHARG"> T  </i>
  <v type="int" name="KPOINT_BSE">    -1     0     0     0</v>
  <i type="int" name="NELM">    60</i>
 </incar>
 <structure name="primitive_cell" >
  <crystal>
   <varray name="basis" >
    <v>       8.58373642       0.00507199       0.00539539 </v>
    <v>       0.01082528       8.60171700       0.01401309 </v>
    <v>       0.03613636      -0.00095056       8.64646686 </v>
   </varray>
   <i name="volume">    638.40873452 </i>
   <varray name="rec_basis" >
    <v>       0.11649978      -0.00014582      -0.00048691 </v>
    <v>      -0.00006870       0.11625592       0.00001307 </v>
    <v>      -0.00007258      -0.00018832       0.11565446 </v>
   </varray>
  </crystal>
  <varray name="positions" >
   <v>       0.00831991       0.00864620      -0.01216816 </v>
   <v>       0.00566063       0.25759608       0.00840262 </v>
   <v>      -0.00954869      -0.01096918      -0.26052103 </v>
   <v>       0.26548765      -0.00024392      -0.00375057 </v>
   <v>      -0.00812673      -0.00230641       0.24432629 </v>
   <v>      -0.25162323       0.00046389      -0.00027452 </v>
   <v>       0.00701495      -0.25251856       0.00586999 </v>
   <v>       0.22112160       0.01034318      -0.22607737 </v>
   <v>       0.01333618       0.23583216      -0.24763737 </v>
   <v>      -0.01514337       0.23211516       0.25547889 </v>
   <v>       0.26426943       0.24977399      -0.01559156 </v>
   <v>       0.23879865      -0.25744697       0.00313628 </v>
   <v>      -0.23547358      -0.25348648       0.00054544 </v>
   <v>       0.00403380      -0.26160613      -0.24568967 </v>
   <v>      -0.28265199      -0.00059256      -0.22160951 </v>
   <v>      -0.26538781       0.24426346      -0.01791621 </v>
   <v>       0.26047687      -0.00286793       0.24512501 </v>
   <v>       0.00385411      -0.23785794       0.25808554 </v>
   <v>      -0.26446258       0.01194202       0.28117832 </v>
   <v>      -0.23948650       0.23157037      -0.25820439 </v>
   <v>       0.25683972       0.24437379      -0.25177802 </v>
   <v>       0.24716581      -0.23978956      -0.24966857 </v>
   <v>      -0.24730646      -0.23333012      -0.25152926 </v>
   <v>       0.24689224       0.24616982       0.24871568 </v>
   <v>      -0.25307901       0.24833034       0.23213011 </v>
   <v>      -0.26040171      -0.23578159       0.24460107 </v>
   <v>       0.25984136      -0.25194028       0.24742531 </v>
   <v>      -0.00719901      -0.48040446      -0.02604914 </v>
   <v>      -0.48450392       0.01674083      -0.01904681 </v>
   <v>       0.02160614      -0.00252718       0.49144741 </v>
   <v>      -0.00065437       0.48761662      -0.24426918 </v>
   <v>       0.48998810       0.00284865      -0.25598384 </v>
   <v>       0.25642282       0.00066017      -0.48998927 </v>
   <v>      -0.23713831       0.49058569       0.00848519 </v>
   <v>       0.24120602       0.49759951      -0.00294728 </v>
   <v>       0.00889759       0.24733066      -0.49824789 </v>
   <v>      -0.49909713       0.24578159       0.00771405 </v>
   <v>       0.00596596      -0.24916050      -0.49553074 </v>
   <v>      -0.00212677       0.49049611       0.25162832 </v>
   <v>      -0.49949274      -0.24259222      -0.00178636 </v>
   <v>      -0.25973189      -0.00093024      -0.49348551 </v>
   <v>      -0.49284712      -0.00604803       0.24451645 </v>
   <v>       0.25006734       0.25375046      -0.48633661 </v>
   <v>       0.49665146      -0.23888440      -0.25513721 </v>
   <v>      -0.49309658       0.24257322      -0.24866254 </v>
   <v>       0.25439193      -0.49734010      -0.24933178 </v>
   <v>      -0.48075908       0.23002546       0.26234607 </v>
   <v>      -0.23983058       0.23962593       0.48372596 </v>
   <v>      -0.25394265      -0.48358667      -0.23934569 </v>
   <v>       0.25240122       0.49927178       0.24864728 </v>
   <v>       0.25293715      -0.25683520       0.49470399 </v>
   <v>      -0.26474437      -0.48027905       0.25338014 </v>
   <v>      -0.25255333      -0.25753010       0.49553064 </v>
   <v>      -0.49921164      -0.26353133       0.27492970 </v>
   <v>       0.47254266       0.01430237       0.48441276 </v>
   <v>      -0.00340527      -0.49955185      -0.49266793 </v>
   <v>      -0.49659321       0.49949316       0.00146452 </v>
   <v>      -0.25312458       0.48928674      -0.49467531 </v>
   <v>       0.25128109       0.49816993      -0.49849140 </v>
   <v>       0.49520443      -0.23132404       0.49300186 </v>
   <v>       0.49959491      -0.49730116      -0.25247990 </v>
   <v>      -0.49789472       0.24829095       0.49347779 </v>
   <v>       0.49829108       0.49535846       0.24943049 </v>
   <v>      -0.49992350      -0.48266483       0.49301759 </v>
  </varray>
 </structure>
 <varray name="primitive_index" >
  <v type="int" >        1 </v>
  <v type="int" >       23 </v>
  <v type="int" >       29 </v>
  <v type="int" >       22 </v>
  <v type="int" >       34 </v>
  <v type="int" >       25 </v>
  <v type="int" >       38 </v>
  <v type="int" >       56 </v>
  <v type="int" >       10 </v>
  <v type="int" >        8 </v>
  <v type="int" >       14 </v>
  <v type="int" >       18 </v>
  <v type="int" >        9 </v>
  <v type="int" >       12 </v>
  <v type="int" >       58 </v>
  <v type="int" >       17 </v>
  <v type="int" >        2 </v>
  <v type="int" >       59 </v>
  <v type="int" >       16 </v>
  <v type="int" >       30 </v>
  <v type="int" >       42 </v>
  <v type="int" >       45 </v>
  <v type="int" >       49 </v>
  <v type="int" >       21 </v>
  <v type="int" >       24 </v>
  <v type="int" >       39 </v>
  <v type="int" >       36 </v>
  <v type="int" >       54 </v>
  <v type="int" >       53 </v>
  <v type="int" >       61 </v>
  <v type="int" >       48 </v>
  <v type="int" >       33 </v>
  <v type="int" >       43 </v>
  <v type="int" >       40 </v>
  <v type="int" >       37 </v>
  <v type="int" >       44 </v>
  <v type="int" >       35 </v>
  <v type="int" >       47 </v>
  <v type="int" >       27 </v>
  <v type="int" >       28 </v>
  <v type="int" >       31 </v>
  <v type="int" >       26 </v>
  <v type="int" >       19 </v>
  <v type="int" >        7 </v>
  <v type="int" >        5 </v>
  <v type="int" >       13 </v>
  <v type="int" >       15 </v>
  <v type="int" >       11 </v>
  <v type="int" >       63 </v>
  <v type="int" >        3 </v>
  <v type="int" >       20 </v>
  <v type="int" >       60 </v>
  <v type="int" >       64 </v>
  <v type="int" >       55 </v>
  <v type="int" >       57 </v>
  <v type="int" >        6 </v>
  <v type="int" >        4 </v>
  <v type="int" >       50 </v>
  <v type="int" >       46 </v>
  <v type="int" >       51 </v>
  <v type="int" >       52 </v>
  <v type="int" >       32 </v>
  <v type="int" >       41 </v>
  <v type="int" >       62 </v>
 </varray>
 <kpoints>
  <generation param="Gamma">
   <v type="int" name="divisions">       3        3        3 </v>
   <v name="usershift">      0.00000000       0.00000000       0.00000000 </v>
   <v name="genvec1">      0.33333333      -0.00000000       0.00000000 </v>
   <v name="genvec2">     -0.00000000       0.33333333      -0.00000000 </v>
   <v name="genvec3">      0.00000000       0.00000000       0.33333333 </v>
   <v name="shift">      0.00000000       0.00000000       0.00000000 </v>
  </generation>
  <varray name="kpointlist" >
   <v>       0.00000000       0.00000000       0.00000000 </v>
   <v>       0.33333333       0.00000000       0.00000000 </v>
   <v>      -0.00000000       0.33333333       0.00000000 </v>
   <v>       0.33333333       0.33333333       0.00000000 </v>
   <v>      -0.33333333       0.33333333      -0.00000000 </v>
   <v>       0.00000000       0.00000000       0.33333333 </v>
   <v>       0.33333333      -0.00000000       0.33333333 </v>
   <v>      -0.33333333       0.00000000       0.33333333 </v>
   <v>       0.00000000       0.33333333       0.33333333 </v>
   <v>       0.33333333       0.33333333       0.33333333 </v>
   <v>      -0.33333333       0.33333333       0.33333333 </v>
   <v>       0.00000000      -0.33333333       0.33333333 </v>
   <v>       0.33333333      -0.33333333       0.33333333 </v>
   <v>      -0.33333333      -0.33333333       0.33333333 </v>
  </varray>
  <varray name="weights" >
   <v>       0.03703704 </v>
   <v>       0.07407407 </v>
   <v>       0.07407407 </v>
   <v>       0.07407407 </v>
   <v>       0.07407407 </v>
   <v>       0.07407407 </v>
   <v>       0.07407407 </v>
   <v>       0.07407407 </v>
   <v>       0.07407407 </v>
   <v>       0.07407407 </v>
   <v>       0.07407407 </v>
   <v>       0.07407407 </v>
   <v>       0.07407407 </v>
   <v>       0.07407407 </v>
  </varray>
 </kpoints>
 <parameters>
  <separator name="general" >
   <i type="string" name="SYSTEM">HEBCN</i>
   <i type="logical" name="LCOMPAT"> F  </i>
  </separator>
  <separator name="electronic" >
   <i type="string" name="PREC">normal</i>
   <i name="ENMAX">    400.00000000</i>
   <i name="ENAUG">    644.87300000</i>
   <i name="EDIFF">      0.00001000</i>
   <i type="int" name="IALGO">    68</i>
   <i type="int" name="IWAVPR">    10</i>
   <i type="int" name="NBANDS">   312</i>
   <i name="NELECT">    503.00000000</i>
   <i type="int" name="TURBO">     0</i>
   <i type="int" name="IRESTART">     0</i>
   <i type="int" name="NREBOOT">     0</i>
   <i type="int" name="NMIN">     0</i>
   <i name="EREF">      0.00000000</i>
   <separator name="electronic smearing" >
    <i type="int" name="ISMEAR">     0</i>
    <i name="SIGMA">      0.10000000</i>
    <i name="KSPACING">      0.50000000</i>
    <i type="logical" name="KGAMMA"> T  </i>
   </separator>
   <separator name="electronic projectors" >
    <i type="logical" name="LREAL"> F  </i>
    <v name="ROPT">      0.00000000      0.00000000      0.00000000      0.00000000      0.00000000      0.00000000      0.00000000</v>
    <i type="int" name="LMAXPAW">  -100</i>
    <i type="int" name="LMAXMIX">     2</i>
    <i type="logical" name="NLSPLINE"> F  </i>
   </separator>
   <separator name="electronic startup" >
    <i type="int" name="ISTART">     0</i>
    <i type="int" name="ICHARG">     2</i>
    <i type="int" name="INIWAV">     1</i>
   </separator>
   <separator name="electronic spin" >
    <i type="int" name="ISPIN">     1</i>
    <i type="logical" name="LNONCOLLINEAR"> F  </i>
    <v name="MAGMOM">      1.00000000      1.00000000      1.00000000      1.00000000      1.00000000      1.00000000      1.00000000      1.00000000      1.00000000      1.00000000      1.00000000      1.00000000      1.00000000      1.00000000      1.00000000      1.00000000      1.00000000      1.00000000      1.00000000      1.00000000
      1.00000000      1.00000000      1.00000000      1.00000000      1.00000000      1.00000000      1.00000000      1.00000000      1.00000000      1.00000000      1.00000000      1.00000000      1.00000000      1.00000000      1.00000000      1.00000000      1.00000000      1.00000000      1.00000000      1.00000000
      1.00000000      1.00000000      1.00000000      1.00000000      1.00000000      1.00000000      1.00000000      1.00000000      1.00000000      1.00000000      1.00000000      1.00000000      1.00000000      1.00000000      1.00000000      1.00000000      1.00000000      1.00000000      1.00000000      1.00000000
      1.00000000      1.00000000      1.00000000      1.00000000</v>
    <i name="NUPDOWN">     -1.00000000</i>
    <i type="logical" name="LSORBIT"> F  </i>
    <v name="SAXIS">      0.00000000      0.00000000      1.00000000</v>
    <i type="logical" name="LSPIRAL"> F  </i>
    <v name="QSPIRAL">      0.00000000      0.00000000      0.00000000</v>
    <i type="logical" name="LZEROZ"> F  </i>
   </separator>
   <separator name="electronic exchange-correlation" >
    <i type="logical" name="LASPH"> F  </i>
    <i type="logical" name="LMETAGGA"> F  </i>
   </separator>
   <separator name="electronic convergence" >
    <i type="int" name="NELM">    60</i>
    <i type="int" name="NELMDL">    -5</i>
    <i type="int" name="NELMIN">     2</i>
    <i name="ENINI">    400.00000000</i>
    <separator name="electronic convergence detail" >
     <i type="logical" name="LDIAG"> T  </i>
     <i type="logical" name="LSUBROT"> F  </i>
     <i name="WEIMIN">      0.00000000</i>
     <i name="EBREAK">      0.00000001</i>
     <i name="DEPER">      0.30000000</i>
     <i type="int" name="NRMM">     4</i>
     <i name="TIME">      0.40000000</i>
    </separator>
   </separator>
   <separator name="electronic mixer" >
    <i name="AMIX">      0.40000000</i>
    <i name="BMIX">      1.00000000</i>
    <i name="AMIN">      0.10000000</i>
    <i name="AMIX_MAG">      1.60000000</i>
    <i name="BMIX_MAG">      1.00000000</i>
    <separator name="electronic mixer details" >
     <i type="int" name="IMIX">     4</i>
     <i type="logical" name="MIXFIRST"> F  </i>
     <i type="int" name="MAXMIX">   -45</i>
     <i name="WC">    100.00000000</i>
     <i type="int" name="INIMIX">     1</i>
     <i type="int" name="MIXPRE">     1</i>
     <i type="int" name="MREMOVE">     5</i>
    </separator>
   </separator>
   <separator name="electronic dipolcorrection" >
    <i type="logical" name="LDIPOL"> F  </i>
    <i type="logical" name="LMONO"> F  </i>
    <i type="int" name="IDIPOL">     0</i>
    <i name="EPSILON">      1.00000000</i>
    <v name="DIPOL">   -100.00000000   -100.00000000   -100.00000000</v>
    <i name="EFIELD">      0.00000000</i>
   </separator>
  </separator>
  <separator name="grids" >
   <i type="int" name="NGX">    42</i>
   <i type="int" name="NGY">    42</i>
   <i type="int" name="NGZ">    42</i>
   <i type="int" name="NGXF">    84</i>
   <i type="int" name="NGYF">    84</i>
   <i type="int" name="NGZF">    84</i>
   <i type="logical" name="ADDGRID"> F  </i>
  </separator>
  <separator name="ionic" >
   <i type="int" name="NSW">     0</i>
   <i type="int" name="IBRION">    -1</i>
   <i type="int" name="MDALGO">     0</i>
   <i type="int" name="ISIF">     2</i>
   <i name="PSTRESS">      0.00000000</i>
   <i name="EDIFFG">     -0.01000000</i>
   <i type="int" name="NFREE">     0</i>
   <i name="POTIM">      0.50000000</i>
   <i name="SMASS">     -3.00000000</i>
   <i name="SCALEE">      1.00000000</i>
  </separator>
  <separator name="ionic md" >
   <i name="TEBEG">      0.00010000</i>
   <i name="TEEND">      0.00010000</i>
   <i type="int" name="NBLOCK">     1</i>
   <i type="int" name="KBLOCK">     1</i>
   <i type="int" name="NPACO">   256</i>
   <i name="APACO">     16.00000000</i>
  </separator>
  <separator name="symmetry" >
   <i type="int" name="ISYM">     2</i>
   <i name="SYMPREC">      0.00001000</i>
  </separator>
  <separator name="dos" >
   <i type="int" name="LORBIT">     0</i>
   <v name="RWIGS">     -1.00000000     -1.00000000     -1.00000000     -1.00000000     -1.00000000     -1.00000000     -1.00000000</v>
   <i type="int" name="NEDOS">   301</i>
   <i name="EMIN">     10.00000000</i>
   <i name="EMAX">    -10.00000000</i>
   <i name="EFERMI">      0.00000000</i>
  </separator>
  <separator name="writing" >
   <i type="int" name="NWRITE">     2</i>
   <i type="logical" name="LWAVE"> T  </i>
   <i type="logical" name="LDOWNSAMPLE"> F  </i>
   <i type="logical" name="LCHARG"> T  </i>
   <i type="logical" name="LPARD"> F  </i>
   <i type="logical" name="LVTOT"> F  </i>
   <i type="logical" name="LVHAR"> F  </i>
   <i type="logical" name="LELF"> F  </i>
   <i type="logical" name="LOPTICS"> F  </i>
   <v name="STM">      0.00000000      0.00000000      0.00000000      0.00000000      0.00000000      0.00000000      0.00000000</v>
  </separator>
  <separator name="performance" >
   <i type="int" name="NPAR">    24</i>
   <i type="int" name="NSIM">     4</i>
   <i type="int" name="NBLK">    -1</i>
   <i type="logical" name="LPLANE"> T  </i>
   <i type="logical" name="LSCALAPACK"> T  </i>
   <i type="logical" name="LSCAAWARE"> F  </i>
   <i type="logical" name="LSCALU"> F  </i>
   <i type="logical" name="LASYNC"> F  </i>
   <i type="logical" name="LORBITALREAL"> F  </i>
  </separator>
  <separator name="miscellaneous" >
   <i type="int" name="IDIOT">     3</i>
   <i type="int" name="ISPECIAL">     0</i>
   <i type="logical" name="LMUSIC"> F  </i>
   <v name="POMASS">     92.91000000    183.85000000     50.94100000     14.00100000     12.01100000     51.99600000     95.94000000</v>
   <v name="DARWINR">      0.00000000      0.00000000      0.00000000      0.00000000      0.00000000      0.00000000      0.00000000</v>
   <v name="DARWINV">      1.00000000      1.00000000      1.00000000      1.00000000      1.00000000      1.00000000      1.00000000</v>
   <i type="logical" name="LCORR"> T  </i>
  </separator>
  <i type="logical" name="GGA_COMPAT"> T  </i>
  <i type="logical" name="LBERRY"> F  </i>
  <i type="int" name="ICORELEVEL">     0</i>
  <i type="logical" name="LDAU"> F  </i>
  <i type="int" name="I_CONSTRAINED_M">     0</i>
  <separator name="electronic exchange-correlation" >
   <i type="string" name="GGA">--</i>
   <i type="int" name="VOSKOWN">     0</i>
   <i type="logical" name="LHFCALC"> F  </i>
   <i type="string" name="PRECFOCK"></i>
   <i type="logical" name="LSYMGRAD"> F  </i>
   <i type="logical" name="LHFONE"> F  </i>
   <i type="logical" name="LRHFCALC"> F  </i>
   <i type="logical" name="LTHOMAS"> F  </i>
   <i type="logical" name="LMODELHF"> F  </i>
   <i name="ENCUT4O">     -1.00000000</i>
   <i type="int" name="EXXOEP">     0</i>
   <i type="int" name="FOURORBIT">     0</i>
   <i name="AEXX">      0.00000000</i>
   <i name="HFALPHA">      0.00000000</i>
   <i name="MCALPHA">      0.00000000</i>
   <i name="ALDAX">      1.00000000</i>
   <i name="AGGAX">      1.00000000</i>
   <i name="ALDAC">      1.00000000</i>
   <i name="AGGAC">      1.00000000</i>
   <i type="int" name="NKREDX">     1</i>
   <i type="int" name="NKREDY">     1</i>
   <i type="int" name="NKREDZ">     1</i>
   <i type="logical" name="SHIFTRED"> F  </i>
   <i type="logical" name="ODDONLY"> F  </i>
   <i type="logical" name="EVENONLY"> F  </i>
   <i type="int" name="LMAXFOCK">     0</i>
   <i type="int" name="NMAXFOCKAE">     0</i>
   <i type="logical" name="LFOCKAEDFT"> F  </i>
   <i name="HFSCREEN">      0.00000000</i>
   <i name="HFSCREENC">      0.00000000</i>
   <i type="int" name="NBANDSGWLOW">     0</i>
  </separator>
  <separator name="vdW DFT" >
   <i type="logical" name="LUSE_VDW"> F  </i>
   <i name="Zab_VDW">     -0.84910000</i>
   <i name="PARAM1">      0.12340000</i>
   <i name="PARAM2">      1.00000000</i>
   <i name="PARAM3">      0.00000000</i>
  </separator>
  <separator name="model GW" >
   <i type="int" name="MODEL_GW">     0</i>
   <i name="MODEL_EPS0">      5.98508189</i>
   <i name="MODEL_ALPHA">      1.00000000</i>
  </separator>
  <separator name="linear response parameters" >
   <i type="logical" name="LEPSILON"> F  </i>
   <i type="logical" name="LRPA"> F  </i>
   <i type="logical" name="LNABLA"> F  </i>
   <i type="logical" name="LVEL"> F  </i>
   <i type="int" name="KINTER">     0</i>
   <i name="CSHIFT">      0.10000000</i>
   <i name="OMEGAMAX">     -1.00000000</i>
   <i name="DEG_THRESHOLD">      0.00200000</i>
   <i name="RTIME">     -0.10000000</i>
   <i name="WPLASMAI">      0.00000000</i>
   <v name="DFIELD">      0.00000000      0.00000000      0.00000000</v>
   <v name="WPLASMA">      0.00000000      0.00000000      0.00000000      0.00000000      0.00000000      0.00000000      0.00000000      0.00000000      0.00000000</v>
  </separator>
  <separator name="orbital magnetization" >
   <i type="logical" name="NUCIND"> F  </i>
   <v name="MAGPOS">      0.00000000      0.00000000      0.00000000</v>
   <i type="logical" name="LNICSALL"> T  </i>
   <i type="logical" name="ORBITALMAG"> F  </i>
   <i type="logical" name="LMAGBLOCH"> F  </i>
   <i type="logical" name="LCHIMAG"> F  </i>
   <i type="logical" name="LGAUGE"> T  </i>
   <i type="int" name="MAGATOM">     0</i>
   <v name="MAGDIPOL">      0.00000000      0.00000000      0.00000000</v>
   <v name="AVECCONST">      0.00000000      0.00000000      0.00000000</v>
  </separator>
  <separator name="response functions" >
   <i type="logical" name="LADDER"> F  </i>
   <i type="logical" name="LRPAFORCE"> F  </i>
   <i type="logical" name="LFXC"> F  </i>
   <i type="logical" name="LHARTREE"> T  </i>
   <i type="int" name="IBSE">     0</i>
   <v type="int" name="KPOINT">    -1     0     0     0</v>
   <i type="logical" name="LTCTE"> F  </i>
   <i type="logical" name="LTETE"> F  </i>
   <i type="logical" name="LTRIPLET"> F  </i>
   <i type="logical" name="LFXCEPS"> F  </i>
   <i type="logical" name="LFXHEG"> F  </i>
   <i type="int" name="NATURALO">     2</i>
   <i type="logical" name="L2ORDER"> F  </i>
   <i type="logical" name="LMP2LT"> F  </i>
   <i type="logical" name="LUSEW"> F  </i>
   <i name="ENCUTGW">     -2.00000000</i>
   <i name="ENCUTGWSOFT">     -2.00000000</i>
   <i name="ENCUTLF">     -1.00000000</i>
   <i type="int" name="LMAXMP2">    -1</i>
   <i name="SCISSOR">      0.00000000</i>
   <i type="int" name="NOMEGA">     0</i>
   <i type="int" name="NOMEGAR">     0</i>
   <i type="int" name="NBANDSGW">    -1</i>
   <i type="int" name="NBANDSO">    -1</i>
   <i type="int" name="NBANDSV">    -1</i>
   <i type="int" name="NELM">    60</i>
   <i type="int" name="NELMHF">     1</i>
   <i type="int" name="DIM">     3</i>
   <i type="int" name="ANTIRES">     0</i>
   <i name="OMEGAMAX">    -30.00000000</i>
   <i name="OMEGAMIN">    -30.00000000</i>
   <i name="OMEGATL">   -200.00000000</i>
   <i type="int" name="OMEGAGRID">   140</i>
   <i name="CSHIFT">     -0.10000000</i>
   <i type="logical" name="SELFENERGY"> F  </i>
   <i type="logical" name="LSPECTRAL"> F  </i>
   <i type="logical" name="LSPECTRALGW"> F  </i>
   <i type="logical" name="LSINGLES"> F  </i>
   <i type="logical" name="LFERMIGW"> F  </i>
   <i type="logical" name="ODDONLYGW"> F  </i>
   <i type="logical" name="EVENONLYGW"> F  </i>
   <i type="int" name="NKREDLFX">     1</i>
   <i type="int" name="NKREDLFY">     1</i>
   <i type="int" name="NKREDLFZ">     1</i>
   <i type="int" name="MAXMEM">  2800</i>
   <i type="int" name="TELESCOPE">     0</i>
   <i type="int" name="TAUPAR">     1</i>
   <i type="int" name="OMEGAPAR">    -1</i>
   <i name="LAMBDA">      1.00000000</i>
  </separator>
  <separator name="External order field" >
   <i name="OFIELD_KAPPA">      0.00000000</i>
   <v name="OFIELD_K">      0.00000000      0.00000000      0.00000000</v>
   <i name="OFIELD_Q6_NEAR">      0.00000000</i>
   <i name="OFIELD_Q6_FAR">      0.00000000</i>
   <i name="OFIELD_A">      0.00000000</i>
  </separator>
 </parameters>
 <atominfo>
  <atoms>      64 </atoms>
  <types>       7 </types>
  <array name="atoms" >
   <dimension dim="1">ion</dimension>
   <field type="string">element</field>
   <field type="int">atomtype</field>
   <set>
    <rc><c>Nb</c><c>   1</c></rc>
    <rc><c>Nb</c><c>   1</c></rc>
    <rc><c>Nb</c><c>   1</c></rc>
    <rc><c>Nb</c><c>   1</c></rc>
    <rc><c>Nb</c><c>   1</c></rc>
    <rc><c>Nb</c><c>   1</c></rc>
    <rc><c>Nb</c><c>   1</c></rc>
    <rc><c>W </c><c>   2</c></rc>
    <rc><c>W </c><c>   2</c></rc>
    <rc><c>W </c><c>   2</c></rc>
    <rc><c>W </c><c>   2</c></rc>
    <rc><c>W </c><c>   2</c></rc>
    <rc><c>W </c><c>   2</c></rc>
    <rc><c>V </c><c>   3</c></rc>
    <rc><c>V </c><c>   3</c></rc>
    <rc><c>V </c><c>   3</c></rc>
    <rc><c>V </c><c>   3</c></rc>
    <rc><c>V </c><c>   3</c></rc>
    <rc><c>V </c><c>   3</c></rc>
    <rc><c>V </c><c>   3</c></rc>
    <rc><c>N </c><c>   4</c></rc>
    <rc><c>N </c><c>   4</c></rc>
    <rc><c>N </c><c>   4</c></rc>
    <rc><c>N </c><c>   4</c></rc>
    <rc><c>N </c><c>   4</c></rc>
    <rc><c>N </c><c>   4</c></rc>
    <rc><c>N </c><c>   4</c></rc>
    <rc><c>N </c><c>   4</c></rc>
    <rc><c>N </c><c>   4</c></rc>
    <rc><c>N </c><c>   4</c></rc>
    <rc><c>N </c><c>   4</c></rc>
    <rc><c>N </c><c>   4</c></rc>
    <rc><c>N </c><c>   4</c></rc>
    <rc><c>C </c><c>   5</c></rc>
    <rc><c>C </c><c>   5</c></rc>
    <rc><c>C </c><c>   5</c></rc>
    <rc><c>C </c><c>   5</c></rc>
    <rc><c>C </c><c>   5</c></rc>
    <rc><c>C </c><c>   5</c></rc>
    <rc><c>C </c><c>   5</c></rc>
    <rc><c>C </c><c>   5</c></rc>
    <rc><c>C </c><c>   5</c></rc>
    <rc><c>C </c><c>   5</c></rc>
    <rc><c>C </c><c>   5</c></rc>
    <rc><c>C </c><c>   5</c></rc>
    <rc><c>C </c><c>   5</c></rc>
    <rc><c>C </c><c>   5</c></rc>
    <rc><c>C </c><c>   5</c></rc>
    <rc><c>C </c><c>   5</c></rc>
    <rc><c>C </c><c>   5</c></rc>
    <rc><c>C </c><c>   5</c></rc>
    <rc><c>C </c><c>   5</c></rc>
    <rc><c>Cr</c><c>   6</c></rc>
    <rc><c>Cr</c><c>   6</c></rc>
    <rc><c>Cr</c><c>   6</c></rc>
    <rc><c>Cr</c><c>   6</c></rc>
    <rc><c>Cr</c><c>   6</c></rc>
    <rc><c>Cr</c><c>   6</c></rc>
    <rc><c>Mo</c><c>   7</c></rc>
    <rc><c>Mo</c><c>   7</c></rc>
    <rc><c>Mo</c><c>   7</c></rc>
    <rc><c>Mo</c><c>   7</c></rc>
    <rc><c>Mo</c><c>   7</c></rc>
    <rc><c>Mo</c><c>   7</c></rc>
   </set>
  </array>
  <array name="atomtypes" >
   <dimension dim="1">type</dimension>
   <field type="int">atomspertype</field>
   <field type="string">element</field>
   <field>mass</field>
   <field>valence</field>
   <field type="string">pseudopotential</field>
   <set>
    <rc><c>   7</c><c>Nb</c><c>     92.91000000</c><c>     13.00000000</c><c> PAW_PBE Nb_sv 17Jan2003                </c></rc>
    <rc><c>   6</c><c>W </c><c>    183.85000000</c><c>     12.00000000</c><c> PAW_PBE W_pv 06Sep2000                 </c></rc>
    <rc><c>   7</c><c>V </c><c>     50.94100000</c><c>     13.00000000</c><c> PAW_PBE V_sv 07Sep2000                 </c></rc>
    <rc><c>  13</c><c>N </c><c>     14.00100000</c><c>      5.00000000</c><c> PAW_PBE N 08Apr2002                    </c></rc>
    <rc><c>  19</c><c>C </c><c>     12.01100000</c><c>      4.00000000</c><c> PAW_PBE C 08Apr2002                    </c></rc>
    <rc><c>   6</c><c>Cr</c><c>     51.99600000</c><c>     12.00000000</c><c> PAW_PBE Cr_pv 07Sep2000                </c></rc>
    <rc><c>   6</c><c>Mo</c><c>     95.94000000</c><c>      6.00000000</c><c> PAW_PBE Mo 08Apr2002                   </c></rc>
   </set>
  </array>
 </atominfo>
 <structure name="initialpos" >
  <crystal>
   <varray name="basis" >
    <v>       8.58373642       0.00507199       0.00539539 </v>
    <v>       0.01082528       8.60171700       0.01401309 </v>
    <v>       0.03613636      -0.00095056       8.64646686 </v>
   </varray>
   <i name="volume">    638.40873452 </i>
   <varray name="rec_basis" >
    <v>       0.11649978      -0.00014582      -0.00048691 </v>
    <v>      -0.00006870       0.11625592       0.00001307 </v>
    <v>      -0.00007258      -0.00018832       0.11565446 </v>
   </varray>
  </crystal>
  <varray name="positions" >
   <v>       0.00831991       0.00864620       0.98783184 </v>
   <v>       0.26047687       0.99713207       0.24512501 </v>
   <v>       0.25240122       0.49927178       0.24864728 </v>
   <v>       0.50340679       0.49949316       0.00146452 </v>
   <v>       0.50690342       0.24257322       0.75133746 </v>
   <v>       0.99659473       0.50044815       0.50733207 </v>
   <v>       0.49665146       0.76111560       0.74486279 </v>
   <v>       0.98485663       0.23211516       0.25547889 </v>
   <v>       0.76452642       0.74651352       0.00054544 </v>
   <v>       0.01333618       0.23583216       0.75236263 </v>
   <v>       0.76016942       0.23962593       0.48372596 </v>
   <v>       0.00403380       0.73839387       0.75431033 </v>
   <v>       0.25439193       0.50265990       0.75066822 </v>
   <v>       0.26426943       0.24977399       0.98440844 </v>
   <v>       0.51924092       0.23002546       0.26234607 </v>
   <v>       0.73553742       0.01194202       0.28117832 </v>
   <v>       0.73461219       0.24426346       0.98208379 </v>
   <v>       0.23879865       0.74255303       0.00313628 </v>
   <v>       0.25006734       0.25375046       0.51366339 </v>
   <v>       0.25293715       0.74316480       0.49470399 </v>
   <v>       0.24689224       0.24616982       0.24871568 </v>
   <v>       0.26548765       0.99975608       0.99624943 </v>
   <v>       0.00566063       0.25759608       0.00840262 </v>
   <v>       0.74692099       0.24833034       0.23213011 </v>
   <v>       0.74837677       0.00046389       0.99972548 </v>
   <v>       0.50715288       0.99395197       0.24451645 </v>
   <v>       0.99787323       0.49049611       0.25162832 </v>
   <v>       0.50050726       0.75740778       0.99821364 </v>
   <v>       0.99045131       0.98903082       0.73947897 </v>
   <v>       0.76051350       0.23157037       0.74179561 </v>
   <v>       0.74026811       0.99906976       0.50651449 </v>
   <v>       0.50210528       0.24829095       0.49347779 </v>
   <v>       0.48998810       0.00284865       0.74401616 </v>
   <v>       0.99187327       0.99769359       0.24432629 </v>
   <v>       0.50090287       0.24578159       0.00771405 </v>
   <v>       0.25984136       0.74805972       0.24742531 </v>
   <v>       0.24120602       0.49759951       0.99705272 </v>
   <v>       0.00701495       0.74748144       0.00586999 </v>
   <v>       0.73959829       0.76421841       0.24460107 </v>
   <v>       0.76286169       0.49058569       0.00848519 </v>
   <v>       0.49829108       0.49535846       0.24943049 </v>
   <v>       0.25683972       0.24437379       0.74822198 </v>
   <v>       0.25642282       0.00066017       0.51001073 </v>
   <v>       0.00889759       0.24733066       0.50175211 </v>
   <v>       0.24716581       0.76021044       0.75033143 </v>
   <v>       0.25128109       0.49816993       0.50150860 </v>
   <v>       0.00596596       0.75083950       0.50446926 </v>
   <v>       0.99934563       0.48761662       0.75573082 </v>
   <v>       0.75269354       0.76666988       0.74847074 </v>
   <v>       0.74687542       0.48928674       0.50532469 </v>
   <v>       0.49520443       0.76867596       0.49300186 </v>
   <v>       0.49959491       0.50269884       0.74752010 </v>
   <v>       0.51549608       0.01674083       0.98095319 </v>
   <v>       0.99280099       0.51959554       0.97395086 </v>
   <v>       0.50078836       0.73646867       0.27492970 </v>
   <v>       0.22112160       0.01034318       0.77392263 </v>
   <v>       0.47254266       0.01430237       0.48441276 </v>
   <v>       0.71734801       0.99940744       0.77839049 </v>
   <v>       0.00385411       0.76214206       0.25808554 </v>
   <v>       0.73525563       0.51972095       0.25338014 </v>
   <v>       0.02160614       0.99747282       0.49144741 </v>
   <v>       0.50007650       0.51733517       0.49301759 </v>
   <v>       0.74605735       0.51641333       0.76065431 </v>
   <v>       0.74744667       0.74246990       0.49553064 </v>
  </varray>
 </structure>
 <calculation>
  <scstep>
   <time name="dav">   31.54   32.05</time>
   <time name="total">   31.61   32.13</time>
   <energy>
    <i name="alphaZ">   4120.39198108 </i>
    <i name="ewald"> -41684.57660330 </i>
    <i name="hartreedc"> -10149.03358167 </i>
    <i name="XCdc">   1616.72556801 </i>
    <i name="pawpsdc">  32005.41651284 </i>
    <i name="pawaedc"> -31805.94553564 </i>
    <i name="eentropy">     -0.06616361 </i>
    <i name="bandstr">   3471.04847076 </i>
    <i name="atom">  49529.82357030 </i>
    <i name="e_fr_energy">   7103.78421877 </i>
    <i name="e_wo_entrp">   7103.85038238 </i>
    <i name="e_0_energy">   7103.81730058 </i>
   </energy>
  </scstep>
  <scstep>
   <time name="dav">   31.16   31.60</time>
   <time name="total">   31.16   31.60</time>
   <energy>
    <i name="e_fr_energy">    407.43215363 </i>
    <i name="e_wo_entrp">    407.55458940 </i>
    <i name="e_0_energy">    407.49337152 </i>
   </energy>
  </scstep>
  <scstep>
   <time name="dav">   44.90   45.57</time>
   <time name="total">   44.90   45.57</time>
   <energy>
    <i name="e_fr_energy">   -639.72178394 </i>
    <i name="e_wo_entrp">   -639.60198587 </i>
    <i name="e_0_energy">   -639.66188490 </i>
   </energy>
  </scstep>
  <scstep>
   <time name="dav">   47.78   48.10</time>
   <time name="total">   47.78   48.10</time>
   <energy>
    <i name="e_fr_energy">   -760.95378291 </i>
    <i name="e_wo_entrp">   -760.83431151 </i>
    <i name="e_0_energy">   -760.89404721 </i>
   </energy>
  </scstep>
  <scstep>
   <time name="dav">   54.25   54.75</time>
   <time name="total">   54.45   54.94</time>
   <energy>
    <i name="e_fr_energy">   -777.90551201 </i>
    <i name="e_wo_entrp">   -777.78538404 </i>
    <i name="e_0_energy">   -777.84544803 </i>
   </energy>
  </scstep>
  <scstep>
   <time name="diag">    1.82    1.83</time>
   <time name="diis">   25.86   26.12</time>
   <time name="orth">    0.54    0.55</time>
   <time name="total">   28.44   28.72</time>
   <energy>
    <i name="e_fr_energy">   -785.93089678 </i>
    <i name="e_wo_entrp">   -785.77025074 </i>
    <i name="e_0_energy">   -785.85057376 </i>
   </energy>
  </scstep>
  <scstep>
   <time name="diag">    1.81    1.83</time>
   <time name="diis">   25.50   25.88</time>
   <time name="orth">    0.60    0.61</time>
   <time name="total">   28.15   28.56</time>
   <energy>
    <i name="e_fr_energy">   -668.22862515 </i>
    <i name="e_wo_entrp">   -668.04201203 </i>
    <i name="e_0_energy">   -668.13531859 </i>
   </energy>
  </scstep>
  <scstep>
   <time name="diag">    1.83    1.86</time>
   <time name="diis">   29.57   29.99</time>
   <time name="orth">    0.43    0.43</time>
   <time name="total">   32.05   32.50</time>
   <energy>
    <i name="e_fr_energy">   -651.50688848 </i>
    <i name="e_wo_entrp">   -651.36118904 </i>
    <i name="e_0_energy">   -651.43403876 </i>
   </energy>
  </scstep>
  <scstep>
   <time name="diag">    1.81    1.83</time>
   <time name="diis">   33.30   33.84</time>
   <time name="orth">    0.43    0.43</time>
   <time name="total">   35.77   36.33</time>
   <energy>
    <i name="e_fr_energy">   -640.50860721 </i>
    <i name="e_wo_entrp">   -640.32804289 </i>
    <i name="e_0_energy">   -640.41832505 </i>
   </energy>
  </scstep>
  <scstep>
   <time name="diag">    1.81    1.83</time>
   <time name="diis">   32.15   32.64</time>
   <time name="orth">    0.43    0.43</time>
   <time name="total">   34.61   35.13</time>
   <energy>
    <i name="e_fr_energy">   -638.36215789 </i>
    <i name="e_wo_entrp">   -638.20247189 </i>
    <i name="e_0_energy">   -638.28231489 </i>
   </energy>
  </scstep>
  <scstep>
   <time name="diag">    1.82    1.84</time>
   <time name="diis">   33.69   34.07</time>
   <time name="orth">    0.44    0.45</time>
   <time name="total">   36.17   36.58</time>
   <energy>
    <i name="e_fr_energy">   -637.82136481 </i>
    <i name="e_wo_entrp">   -637.65408893 </i>
    <i name="e_0_energy">   -637.73772687 </i>
   </energy>
  </scstep>
  <scstep>
   <time name="diag">    1.83    1.84</time>
   <time name="diis">   33.48   33.85</time>
   <time name="orth">    0.43    0.43</time>
   <time name="total">   35.96   36.35</time>
   <energy>
    <i name="e_fr_energy">   -637.31838961 </i>
    <i name="e_wo_entrp">   -637.15798335 </i>
    <i name="e_0_energy">   -637.23818648 </i>
   </energy>
  </scstep>
  <scstep>
   <time name="diag">    1.92    1.95</time>
   <time name="diis">   30.65   31.07</time>
   <time name="orth">    0.54    0.54</time>
   <time name="total">   33.33   33.79</time>
   <energy>
    <i name="e_fr_energy">   -637.58140111 </i>
    <i name="e_wo_entrp">   -637.40561594 </i>
    <i name="e_0_energy">   -637.49350853 </i>
   </energy>
  </scstep>
  <scstep>
   <time name="diag">    1.83    1.84</time>
   <time name="diis">   30.77   31.16</time>
   <time name="orth">    0.43    0.43</time>
   <time name="total">   33.35   33.77</time>
   <energy>
    <i name="e_fr_energy">   -637.27696537 </i>
    <i name="e_wo_entrp">   -637.11546273 </i>
    <i name="e_0_energy">   -637.19621405 </i>
   </energy>
  </scstep>
  <scstep>
   <time name="diag">    1.74    1.76</time>
   <time name="diis">   32.88   33.23</time>
   <time name="orth">    0.54    0.55</time>
   <time name="total">   35.38   35.76</time>
   <energy>
    <i name="e_fr_energy">   -637.31420672 </i>
    <i name="e_wo_entrp">   -637.14527772 </i>
    <i name="e_0_energy">   -637.22974222 </i>
   </energy>
  </scstep>
  <scstep>
   <time name="diag">    1.82    1.84</time>
   <time name="diis">   30.04   30.54</time>
   <time name="orth">    0.54    0.54</time>
   <time name="total">   32.63   33.15</time>
   <energy>
    <i name="e_fr_energy">   -637.05516018 </i>
    <i name="e_wo_entrp">   -636.88992744 </i>
    <i name="e_0_energy">   -636.97254381 </i>
   </energy>
  </scstep>
  <scstep>
   <time name="diag">    1.85    1.87</time>
   <time name="diis">   32.87   33.32</time>
   <time name="orth">    0.43    0.43</time>
   <time name="total">   35.47   35.95</time>
   <energy>
    <i name="e_fr_energy">   -636.97771670 </i>
    <i name="e_wo_entrp">   -636.80858128 </i>
    <i name="e_0_energy">   -636.89314899 </i>
   </energy>
  </scstep>
  <scstep>
   <time name="diag">    1.73    1.75</time>
   <time name="diis">   34.65   35.14</time>
   <time name="orth">    0.54    0.54</time>
   <time name="total">   37.15   37.66</time>
   <energy>
    <i name="e_fr_energy">   -636.98039940 </i>
    <i name="e_wo_entrp">   -636.81395731 </i>
    <i name="e_0_energy">   -636.89717835 </i>
   </energy>
  </scstep>
  <scstep>
   <time name="diag">    1.81    1.84</time>
   <time name="diis">   33.69   34.36</time>
   <time name="orth">    0.43    0.43</time>
   <time name="total">   36.16   36.85</time>
   <energy>
    <i name="e_fr_energy">   -636.97830231 </i>
    <i name="e_wo_entrp">   -636.81045022 </i>
    <i name="e_0_energy">   -636.89437626 </i>
   </energy>
  </scstep>
  <scstep>
   <time name="diag">    1.83    1.85</time>
   <time name="diis">   34.06   34.55</time>
   <time name="orth">    0.52    0.53</time>
   <time name="total">   36.63   37.16</time>
   <energy>
    <i name="e_fr_energy">   -636.99381473 </i>
    <i name="e_wo_entrp">   -636.82594898 </i>
    <i name="e_0_energy">   -636.90988186 </i>
   </energy>
  </scstep>
  <scstep>
   <time name="diag">    1.82    1.84</time>
   <time name="diis">   32.53   33.00</time>
   <time name="orth">    0.43    0.43</time>
   <time name="total">   35.01   35.51</time>
   <energy>
    <i name="e_fr_energy">   -636.98838140 </i>
    <i name="e_wo_entrp">   -636.82136890 </i>
    <i name="e_0_energy">   -636.90487515 </i>
   </energy>
  </scstep>
  <scstep>
   <time name="diag">    1.83    1.85</time>
   <time name="diis">   33.69   34.19</time>
   <time name="orth">    0.54    0.55</time>
   <time name="total">   36.29   36.82</time>
   <energy>
    <i name="e_fr_energy">   -636.98735838 </i>
    <i name="e_wo_entrp">   -636.82083174 </i>
    <i name="e_0_energy">   -636.90409506 </i>
   </energy>
  </scstep>
  <scstep>
   <time name="diag">    1.79    1.80</time>
   <time name="diis">   34.16   34.61</time>
   <time name="orth">    0.43    0.43</time>
   <time name="total">   36.72   37.18</time>
   <energy>
    <i name="e_fr_energy">   -636.98616235 </i>
    <i name="e_wo_entrp">   -636.81934455 </i>
    <i name="e_0_energy">   -636.90275345 </i>
   </energy>
  </scstep>
  <scstep>
   <time name="diag">    1.72    1.72</time>
   <time name="diis">   31.80   31.93</time>
   <time name="orth">    0.54    0.54</time>
   <time name="total">   34.28   34.43</time>
   <energy>
    <i name="e_fr_energy">   -636.98770010 </i>
    <i name="e_wo_entrp">   -636.82039404 </i>
    <i name="e_0_energy">   -636.90404707 </i>
   </energy>
  </scstep>
  <scstep>
   <time name="diag">    1.70    1.71</time>
   <time name="diis">   31.05   31.51</time>
   <time name="orth">    0.43    0.43</time>
   <time name="total">   33.51   34.00</time>
   <energy>
    <i name="e_fr_energy">   -636.98794640 </i>
    <i name="e_wo_entrp">   -636.82070556 </i>
    <i name="e_0_energy">   -636.90432598 </i>
   </energy>
  </scstep>
  <scstep>
   <time name="diag">    1.71    1.73</time>
   <time name="diis">   31.94   32.49</time>
   <time name="orth">    0.43    0.44</time>
   <time name="total">   34.30   34.89</time>
   <energy>
    <i name="e_fr_energy">   -636.98844454 </i>
    <i name="e_wo_entrp">   -636.82125951 </i>
    <i name="e_0_energy">   -636.90485202 </i>
   </energy>
  </scstep>
  <scstep>
   <time name="diag">    1.84    1.86</time>
   <time name="diis">   30.35   30.65</time>
   <time name="orth">    0.43    0.43</time>
   <time name="total">   32.84   33.17</time>
   <energy>
    <i name="e_fr_energy">   -636.98897805 </i>
    <i name="e_wo_entrp">   -636.82167491 </i>
    <i name="e_0_energy">   -636.90532648 </i>
   </energy>
  </scstep>
  <scstep>
   <time name="diag">    1.86    1.89</time>
   <time name="diis">   26.47   26.77</time>
   <time name="orth">    0.54    0.55</time>
   <time name="total">   29.10   29.44</time>
   <energy>
    <i name="e_fr_energy">   -636.98923291 </i>
    <i name="e_wo_entrp">   -636.82199113 </i>
    <i name="e_0_energy">   -636.90561202 </i>
   </energy>
  </scstep>
  <scstep>
   <time name="diag">    1.73    1.73</time>
   <time name="diis">   28.51   28.65</time>
   <time name="orth">    0.55    0.55</time>
   <time name="total">   31.02   31.16</time>
   <energy>
    <i name="e_fr_energy">   -636.98944096 </i>
    <i name="e_wo_entrp">   -636.82220398 </i>
    <i name="e_0_energy">   -636.90582247 </i>
   </energy>
  </scstep>
  <scstep>
   <time name="diag">    1.82    1.82</time>
   <time name="diis">   25.35   25.64</time>
   <time name="orth">    0.45    0.45</time>
   <time name="total">   27.85   28.15</time>
   <energy>
    <i name="e_fr_energy">   -636.98954096 </i>
    <i name="e_wo_entrp">   -636.82228943 </i>
    <i name="e_0_energy">   -636.90591519 </i>
   </energy>
  </scstep>
  <scstep>
   <time name="diag">    1.84    1.85</time>
   <time name="diis">   23.84   24.16</time>
   <time name="orth">    0.43    0.44</time>
   <time name="total">   26.33   26.68</time>
   <energy>
    <i name="e_fr_energy">   -636.98959327 </i>
    <i name="e_wo_entrp">   -636.82235897 </i>
    <i name="e_0_energy">   -636.90597612 </i>
   </energy>
  </scstep>
  <scstep>
   <time name="diag">    1.82    1.83</time>
   <time name="diis">   22.10   22.36</time>
   <time name="orth">    0.43    0.43</time>
   <time name="total">   24.69   24.97</time>
   <energy>
    <i name="e_fr_energy">   -636.98963465 </i>
    <i name="e_wo_entrp">   -636.82240311 </i>
    <i name="e_0_energy">   -636.90601888 </i>
   </energy>
  </scstep>
  <scstep>
   <time name="diag">    1.70    1.72</time>
   <time name="diis">   21.27   21.53</time>
   <time name="orth">    0.54    0.55</time>
   <time name="total">   23.74   24.02</time>
   <energy>
    <i name="e_fr_energy">   -636.98965244 </i>
    <i name="e_wo_entrp">   -636.82241507 </i>
    <i name="e_0_energy">   -636.90603376 </i>
   </energy>
  </scstep>
  <scstep>
   <time name="diag">    1.83    1.84</time>
   <time name="diis">   20.97   21.21</time>
   <time name="orth">    0.43    0.43</time>
   <time name="total">   23.46   23.72</time>
   <energy>
    <i name="e_fr_energy">   -636.98966333 </i>
    <i name="e_wo_entrp">   -636.82242487 </i>
    <i name="e_0_energy">   -636.90604410 </i>
   </energy>
  </scstep>
  <scstep>
   <time name="diag">    1.88    1.91</time>
   <time name="diis">   20.89   21.07</time>
   <time name="orth">    0.43    0.43</time>
   <time name="total">   23.23   23.44</time>
   <energy>
    <i name="alphaZ">   4120.39198108 </i>
    <i name="ewald"> -41684.57660330 </i>
    <i name="hartreedc">  -9581.26646289 </i>
    <i name="XCdc">   1605.55955069 </i>
    <i name="pawpsdc">  33689.22569937 </i>
    <i name="pawaedc"> -33547.43540190 </i>
    <i name="eentropy">     -0.16723903 </i>
    <i name="bandstr">  -4768.54476685 </i>
    <i name="atom">  49529.82357030 </i>
    <i name="e_fr_energy">   -636.98967254 </i>
    <i name="e_wo_entrp">   -636.82243351 </i>
    <i name="e_0_energy">   -636.90605303 </i>
   </energy>
  </scstep>
  <structure>
   <crystal>
    <varray name="basis" >
     <v>       8.58373642       0.00507199       0.00539539 </v>
     <v>       0.01082528       8.60171700       0.01401309 </v>
     <v>       0.03613636      -0.00095056       8.64646686 </v>
    </varray>
    <i name="volume">    638.40873452 </i>
    <varray name="rec_basis" >
     <v>       0.11649978      -0.00014582      -0.00048691 </v>
     <v>      -0.00006870       0.11625592       0.00001307 </v>
     <v>      -0.00007258      -0.00018832       0.11565446 </v>
    </varray>
   </crystal>
   <varray name="positions" >
    <v>       0.00831991       0.00864620       0.98783184 </v>
    <v>       0.26047687       0.99713207       0.24512501 </v>
    <v>       0.25240122       0.49927178       0.24864728 </v>
    <v>       0.50340679       0.49949316       0.00146452 </v>
    <v>       0.50690342       0.24257322       0.75133746 </v>
    <v>       0.99659473       0.50044815       0.50733207 </v>
    <v>       0.49665146       0.76111560       0.74486279 </v>
    <v>       0.98485663       0.23211516       0.25547889 </v>
    <v>       0.76452642       0.74651352       0.00054544 </v>
    <v>       0.01333618       0.23583216       0.75236263 </v>
    <v>       0.76016942       0.23962593       0.48372596 </v>
    <v>       0.00403380       0.73839387       0.75431033 </v>
    <v>       0.25439193       0.50265990       0.75066822 </v>
    <v>       0.26426943       0.24977399       0.98440844 </v>
    <v>       0.51924092       0.23002546       0.26234607 </v>
    <v>       0.73553742       0.01194202       0.28117832 </v>
    <v>       0.73461219       0.24426346       0.98208379 </v>
    <v>       0.23879865       0.74255303       0.00313628 </v>
    <v>       0.25006734       0.25375046       0.51366339 </v>
    <v>       0.25293715       0.74316480       0.49470399 </v>
    <v>       0.24689224       0.24616982       0.24871568 </v>
    <v>       0.26548765       0.99975608       0.99624943 </v>
    <v>       0.00566063       0.25759608       0.00840262 </v>
    <v>       0.74692099       0.24833034       0.23213011 </v>
    <v>       0.74837677       0.00046389       0.99972548 </v>
    <v>       0.50715288       0.99395197       0.24451645 </v>
    <v>       0.99787323       0.49049611       0.25162832 </v>
    <v>       0.50050726       0.75740778       0.99821364 </v>
    <v>       0.99045131       0.98903082       0.73947897 </v>
    <v>       0.76051350       0.23157037       0.74179561 </v>
    <v>       0.74026811       0.99906976       0.50651449 </v>
    <v>       0.50210528       0.24829095       0.49347779 </v>
    <v>       0.48998810       0.00284865       0.74401616 </v>
    <v>       0.99187327       0.99769359       0.24432629 </v>
    <v>       0.50090287       0.24578159       0.00771405 </v>
    <v>       0.25984136       0.74805972       0.24742531 </v>
    <v>       0.24120602       0.49759951       0.99705272 </v>
    <v>       0.00701495       0.74748144       0.00586999 </v>
    <v>       0.73959829       0.76421841       0.24460107 </v>
    <v>       0.76286169       0.49058569       0.00848519 </v>
    <v>       0.49829108       0.49535846       0.24943049 </v>
    <v>       0.25683972       0.24437379       0.74822198 </v>
    <v>       0.25642282       0.00066017       0.51001073 </v>
    <v>       0.00889759       0.24733066       0.50175211 </v>
    <v>       0.24716581       0.76021044       0.75033143 </v>
    <v>       0.25128109       0.49816993       0.50150860 </v>
    <v>       0.00596596       0.75083950       0.50446926 </v>
    <v>       0.99934563       0.48761662       0.75573082 </v>
    <v>       0.75269354       0.76666988       0.74847074 </v>
    <v>       0.74687542       0.48928674       0.50532469 </v>
    <v>       0.49520443       0.76867596       0.49300186 </v>
    <v>       0.49959491       0.50269884       0.74752010 </v>
    <v>       0.51549608       0.01674083       0.98095319 </v>
    <v>       0.99280099       0.51959554       0.97395086 </v>
    <v>       0.50078836       0.73646867       0.27492970 </v>
    <v>       0.22112160       0.01034318       0.77392263 </v>
    <v>       0.47254266       0.01430237       0.48441276 </v>
    <v>       0.71734801       0.99940744       0.77839049 </v>
    <v>       0.00385411       0.76214206       0.25808554 </v>
    <v>       0.73525563       0.51972095       0.25338014 </v>
    <v>       0.02160614       0.99747282       0.49144741 </v>
    <v>       0.50007650       0.51733517       0.49301759 </v>
    <v>       0.74605735       0.51641333       0.76065431 </v>
    <v>       0.74744667       0.74246990       0.49553064 </v>
   </varray>
  </structure>
  <varray name="forces" >
   <v>       0.00150080      -0.00085590       0.00438411 </v>
   <v>      -0.00130645      -0.00082361      -0.00039049 </v>
   <v>       0.00124293       0.00218873      -0.00016416 </v>
   <v>       0.00133081      -0.00065785       0.00052351 </v>
   <v>      -0.00256823      -0.00207412      -0.00172219 </v>
   <v>      -0.00020987       0.00219520      -0.00157858 </v>
   <v>      -0.00044840      -0.00006583       0.00178443 </v>
   <v>       0.00366719      -0.00372885      -0.00368433 </v>
   <v>      -0.00457416      -0.00255311       0.00320591 </v>
   <v>      -0.00146638      -0.00059392      -0.00036635 </v>
   <v>      -0.00349348      -0.00006748       0.00491431 </v>
   <v>      -0.00017447      -0.00365240      -0.00298276 </v>
   <v>       0.00080032       0.00163084      -0.00258587 </v>
   <v>      -0.00278960       0.00546565       0.00418454 </v>
   <v>      -0.00272929      -0.00200546      -0.00440565 </v>
   <v>       0.00069834       0.00128848      -0.00368327 </v>
   <v>      -0.00142932      -0.01621868      -0.00033280 </v>
   <v>       0.00466643      -0.00427339       0.00040889 </v>
   <v>       0.00118516       0.00058617      -0.00442263 </v>
   <v>       0.00094897      -0.00052610       0.00137323 </v>
   <v>       0.00104275      -0.00022162      -0.00066127 </v>
   <v>       0.00193527       0.00036178      -0.00020711 </v>
   <v>      -0.00219571      -0.00117431      -0.00261921 </v>
   <v>      -0.00388572       0.00088201      -0.00346098 </v>
   <v>      -0.00130066      -0.00527835       0.00590125 </v>
   <v>       0.00305941       0.00148138      -0.00067289 </v>
   <v>       0.00019340      -0.00064334      -0.00359874 </v>
   <v>      -0.00207639       0.00183847       0.00293868 </v>
   <v>      -0.00109827       0.00038882      -0.00094101 </v>
   <v>       0.00108731       0.00478344       0.00066799 </v>
   <v>       0.00016215      -0.00027119       0.00287749 </v>
   <v>      -0.00178270       0.00085952      -0.00252689 </v>
   <v>      -0.00090935       0.00023318      -0.00125883 </v>
   <v>      -0.00212109       0.00066442      -0.00054277 </v>
   <v>      -0.00303690      -0.00364628       0.00096611 </v>
   <v>       0.00228603      -0.00043759      -0.00011366 </v>
   <v>      -0.00080840      -0.00090185      -0.00029597 </v>
   <v>       0.00266959      -0.00339114       0.00067566 </v>
   <v>      -0.00081002      -0.00031734       0.00168055 </v>
   <v>      -0.00038207      -0.00420125       0.00133588 </v>
   <v>      -0.00204183      -0.00164619      -0.00159909 </v>
   <v>       0.00172130       0.00101559      -0.00102086 </v>
   <v>       0.00334502       0.00109655       0.00218811 </v>
   <v>       0.00210046      -0.00041009       0.00173624 </v>
   <v>       0.00156269       0.00097261       0.00042432 </v>
   <v>       0.00017935      -0.00040212       0.00007302 </v>
   <v>       0.00155369       0.00026494       0.00012707 </v>
   <v>       0.00079754       0.00147888      -0.00008311 </v>
   <v>      -0.00057837       0.00229883       0.00027554 </v>
   <v>       0.00028548      -0.00111955       0.00029945 </v>
   <v>      -0.00087981       0.00105418       0.00085015 </v>
   <v>       0.00074648       0.00062428       0.00014286 </v>
   <v>      -0.00385575      -0.00387649       0.00511390 </v>
   <v>      -0.00739436       0.00145657       0.00452496 </v>
   <v>       0.00227256      -0.00214206      -0.00427222 </v>
   <v>       0.00247516       0.00364400      -0.00309366 </v>
   <v>       0.00124236       0.00036205       0.00319614 </v>
   <v>       0.00144642       0.01684829      -0.00308772 </v>
   <v>       0.00029973       0.00061842      -0.00282088 </v>
   <v>       0.00592815       0.00397167      -0.00489551 </v>
   <v>      -0.00314643       0.00142126       0.00254023 </v>
   <v>      -0.00003673       0.00271022       0.00357637 </v>
   <v>       0.00422965       0.00441251      -0.00266364 </v>
   <v>       0.00086733      -0.00092147       0.00386419 </v>
  </varray>
  <varray name="stress" >
   <v>       0.22633835      -0.00082534       0.02871620 </v>
   <v>      -0.00082779      -0.28573987      -0.01395514 </v>
   <v>       0.02871602      -0.01395433       0.31207008 </v>
  </varray>
  <energy>
   <i name="e_fr_energy">   -636.98967254 </i>
   <i name="e_wo_entrp">   -636.90605303 </i>
   <i name="e_0_energy">     -0.16723903 </i>
  </energy>
  <time name="totalsc"> 1243.83 1259.27</time>
  <eigenvalues>
   <array>
    <dimension dim="1">band</dimension>
    <dimension dim="2">kpoint</dimension>
    <dimension dim="3">spin</dimension>
    <field>eigene</field>
    <field>occ</field>
    <set>
     <set comment="spin 1">
      <set comment="kpoint 1">
       <r>  -55.4165    1.0000 </r>
       <r>  -55.3786    1.0000 </r>
       <r>  -55.3546    1.0000 </r>
       <r>  -55.3541    1.0000 </r>
       <r>  -55.3257    1.0000 </r>
       <r>  -55.2168    1.0000 </r>
       <r>  -55.1923    1.0000 </r>
       <r>  -46.3385    1.0000 </r>
       <r>  -46.2949    1.0000 </r>
       <r>  -46.2632    1.0000 </r>
       <r>  -46.2136    1.0000 </r>
       <r>  -46.1990    1.0000 </r>
       <r>  -46.1709    1.0000 </r>
       <r>  -46.1491    1.0000 </r>
       <r>  -34.3382    1.0000 </r>
       <r>  -34.1264    1.0000 </r>
       <r>  -34.0922    1.0000 </r>
       <r>  -34.0459    1.0000 </r>
       <r>  -34.0352    1.0000 </r>
       <r>  -34.0286    1.0000 </r>
       <r>  -34.0175    1.0000 </r>
       <r>  -34.0159    1.0000 </r>
       <r>  -34.0057    1.0000 </r>
       <r>  -33.9934    1.0000 </r>
       <r>  -33.9683    1.0000 </r>
       <r>  -33.9587    1.0000 </r>
       <r>  -33.9579    1.0000 </r>
       <r>  -33.9155    1.0000 </r>
       <r>  -33.9020    1.0000 </r>
       <r>  -33.8691    1.0000 </r>
       <r>  -33.8638    1.0000 </r>
       <r>  -33.8364    1.0000 </r>
       <r>  -30.1657    1.0000 </r>
       <r>  -30.0331    1.0000 </r>
       <r>  -29.9984    1.0000 </r>
       <r>  -29.8670    1.0000 </r>
       <r>  -29.8485    1.0000 </r>
       <r>  -29.8242    1.0000 </r>
       <r>  -29.8038    1.0000 </r>
       <r>  -29.7813    1.0000 </r>
       <r>  -29.7799    1.0000 </r>
       <r>  -29.7508    1.0000 </r>
       <r>  -29.7361    1.0000 </r>
       <r>  -29.7209    1.0000 </r>
       <r>  -29.7128    1.0000 </r>
       <r>  -29.6572    1.0000 </r>
       <r>  -29.6352    1.0000 </r>
       <r>  -29.6262    1.0000 </r>
       <r>  -29.5972    1.0000 </r>
       <r>  -29.5220    1.0000 </r>
       <r>  -29.5108    1.0000 </r>
       <r>  -29.4222    1.0000 </r>
       <r>  -29.3803    1.0000 </r>
       <r>  -29.3696    1.0000 </r>
       <r>  -29.3528    1.0000 </r>
       <r>  -29.3425    1.0000 </r>
       <r>  -29.3292    1.0000 </r>
       <r>  -29.3204    1.0000 </r>
       <r>  -29.3137    1.0000 </r>
       <r>  -29.3071    1.0000 </r>
       <r>  -29.3031    1.0000 </r>
       <r>  -29.2937    1.0000 </r>
       <r>  -29.2831    1.0000 </r>
       <r>  -29.2545    1.0000 </r>
       <r>  -29.2436    1.0000 </r>
       <r>  -29.2204    1.0000 </r>
       <r>  -29.1985    1.0000 </r>
       <r>  -29.1944    1.0000 </r>
       <r>  -29.1572    1.0000 </r>
       <r>  -29.1278    1.0000 </r>
       <r>  -28.9870    1.0000 </r>
       <r>  -22.6328    1.0000 </r>
       <r>  -22.6201    1.0000 </r>
       <r>  -22.5464    1.0000 </r>
       <r>  -22.5284    1.0000 </r>
       <r>  -22.5189    1.0000 </r>
       <r>  -22.5116    1.0000 </r>
       <r>  -22.5095    1.0000 </r>
       <r>  -22.4851    1.0000 </r>
       <r>  -22.4652    1.0000 </r>
       <r>  -22.4644    1.0000 </r>
       <r>  -22.4329    1.0000 </r>
       <r>  -22.4105    1.0000 </r>
       <r>  -22.3831    1.0000 </r>
       <r>  -22.3780    1.0000 </r>
       <r>  -22.3673    1.0000 </r>
       <r>  -22.3604    1.0000 </r>
       <r>  -22.3556    1.0000 </r>
       <r>  -22.3509    1.0000 </r>
       <r>  -22.2876    1.0000 </r>
       <r>  -22.2319    1.0000 </r>
       <r>  -22.1402    1.0000 </r>
       <r>   -7.1722    1.0000 </r>
       <r>   -6.6204    1.0000 </r>
       <r>   -6.3764    1.0000 </r>
       <r>   -6.2827    1.0000 </r>
       <r>   -6.0917    1.0000 </r>
       <r>   -6.0060    1.0000 </r>
       <r>   -5.9263    1.0000 </r>
       <r>   -5.8325    1.0000 </r>
       <r>   -5.7482    1.0000 </r>
       <r>   -5.6172    1.0000 </r>
       <r>   -5.5542    1.0000 </r>
       <r>   -5.4128    1.0000 </r>
       <r>   -5.3080    1.0000 </r>
       <r>   -3.7626    1.0000 </r>
       <r>   -3.2202    1.0000 </r>
       <r>   -3.0211    1.0000 </r>
       <r>   -2.7719    1.0000 </r>
       <r>   -2.7187    1.0000 </r>
       <r>   -2.6233    1.0000 </r>
       <r>   -2.5066    1.0000 </r>
       <r>   -2.4305    1.0000 </r>
       <r>   -2.2781    1.0000 </r>
       <r>   -2.1539    1.0000 </r>
       <r>   -2.1048    1.0000 </r>
       <r>   -2.0267    1.0000 </r>
       <r>   -1.8880    1.0000 </r>
       <r>   -1.7690    1.0000 </r>
       <r>   -1.7422    1.0000 </r>
       <r>   -1.5218    1.0000 </r>
       <r>   -1.4789    1.0000 </r>
       <r>   -1.2355    1.0000 </r>
       <r>   -1.1490    1.0000 </r>
       <r>    0.9723    1.0000 </r>
       <r>    1.0532    1.0000 </r>
       <r>    1.1608    1.0000 </r>
       <r>    1.2967    1.0000 </r>
       <r>    1.9581    1.0000 </r>
       <r>    2.1147    1.0000 </r>
       <r>    2.1293    1.0000 </r>
       <r>    2.2490    1.0000 </r>
       <r>    2.2698    1.0000 </r>
       <r>    2.3069    1.0000 </r>
       <r>    2.4217    1.0000 </r>
       <r>    2.5014    1.0000 </r>
       <r>    2.5218    1.0000 </r>
       <r>    2.5567    1.0000 </r>
       <r>    2.6232    1.0000 </r>
       <r>    2.8237    1.0000 </r>
       <r>    2.9407    1.0000 </r>
       <r>    3.0656    1.0000 </r>
       <r>    3.1710    1.0000 </r>
       <r>    3.2232    1.0000 </r>
       <r>    3.3443    1.0000 </r>
       <r>    3.3737    1.0000 </r>
       <r>    3.4099    1.0000 </r>
       <r>    3.4843    1.0000 </r>
       <r>    3.5360    1.0000 </r>
       <r>    3.5737    1.0000 </r>
       <r>    3.5943    1.0000 </r>
       <r>    3.6438    1.0000 </r>
       <r>    3.6935    1.0000 </r>
       <r>    3.7157    1.0000 </r>
       <r>    3.7693    1.0000 </r>
       <r>    3.7821    1.0000 </r>
       <r>    3.7961    1.0000 </r>
       <r>    3.8342    1.0000 </r>
       <r>    3.8742    1.0000 </r>
       <r>    3.9074    1.0000 </r>
       <r>    3.9245    1.0000 </r>
       <r>    3.9702    1.0000 </r>
       <r>    3.9888    1.0000 </r>
       <r>    4.0181    1.0000 </r>
       <r>    4.0410    1.0000 </r>
       <r>    4.0543    1.0000 </r>
       <r>    4.1185    1.0000 </r>
       <r>    4.1615    1.0000 </r>
       <r>    4.2317    1.0000 </r>
       <r>    4.2892    1.0000 </r>
       <r>    4.2922    1.0000 </r>
       <r>    4.3192    1.0000 </r>
       <r>    4.3350    1.0000 </r>
       <r>    4.3766    1.0000 </r>
       <r>    4.4145    1.0000 </r>
       <r>    4.4307    1.0000 </r>
       <r>    4.4714    1.0000 </r>
       <r>    4.4801    1.0000 </r>
       <r>    4.5309    1.0000 </r>
       <r>    4.5792    1.0000 </r>
       <r>    4.6114    1.0000 </r>
       <r>    4.6490    1.0000 </r>
       <r>    4.6800    1.0000 </r>
       <r>    4.7082    1.0000 </r>
       <r>    4.7399    1.0000 </r>
       <r>    4.7672    1.0000 </r>
       <r>    4.7948    1.0000 </r>
       <r>    4.8165    1.0000 </r>
       <r>    4.8639    1.0000 </r>
       <r>    4.8698    1.0000 </r>
       <r>    4.9147    1.0000 </r>
       <r>    4.9644    1.0000 </r>
       <r>    5.0158    1.0000 </r>
       <r>    5.0341    1.0000 </r>
       <r>    5.0677    1.0000 </r>
       <r>    5.0926    1.0000 </r>
       <r>    5.1554    1.0000 </r>
       <r>    5.1815    1.0000 </r>
       <r>    5.2019    1.0000 </r>
       <r>    5.2401    1.0000 </r>
       <r>    5.3562    1.0000 </r>
       <r>    5.4052    1.0000 </r>
       <r>    5.9566    1.0000 </r>
       <r>    6.0064    1.0000 </r>
       <r>    6.1081    1.0000 </r>
       <r>    6.1297    1.0000 </r>
       <r>    6.1842    1.0000 </r>
       <r>    6.3131    1.0000 </r>
       <r>    6.3559    1.0000 </r>
       <r>    6.4465    1.0000 </r>
       <r>    6.4486    1.0000 </r>
       <r>    6.5035    1.0000 </r>
       <r>    6.5607    1.0000 </r>
       <r>    6.6029    1.0000 </r>
       <r>    6.7046    1.0000 </r>
       <r>    6.7425    1.0000 </r>
       <r>    6.7665    1.0000 </r>
       <r>    6.7919    1.0000 </r>
       <r>    6.8538    1.0000 </r>
       <r>    6.9288    1.0000 </r>
       <r>    7.0843    1.0000 </r>
       <r>    7.1554    1.0000 </r>
       <r>    7.2120    1.0000 </r>
       <r>    7.3003    1.0000 </r>
       <r>    7.4867    1.0000 </r>
       <r>    7.5495    1.0000 </r>
       <r>    7.7597    1.0000 </r>
       <r>    7.9070    1.0000 </r>
       <r>    7.9551    1.0000 </r>
       <r>    8.0788    1.0000 </r>
       <r>    8.2010    1.0000 </r>
       <r>    8.2274    1.0000 </r>
       <r>    8.5526    1.0000 </r>
       <r>    8.7499    1.0000 </r>
       <r>    8.8483    1.0000 </r>
       <r>    8.8817    1.0000 </r>
       <r>    8.9890    1.0000 </r>
       <r>    9.0223    1.0000 </r>
       <r>    9.0736    1.0000 </r>
       <r>    9.1260    1.0000 </r>
       <r>    9.2169    1.0000 </r>
       <r>    9.2317    1.0000 </r>
       <r>    9.2710    1.0000 </r>
       <r>    9.3611    0.9999 </r>
       <r>    9.3868    0.9994 </r>
       <r>    9.4852    0.9686 </r>
       <r>    9.5098    0.9349 </r>
       <r>    9.5776    0.7100 </r>
       <r>    9.5952    0.6200 </r>
       <r>    9.6408    0.3669 </r>
       <r>    9.7045    0.1075 </r>
       <r>    9.7224    0.0676 </r>
       <r>    9.7626    0.0196 </r>
       <r>    9.8219    0.0019 </r>
       <r>    9.8381    0.0009 </r>
       <r>    9.9021    0.0000 </r>
       <r>    9.9258    0.0000 </r>
       <r>    9.9531    0.0000 </r>
       <r>   10.0300    0.0000 </r>
       <r>   10.0828    0.0000 </r>
       <r>   10.1339    0.0000 </r>
       <r>   10.1464    0.0000 </r>
       <r>   10.2034    0.0000 </r>
       <r>   10.2654    0.0000 </r>
       <r>   10.2777    0.0000 </r>
       <r>   10.3184    0.0000 </r>
       <r>   10.3584    0.0000 </r>
       <r>   10.3803    0.0000 </r>
       <r>   10.4394    0.0000 </r>
       <r>   10.4635    0.0000 </r>
       <r>   10.4867    0.0000 </r>
       <r>   10.5229    0.0000 </r>
       <r>   10.5313    0.0000 </r>
       <r>   10.5546    0.0000 </r>
       <r>   10.5757    0.0000 </r>
       <r>   10.6046    0.0000 </r>
       <r>   10.6356    0.0000 </r>
       <r>   10.6536    0.0000 </r>
       <r>   10.6686    0.0000 </r>
       <r>   10.7356    0.0000 </r>
       <r>   10.7625    0.0000 </r>
       <r>   10.8137    0.0000 </r>
       <r>   10.8284    0.0000 </r>
       <r>   10.8693    0.0000 </r>
       <r>   10.8812    0.0000 </r>
       <r>   10.9038    0.0000 </r>
       <r>   10.9482    0.0000 </r>
       <r>   10.9882    0.0000 </r>
       <r>   10.9975    0.0000 </r>
       <r>   11.0140    0.0000 </r>
       <r>   11.0631    0.0000 </r>
       <r>   11.1263    0.0000 </r>
       <r>   11.1674    0.0000 </r>
       <r>   11.1918    0.0000 </r>
       <r>   11.2355    0.0000 </r>
       <r>   11.2580    0.0000 </r>
       <r>   11.3095    0.0000 </r>
       <r>   11.3616    0.0000 </r>
       <r>   11.3811    0.0000 </r>
       <r>   11.4171    0.0000 </r>
       <r>   11.4323    0.0000 </r>
       <r>   11.4801    0.0000 </r>
       <r>   11.4935    0.0000 </r>
       <r>   11.5936    0.0000 </r>
       <r>   11.6515    0.0000 </r>
       <r>   11.6901    0.0000 </r>
       <r>   11.7461    0.0000 </r>
       <r>   11.8102    0.0000 </r>
       <r>   11.8838    0.0000 </r>
       <r>   11.9293    0.0000 </r>
       <r>   12.0134    0.0000 </r>
       <r>   12.1269    0.0000 </r>
      </set>
      <set comment="kpoint 2">
       <r>  -55.4165    1.0000 </r>
       <r>  -55.3785    1.0000 </r>
       <r>  -55.3546    1.0000 </r>
       <r>  -55.3540    1.0000 </r>
       <r>  -55.3257    1.0000 </r>
       <r>  -55.2168    1.0000 </r>
       <r>  -55.1923    1.0000 </r>
       <r>  -46.3385    1.0000 </r>
       <r>  -46.2949    1.0000 </r>
       <r>  -46.2631    1.0000 </r>
       <r>  -46.2136    1.0000 </r>
       <r>  -46.1990    1.0000 </r>
       <r>  -46.1709    1.0000 </r>
       <r>  -46.1491    1.0000 </r>
       <r>  -34.3382    1.0000 </r>
       <r>  -34.1263    1.0000 </r>
       <r>  -34.0921    1.0000 </r>
       <r>  -34.0458    1.0000 </r>
       <r>  -34.0352    1.0000 </r>
       <r>  -34.0286    1.0000 </r>
       <r>  -34.0174    1.0000 </r>
       <r>  -34.0159    1.0000 </r>
       <r>  -34.0057    1.0000 </r>
       <r>  -33.9935    1.0000 </r>
       <r>  -33.9682    1.0000 </r>
       <r>  -33.9586    1.0000 </r>
       <r>  -33.9578    1.0000 </r>
       <r>  -33.9155    1.0000 </r>
       <r>  -33.9019    1.0000 </r>
       <r>  -33.8692    1.0000 </r>
       <r>  -33.8637    1.0000 </r>
       <r>  -33.8363    1.0000 </r>
       <r>  -30.1657    1.0000 </r>
       <r>  -30.0331    1.0000 </r>
       <r>  -29.9981    1.0000 </r>
       <r>  -29.8660    1.0000 </r>
       <r>  -29.8484    1.0000 </r>
       <r>  -29.8245    1.0000 </r>
       <r>  -29.8038    1.0000 </r>
       <r>  -29.7812    1.0000 </r>
       <r>  -29.7799    1.0000 </r>
       <r>  -29.7513    1.0000 </r>
       <r>  -29.7369    1.0000 </r>
       <r>  -29.7213    1.0000 </r>
       <r>  -29.7127    1.0000 </r>
       <r>  -29.6572    1.0000 </r>
       <r>  -29.6355    1.0000 </r>
       <r>  -29.6266    1.0000 </r>
       <r>  -29.5973    1.0000 </r>
       <r>  -29.5218    1.0000 </r>
       <r>  -29.5118    1.0000 </r>
       <r>  -29.4216    1.0000 </r>
       <r>  -29.3800    1.0000 </r>
       <r>  -29.3659    1.0000 </r>
       <r>  -29.3513    1.0000 </r>
       <r>  -29.3413    1.0000 </r>
       <r>  -29.3301    1.0000 </r>
       <r>  -29.3218    1.0000 </r>
       <r>  -29.3136    1.0000 </r>
       <r>  -29.3086    1.0000 </r>
       <r>  -29.3031    1.0000 </r>
       <r>  -29.2935    1.0000 </r>
       <r>  -29.2838    1.0000 </r>
       <r>  -29.2549    1.0000 </r>
       <r>  -29.2435    1.0000 </r>
       <r>  -29.2204    1.0000 </r>
       <r>  -29.1985    1.0000 </r>
       <r>  -29.1945    1.0000 </r>
       <r>  -29.1572    1.0000 </r>
       <r>  -29.1277    1.0000 </r>
       <r>  -28.9869    1.0000 </r>
       <r>  -22.6328    1.0000 </r>
       <r>  -22.6216    1.0000 </r>
       <r>  -22.5461    1.0000 </r>
       <r>  -22.5264    1.0000 </r>
       <r>  -22.5187    1.0000 </r>
       <r>  -22.5120    1.0000 </r>
       <r>  -22.5096    1.0000 </r>
       <r>  -22.4862    1.0000 </r>
       <r>  -22.4650    1.0000 </r>
       <r>  -22.4644    1.0000 </r>
       <r>  -22.4330    1.0000 </r>
       <r>  -22.4098    1.0000 </r>
       <r>  -22.3831    1.0000 </r>
       <r>  -22.3769    1.0000 </r>
       <r>  -22.3673    1.0000 </r>
       <r>  -22.3605    1.0000 </r>
       <r>  -22.3556    1.0000 </r>
       <r>  -22.3510    1.0000 </r>
       <r>  -22.2877    1.0000 </r>
       <r>  -22.2319    1.0000 </r>
       <r>  -22.1411    1.0000 </r>
       <r>   -7.0856    1.0000 </r>
       <r>   -6.5872    1.0000 </r>
       <r>   -6.4663    1.0000 </r>
       <r>   -6.2464    1.0000 </r>
       <r>   -6.0910    1.0000 </r>
       <r>   -6.0124    1.0000 </r>
       <r>   -5.9705    1.0000 </r>
       <r>   -5.8121    1.0000 </r>
       <r>   -5.7620    1.0000 </r>
       <r>   -5.6370    1.0000 </r>
       <r>   -5.5330    1.0000 </r>
       <r>   -5.4329    1.0000 </r>
       <r>   -5.2814    1.0000 </r>
       <r>   -3.6778    1.0000 </r>
       <r>   -3.2314    1.0000 </r>
       <r>   -3.0387    1.0000 </r>
       <r>   -2.8774    1.0000 </r>
       <r>   -2.6597    1.0000 </r>
       <r>   -2.5901    1.0000 </r>
       <r>   -2.4994    1.0000 </r>
       <r>   -2.4398    1.0000 </r>
       <r>   -2.3696    1.0000 </r>
       <r>   -2.2218    1.0000 </r>
       <r>   -2.0601    1.0000 </r>
       <r>   -1.9892    1.0000 </r>
       <r>   -1.9111    1.0000 </r>
       <r>   -1.7969    1.0000 </r>
       <r>   -1.7533    1.0000 </r>
       <r>   -1.6870    1.0000 </r>
       <r>   -1.6075    1.0000 </r>
       <r>   -1.4603    1.0000 </r>
       <r>   -1.3564    1.0000 </r>
       <r>    1.2207    1.0000 </r>
       <r>    1.3563    1.0000 </r>
       <r>    1.4831    1.0000 </r>
       <r>    1.6124    1.0000 </r>
       <r>    2.0287    1.0000 </r>
       <r>    2.0967    1.0000 </r>
       <r>    2.1512    1.0000 </r>
       <r>    2.1951    1.0000 </r>
       <r>    2.2971    1.0000 </r>
       <r>    2.3501    1.0000 </r>
       <r>    2.4619    1.0000 </r>
       <r>    2.5186    1.0000 </r>
       <r>    2.6168    1.0000 </r>
       <r>    2.7410    1.0000 </r>
       <r>    2.8455    1.0000 </r>
       <r>    2.8885    1.0000 </r>
       <r>    2.9931    1.0000 </r>
       <r>    3.1096    1.0000 </r>
       <r>    3.1908    1.0000 </r>
       <r>    3.2305    1.0000 </r>
       <r>    3.2592    1.0000 </r>
       <r>    3.2767    1.0000 </r>
       <r>    3.3785    1.0000 </r>
       <r>    3.4018    1.0000 </r>
       <r>    3.4716    1.0000 </r>
       <r>    3.5011    1.0000 </r>
       <r>    3.5376    1.0000 </r>
       <r>    3.5633    1.0000 </r>
       <r>    3.6060    1.0000 </r>
       <r>    3.7088    1.0000 </r>
       <r>    3.7663    1.0000 </r>
       <r>    3.7935    1.0000 </r>
       <r>    3.8457    1.0000 </r>
       <r>    3.8756    1.0000 </r>
       <r>    3.9368    1.0000 </r>
       <r>    3.9524    1.0000 </r>
       <r>    3.9744    1.0000 </r>
       <r>    4.0099    1.0000 </r>
       <r>    4.0470    1.0000 </r>
       <r>    4.0743    1.0000 </r>
       <r>    4.0965    1.0000 </r>
       <r>    4.1876    1.0000 </r>
       <r>    4.2121    1.0000 </r>
       <r>    4.2490    1.0000 </r>
       <r>    4.2723    1.0000 </r>
       <r>    4.3060    1.0000 </r>
       <r>    4.3439    1.0000 </r>
       <r>    4.3850    1.0000 </r>
       <r>    4.4067    1.0000 </r>
       <r>    4.4312    1.0000 </r>
       <r>    4.4408    1.0000 </r>
       <r>    4.4836    1.0000 </r>
       <r>    4.5301    1.0000 </r>
       <r>    4.5785    1.0000 </r>
       <r>    4.5875    1.0000 </r>
       <r>    4.6319    1.0000 </r>
       <r>    4.6570    1.0000 </r>
       <r>    4.7014    1.0000 </r>
       <r>    4.7092    1.0000 </r>
       <r>    4.7496    1.0000 </r>
       <r>    4.8072    1.0000 </r>
       <r>    4.8257    1.0000 </r>
       <r>    4.8626    1.0000 </r>
       <r>    4.9158    1.0000 </r>
       <r>    4.9379    1.0000 </r>
       <r>    4.9741    1.0000 </r>
       <r>    5.0125    1.0000 </r>
       <r>    5.0453    1.0000 </r>
       <r>    5.0644    1.0000 </r>
       <r>    5.0983    1.0000 </r>
       <r>    5.1255    1.0000 </r>
       <r>    5.1473    1.0000 </r>
       <r>    5.1702    1.0000 </r>
       <r>    5.2357    1.0000 </r>
       <r>    5.2812    1.0000 </r>
       <r>    5.3056    1.0000 </r>
       <r>    5.4027    1.0000 </r>
       <r>    5.4330    1.0000 </r>
       <r>    5.5006    1.0000 </r>
       <r>    5.5937    1.0000 </r>
       <r>    5.6287    1.0000 </r>
       <r>    5.7107    1.0000 </r>
       <r>    5.7735    1.0000 </r>
       <r>    5.8813    1.0000 </r>
       <r>    5.9302    1.0000 </r>
       <r>    5.9712    1.0000 </r>
       <r>    6.1392    1.0000 </r>
       <r>    6.2261    1.0000 </r>
       <r>    6.4746    1.0000 </r>
       <r>    6.5354    1.0000 </r>
       <r>    6.5736    1.0000 </r>
       <r>    6.6802    1.0000 </r>
       <r>    6.7242    1.0000 </r>
       <r>    6.7981    1.0000 </r>
       <r>    6.8947    1.0000 </r>
       <r>    6.9906    1.0000 </r>
       <r>    7.0729    1.0000 </r>
       <r>    7.1941    1.0000 </r>
       <r>    7.3066    1.0000 </r>
       <r>    7.3562    1.0000 </r>
       <r>    7.4881    1.0000 </r>
       <r>    7.5932    1.0000 </r>
       <r>    7.6863    1.0000 </r>
       <r>    7.7675    1.0000 </r>
       <r>    7.8457    1.0000 </r>
       <r>    8.0090    1.0000 </r>
       <r>    8.3363    1.0000 </r>
       <r>    8.4362    1.0000 </r>
       <r>    8.5176    1.0000 </r>
       <r>    8.6623    1.0000 </r>
       <r>    8.7004    1.0000 </r>
       <r>    8.7939    1.0000 </r>
       <r>    8.8330    1.0000 </r>
       <r>    8.8931    1.0000 </r>
       <r>    8.9332    1.0000 </r>
       <r>    9.0570    1.0000 </r>
       <r>    9.0837    1.0000 </r>
       <r>    9.2055    1.0000 </r>
       <r>    9.2571    1.0000 </r>
       <r>    9.3402    1.0000 </r>
       <r>    9.3607    0.9999 </r>
       <r>    9.4135    0.9980 </r>
       <r>    9.4852    0.9686 </r>
       <r>    9.5321    0.8845 </r>
       <r>    9.6273    0.4410 </r>
       <r>    9.6767    0.1982 </r>
       <r>    9.7205    0.0712 </r>
       <r>    9.7532    0.0269 </r>
       <r>    9.7922    0.0065 </r>
       <r>    9.8429    0.0007 </r>
       <r>    9.8658    0.0002 </r>
       <r>    9.9243    0.0000 </r>
       <r>    9.9438    0.0000 </r>
       <r>    9.9863    0.0000 </r>
       <r>   10.0224    0.0000 </r>
       <r>   10.0451    0.0000 </r>
       <r>   10.0857    0.0000 </r>
       <r>   10.1485    0.0000 </r>
       <r>   10.1563    0.0000 </r>
       <r>   10.1969    0.0000 </r>
       <r>   10.2292    0.0000 </r>
       <r>   10.2622    0.0000 </r>
       <r>   10.2871    0.0000 </r>
       <r>   10.3396    0.0000 </r>
       <r>   10.3615    0.0000 </r>
       <r>   10.3958    0.0000 </r>
       <r>   10.4104    0.0000 </r>
       <r>   10.4549    0.0000 </r>
       <r>   10.4863    0.0000 </r>
       <r>   10.5283    0.0000 </r>
       <r>   10.5458    0.0000 </r>
       <r>   10.5857    0.0000 </r>
       <r>   10.6232    0.0000 </r>
       <r>   10.6601    0.0000 </r>
       <r>   10.6701    0.0000 </r>
       <r>   10.7012    0.0000 </r>
       <r>   10.7267    0.0000 </r>
       <r>   10.7561    0.0000 </r>
       <r>   10.7814    0.0000 </r>
       <r>   10.7998    0.0000 </r>
       <r>   10.8211    0.0000 </r>
       <r>   10.8908    0.0000 </r>
       <r>   10.9168    0.0000 </r>
       <r>   10.9514    0.0000 </r>
       <r>   10.9881    0.0000 </r>
       <r>   11.0004    0.0000 </r>
       <r>   11.0707    0.0000 </r>
       <r>   11.1107    0.0000 </r>
       <r>   11.1477    0.0000 </r>
       <r>   11.1944    0.0000 </r>
       <r>   11.2319    0.0000 </r>
       <r>   11.2757    0.0000 </r>
       <r>   11.3138    0.0000 </r>
       <r>   11.3458    0.0000 </r>
       <r>   11.3811    0.0000 </r>
       <r>   11.4154    0.0000 </r>
       <r>   11.4379    0.0000 </r>
       <r>   11.4712    0.0000 </r>
       <r>   11.5378    0.0000 </r>
       <r>   11.5870    0.0000 </r>
       <r>   11.6230    0.0000 </r>
       <r>   11.6788    0.0000 </r>
       <r>   11.8049    0.0000 </r>
       <r>   11.8061    0.0000 </r>
       <r>   11.8913    0.0000 </r>
       <r>   11.9743    0.0000 </r>
       <r>   12.0638    0.0000 </r>
       <r>   12.1807    0.0000 </r>
      </set>
      <set comment="kpoint 3">
       <r>  -55.4165    1.0000 </r>
       <r>  -55.3785    1.0000 </r>
       <r>  -55.3546    1.0000 </r>
       <r>  -55.3540    1.0000 </r>
       <r>  -55.3257    1.0000 </r>
       <r>  -55.2168    1.0000 </r>
       <r>  -55.1923    1.0000 </r>
       <r>  -46.3385    1.0000 </r>
       <r>  -46.2949    1.0000 </r>
       <r>  -46.2632    1.0000 </r>
       <r>  -46.2135    1.0000 </r>
       <r>  -46.1990    1.0000 </r>
       <r>  -46.1709    1.0000 </r>
       <r>  -46.1490    1.0000 </r>
       <r>  -34.3382    1.0000 </r>
       <r>  -34.1264    1.0000 </r>
       <r>  -34.0921    1.0000 </r>
       <r>  -34.0458    1.0000 </r>
       <r>  -34.0351    1.0000 </r>
       <r>  -34.0286    1.0000 </r>
       <r>  -34.0174    1.0000 </r>
       <r>  -34.0159    1.0000 </r>
       <r>  -34.0057    1.0000 </r>
       <r>  -33.9934    1.0000 </r>
       <r>  -33.9682    1.0000 </r>
       <r>  -33.9588    1.0000 </r>
       <r>  -33.9579    1.0000 </r>
       <r>  -33.9155    1.0000 </r>
       <r>  -33.9020    1.0000 </r>
       <r>  -33.8691    1.0000 </r>
       <r>  -33.8637    1.0000 </r>
       <r>  -33.8363    1.0000 </r>
       <r>  -30.1657    1.0000 </r>
       <r>  -30.0331    1.0000 </r>
       <r>  -29.9983    1.0000 </r>
       <r>  -29.8669    1.0000 </r>
       <r>  -29.8489    1.0000 </r>
       <r>  -29.8241    1.0000 </r>
       <r>  -29.8035    1.0000 </r>
       <r>  -29.7816    1.0000 </r>
       <r>  -29.7790    1.0000 </r>
       <r>  -29.7508    1.0000 </r>
       <r>  -29.7360    1.0000 </r>
       <r>  -29.7210    1.0000 </r>
       <r>  -29.7136    1.0000 </r>
       <r>  -29.6587    1.0000 </r>
       <r>  -29.6340    1.0000 </r>
       <r>  -29.6259    1.0000 </r>
       <r>  -29.5971    1.0000 </r>
       <r>  -29.5222    1.0000 </r>
       <r>  -29.5107    1.0000 </r>
       <r>  -29.4222    1.0000 </r>
       <r>  -29.3802    1.0000 </r>
       <r>  -29.3697    1.0000 </r>
       <r>  -29.3528    1.0000 </r>
       <r>  -29.3425    1.0000 </r>
       <r>  -29.3292    1.0000 </r>
       <r>  -29.3204    1.0000 </r>
       <r>  -29.3138    1.0000 </r>
       <r>  -29.3071    1.0000 </r>
       <r>  -29.3029    1.0000 </r>
       <r>  -29.2936    1.0000 </r>
       <r>  -29.2831    1.0000 </r>
       <r>  -29.2544    1.0000 </r>
       <r>  -29.2435    1.0000 </r>
       <r>  -29.2204    1.0000 </r>
       <r>  -29.1985    1.0000 </r>
       <r>  -29.1944    1.0000 </r>
[...]
      </set>
     </set>
    </set>
   </array>
  </eigenvalues>
  <separator name="orbital magnetization" >
   <v name="MAGDIPOLOUT">      0.00000000      0.00000000      0.00000000</v>
  </separator>
  <dos>
   <i name="efermi">      9.61677956 </i>
   <total>
    <array>
     <dimension dim="1">gridpoints</dimension>
     <dimension dim="2">spin</dimension>
     <field>energy</field>
     <field>total</field>
     <field>integrated</field>
     <set>
      <set comment="spin 1">
       <r>   -58.8076     0.0000     0.0000 </r>
       <r>   -58.5589     0.0000     0.0000 </r>
       <r>   -58.3103     0.0000     0.0000 </r>
       <r>   -58.0616     0.0000     0.0000 </r>
       <r>   -57.8129     0.0000     0.0000 </r>
       <r>   -57.5642     0.0000     0.0000 </r>
       <r>   -57.3155     0.0000     0.0000 </r>
       <r>   -57.0668     0.0000     0.0000 </r>
       <r>   -56.8182     0.0000     0.0000 </r>
       <r>   -56.5695     0.0000     0.0000 </r>
       <r>   -56.3208     0.0000     0.0000 </r>
       <r>   -56.0721     0.0000     0.0000 </r>
       <r>   -55.8234     0.0000     0.0000 </r>
       <r>   -55.5748     0.1400     0.0348 </r>
       <r>   -55.3261    28.5677     7.1391 </r>
       <r>   -55.0774    26.9727    13.8467 </r>
       <r>   -54.8287     0.6165    14.0000 </r>
       <r>   -54.5800     0.0000    14.0000 </r>
       <r>   -54.3313     0.0000    14.0000 </r>
       <r>   -54.0827     0.0000    14.0000 </r>
       <r>   -53.8340     0.0000    14.0000 </r>
       <r>   -53.5853     0.0000    14.0000 </r>
       <r>   -53.3366     0.0000    14.0000 </r>
       <r>   -53.0879     0.0000    14.0000 </r>
       <r>   -52.8393     0.0000    14.0000 </r>
       <r>   -52.5906     0.0000    14.0000 </r>
       <r>   -52.3419     0.0000    14.0000 </r>
       <r>   -52.0932     0.0000    14.0000 </r>
       <r>   -51.8445     0.0000    14.0000 </r>
       <r>   -51.5959     0.0000    14.0000 </r>
       <r>   -51.3472     0.0000    14.0000 </r>
       <r>   -51.0985     0.0000    14.0000 </r>
       <r>   -50.8498     0.0000    14.0000 </r>
       <r>   -50.6011     0.0000    14.0000 </r>
       <r>   -50.3524     0.0000    14.0000 </r>
       <r>   -50.1038     0.0000    14.0000 </r>
       <r>   -49.8551     0.0000    14.0000 </r>
       <r>   -49.6064     0.0000    14.0000 </r>
       <r>   -49.3577     0.0000    14.0000 </r>
       <r>   -49.1090     0.0000    14.0000 </r>
       <r>   -48.8604     0.0000    14.0000 </r>
       <r>   -48.6117     0.0000    14.0000 </r>
       <r>   -48.3630     0.0000    14.0000 </r>
       <r>   -48.1143     0.0000    14.0000 </r>
       <r>   -47.8656     0.0000    14.0000 </r>
       <r>   -47.6169     0.0000    14.0000 </r>
       <r>   -47.3683     0.0000    14.0000 </r>
       <r>   -47.1196     0.0000    14.0000 </r>
       <r>   -46.8709     0.0000    14.0000 </r>
       <r>   -46.6222     0.0003    14.0001 </r>
       <r>   -46.3735     4.2120    15.0475 </r>
       <r>   -46.1249    44.7639    26.1795 </r>
       <r>   -45.8762     7.3202    27.9998 </r>
       <r>   -45.6275     0.0006    28.0000 </r>
       <r>   -45.3788     0.0000    28.0000 </r>
       <r>   -45.1301     0.0000    28.0000 </r>
       <r>   -44.8815     0.0000    28.0000 </r>
       <r>   -44.6328     0.0000    28.0000 </r>
       <r>   -44.3841     0.0000    28.0000 </r>
       <r>   -44.1354     0.0000    28.0000 </r>
       <r>   -43.8867     0.0000    28.0000 </r>
       <r>   -43.6380     0.0000    28.0000 </r>
       <r>   -43.3894     0.0000    28.0000 </r>
       <r>   -43.1407     0.0000    28.0000 </r>
       <r>   -42.8920     0.0000    28.0000 </r>
       <r>   -42.6433     0.0000    28.0000 </r>
       <r>   -42.3946     0.0000    28.0000 </r>
       <r>   -42.1460     0.0000    28.0000 </r>
       <r>   -41.8973     0.0000    28.0000 </r>
       <r>   -41.6486     0.0000    28.0000 </r>
       <r>   -41.3999     0.0000    28.0000 </r>
       <r>   -41.1512     0.0000    28.0000 </r>
       <r>   -40.9025     0.0000    28.0000 </r>
       <r>   -40.6539     0.0000    28.0000 </r>
       <r>   -40.4052     0.0000    28.0000 </r>
       <r>   -40.1565     0.0000    28.0000 </r>
       <r>   -39.9078     0.0000    28.0000 </r>
       <r>   -39.6591     0.0000    28.0000 </r>
       <r>   -39.4105     0.0000    28.0000 </r>
       <r>   -39.1618     0.0000    28.0000 </r>
       <r>   -38.9131     0.0000    28.0000 </r>
       <r>   -38.6644     0.0000    28.0000 </r>
       <r>   -38.4157     0.0000    28.0000 </r>
       <r>   -38.1671     0.0000    28.0000 </r>
       <r>   -37.9184     0.0000    28.0000 </r>
       <r>   -37.6697     0.0000    28.0000 </r>
       <r>   -37.4210     0.0000    28.0000 </r>
       <r>   -37.1723     0.0000    28.0000 </r>
       <r>   -36.9236     0.0000    28.0000 </r>
       <r>   -36.6750     0.0000    28.0000 </r>
       <r>   -36.4263     0.0000    28.0000 </r>
       <r>   -36.1776     0.0000    28.0000 </r>
       <r>   -35.9289     0.0000    28.0000 </r>
       <r>   -35.6802     0.0000    28.0000 </r>
       <r>   -35.4316     0.0000    28.0000 </r>
       <r>   -35.1829     0.0000    28.0000 </r>
       <r>   -34.9342     0.0000    28.0000 </r>
       <r>   -34.6855     0.0000    28.0000 </r>
       <r>   -34.4368     0.6561    28.1632 </r>
       <r>   -34.1881    10.0903    30.6724 </r>
       <r>   -33.9395    85.4383    51.9194 </r>
       <r>   -33.6908    48.2957    63.9296 </r>
       <r>   -33.4421     0.2831    64.0000 </r>
       <r>   -33.1934     0.0000    64.0000 </r>
       <r>   -32.9447     0.0000    64.0000 </r>
       <r>   -32.6961     0.0000    64.0000 </r>
       <r>   -32.4474     0.0000    64.0000 </r>
       <r>   -32.1987     0.0000    64.0000 </r>
       <r>   -31.9500     0.0000    64.0000 </r>
       <r>   -31.7013     0.0000    64.0000 </r>
       <r>   -31.4526     0.0000    64.0000 </r>
       <r>   -31.2040     0.0000    64.0000 </r>
       <r>   -30.9553     0.0000    64.0000 </r>
       <r>   -30.7066     0.0000    64.0000 </r>
       <r>   -30.4579     0.0001    64.0000 </r>
       <r>   -30.2092     2.2227    64.5528 </r>
       <r>   -29.9606    19.8948    69.5003 </r>
       <r>   -29.7119    69.6614    86.8238 </r>
       <r>   -29.4632    62.6253   102.3975 </r>
       <r>   -29.2145   112.9794   130.4934 </r>
       <r>   -28.9658    43.0669   141.2033 </r>
       <r>   -28.7172     3.2031   141.9999 </r>
       <r>   -28.4685     0.0005   142.0000 </r>
       <r>   -28.2198     0.0000   142.0000 </r>
       <r>   -27.9711     0.0000   142.0000 </r>
       <r>   -27.7224     0.0000   142.0000 </r>
       <r>   -27.4737     0.0000   142.0000 </r>
       <r>   -27.2251     0.0000   142.0000 </r>
       <r>   -26.9764     0.0000   142.0000 </r>
       <r>   -26.7277     0.0000   142.0000 </r>
       <r>   -26.4790     0.0000   142.0000 </r>
       <r>   -26.2303     0.0000   142.0000 </r>
       <r>   -25.9817     0.0000   142.0000 </r>
       <r>   -25.7330     0.0000   142.0000 </r>
       <r>   -25.4843     0.0000   142.0000 </r>
       <r>   -25.2356     0.0000   142.0000 </r>
       <r>   -24.9869     0.0000   142.0000 </r>
       <r>   -24.7382     0.0000   142.0000 </r>
       <r>   -24.4896     0.0000   142.0000 </r>
       <r>   -24.2409     0.0000   142.0000 </r>
       <r>   -23.9922     0.0000   142.0000 </r>
       <r>   -23.7435     0.0000   142.0000 </r>
       <r>   -23.4948     0.0000   142.0000 </r>
       <r>   -23.2462     0.0000   142.0000 </r>
       <r>   -22.9975     0.0000   142.0000 </r>
       <r>   -22.7488     0.7228   142.1797 </r>
       <r>   -22.5001    51.8292   155.0687 </r>
       <r>   -22.2514    98.5921   179.5868 </r>
       <r>   -22.0028    17.5332   183.9469 </r>
       <r>   -21.7541     0.2134   184.0000 </r>
       <r>   -21.5054     0.0000   184.0000 </r>
       <r>   -21.2567     0.0000   184.0000 </r>
       <r>   -21.0080     0.0000   184.0000 </r>
       <r>   -20.7593     0.0000   184.0000 </r>
       <r>   -20.5107     0.0000   184.0000 </r>
       <r>   -20.2620     0.0000   184.0000 </r>
       <r>   -20.0133     0.0000   184.0000 </r>
       <r>   -19.7646     0.0000   184.0000 </r>
       <r>   -19.5159     0.0000   184.0000 </r>
       <r>   -19.2673     0.0000   184.0000 </r>
       <r>   -19.0186     0.0000   184.0000 </r>
       <r>   -18.7699     0.0000   184.0000 </r>
       <r>   -18.5212     0.0000   184.0000 </r>
       <r>   -18.2725     0.0000   184.0000 </r>
       <r>   -18.0238     0.0000   184.0000 </r>
       <r>   -17.7752     0.0000   184.0000 </r>
       <r>   -17.5265     0.0000   184.0000 </r>
       <r>   -17.2778     0.0000   184.0000 </r>
       <r>   -17.0291     0.0000   184.0000 </r>
       <r>   -16.7804     0.0000   184.0000 </r>
       <r>   -16.5318     0.0000   184.0000 </r>
       <r>   -16.2831     0.0000   184.0000 </r>
       <r>   -16.0344     0.0000   184.0000 </r>
       <r>   -15.7857     0.0000   184.0000 </r>
       <r>   -15.5370     0.0000   184.0000 </r>
       <r>   -15.2884     0.0000   184.0000 </r>
       <r>   -15.0397     0.0000   184.0000 </r>
       <r>   -14.7910     0.0000   184.0000 </r>
       <r>   -14.5423     0.0000   184.0000 </r>
       <r>   -14.2936     0.0000   184.0000 </r>
       <r>   -14.0449     0.0000   184.0000 </r>
       <r>   -13.7963     0.0000   184.0000 </r>
       <r>   -13.5476     0.0000   184.0000 </r>
       <r>   -13.2989     0.0000   184.0000 </r>
       <r>   -13.0502     0.0000   184.0000 </r>
       <r>   -12.8015     0.0000   184.0000 </r>
       <r>   -12.5529     0.0000   184.0000 </r>
       <r>   -12.3042     0.0000   184.0000 </r>
       <r>   -12.0555     0.0000   184.0000 </r>
       <r>   -11.8068     0.0000   184.0000 </r>
       <r>   -11.5581     0.0000   184.0000 </r>
       <r>   -11.3094     0.0000   184.0000 </r>
       <r>   -11.0608     0.0000   184.0000 </r>
       <r>   -10.8121     0.0000   184.0000 </r>
       <r>   -10.5634     0.0000   184.0000 </r>
       <r>   -10.3147     0.0000   184.0000 </r>
       <r>   -10.0660     0.0000   184.0000 </r>
       <r>    -9.8174     0.0000   184.0000 </r>
       <r>    -9.5687     0.0000   184.0000 </r>
       <r>    -9.3200     0.0000   184.0000 </r>
       <r>    -9.0713     0.0000   184.0000 </r>
       <r>    -8.8226     0.0000   184.0000 </r>
       <r>    -8.5740     0.0000   184.0000 </r>
       <r>    -8.3253     0.0000   184.0000 </r>
       <r>    -8.0766     0.0000   184.0000 </r>
       <r>    -7.8279     0.0000   184.0000 </r>
       <r>    -7.5792     0.0000   184.0000 </r>
       <r>    -7.3305     0.0052   184.0013 </r>
       <r>    -7.0819     1.8581   184.4634 </r>
       <r>    -6.8332     6.1152   185.9841 </r>
       <r>    -6.5845     6.4522   187.5886 </r>
       <r>    -6.3358     9.7105   190.0034 </r>
       <r>    -6.0871    14.2034   193.5356 </r>
       <r>    -5.8385    21.8035   198.9577 </r>
       <r>    -5.5898    19.5907   203.8295 </r>
       <r>    -5.3411    17.4134   208.1599 </r>
       <r>    -5.0924     7.3678   209.9921 </r>
       <r>    -4.8437     0.0316   210.0000 </r>
       <r>    -4.5950     0.0000   210.0000 </r>
       <r>    -4.3464     0.0000   210.0000 </r>
       <r>    -4.0977     0.0001   210.0000 </r>
       <r>    -3.8490     0.5688   210.1415 </r>
       <r>    -3.6003     6.7044   211.8087 </r>
       <r>    -3.3516     0.9940   212.0559 </r>
       <r>    -3.1030     8.1280   214.0772 </r>
       <r>    -2.8543    11.7896   217.0090 </r>
       <r>    -2.6056    16.5029   221.1130 </r>
       <r>    -2.3569    24.2881   227.1530 </r>
       <r>    -2.1082    21.0658   232.3917 </r>
       <r>    -1.8595    21.6582   237.7777 </r>
       <r>    -1.6109    23.7187   243.6761 </r>
       <r>    -1.3622    13.7042   247.0841 </r>
       <r>    -1.1135     3.5606   247.9695 </r>
       <r>    -0.8648     0.1227   248.0000 </r>
       <r>    -0.6161     0.0000   248.0000 </r>
       <r>    -0.3675     0.0000   248.0000 </r>
       <r>    -0.1188     0.0000   248.0000 </r>
       <r>     0.1299     0.0000   248.0000 </r>
       <r>     0.3786     0.0000   248.0000 </r>
       <r>     0.6273     0.0000   248.0000 </r>
       <r>     0.8759     0.0276   248.0069 </r>
       <r>     1.1246     0.6672   248.1728 </r>
       <r>     1.3733     3.3315   249.0013 </r>
       <r>     1.6220     9.2144   251.2927 </r>
       <r>     1.8707    10.1191   253.8092 </r>
       <r>     2.1194    16.0913   257.8108 </r>
       <r>     2.3680    24.1063   263.8056 </r>
       <r>     2.6167    27.6872   270.6908 </r>
       <r>     2.8654    26.0920   277.1795 </r>
       <r>     3.1141    32.2190   285.1917 </r>
       <r>     3.3628    32.6381   293.3082 </r>
       <r>     3.6114    37.3788   302.6036 </r>
       <r>     3.8601    43.2598   313.3615 </r>
       <r>     4.1088    53.8423   326.7511 </r>
       <r>     4.3575    60.9734   341.9141 </r>
       <r>     4.6062    59.9106   356.8127 </r>
       <r>     4.8549    61.6695   372.1488 </r>
       <r>     5.1035    59.3006   386.8958 </r>
       <r>     5.3522    52.5781   399.9710 </r>
       <r>     5.6009    37.8664   409.3877 </r>
       <r>     5.8496    32.9593   417.5840 </r>
       <r>     6.0983    29.4222   424.9008 </r>
       <r>     6.3469    23.2785   430.6897 </r>
       <r>     6.5956    18.9133   435.3931 </r>
       <r>     6.8443    13.4092   438.7277 </r>
       <r>     7.0930     6.3395   440.3042 </r>
       <r>     7.3417    13.0684   443.5541 </r>
       <r>     7.5903    18.4857   448.1511 </r>
       <r>     7.8390    20.3889   453.2215 </r>
       <r>     8.0877    20.5104   458.3220 </r>
       <r>     8.3364    19.6684   463.2132 </r>
       <r>     8.5851    28.6165   470.3296 </r>
       <r>     8.8338    33.2434   478.5966 </r>
       <r>     9.0824    29.3514   485.8958 </r>
       <r>     9.3311    30.3297   493.4382 </r>
       <r>     9.5798    33.4849   501.7653 </r>
       <r>     9.8285    36.0148   510.7215 </r>
       <r>    10.0772    45.9301   522.1435 </r>
       <r>    10.3258    51.3573   534.9151 </r>
       <r>    10.5745    58.7794   549.5324 </r>
       <r>    10.8232    59.5907   564.3515 </r>
       <r>    11.0719    53.9041   577.7565 </r>
       <r>    11.3206    53.1305   590.9690 </r>
       <r>    11.5693    48.8904   603.1272 </r>
       <r>    11.8179    42.0447   613.5829 </r>
       <r>    12.0666    26.4760   620.1670 </r>
       <r>    12.3153    13.5076   623.5261 </r>
       <r>    12.5640     1.8948   623.9973 </r>
       <r>    12.8127     0.0108   624.0000 </r>
       <r>    13.0613     0.0000   624.0000 </r>
       <r>    13.3100     0.0000   624.0000 </r>
       <r>    13.5587     0.0000   624.0000 </r>
       <r>    13.8074     0.0000   624.0000 </r>
       <r>    14.0561     0.0000   624.0000 </r>
       <r>    14.3047     0.0000   624.0000 </r>
       <r>    14.5534     0.0000   624.0000 </r>
       <r>    14.8021     0.0000   624.0000 </r>
       <r>    15.0508     0.0000   624.0000 </r>
       <r>    15.2995     0.0000   624.0000 </r>
       <r>    15.5482     0.0000   624.0000 </r>
       <r>    15.7968     0.0000   624.0000 </r>
      </set>
     </set>
    </array>
   </total>
  </dos>
 </calculation>
 <structure name="finalpos" >
  <crystal>
   <varray name="basis" >
    <v>       8.58373642       0.00507199       0.00539539 </v>
    <v>       0.01082528       8.60171700       0.01401309 </v>
    <v>       0.03613636      -0.00095056       8.64646686 </v>
   </varray>
   <i name="volume">    638.40873452 </i>
   <varray name="rec_basis" >
    <v>       0.11649978      -0.00014582      -0.00048691 </v>
    <v>      -0.00006870       0.11625592       0.00001307 </v>
    <v>      -0.00007258      -0.00018832       0.11565446 </v>
   </varray>
  </crystal>
  <varray name="positions" >
   <v>       0.00831991       0.00864620       0.98783184 </v>
   <v>       0.26047687       0.99713207       0.24512501 </v>
   <v>       0.25240122       0.49927178       0.24864728 </v>
   <v>       0.50340679       0.49949316       0.00146452 </v>
   <v>       0.50690342       0.24257322       0.75133746 </v>
   <v>       0.99659473       0.50044815       0.50733207 </v>
   <v>       0.49665146       0.76111560       0.74486279 </v>
   <v>       0.98485663       0.23211516       0.25547889 </v>
   <v>       0.76452642       0.74651352       0.00054544 </v>
   <v>       0.01333618       0.23583216       0.75236263 </v>
   <v>       0.76016942       0.23962593       0.48372596 </v>
   <v>       0.00403380       0.73839387       0.75431033 </v>
   <v>       0.25439193       0.50265990       0.75066822 </v>
   <v>       0.26426943       0.24977399       0.98440844 </v>
   <v>       0.51924092       0.23002546       0.26234607 </v>
   <v>       0.73553742       0.01194202       0.28117832 </v>
   <v>       0.73461219       0.24426346       0.98208379 </v>
   <v>       0.23879865       0.74255303       0.00313628 </v>
   <v>       0.25006734       0.25375046       0.51366339 </v>
   <v>       0.25293715       0.74316480       0.49470399 </v>
   <v>       0.24689224       0.24616982       0.24871568 </v>
   <v>       0.26548765       0.99975608       0.99624943 </v>
   <v>       0.00566063       0.25759608       0.00840262 </v>
   <v>       0.74692099       0.24833034       0.23213011 </v>
   <v>       0.74837677       0.00046389       0.99972548 </v>
   <v>       0.50715288       0.99395197       0.24451645 </v>
   <v>       0.99787323       0.49049611       0.25162832 </v>
   <v>       0.50050726       0.75740778       0.99821364 </v>
   <v>       0.99045131       0.98903082       0.73947897 </v>
   <v>       0.76051350       0.23157037       0.74179561 </v>
   <v>       0.74026811       0.99906976       0.50651449 </v>
   <v>       0.50210528       0.24829095       0.49347779 </v>
   <v>       0.48998810       0.00284865       0.74401616 </v>
   <v>       0.99187327       0.99769359       0.24432629 </v>
   <v>       0.50090287       0.24578159       0.00771405 </v>
   <v>       0.25984136       0.74805972       0.24742531 </v>
   <v>       0.24120602       0.49759951       0.99705272 </v>
   <v>       0.00701495       0.74748144       0.00586999 </v>
   <v>       0.73959829       0.76421841       0.24460107 </v>
   <v>       0.76286169       0.49058569       0.00848519 </v>
   <v>       0.49829108       0.49535846       0.24943049 </v>
   <v>       0.25683972       0.24437379       0.74822198 </v>
   <v>       0.25642282       0.00066017       0.51001073 </v>
   <v>       0.00889759       0.24733066       0.50175211 </v>
   <v>       0.24716581       0.76021044       0.75033143 </v>
   <v>       0.25128109       0.49816993       0.50150860 </v>
   <v>       0.00596596       0.75083950       0.50446926 </v>
   <v>       0.99934563       0.48761662       0.75573082 </v>
   <v>       0.75269354       0.76666988       0.74847074 </v>
   <v>       0.74687542       0.48928674       0.50532469 </v>
   <v>       0.49520443       0.76867596       0.49300186 </v>
   <v>       0.49959491       0.50269884       0.74752010 </v>
   <v>       0.51549608       0.01674083       0.98095319 </v>
   <v>       0.99280099       0.51959554       0.97395086 </v>
   <v>       0.50078836       0.73646867       0.27492970 </v>
   <v>       0.22112160       0.01034318       0.77392263 </v>
   <v>       0.47254266       0.01430237       0.48441276 </v>
   <v>       0.71734801       0.99940744       0.77839049 </v>
   <v>       0.00385411       0.76214206       0.25808554 </v>
   <v>       0.73525563       0.51972095       0.25338014 </v>
   <v>       0.02160614       0.99747282       0.49144741 </v>
   <v>       0.50007650       0.51733517       0.49301759 </v>
   <v>       0.74605735       0.51641333       0.76065431 </v>
   <v>       0.74744667       0.74246990       0.49553064 </v>
  </varray>
 </structure>
</modeling>
