       N       E                     dE             d eps       ncg     rms          rms(c)
DAV:   1     0.595498322082E+04    0.59550E+04   -0.20394E+05  8624   0.148E+03
DAV:   2     0.229785413548E+03   -0.57252E+04   -0.55414E+04  8624   0.540E+02
DAV:   3    -0.686013773422E+03   -0.91580E+03   -0.86037E+03 12488   0.182E+02
DAV:   4    -0.785726475718E+03   -0.99713E+02   -0.97017E+02 14112   0.725E+01
DAV:   5    -0.790708312331E+03   -0.49818E+01   -0.48757E+01 12712   0.143E+01    0.831E+01
RMM:   6    -0.840103159585E+03   -0.49395E+02   -0.20779E+03 11654   0.143E+02    0.115E+02
RMM:   7    -0.636546674199E+03    0.20356E+03   -0.38491E+02 11967   0.513E+01    0.566E+01
RMM:   8    -0.640590953513E+03   -0.40443E+01   -0.12889E+02 12558   0.202E+01    0.450E+01
RMM:   9    -0.622100033143E+03    0.18491E+02   -0.35333E+01 12031   0.133E+01    0.232E+01
RMM:  10    -0.621320579993E+03    0.77945E+00   -0.16819E+01 12506   0.658E+00    0.191E+01
RMM:  11    -0.620478090625E+03    0.84249E+00   -0.69369E+00 12110   0.436E+00    0.156E+01
RMM:  12    -0.619505302739E+03    0.97279E+00   -0.37580E+00 11928   0.374E+00    0.142E+01
RMM:  13    -0.619023325588E+03    0.48198E+00   -0.29264E+00 12125   0.331E+00    0.104E+01
RMM:  14    -0.619473881035E+03   -0.45056E+00   -0.34279E+00 12854   0.397E+00    0.152E+01
RMM:  15    -0.619089786589E+03    0.38409E+00   -0.19255E+00 12743   0.329E+00    0.108E+01
RMM:  16    -0.618754111507E+03    0.33568E+00   -0.90594E-01 11756   0.201E+00    0.569E+00
RMM:  17    -0.618608569957E+03    0.14554E+00   -0.40179E-01 11573   0.145E+00    0.506E+00
RMM:  18    -0.618551512060E+03    0.57058E-01   -0.29316E-01 12147   0.899E-01    0.276E+00
RMM:  19    -0.618527002165E+03    0.24510E-01   -0.24199E-01 12088   0.724E-01    0.242E+00
RMM:  20    -0.618512909702E+03    0.14092E-01   -0.15774E-01 12730   0.590E-01    0.172E+00
RMM:  21    -0.618515455793E+03   -0.25461E-02   -0.10017E-01 11789   0.433E-01    0.163E+00
RMM:  22    -0.618508728870E+03    0.67269E-02   -0.55018E-02 12379   0.413E-01    0.833E-01
RMM:  23    -0.618508398865E+03    0.33001E-03   -0.26851E-02 12224   0.226E-01    0.647E-01
RMM:  24    -0.618506916288E+03    0.14826E-02   -0.13128E-02 11532   0.159E-01    0.408E-01
RMM:  25    -0.618505730974E+03    0.11853E-02   -0.13752E-02 12697   0.146E-01    0.121E-01
RMM:  26    -0.618506461279E+03   -0.73031E-03   -0.82145E-03 12344   0.104E-01    0.133E-01
RMM:  27    -0.618506822343E+03   -0.36106E-03   -0.43435E-03 10602   0.700E-02    0.923E-02
RMM:  28    -0.618506994371E+03   -0.17203E-03   -0.25409E-03  8804   0.405E-02    0.358E-02
RMM:  29    -0.618507118793E+03   -0.12442E-03   -0.18079E-03  9688   0.354E-02    0.180E-02
RMM:  30    -0.618507226670E+03   -0.10788E-03   -0.11225E-03  8362   0.307E-02    0.253E-02
RMM:  31    -0.618507295928E+03   -0.69258E-04   -0.77307E-04  6883   0.255E-02    0.118E-02
RMM:  32    -0.618507337613E+03   -0.41685E-04   -0.46832E-04  6308   0.150E-02    0.839E-03
RMM:  33    -0.618507371655E+03   -0.34042E-04   -0.35141E-04  6071   0.138E-02    0.383E-03
RMM:  34    -0.618507392795E+03   -0.21140E-04   -0.21419E-04  5906   0.123E-02    0.345E-03
RMM:  35    -0.618507408953E+03   -0.16158E-04   -0.16638E-04  5752   0.818E-03    0.219E-03
RMM:  36    -0.618507418788E+03   -0.98348E-05   -0.10124E-04  5710   0.606E-03    0.126E-03
RMM:  37    -0.618507426755E+03   -0.79677E-05   -0.81155E-05  5439   0.539E-03
   1 F= -.61850743E+03 E0= -.61839855E+03  d E =-.618507E+03
       N       E                     dE             d eps       ncg     rms          rms(c)
DAV:   1    -0.819725552572E+03   -0.20122E+03   -0.59534E+03 11760   0.350E+02    0.993E+01
RMM:   2    -0.754318737527E+03    0.65407E+02   -0.14009E+03 10006   0.169E+02    0.822E+01
RMM:   3    -0.668231756816E+03    0.86087E+02   -0.30750E+02 11896   0.548E+01    0.667E+01
RMM:   4    -0.633543671591E+03    0.34688E+02   -0.10617E+02 11615   0.278E+01    0.335E+01
RMM:   5    -0.620045948554E+03    0.13498E+02   -0.50487E+01 12027   0.205E+01    0.271E+01
RMM:   6    -0.616686239299E+03    0.33597E+01   -0.17237E+01 11262   0.142E+01    0.212E+01
RMM:   7    -0.615765086109E+03    0.92115E+00   -0.10834E+01 11688   0.835E+00    0.182E+01
RMM:   8    -0.613729271691E+03    0.20358E+01   -0.39429E+00 11346   0.667E+00    0.101E+01
RMM:   9    -0.613381603526E+03    0.34767E+00   -0.20701E+00 11370   0.428E+00    0.751E+00
RMM:  10    -0.613177534859E+03    0.20407E+00   -0.87153E-01 11971   0.239E+00    0.463E+00
RMM:  11    -0.613126251229E+03    0.51284E-01   -0.36898E-01 11787   0.153E+00    0.363E+00
RMM:  12    -0.613083975974E+03    0.42275E-01   -0.18703E-01 11946   0.116E+00    0.264E+00
RMM:  13    -0.613080769535E+03    0.32064E-02   -0.10773E-01 11740   0.924E-01    0.256E+00
RMM:  14    -0.613072944805E+03    0.78247E-02   -0.85403E-02 11853   0.803E-01    0.212E+00
RMM:  15    -0.613046617196E+03    0.26328E-01   -0.32789E-02 11745   0.475E-01    0.470E-01
RMM:  16    -0.613045989738E+03    0.62746E-03   -0.14382E-02 11878   0.260E-01    0.324E-01
RMM:  17    -0.613046573925E+03   -0.58419E-03   -0.72963E-03 11781   0.172E-01    0.382E-01
RMM:  18    -0.613046182676E+03    0.39125E-03   -0.38121E-03 11109   0.135E-01    0.243E-01
RMM:  19    -0.613045958705E+03    0.22397E-03   -0.19306E-03 10894   0.838E-02    0.105E-01
RMM:  20    -0.613045899051E+03    0.59654E-04   -0.82786E-04 10209   0.513E-02    0.511E-02
RMM:  21    -0.613045915138E+03   -0.16086E-04   -0.52541E-04  9527   0.399E-02    0.431E-02
RMM:  22    -0.613045915844E+03   -0.70634E-06   -0.25096E-04  8442   0.281E-02    0.196E-02
RMM:  23    -0.613045923356E+03   -0.75120E-05   -0.12846E-04  6565   0.218E-02    0.150E-02
RMM:  24    -0.613045925204E+03   -0.18478E-05   -0.58974E-05  6018   0.143E-02
   2 F= -.61304593E+03 E0= -.61297350E+03  d E =0.546150E+01
       N       E                     dE             d eps       ncg     rms          rms(c)
DAV:   1    -0.720324814382E+03   -0.10728E+03   -0.21566E+03 11620   0.193E+02    0.966E+01
RMM:   2    -0.999751767356E+03   -0.27943E+03   -0.60848E+02 11806   0.690E+01    0.106E+02
RMM:   3    -0.689856703059E+03    0.30990E+03   -0.27403E+02 11190   0.428E+01    0.586E+01
RMM:   4    -0.652918917058E+03    0.36938E+02   -0.76968E+01 11311   0.272E+01    0.366E+01
RMM:   5    -0.635523758833E+03    0.17395E+02   -0.31522E+01 11404   0.158E+01    0.318E+01
RMM:   6    -0.629992235800E+03    0.55315E+01   -0.11307E+01 11420   0.101E+01    0.198E+01
RMM:   7    -0.629313613246E+03    0.67862E+00   -0.19272E+01 11863   0.120E+01    0.244E+01
RMM:   8    -0.629249472371E+03    0.64141E-01   -0.94946E+00 11938   0.796E+00    0.245E+01
RMM:   9    -0.627171597785E+03    0.20779E+01   -0.39082E+00 11374   0.535E+00    0.156E+01
RMM:  10    -0.626192973348E+03    0.97862E+00   -0.16215E+00 11389   0.348E+00    0.105E+01
RMM:  11    -0.625813224266E+03    0.37975E+00   -0.68674E-01 11832   0.227E+00    0.667E+00
RMM:  12    -0.625645416456E+03    0.16781E+00   -0.50760E-01 11554   0.159E+00    0.476E+00
RMM:  13    -0.625625430203E+03    0.19986E-01   -0.62488E-01 12735   0.145E+00    0.370E+00
RMM:  14    -0.625670687341E+03   -0.45257E-01   -0.28477E-01 12252   0.114E+00    0.463E+00
RMM:  15    -0.625584735035E+03    0.85952E-01   -0.13270E-01 11737   0.987E-01    0.259E+00
RMM:  16    -0.625560043825E+03    0.24691E-01   -0.56890E-02 11792   0.617E-01    0.190E+00
RMM:  17    -0.625545757900E+03    0.14286E-01   -0.49133E-02 11849   0.493E-01    0.179E+00
RMM:  18    -0.625529495351E+03    0.16263E-01   -0.43313E-02 12596   0.395E-01    0.995E-01
RMM:  19    -0.625528053764E+03    0.14416E-02   -0.63240E-02 12853   0.475E-01    0.563E-01
RMM:  20    -0.625530149116E+03   -0.20954E-02   -0.20915E-02 12890   0.225E-01    0.668E-01
RMM:  21    -0.625526502448E+03    0.36467E-02   -0.33969E-03 11229   0.154E-01    0.373E-01
RMM:  22    -0.625524898810E+03    0.16036E-02   -0.32804E-03 11458   0.121E-01    0.277E-01
RMM:  23    -0.625524380760E+03    0.51805E-03   -0.32866E-03 12008   0.961E-02    0.132E-01
RMM:  24    -0.625524436907E+03   -0.56148E-04   -0.22231E-03 11061   0.812E-02    0.674E-02
RMM:  25    -0.625524414836E+03    0.22071E-04   -0.38638E-04  9062   0.468E-02    0.330E-02
RMM:  26    -0.625524431062E+03   -0.16226E-04   -0.23116E-04  7695   0.225E-02    0.192E-02
RMM:  27    -0.625524437369E+03   -0.63066E-05   -0.82312E-05  6274   0.222E-02
   3 F= -.62552444E+03 E0= -.62543307E+03  d E =-.701701E+01
       N       E                     dE             d eps       ncg     rms          rms(c)
DAV:   1    -0.625614916827E+03   -0.90486E-01   -0.18932E+00 12544   0.585E+00    0.251E+00
RMM:   2    -0.626297492331E+03   -0.68258E+00   -0.86600E-01 10185   0.396E+00    0.116E+01
RMM:   3    -0.625685179592E+03    0.61231E+00   -0.31687E-01 10329   0.239E+00    0.532E+00
RMM:   4    -0.625590679787E+03    0.94500E-01   -0.12540E-01 10701   0.123E+00    0.315E+00
RMM:   5    -0.625557796997E+03    0.32883E-01   -0.57204E-02 11239   0.756E-01    0.166E+00
RMM:   6    -0.625549033547E+03    0.87635E-02   -0.27383E-02 11256   0.416E-01    0.146E+00
RMM:   7    -0.625540029708E+03    0.90038E-02   -0.10907E-02 11471   0.299E-01    0.755E-01
RMM:   8    -0.625542135204E+03   -0.21055E-02   -0.76224E-03 11143   0.236E-01    0.101E+00
RMM:   9    -0.625537940830E+03    0.41944E-02   -0.45198E-03 11201   0.190E-01    0.371E-01
RMM:  10    -0.625537667499E+03    0.27333E-03   -0.19145E-03 10907   0.118E-01    0.360E-01
RMM:  11    -0.625537623652E+03    0.43846E-04   -0.10818E-03 10065   0.101E-01    0.340E-01
RMM:  12    -0.625537161880E+03    0.46177E-03   -0.50770E-04  9842   0.714E-02    0.128E-01
RMM:  13    -0.625537162863E+03   -0.98310E-06   -0.23994E-04  9134   0.491E-02    0.134E-01
RMM:  14    -0.625537107594E+03    0.55269E-04   -0.13248E-04  8117   0.371E-02    0.823E-02
RMM:  15    -0.625537078308E+03    0.29287E-04   -0.69907E-05  7607   0.239E-02    0.365E-02
RMM:  16    -0.625537086405E+03   -0.80978E-05   -0.48430E-05  7132   0.192E-02
   4 F= -.62553709E+03 E0= -.62544635E+03  d E =-.702966E+01
       N       E                     dE             d eps       ncg     rms          rms(c)
DAV:   1    -0.619155574616E+03    0.63815E+01   -0.70563E+02  9016   0.101E+02    0.696E+00
RMM:   2    -0.633004414691E+03   -0.13849E+02   -0.84436E+01 13499   0.297E+01    0.277E+01
RMM:   3    -0.628152335434E+03    0.48521E+01   -0.13590E+01 11649   0.130E+01    0.128E+01
RMM:   4    -0.627570238115E+03    0.58210E+00   -0.42149E+00 12365   0.580E+00    0.819E+00
RMM:   5    -0.627537614699E+03    0.32623E-01   -0.15949E+00 12455   0.308E+00    0.665E+00
RMM:   6    -0.627374933209E+03    0.16268E+00   -0.56633E-01 12404   0.173E+00    0.372E+00
RMM:   7    -0.627363249188E+03    0.11684E-01   -0.34860E-01 12186   0.139E+00    0.380E+00
RMM:   8    -0.627342488489E+03    0.20761E-01   -0.25498E-01 12055   0.117E+00    0.317E+00
RMM:   9    -0.627312528696E+03    0.29960E-01   -0.17081E-01 12111   0.986E-01    0.232E+00
RMM:  10    -0.627308819003E+03    0.37097E-02   -0.93196E-02 12108   0.757E-01    0.243E+00
RMM:  11    -0.627290329343E+03    0.18490E-01   -0.48421E-02 11487   0.584E-01    0.153E+00
RMM:  12    -0.627287544711E+03    0.27846E-02   -0.30502E-02 11881   0.403E-01    0.114E+00
RMM:  13    -0.627283440229E+03    0.41045E-02   -0.14982E-02 11797   0.283E-01    0.639E-01
RMM:  14    -0.627281899753E+03    0.15405E-02   -0.80981E-03 11615   0.182E-01    0.346E-01
RMM:  15    -0.627282234868E+03   -0.33511E-03   -0.49486E-03 11370   0.131E-01    0.339E-01
RMM:  16    -0.627281996761E+03    0.23811E-03   -0.27868E-03 10749   0.106E-01    0.229E-01
RMM:  17    -0.627281888787E+03    0.10797E-03   -0.16844E-03 10261   0.737E-02    0.123E-01
RMM:  18    -0.627281880313E+03    0.84740E-05   -0.79711E-04 10020   0.463E-02    0.571E-02
RMM:  19    -0.627281933287E+03   -0.52974E-04   -0.52560E-04  9010   0.363E-02    0.658E-02
RMM:  20    -0.627281926231E+03    0.70559E-05   -0.29379E-04  7968   0.286E-02    0.177E-02
RMM:  21    -0.627281941933E+03   -0.15702E-04   -0.19674E-04  6491   0.194E-02    0.938E-03
RMM:  22    -0.627281950475E+03   -0.85413E-05   -0.95063E-05  6169   0.145E-02
   5 F= -.62728195E+03 E0= -.62719655E+03  d E =-.174486E+01
       N       E                     dE             d eps       ncg     rms          rms(c)
DAV:   1    -0.627219863021E+03    0.62079E-01   -0.67780E+00  9800   0.999E+00    0.636E-01
RMM:   2    -0.627357699150E+03   -0.13784E+00   -0.80431E-01 13329   0.298E+00    0.374E+00
RMM:   3    -0.627307661970E+03    0.50037E-01   -0.12430E-01 11681   0.120E+00    0.134E+00
RMM:   4    -0.627303988097E+03    0.36739E-02   -0.40028E-02 12485   0.538E-01    0.880E-01
RMM:   5    -0.627301950726E+03    0.20374E-02   -0.13714E-02 11981   0.310E-01    0.507E-01
RMM:   6    -0.627300874745E+03    0.10760E-02   -0.55881E-03 11610   0.187E-01    0.371E-01
RMM:   7    -0.627300612808E+03    0.26194E-03   -0.28210E-03 11201   0.137E-01    0.324E-01
RMM:   8    -0.627300668474E+03   -0.55666E-04   -0.22867E-03 11346   0.121E-01    0.356E-01
RMM:   9    -0.627300358623E+03    0.30985E-03   -0.18775E-03 11130   0.116E-01    0.274E-01
RMM:  10    -0.627300253984E+03    0.10464E-03   -0.10051E-03 10748   0.898E-02    0.250E-01
RMM:  11    -0.627300008100E+03    0.24588E-03   -0.41130E-04  9885   0.596E-02    0.125E-01
RMM:  12    -0.627299978970E+03    0.29131E-04   -0.22849E-04  9028   0.421E-02    0.896E-02
RMM:  13    -0.627299970053E+03    0.89171E-05   -0.13967E-04  8630   0.300E-02    0.762E-02
RMM:  14    -0.627299944383E+03    0.25669E-04   -0.84214E-05  7679   0.289E-02    0.387E-02
RMM:  15    -0.627299946021E+03   -0.16381E-05   -0.46110E-05  6389   0.182E-02
   6 F= -.62729995E+03 E0= -.62721396E+03  d E =-.176286E+01
       N       E                     dE             d eps       ncg     rms          rms(c)
DAV:   1    -0.627332919209E+03   -0.32975E-01   -0.13532E+02 12292   0.635E+01    0.105E+01
RMM:   2    -0.637596714063E+03   -0.10264E+02   -0.23868E+01 11499   0.186E+01    0.331E+01
RMM:   3    -0.628226591664E+03    0.93701E+01   -0.78106E+00 10574   0.123E+01    0.958E+00
RMM:   4    -0.628292399142E+03   -0.65807E-01   -0.31231E+00 12724   0.466E+00    0.112E+01
RMM:   5    -0.628072350216E+03    0.22005E+00   -0.10271E+00 11522   0.338E+00    0.872E+00
RMM:   6    -0.627742816937E+03    0.32953E+00   -0.48950E-01 11339   0.214E+00    0.457E+00
RMM:   7    -0.627693304931E+03    0.49512E-01   -0.24485E-01 11883   0.138E+00    0.347E+00
RMM:   8    -0.627697439616E+03   -0.41347E-02   -0.16448E-01 11423   0.107E+00    0.381E+00
RMM:   9    -0.627636165145E+03    0.61274E-01   -0.89790E-02 11918   0.835E-01    0.191E+00
RMM:  10    -0.627637761319E+03   -0.15962E-02   -0.53602E-02 11622   0.629E-01    0.200E+00
RMM:  11    -0.627626355039E+03    0.11406E-01   -0.27774E-02 11546   0.470E-01    0.125E+00
RMM:  12    -0.627622673405E+03    0.36816E-02   -0.14449E-02 11743   0.346E-01    0.109E+00
RMM:  13    -0.627619311395E+03    0.33620E-02   -0.77377E-03 11070   0.245E-01    0.622E-01
RMM:  14    -0.627617742737E+03    0.15687E-02   -0.41947E-03 11514   0.159E-01    0.316E-01
RMM:  15    -0.627617985294E+03   -0.24256E-03   -0.29210E-03 11207   0.126E-01    0.361E-01
RMM:  16    -0.627617956313E+03    0.28981E-04   -0.19051E-03 10825   0.116E-01    0.329E-01
RMM:  17    -0.627617359835E+03    0.59648E-03   -0.79844E-04 10402   0.745E-02    0.800E-02
RMM:  18    -0.627617344236E+03    0.15599E-04   -0.38677E-04  9711   0.443E-02    0.733E-02
RMM:  19    -0.627617326135E+03    0.18101E-04   -0.26708E-04  9319   0.344E-02    0.370E-02
RMM:  20    -0.627617336069E+03   -0.99337E-05   -0.20923E-04  9141   0.302E-02    0.187E-02
RMM:  21    -0.627617339262E+03   -0.31929E-05   -0.81360E-05  6971   0.199E-02
   7 F= -.62761734E+03 E0= -.62753192E+03  d E =-.317393E+00
       N       E                     dE             d eps       ncg     rms          rms(c)
DAV:   1    -0.627617088858E+03    0.24721E-03   -0.19727E-01 12992   0.248E+00    0.391E-01
RMM:   2    -0.627633531870E+03   -0.16443E-01   -0.38679E-02 10823   0.812E-01    0.165E+00
RMM:   3    -0.627620992830E+03    0.12539E-01   -0.12556E-02 10441   0.474E-01    0.841E-01
RMM:   4    -0.627619291233E+03    0.17016E-02   -0.52286E-03 11428   0.235E-01    0.530E-01
RMM:   5    -0.627618475704E+03    0.81553E-03   -0.22421E-03 10920   0.149E-01    0.301E-01
RMM:   6    -0.627618191729E+03    0.28397E-03   -0.94295E-04 10633   0.918E-02    0.240E-01
RMM:   7    -0.627617932983E+03    0.25875E-03   -0.37518E-04  9191   0.683E-02    0.122E-01
RMM:   8    -0.627617974377E+03   -0.41395E-04   -0.29384E-04  9663   0.489E-02    0.152E-01
RMM:   9    -0.627617889545E+03    0.84832E-04   -0.18273E-04  9252   0.436E-02    0.913E-02
RMM:  10    -0.627617867284E+03    0.22261E-04   -0.78966E-05  7490   0.333E-02    0.665E-02
RMM:  11    -0.627617856279E+03    0.11004E-04   -0.42095E-05  6376   0.232E-02    0.457E-02
RMM:  12    -0.627617853245E+03    0.30341E-05   -0.18615E-05  5444   0.200E-02
   8 F= -.62761785E+03 E0= -.62753243E+03  d E =-.317907E+00
       N       E                     dE             d eps       ncg     rms          rms(c)
DAV:   1    -0.625910298410E+03    0.17076E+01   -0.14159E+02 11872   0.713E+01    0.653E+00
RMM:   2    -0.632557674447E+03   -0.66474E+01   -0.26424E+01 11434   0.185E+01    0.259E+01
RMM:   3    -0.628083441937E+03    0.44742E+01   -0.58412E+00 10872   0.952E+00    0.879E+00
RMM:   4    -0.628067915446E+03    0.15526E-01   -0.21233E+00 12828   0.402E+00    0.680E+00
RMM:   5    -0.627949177701E+03    0.11874E+00   -0.53848E-01 11843   0.232E+00    0.473E+00
RMM:   6    -0.627873296938E+03    0.75881E-01   -0.27373E-01 12007   0.144E+00    0.348E+00
RMM:   7    -0.627815774817E+03    0.57522E-01   -0.11267E-01 11849   0.944E-01    0.158E+00
RMM:   8    -0.627834563052E+03   -0.18788E-01   -0.92474E-02 11805   0.773E-01    0.269E+00
RMM:   9    -0.627807032082E+03    0.27531E-01   -0.54744E-02 11727   0.700E-01    0.157E+00
RMM:  10    -0.627806470819E+03    0.56126E-03   -0.32435E-02 11651   0.514E-01    0.157E+00
RMM:  11    -0.627796367863E+03    0.10103E-01   -0.14595E-02 11585   0.350E-01    0.688E-01
RMM:  12    -0.627796176212E+03    0.19165E-03   -0.70333E-03 11323   0.227E-01    0.678E-01
RMM:  13    -0.627794891852E+03    0.12844E-02   -0.39242E-03 10967   0.176E-01    0.398E-01
RMM:  14    -0.627794192773E+03    0.69908E-03   -0.19690E-03 11056   0.108E-01    0.207E-01
RMM:  15    -0.627794359392E+03   -0.16662E-03   -0.12377E-03 10535   0.871E-02    0.246E-01
RMM:  16    -0.627794218998E+03    0.14039E-03   -0.80052E-04 10299   0.729E-02    0.151E-01
RMM:  17    -0.627794109403E+03    0.10959E-03   -0.35251E-04  9403   0.437E-02    0.529E-02
RMM:  18    -0.627794113875E+03   -0.44715E-05   -0.19379E-04  8534   0.300E-02    0.372E-02
RMM:  19    -0.627794121128E+03   -0.72531E-05   -0.11545E-04  7706   0.238E-02    0.315E-02
RMM:  20    -0.627794119160E+03    0.19679E-05   -0.65141E-05  6460   0.188E-02
   9 F= -.62779412E+03 E0= -.62771317E+03  d E =-.176266E+00
       N       E                     dE             d eps       ncg     rms          rms(c)
DAV:   1    -0.627765912185E+03    0.28209E-01   -0.22779E+00 11900   0.906E+00    0.870E-01
RMM:   2    -0.627896260060E+03   -0.13035E+00   -0.43918E-01 11798   0.228E+00    0.438E+00
RMM:   3    -0.627814435744E+03    0.81824E-01   -0.96503E-02 10768   0.123E+00    0.185E+00
RMM:   4    -0.627804235832E+03    0.10200E-01   -0.36795E-02 11866   0.599E-01    0.103E+00
RMM:   5    -0.627800802303E+03    0.34335E-02   -0.11791E-02 11521   0.317E-01    0.574E-01
RMM:   6    -0.627799582262E+03    0.12200E-02   -0.47829E-03 11345   0.200E-01    0.463E-01
RMM:   7    -0.627798677299E+03    0.90496E-03   -0.19483E-03 10977   0.138E-01    0.280E-01
RMM:   8    -0.627799051649E+03   -0.37435E-03   -0.14878E-03 10678   0.107E-01    0.407E-01
RMM:   9    -0.627798428707E+03    0.62294E-03   -0.10778E-03 10994   0.102E-01    0.199E-01
RMM:  10    -0.627798302068E+03    0.12664E-03   -0.45767E-04 10012   0.718E-02    0.142E-01
RMM:  11    -0.627798235338E+03    0.66730E-04   -0.26420E-04  9670   0.501E-02    0.918E-02
RMM:  12    -0.627798208507E+03    0.26831E-04   -0.11335E-04  8178   0.349E-02    0.660E-02
RMM:  13    -0.627798202913E+03    0.55942E-05   -0.57315E-05  6633   0.261E-02
  10 F= -.62779820E+03 E0= -.62771675E+03  d E =-.180350E+00
       N       E                     dE             d eps       ncg     rms          rms(c)
DAV:   1    -0.627071987905E+03    0.72622E+00   -0.40790E+01  9016   0.370E+01    0.159E+00
RMM:   2    -0.627933372491E+03   -0.86138E+00   -0.74186E+00 13384   0.800E+00    0.614E+00
RMM:   3    -0.627900243584E+03    0.33129E-01   -0.10837E+00 12028   0.301E+00    0.239E+00
RMM:   4    -0.627914383005E+03   -0.14139E-01   -0.22542E-01 12185   0.134E+00    0.221E+00
RMM:   5    -0.627892362112E+03    0.22021E-01   -0.62962E-02 11373   0.835E-01    0.994E-01
RMM:   6    -0.627888632178E+03    0.37299E-02   -0.30617E-02 12230   0.417E-01    0.549E-01
RMM:   7    -0.627889553110E+03   -0.92093E-03   -0.17836E-02 12039   0.307E-01    0.754E-01
RMM:   8    -0.627888179047E+03    0.13741E-02   -0.12372E-02 11936   0.274E-01    0.653E-01
RMM:   9    -0.627887449229E+03    0.72982E-03   -0.71278E-03 11757   0.204E-01    0.540E-01
RMM:  10    -0.627886784623E+03    0.66461E-03   -0.35172E-03 11156   0.142E-01    0.362E-01
RMM:  11    -0.627886316596E+03    0.46803E-03   -0.16436E-03 10743   0.966E-02    0.153E-01
RMM:  12    -0.627886311386E+03    0.52099E-05   -0.87192E-04 10362   0.670E-02    0.152E-01
RMM:  13    -0.627886253490E+03    0.57896E-04   -0.54415E-04  9972   0.564E-02    0.103E-01
RMM:  14    -0.627886253126E+03    0.36435E-06   -0.30494E-04  9420   0.375E-02    0.803E-02
RMM:  15    -0.627886253507E+03   -0.38130E-06   -0.16475E-04  7973   0.345E-02    0.817E-02
RMM:  16    -0.627886229780E+03    0.23727E-04   -0.92926E-05  6492   0.237E-02    0.315E-02
RMM:  17    -0.627886231393E+03   -0.16133E-05   -0.49421E-05  6366   0.186E-02
  11 F= -.62788623E+03 E0= -.62780617E+03  d E =-.880285E-01
       N       E                     dE             d eps       ncg     rms          rms(c)
DAV:   1    -0.627804025256E+03    0.82205E-01   -0.48308E+00  9996   0.127E+01    0.529E-01
RMM:   2    -0.627898474040E+03   -0.94449E-01   -0.80180E-01 13089   0.268E+00    0.216E+00
RMM:   3    -0.627894633540E+03    0.38405E-02   -0.12693E-01 12043   0.988E-01    0.800E-01
RMM:   4    -0.627895556464E+03   -0.92292E-03   -0.24064E-02 12130   0.440E-01    0.637E-01
RMM:   5    -0.627893936588E+03    0.16199E-02   -0.73249E-03 11315   0.268E-01    0.395E-01
RMM:   6    -0.627893455734E+03    0.48085E-03   -0.33760E-03 11577   0.150E-01    0.230E-01
RMM:   7    -0.627893740359E+03   -0.28462E-03   -0.19580E-03 11152   0.113E-01    0.346E-01
RMM:   8    -0.627893417077E+03    0.32328E-03   -0.15696E-03 11346   0.113E-01    0.265E-01
RMM:   9    -0.627893201813E+03    0.21526E-03   -0.91095E-04 10483   0.820E-02    0.184E-01
RMM:  10    -0.627893122382E+03    0.79431E-04   -0.46794E-04 10037   0.617E-02    0.125E-01
RMM:  11    -0.627893063291E+03    0.59091E-04   -0.19738E-04  8995   0.382E-02    0.611E-02
RMM:  12    -0.627893058664E+03    0.46267E-05   -0.10636E-04  7091   0.303E-02    0.539E-02
RMM:  13    -0.627893047620E+03    0.11044E-04   -0.58425E-05  6682   0.213E-02    0.338E-02
RMM:  14    -0.627893046015E+03    0.16054E-05   -0.36281E-05  6109   0.168E-02
  12 F= -.62789305E+03 E0= -.62781348E+03  d E =-.948431E-01
       N       E                     dE             d eps       ncg     rms          rms(c)
DAV:   1    -0.627644203092E+03    0.24884E+00   -0.19317E+01 10612   0.261E+01    0.216E+00
RMM:   2    -0.628395958560E+03   -0.75176E+00   -0.35339E+00 12462   0.591E+00    0.940E+00
RMM:   3    -0.628014886331E+03    0.38107E+00   -0.63162E-01 11067   0.303E+00    0.402E+00
RMM:   4    -0.627974154612E+03    0.40732E-01   -0.20995E-01 11797   0.148E+00    0.263E+00
RMM:   5    -0.627954205933E+03    0.19949E-01   -0.88082E-02 11907   0.842E-01    0.160E+00
RMM:   6    -0.627942278228E+03    0.11928E-01   -0.32121E-02 11855   0.495E-01    0.106E+00
RMM:   7    -0.627938674102E+03    0.36041E-02   -0.15551E-02 11737   0.334E-01    0.762E-01
RMM:   8    -0.627940932206E+03   -0.22581E-02   -0.11588E-02 11608   0.283E-01    0.104E+00
RMM:   9    -0.627936262515E+03    0.46697E-02   -0.69209E-03 11597   0.242E-01    0.490E-01
RMM:  10    -0.627936259253E+03    0.32617E-05   -0.39826E-03 11592   0.175E-01    0.497E-01
RMM:  11    -0.627935492754E+03    0.76650E-03   -0.20780E-03 11147   0.127E-01    0.296E-01
RMM:  12    -0.627935134776E+03    0.35798E-03   -0.98969E-04 10369   0.923E-02    0.170E-01
RMM:  13    -0.627935092378E+03    0.42398E-04   -0.52129E-04  9538   0.640E-02    0.144E-01
RMM:  14    -0.627935000654E+03    0.91724E-04   -0.27903E-04  9439   0.425E-02    0.647E-02
RMM:  15    -0.627935000013E+03    0.64162E-06   -0.15407E-04  8278   0.282E-02    0.510E-02
RMM:  16    -0.627934994887E+03    0.51254E-05   -0.79051E-05  6834   0.233E-02
  13 F= -.62793499E+03 E0= -.62785632E+03  d E =-.419489E-01
       N       E                     dE             d eps       ncg     rms          rms(c)
DAV:   1    -0.627905350428E+03    0.29650E-01   -0.20087E+00 11144   0.850E+00    0.706E-01
RMM:   2    -0.627989861924E+03   -0.84511E-01   -0.39913E-01 12468   0.198E+00    0.328E+00
RMM:   3    -0.627947866524E+03    0.41995E-01   -0.69798E-02 11023   0.100E+00    0.144E+00
RMM:   4    -0.627942224558E+03    0.56420E-02   -0.23480E-02 11637   0.494E-01    0.827E-01
RMM:   5    -0.627940284583E+03    0.19400E-02   -0.97229E-03 11478   0.279E-01    0.521E-01
RMM:   6    -0.627939030725E+03    0.12539E-02   -0.35155E-03 11011   0.176E-01    0.350E-01
RMM:   7    -0.627938583473E+03    0.44725E-03   -0.17303E-03 10992   0.119E-01    0.230E-01
RMM:   8    -0.627938822059E+03   -0.23859E-03   -0.13099E-03 10991   0.100E-01    0.320E-01
RMM:   9    -0.627938358918E+03    0.46314E-03   -0.72725E-04 10616   0.833E-02    0.147E-01
RMM:  10    -0.627938388469E+03   -0.29551E-04   -0.44554E-04 10099   0.626E-02    0.172E-01
RMM:  11    -0.627938297102E+03    0.91366E-04   -0.22144E-04  9126   0.460E-02    0.100E-01
RMM:  12    -0.627938260923E+03    0.36179E-04   -0.10548E-04  7635   0.326E-02    0.607E-02
RMM:  13    -0.627938253321E+03    0.76025E-05   -0.54938E-05  6537   0.248E-02
  14 F= -.62793825E+03 E0= -.62785991E+03  d E =-.452073E-01
       N       E                     dE             d eps       ncg     rms          rms(c)
DAV:   1    -0.627689003620E+03    0.24926E+00   -0.19381E+01 11788   0.273E+01    0.241E+00
RMM:   2    -0.628450671270E+03   -0.76167E+00   -0.36871E+00 11630   0.641E+00    0.890E+00
RMM:   3    -0.628039647643E+03    0.41102E+00   -0.78695E-01 10767   0.344E+00    0.426E+00
RMM:   4    -0.628019070639E+03    0.20577E-01   -0.31014E-01 12378   0.156E+00    0.311E+00
RMM:   5    -0.627992808144E+03    0.26262E-01   -0.85830E-02 11722   0.903E-01    0.196E+00
RMM:   6    -0.627982646348E+03    0.10162E-01   -0.40536E-02 11663   0.583E-01    0.162E+00
RMM:   7    -0.627971690447E+03    0.10956E-01   -0.17232E-02 11381   0.391E-01    0.777E-01
RMM:   8    -0.627972966652E+03   -0.12762E-02   -0.11837E-02 11573   0.279E-01    0.914E-01
RMM:   9    -0.627969587146E+03    0.33795E-02   -0.77808E-03 11548   0.259E-01    0.535E-01
RMM:  10    -0.627968924133E+03    0.66301E-03   -0.39379E-03 11496   0.180E-01    0.437E-01
RMM:  11    -0.627968323800E+03    0.60033E-03   -0.21773E-03 11128   0.128E-01    0.270E-01
RMM:  12    -0.627968124837E+03    0.19896E-03   -0.10358E-03 10305   0.952E-02    0.193E-01
RMM:  13    -0.627968035224E+03    0.89613E-04   -0.52424E-04  9390   0.682E-02    0.145E-01
RMM:  14    -0.627967942214E+03    0.93010E-04   -0.26633E-04  9361   0.437E-02    0.661E-02
RMM:  15    -0.627967942946E+03   -0.73203E-06   -0.15094E-04  8189   0.283E-02    0.475E-02
RMM:  16    -0.627967935394E+03    0.75524E-05   -0.74688E-05  6717   0.215E-02
  15 F= -.62796794E+03 E0= -.62789184E+03  d E =-.296821E-01
       N       E                     dE             d eps       ncg     rms          rms(c)
DAV:   1    -0.627953100351E+03    0.14843E-01   -0.11111E+00 12180   0.655E+00    0.581E-01
RMM:   2    -0.627997161523E+03   -0.44061E-01   -0.21426E-01 11763   0.152E+00    0.215E+00
RMM:   3    -0.627973945207E+03    0.23216E-01   -0.44356E-02 10688   0.822E-01    0.105E+00
RMM:   4    -0.627972409409E+03    0.15358E-02   -0.17221E-02 12000   0.378E-01    0.773E-01
RMM:   5    -0.627970762868E+03    0.16465E-02   -0.49390E-03 11125   0.226E-01    0.468E-01
RMM:   6    -0.627970213871E+03    0.54900E-03   -0.24376E-03 10834   0.148E-01    0.393E-01
RMM:   7    -0.627969571548E+03    0.64232E-03   -0.10335E-03 10155   0.103E-01    0.188E-01
RMM:   8    -0.627969654517E+03   -0.82969E-04   -0.71992E-04 10459   0.736E-02    0.221E-01
RMM:   9    -0.627969456491E+03    0.19803E-03   -0.47183E-04 10524   0.678E-02    0.126E-01
RMM:  10    -0.627969415222E+03    0.41269E-04   -0.22919E-04  9504   0.479E-02    0.970E-02
RMM:  11    -0.627969391347E+03    0.23875E-04   -0.12217E-04  8405   0.342E-02    0.635E-02
RMM:  12    -0.627969382063E+03    0.92838E-05   -0.55620E-05  6682   0.260E-02
  16 F= -.62796938E+03 E0= -.62789385E+03  d E =-.311287E-01
       N       E                     dE             d eps       ncg     rms          rms(c)
DAV:   1    -0.627600295773E+03    0.36910E+00   -0.18706E+01  9128   0.268E+01    0.105E+00
RMM:   2    -0.627969219958E+03   -0.36892E+00   -0.36209E+00 13230   0.536E+00    0.226E+00
RMM:   3    -0.628008019112E+03   -0.38799E-01   -0.53147E-01 12113   0.201E+00    0.164E+00
RMM:   4    -0.628009320541E+03   -0.13014E-02   -0.78020E-02 11987   0.819E-01    0.146E+00
RMM:   5    -0.628002907327E+03    0.64132E-02   -0.24024E-02 11569   0.479E-01    0.796E-01
RMM:   6    -0.628001271740E+03    0.16356E-02   -0.10884E-02 11943   0.257E-01    0.490E-01
RMM:   7    -0.628001247516E+03    0.24224E-04   -0.51357E-03 11575   0.178E-01    0.519E-01
RMM:   8    -0.628000856686E+03    0.39083E-03   -0.41249E-03 11585   0.166E-01    0.471E-01
RMM:   9    -0.628000338210E+03    0.51848E-03   -0.31817E-03 11621   0.148E-01    0.371E-01
RMM:  10    -0.627999924496E+03    0.41371E-03   -0.17855E-03 11173   0.115E-01    0.243E-01
RMM:  11    -0.627999636437E+03    0.28806E-03   -0.72787E-04 10299   0.724E-02    0.964E-02
RMM:  12    -0.627999638789E+03   -0.23526E-05   -0.39078E-04  9867   0.532E-02    0.900E-02
RMM:  13    -0.627999589165E+03    0.49624E-04   -0.20514E-04  8901   0.361E-02    0.373E-02
RMM:  14    -0.627999614421E+03   -0.25256E-04   -0.13430E-04  7631   0.286E-02    0.668E-02
RMM:  15    -0.627999594462E+03    0.19959E-04   -0.60648E-05  6304   0.235E-02    0.286E-02
RMM:  16    -0.627999593840E+03    0.62223E-06   -0.38523E-05  5999   0.166E-02
  17 F= -.62799959E+03 E0= -.62792588E+03  d E =-.302118E-01
       N       E                     dE             d eps       ncg     rms          rms(c)
DAV:   1    -0.627659934791E+03    0.33966E+00   -0.16403E+01  9072   0.252E+01    0.976E-01
RMM:   2    -0.627981216994E+03   -0.32128E+00   -0.32076E+00 13226   0.505E+00    0.188E+00
RMM:   3    -0.628022121206E+03   -0.40904E-01   -0.46635E-01 12139   0.187E+00    0.162E+00
RMM:   4    -0.628018717395E+03    0.34038E-02   -0.67388E-02 11936   0.774E-01    0.104E+00
RMM:   5    -0.628015533422E+03    0.31840E-02   -0.22950E-02 11737   0.443E-01    0.610E-01
RMM:   6    -0.628014513706E+03    0.10197E-02   -0.85587E-03 12073   0.227E-01    0.393E-01
RMM:   7    -0.628014954350E+03   -0.44064E-03   -0.46618E-03 11533   0.168E-01    0.545E-01
RMM:   8    -0.628014656088E+03    0.29826E-03   -0.34708E-03 11199   0.163E-01    0.511E-01
RMM:   9    -0.628014051274E+03    0.60481E-03   -0.26312E-03 11402   0.133E-01    0.357E-01
RMM:  10    -0.628013654435E+03    0.39684E-03   -0.14834E-03 11043   0.109E-01    0.227E-01
RMM:  11    -0.628013415563E+03    0.23887E-03   -0.61353E-04 10153   0.685E-02    0.971E-02
RMM:  12    -0.628013404481E+03    0.11082E-04   -0.32561E-04  9706   0.484E-02    0.828E-02
RMM:  13    -0.628013363907E+03    0.40574E-04   -0.17438E-04  8693   0.339E-02    0.379E-02
RMM:  14    -0.628013388086E+03   -0.24179E-04   -0.11437E-04  7361   0.283E-02    0.680E-02
RMM:  15    -0.628013366062E+03    0.22024E-04   -0.55060E-05  6329   0.237E-02    0.247E-02
RMM:  16    -0.628013366225E+03   -0.16325E-06   -0.33776E-05  5993   0.153E-02
  18 F= -.62801337E+03 E0= -.62794128E+03  d E =-.439842E-01
       N       E                     dE             d eps       ncg     rms          rms(c)
DAV:   1    -0.627966338508E+03    0.47028E-01   -0.22331E+00  9856   0.933E+00    0.360E-01
RMM:   2    -0.628010191167E+03   -0.43853E-01   -0.43559E-01 13177   0.187E+00    0.724E-01
RMM:   3    -0.628015940593E+03   -0.57494E-02   -0.64459E-02 12134   0.694E-01    0.652E-01
RMM:   4    -0.628015811265E+03    0.12933E-03   -0.96075E-03 11664   0.294E-01    0.512E-01
RMM:   5    -0.628014947910E+03    0.86335E-03   -0.30416E-03 10974   0.176E-01    0.279E-01
RMM:   6    -0.628014767066E+03    0.18084E-03   -0.14250E-03 10823   0.100E-01    0.182E-01
RMM:   7    -0.628014732363E+03    0.34704E-04   -0.64672E-04 10378   0.666E-02    0.167E-01
RMM:   8    -0.628014706574E+03    0.25789E-04   -0.52326E-04 10347   0.609E-02    0.161E-01
RMM:   9    -0.628014613270E+03    0.93304E-04   -0.39598E-04 10281   0.555E-02    0.104E-01
RMM:  10    -0.628014597963E+03    0.15307E-04   -0.23094E-04  9617   0.437E-02    0.921E-02
RMM:  11    -0.628014557648E+03    0.40315E-04   -0.90356E-05  7310   0.306E-02    0.327E-02
RMM:  12    -0.628014559839E+03   -0.21909E-05   -0.49733E-05  6333   0.224E-02
  19 F= -.62801456E+03 E0= -.62794306E+03  d E =-.451778E-01
       N       E                     dE             d eps       ncg     rms          rms(c)
DAV:   1    -0.627636762010E+03    0.37780E+00   -0.19738E+01  9268   0.270E+01    0.141E+00
RMM:   2    -0.628103499799E+03   -0.46674E+00   -0.39357E+00 13014   0.540E+00    0.475E+00
RMM:   3    -0.628059959228E+03    0.43541E-01   -0.58819E-01 11700   0.223E+00    0.243E+00
RMM:   4    -0.628066605997E+03   -0.66468E-02   -0.13102E-01 11846   0.109E+00    0.222E+00
RMM:   5    -0.628049107498E+03    0.17498E-01   -0.43625E-02 11228   0.663E-01    0.119E+00
RMM:   6    -0.628043465184E+03    0.56423E-02   -0.18980E-02 11368   0.378E-01    0.721E-01
RMM:   7    -0.628042336745E+03    0.11284E-02   -0.92805E-03 11517   0.226E-01    0.528E-01
RMM:   8    -0.628042657228E+03   -0.32048E-03   -0.65670E-03 11672   0.203E-01    0.593E-01
RMM:   9    -0.628040896272E+03    0.17610E-02   -0.41499E-03 11627   0.176E-01    0.280E-01
RMM:  10    -0.628041005912E+03   -0.10964E-03   -0.24154E-03 11310   0.119E-01    0.305E-01
RMM:  11    -0.628040611321E+03    0.39459E-03   -0.11197E-03 10733   0.919E-02    0.155E-01
RMM:  12    -0.628040571040E+03    0.40281E-04   -0.58716E-04  9963   0.608E-02    0.124E-01
RMM:  13    -0.628040538960E+03    0.32080E-04   -0.29877E-04  8920   0.464E-02    0.929E-02
RMM:  14    -0.628040500908E+03    0.38052E-04   -0.15726E-04  8104   0.296E-02    0.354E-02
RMM:  15    -0.628040503674E+03   -0.27662E-05   -0.89451E-05  6918   0.207E-02
  20 F= -.62804050E+03 E0= -.62796998E+03  d E =-.259438E-01
       N       E                     dE             d eps       ncg     rms          rms(c)
DAV:   1    -0.627877192813E+03    0.16331E+00   -0.82186E+00  9240   0.177E+01    0.900E-01
RMM:   2    -0.628062388929E+03   -0.18520E+00   -0.16401E+00 13016   0.348E+00    0.266E+00
RMM:   3    -0.628057179426E+03    0.52095E-02   -0.24233E-01 11737   0.144E+00    0.167E+00
RMM:   4    -0.628057722412E+03   -0.54299E-03   -0.53057E-02 11743   0.696E-01    0.138E+00
RMM:   5    -0.628051304597E+03    0.64178E-02   -0.18505E-02 11072   0.425E-01    0.786E-01
RMM:   6    -0.628048849768E+03    0.24548E-02   -0.78424E-03 11191   0.248E-01    0.457E-01
RMM:   7    -0.628048381176E+03    0.46859E-03   -0.39028E-03 11293   0.147E-01    0.333E-01
RMM:   8    -0.628048550021E+03   -0.16885E-03   -0.27998E-03 11470   0.134E-01    0.384E-01
RMM:   9    -0.628047787477E+03    0.76254E-03   -0.17899E-03 11361   0.116E-01    0.173E-01
RMM:  10    -0.628047829054E+03   -0.41577E-04   -0.10212E-03 10811   0.799E-02    0.188E-01
RMM:  11    -0.628047671359E+03    0.15769E-03   -0.48374E-04  9974   0.608E-02    0.856E-02
RMM:  12    -0.628047651463E+03    0.19896E-04   -0.22715E-04  8987   0.350E-02    0.550E-02
RMM:  13    -0.628047642440E+03    0.90238E-05   -0.10915E-04  7220   0.275E-02    0.381E-02
RMM:  14    -0.628047647645E+03   -0.52055E-05   -0.68116E-05  6259   0.201E-02
  21 F= -.62804765E+03 E0= -.62797765E+03  d E =-.330878E-01
       N       E                     dE             d eps       ncg     rms          rms(c)
DAV:   1    -0.627805030451E+03    0.24261E+00   -0.17553E+01 11172   0.246E+01    0.217E+00
RMM:   2    -0.628526931608E+03   -0.72190E+00   -0.33308E+00 11695   0.594E+00    0.893E+00
RMM:   3    -0.628123054760E+03    0.40388E+00   -0.68449E-01 10836   0.307E+00    0.368E+00
RMM:   4    -0.628101951254E+03    0.21104E-01   -0.25183E-01 12174   0.143E+00    0.241E+00
RMM:   5    -0.628084779090E+03    0.17172E-01   -0.69757E-02 11625   0.795E-01    0.155E+00
RMM:   6    -0.628076759163E+03    0.80199E-02   -0.30115E-02 11702   0.490E-01    0.125E+00
RMM:   7    -0.628070585480E+03    0.61737E-02   -0.13318E-02 11437   0.324E-01    0.622E-01
RMM:   8    -0.628071124150E+03   -0.53867E-03   -0.90108E-03 11578   0.236E-01    0.669E-01
RMM:   9    -0.628068540745E+03    0.25834E-02   -0.53548E-03 11664   0.199E-01    0.297E-01
RMM:  10    -0.628068935355E+03   -0.39461E-03   -0.30585E-03 11445   0.145E-01    0.383E-01
RMM:  11    -0.628068261140E+03    0.67421E-03   -0.13654E-03 10602   0.112E-01    0.163E-01
RMM:  12    -0.628068172735E+03    0.88405E-04   -0.61554E-04  9878   0.648E-02    0.114E-01
RMM:  13    -0.628068154425E+03    0.18311E-04   -0.31608E-04  9369   0.440E-02    0.957E-02
RMM:  14    -0.628068133211E+03    0.21213E-04   -0.17908E-04  7880   0.334E-02    0.623E-02
RMM:  15    -0.628068136496E+03   -0.32842E-05   -0.10291E-04  7548   0.244E-02    0.513E-02
RMM:  16    -0.628068125392E+03    0.11104E-04   -0.50942E-05  6479   0.180E-02    0.160E-02
RMM:  17    -0.628068129141E+03   -0.37486E-05   -0.29234E-05  5893   0.143E-02
  22 F= -.62806813E+03 E0= -.62799888E+03  d E =-.204815E-01
       N       E                     dE             d eps       ncg     rms          rms(c)
DAV:   1    -0.628065594351E+03    0.25310E-02   -0.18129E-01 11760   0.249E+00    0.221E-01
RMM:   2    -0.628072963844E+03   -0.73695E-02   -0.34690E-02 11840   0.596E-01    0.933E-01
RMM:   3    -0.628069100606E+03    0.38632E-02   -0.64629E-03 10500   0.310E-01    0.414E-01
RMM:   4    -0.628068703450E+03    0.39716E-03   -0.24583E-03 10948   0.156E-01    0.257E-01
RMM:   5    -0.628068517815E+03    0.18564E-03   -0.81366E-04 10300   0.915E-02    0.165E-01
RMM:   6    -0.628068434205E+03    0.83610E-04   -0.33170E-04  9440   0.597E-02    0.132E-01
RMM:   7    -0.628068364195E+03    0.70010E-04   -0.15193E-04  8286   0.415E-02    0.641E-02
RMM:   8    -0.628068372091E+03   -0.78953E-05   -0.10311E-04  8151   0.297E-02    0.684E-02
RMM:   9    -0.628068348614E+03    0.23476E-04   -0.57049E-05  7088   0.267E-02    0.365E-02
RMM:  10    -0.628068348927E+03   -0.31274E-06   -0.27342E-05  5741   0.203E-02
  23 F= -.62806835E+03 E0= -.62799917E+03  d E =-.207013E-01
       N       E                     dE             d eps       ncg     rms          rms(c)
DAV:   1    -0.627890419073E+03    0.17793E+00   -0.10419E+01  9212   0.186E+01    0.110E+00
RMM:   2    -0.628124525419E+03   -0.23411E+00   -0.19282E+00 13123   0.407E+00    0.324E+00
RMM:   3    -0.628094247687E+03    0.30278E-01   -0.29308E-01 11444   0.173E+00    0.173E+00
RMM:   4    -0.628099055157E+03   -0.48075E-02   -0.74202E-02 11773   0.832E-01    0.176E+00
RMM:   5    -0.628088646615E+03    0.10409E-01   -0.27399E-02 11611   0.480E-01    0.779E-01
RMM:   6    -0.628085408271E+03    0.32383E-02   -0.10106E-02 11708   0.270E-01    0.434E-01
RMM:   7    -0.628085370261E+03    0.38010E-04   -0.50642E-03 11463   0.174E-01    0.396E-01
RMM:   8    -0.628085015228E+03    0.35503E-03   -0.32374E-03 11693   0.149E-01    0.340E-01
RMM:   9    -0.628084560851E+03    0.45438E-03   -0.17398E-03 11191   0.114E-01    0.219E-01
RMM:  10    -0.628084642671E+03   -0.81820E-04   -0.11495E-03 10714   0.934E-02    0.228E-01
RMM:  11    -0.628084428222E+03    0.21445E-03   -0.53852E-04  9952   0.635E-02    0.119E-01
RMM:  12    -0.628084391082E+03    0.37141E-04   -0.26293E-04  8897   0.435E-02    0.857E-02
RMM:  13    -0.628084378415E+03    0.12666E-04   -0.13740E-04  7413   0.286E-02    0.561E-02
RMM:  14    -0.628084365196E+03    0.13220E-04   -0.63549E-05  6644   0.209E-02    0.212E-02
RMM:  15    -0.628084367755E+03   -0.25593E-05   -0.37495E-05  6060   0.152E-02
  24 F= -.62808437E+03 E0= -.62801501E+03  d E =-.160188E-01
       N       E                     dE             d eps       ncg     rms          rms(c)
DAV:   1    -0.627994529118E+03    0.89836E-01   -0.48437E+00  9016   0.127E+01    0.757E-01
RMM:   2    -0.628105875139E+03   -0.11135E+00   -0.93632E-01 13229   0.282E+00    0.211E+00
RMM:   3    -0.628092700568E+03    0.13175E-01   -0.13597E-01 11397   0.121E+00    0.109E+00
RMM:   4    -0.628095278238E+03   -0.25777E-02   -0.35507E-02 11782   0.560E-01    0.116E+00
RMM:   5    -0.628091187019E+03    0.40912E-02   -0.12193E-02 11415   0.327E-01    0.584E-01
RMM:   6    -0.628089590639E+03    0.15964E-02   -0.49235E-03 11469   0.186E-01    0.318E-01
RMM:   7    -0.628089463553E+03    0.12709E-03   -0.23576E-03 11067   0.122E-01    0.257E-01
RMM:   8    -0.628089414029E+03    0.49524E-04   -0.15628E-03 11505   0.104E-01    0.258E-01
RMM:   9    -0.628089150143E+03    0.26389E-03   -0.86910E-04 10671   0.861E-02    0.161E-01
RMM:  10    -0.628089190321E+03   -0.40178E-04   -0.58631E-04 10098   0.673E-02    0.169E-01
RMM:  11    -0.628089087746E+03    0.10257E-03   -0.28580E-04  9586   0.478E-02    0.945E-02
RMM:  12    -0.628089058492E+03    0.29254E-04   -0.13110E-04  7649   0.338E-02    0.589E-02
RMM:  13    -0.628089049493E+03    0.89995E-05   -0.69146E-05  6594   0.224E-02
  25 F= -.62808905E+03 E0= -.62801958E+03  d E =-.207006E-01
       N       E                     dE             d eps       ncg     rms          rms(c)
DAV:   1    -0.628076677153E+03    0.12381E-01   -0.58504E-01  9632   0.449E+00    0.267E-01
RMM:   2    -0.628091000601E+03   -0.14323E-01   -0.12280E-01 13265   0.103E+00    0.708E-01
RMM:   3    -0.628089765405E+03    0.12352E-02   -0.19255E-02 11275   0.436E-01    0.354E-01
RMM:   4    -0.628090042567E+03   -0.27716E-03   -0.47672E-03 11520   0.198E-01    0.356E-01
RMM:   5    -0.628089741227E+03    0.30134E-03   -0.14852E-03 10495   0.118E-01    0.230E-01
RMM:   6    -0.628089528666E+03    0.21256E-03   -0.61841E-04 10316   0.708E-02    0.118E-01
RMM:   7    -0.628089506412E+03    0.22254E-04   -0.29751E-04  9047   0.480E-02    0.891E-02
RMM:   8    -0.628089521995E+03   -0.15583E-04   -0.21335E-04  9597   0.403E-02    0.107E-01
RMM:   9    -0.628089471688E+03    0.50307E-04   -0.11414E-04  7917   0.368E-02    0.567E-02
RMM:  10    -0.628089481357E+03   -0.96692E-05   -0.79900E-05  7406   0.260E-02
  26 F= -.62808948E+03 E0= -.62802004E+03  d E =-.211324E-01
       N       E                     dE             d eps       ncg     rms          rms(c)
DAV:   1    -0.628029568608E+03    0.59903E-01   -0.26440E+00  8624   0.998E+00    0.527E-01
RMM:   2    -0.628092691631E+03   -0.63123E-01   -0.61918E-01 13446   0.234E+00    0.939E-01
RMM:   3    -0.628100046894E+03   -0.73553E-02   -0.10982E-01 11729   0.922E-01    0.808E-01
RMM:   4    -0.628100189386E+03   -0.14249E-03   -0.19286E-02 11729   0.407E-01    0.656E-01
RMM:   5    -0.628099345869E+03    0.84352E-03   -0.64304E-03 11158   0.241E-01    0.508E-01
RMM:   6    -0.628098270709E+03    0.10752E-02   -0.25744E-03 11154   0.138E-01    0.191E-01
RMM:   7    -0.628098450388E+03   -0.17968E-03   -0.14120E-03 10771   0.971E-02    0.263E-01
RMM:   8    -0.628098197524E+03    0.25286E-03   -0.93399E-04 10812   0.940E-02    0.182E-01
RMM:   9    -0.628098125811E+03    0.71714E-04   -0.54904E-04 10196   0.698E-02    0.154E-01
RMM:  10    -0.628098103739E+03    0.22071E-04   -0.34265E-04  9785   0.549E-02    0.124E-01
RMM:  11    -0.628098024607E+03    0.79133E-04   -0.14371E-04  8562   0.367E-02    0.415E-02
RMM:  12    -0.628098019410E+03    0.51962E-05   -0.64612E-05  6961   0.223E-02
  27 F= -.62809802E+03 E0= -.62802838E+03  d E =-.853805E-02
       N       E                     dE             d eps       ncg     rms          rms(c)
DAV:   1    -0.628046091577E+03    0.51933E-01   -0.21361E+00  8624   0.897E+00    0.477E-01
RMM:   2    -0.628097605545E+03   -0.51514E-01   -0.49964E-01 13440   0.210E+00    0.905E-01
RMM:   3    -0.628103022652E+03   -0.54171E-02   -0.89823E-02 11679   0.838E-01    0.734E-01
RMM:   4    -0.628103144134E+03   -0.12148E-03   -0.16335E-02 11751   0.368E-01    0.581E-01
RMM:   5    -0.628102476139E+03    0.66800E-03   -0.50861E-03 11071   0.220E-01    0.460E-01
RMM:   6    -0.628101617468E+03    0.85867E-03   -0.21357E-03 11022   0.126E-01    0.185E-01
RMM:   7    -0.628101771492E+03   -0.15402E-03   -0.11902E-03 10542   0.894E-02    0.253E-01
RMM:   8    -0.628101632653E+03    0.13884E-03   -0.81228E-04 10701   0.857E-02    0.204E-01
RMM:   9    -0.628101464099E+03    0.16855E-03   -0.46173E-04  9825   0.692E-02    0.115E-01
RMM:  10    -0.628101458675E+03    0.54244E-05   -0.29838E-04  9804   0.485E-02    0.986E-02
RMM:  11    -0.628101410715E+03    0.47960E-04   -0.12222E-04  8244   0.338E-02    0.454E-02
RMM:  12    -0.628101405989E+03    0.47267E-05   -0.55218E-05  6433   0.220E-02
  28 F= -.62810141E+03 E0= -.62803168E+03  d E =-.119246E-01
       N       E                     dE             d eps       ncg     rms          rms(c)
DAV:   1    -0.628056443673E+03    0.44967E-01   -0.34713E+00 10836   0.108E+01    0.118E+00
RMM:   2    -0.628221124159E+03   -0.16468E+00   -0.73181E-01 11605   0.311E+00    0.428E+00
RMM:   3    -0.628122791754E+03    0.98332E-01   -0.17674E-01 10611   0.164E+00    0.189E+00
RMM:   4    -0.628118956559E+03    0.38352E-02   -0.69062E-02 12447   0.749E-01    0.143E+00
RMM:   5    -0.628112857883E+03    0.60987E-02   -0.19360E-02 11482   0.436E-01    0.840E-01
RMM:   6    -0.628110469915E+03    0.23880E-02   -0.91273E-03 11693   0.266E-01    0.655E-01
RMM:   7    -0.628108788165E+03    0.16818E-02   -0.35140E-03 10836   0.187E-01    0.352E-01
RMM:   8    -0.628108840717E+03   -0.52552E-04   -0.25515E-03 11326   0.132E-01    0.352E-01
RMM:   9    -0.628108319987E+03    0.52073E-03   -0.15750E-03 11166   0.115E-01    0.224E-01
RMM:  10    -0.628108254537E+03    0.65451E-04   -0.83610E-04 10502   0.824E-02    0.195E-01
RMM:  11    -0.628108087247E+03    0.16729E-03   -0.40921E-04 10024   0.616E-02    0.824E-02
RMM:  12    -0.628108091311E+03   -0.40636E-05   -0.18709E-04  8901   0.390E-02    0.838E-02
RMM:  13    -0.628108072518E+03    0.18792E-04   -0.99355E-05  7084   0.312E-02    0.586E-02
RMM:  14    -0.628108057323E+03    0.15196E-04   -0.51660E-05  6433   0.219E-02    0.228E-02
RMM:  15    -0.628108061397E+03   -0.40741E-05   -0.32114E-05  6199   0.147E-02
  29 F= -.62810806E+03 E0= -.62803852E+03  d E =-.665541E-02
       N       E                     dE             d eps       ncg     rms          rms(c)
DAV:   1    -0.628105238116E+03    0.28192E-02   -0.19341E-01 11760   0.256E+00    0.282E-01
RMM:   2    -0.628114703770E+03   -0.94657E-02   -0.42496E-02 11652   0.757E-01    0.103E+00
RMM:   3    -0.628109272606E+03    0.54312E-02   -0.10435E-02 10248   0.394E-01    0.462E-01
RMM:   4    -0.628108996634E+03    0.27597E-03   -0.39634E-03 11798   0.187E-01    0.343E-01
RMM:   5    -0.628108640840E+03    0.35579E-03   -0.11564E-03 10606   0.113E-01    0.197E-01
RMM:   6    -0.628108519438E+03    0.12140E-03   -0.53616E-04 10190   0.701E-02    0.158E-01
RMM:   7    -0.628108422445E+03    0.96994E-04   -0.20649E-04  8743   0.514E-02    0.826E-02
RMM:   8    -0.628108428047E+03   -0.56025E-05   -0.15004E-04  8882   0.356E-02    0.834E-02
RMM:   9    -0.628108400273E+03    0.27774E-04   -0.87504E-05  7795   0.313E-02    0.540E-02
RMM:  10    -0.628108396104E+03    0.41691E-05   -0.43957E-05  6287   0.228E-02
  30 F= -.62810840E+03 E0= -.62803892E+03  d E =-.699012E-02
       N       E                     dE             d eps       ncg     rms          rms(c)
DAV:   1    -0.628061873851E+03    0.46526E-01   -0.30206E+00  9072   0.926E+00    0.479E-01
RMM:   2    -0.628115385699E+03   -0.53512E-01   -0.49100E-01 13400   0.209E+00    0.116E+00
RMM:   3    -0.628115464390E+03   -0.78692E-04   -0.74376E-02 11803   0.842E-01    0.685E-01
RMM:   4    -0.628116089332E+03   -0.62494E-03   -0.16451E-02 11981   0.371E-01    0.617E-01
RMM:   5    -0.628114950540E+03    0.11388E-02   -0.49007E-03 10977   0.242E-01    0.406E-01
RMM:   6    -0.628114345771E+03    0.60477E-03   -0.24390E-03 11315   0.136E-01    0.233E-01
RMM:   7    -0.628114370847E+03   -0.25076E-04   -0.12820E-03 10658   0.907E-02    0.234E-01
RMM:   8    -0.628114339068E+03    0.31778E-04   -0.88618E-04 11075   0.831E-02    0.215E-01
RMM:   9    -0.628114131150E+03    0.20792E-03   -0.48670E-04  9938   0.731E-02    0.111E-01
RMM:  10    -0.628114114329E+03    0.16821E-04   -0.30013E-04  9959   0.493E-02    0.903E-02
RMM:  11    -0.628114075515E+03    0.38814E-04   -0.13031E-04  8347   0.339E-02    0.350E-02
RMM:  12    -0.628114072494E+03    0.30210E-05   -0.60793E-05  6585   0.207E-02
  31 F= -.62811407E+03 E0= -.62804451E+03  d E =-.567639E-02
       N       E                     dE             d eps       ncg     rms          rms(c)
DAV:   1    -0.628086274891E+03    0.27801E-01   -0.17355E+00  9016   0.702E+00    0.365E-01
RMM:   2    -0.628117028837E+03   -0.30754E-01   -0.28241E-01 13394   0.158E+00    0.878E-01
RMM:   3    -0.628117125247E+03   -0.96410E-04   -0.42832E-02 11736   0.641E-01    0.533E-01
RMM:   4    -0.628117474972E+03   -0.34973E-03   -0.96292E-03 11892   0.285E-01    0.474E-01
RMM:   5    -0.628116813540E+03    0.66143E-03   -0.29110E-03 10861   0.186E-01    0.313E-01
RMM:   6    -0.628116462058E+03    0.35148E-03   -0.14559E-03 11011   0.106E-01    0.180E-01
RMM:   7    -0.628116462600E+03   -0.54156E-06   -0.75467E-04 10352   0.709E-02    0.170E-01
RMM:   8    -0.628116459213E+03    0.33868E-05   -0.52127E-04 10664   0.641E-02    0.164E-01
RMM:   9    -0.628116336369E+03    0.12284E-03   -0.28602E-04  9597   0.567E-02    0.826E-02
RMM:  10    -0.628116335975E+03    0.39417E-06   -0.17960E-04  8930   0.380E-02    0.749E-02
RMM:  11    -0.628116310998E+03    0.24977E-04   -0.79917E-05  7310   0.274E-02    0.335E-02
RMM:  12    -0.628116313074E+03   -0.20752E-05   -0.41438E-05  6074   0.192E-02
  32 F= -.62811631E+03 E0= -.62804671E+03  d E =-.791697E-02
       N       E                     dE             d eps       ncg     rms          rms(c)
DAV:   1    -0.627987969812E+03    0.12834E+00   -0.68679E+00  8876   0.140E+01    0.737E-01
RMM:   2    -0.628116483085E+03   -0.12851E+00   -0.11802E+00 13462   0.328E+00    0.176E+00
RMM:   3    -0.628118540687E+03   -0.20576E-02   -0.18871E-01 11822   0.130E+00    0.107E+00
RMM:   4    -0.628120258735E+03   -0.17180E-02   -0.39914E-02 12078   0.570E-01    0.981E-01
RMM:   5    -0.628117429757E+03    0.28290E-02   -0.12030E-02 11091   0.368E-01    0.625E-01
RMM:   6    -0.628116003852E+03    0.14259E-02   -0.57770E-03 11646   0.202E-01    0.363E-01
RMM:   7    -0.628116014392E+03   -0.10540E-04   -0.30193E-03 11324   0.135E-01    0.344E-01
RMM:   8    -0.628115936030E+03    0.78361E-04   -0.20149E-03 11368   0.117E-01    0.314E-01
RMM:   9    -0.628115501289E+03    0.43474E-03   -0.11132E-03 10637   0.104E-01    0.170E-01
RMM:  10    -0.628115484485E+03    0.16804E-04   -0.71694E-04 10518   0.743E-02    0.149E-01
RMM:  11    -0.628115379057E+03    0.10543E-03   -0.31711E-04  9882   0.491E-02    0.556E-02
RMM:  12    -0.628115376635E+03    0.24222E-05   -0.15485E-04  8184   0.307E-02    0.507E-02
RMM:  13    -0.628115373855E+03    0.27799E-05   -0.83215E-05  6474   0.232E-02
  33 F= -.62811537E+03 E0= -.62804571E+03  d E =-.697775E-02
       N       E                     dE             d eps       ncg     rms          rms(c)
DAV:   1    -0.628063170864E+03    0.52206E-01   -0.30638E+00  8988   0.935E+00    0.483E-01
RMM:   2    -0.628118018718E+03   -0.54848E-01   -0.50411E-01 13431   0.212E+00    0.114E+00
RMM:   3    -0.628118447910E+03   -0.42919E-03   -0.74492E-02 11787   0.844E-01    0.726E-01
RMM:   4    -0.628118811782E+03   -0.36387E-03   -0.16929E-02 11954   0.376E-01    0.604E-01
RMM:   5    -0.628117723785E+03    0.10880E-02   -0.48682E-03 10910   0.245E-01    0.416E-01
RMM:   6    -0.628117090092E+03    0.63369E-03   -0.23855E-03 11241   0.138E-01    0.236E-01
RMM:   7    -0.628117097911E+03   -0.78187E-05   -0.12218E-03 10696   0.914E-02    0.232E-01
RMM:   8    -0.628117083446E+03    0.14465E-04   -0.87024E-04 11003   0.838E-02    0.222E-01
RMM:   9    -0.628116853921E+03    0.22953E-03   -0.49357E-04 10207   0.736E-02    0.116E-01
RMM:  10    -0.628116840996E+03    0.12925E-04   -0.29451E-04  9938   0.508E-02    0.985E-02
RMM:  11    -0.628116799128E+03    0.41868E-04   -0.12495E-04  8353   0.352E-02    0.426E-02
RMM:  12    -0.628116800973E+03   -0.18452E-05   -0.56376E-05  6338   0.232E-02
  34 F= -.62811680E+03 E0= -.62804717E+03  d E =-.840487E-02
       N       E                     dE             d eps       ncg     rms          rms(c)
DAV:   1    -0.628058649840E+03    0.58149E-01   -0.38967E+00  9016   0.101E+01    0.514E-01
RMM:   2    -0.628120153459E+03   -0.61504E-01   -0.59829E-01 13384   0.229E+00    0.104E+00
RMM:   3    -0.628124306892E+03   -0.41534E-02   -0.84290E-02 11991   0.880E-01    0.843E-01
RMM:   4    -0.628123979952E+03    0.32694E-03   -0.17776E-02 11908   0.405E-01    0.638E-01
RMM:   5    -0.628122703282E+03    0.12767E-02   -0.58417E-03 11104   0.258E-01    0.426E-01
RMM:   6    -0.628122065863E+03    0.63742E-03   -0.27127E-03 11370   0.144E-01    0.276E-01
RMM:   7    -0.628122125407E+03   -0.59544E-04   -0.15254E-03 10838   0.106E-01    0.280E-01
RMM:   8    -0.628121997143E+03    0.12826E-03   -0.11154E-03 10972   0.927E-02    0.230E-01
RMM:   9    -0.628121763984E+03    0.23316E-03   -0.59844E-04 10355   0.787E-02    0.128E-01
RMM:  10    -0.628121728973E+03    0.35011E-04   -0.33206E-04  9958   0.545E-02    0.104E-01
RMM:  11    -0.628121678152E+03    0.50821E-04   -0.15063E-04  8489   0.390E-02    0.450E-02
RMM:  12    -0.628121677136E+03    0.10153E-05   -0.81019E-05  7327   0.231E-02
  35 F= -.62812168E+03 E0= -.62805210E+03  d E =-.487616E-02
       N       E                     dE             d eps       ncg     rms          rms(c)
DAV:   1    -0.628095688237E+03    0.25990E-01   -0.16637E+00  9016   0.661E+00    0.337E-01
RMM:   2    -0.628122164906E+03   -0.26477E-01   -0.25643E-01 13384   0.150E+00    0.693E-01
RMM:   3    -0.628123817768E+03   -0.16529E-02   -0.36148E-02 11968   0.577E-01    0.553E-01
RMM:   4    -0.628123663451E+03    0.15432E-03   -0.79252E-03 11778   0.269E-01    0.407E-01
RMM:   5    -0.628123143647E+03    0.51980E-03   -0.26124E-03 10961   0.170E-01    0.273E-01
RMM:   6    -0.628122883716E+03    0.25993E-03   -0.11867E-03 10954   0.962E-02    0.176E-01
RMM:   7    -0.628122935683E+03   -0.51967E-04   -0.70316E-04 10379   0.737E-02    0.190E-01
RMM:   8    -0.628122878898E+03    0.56785E-04   -0.51186E-04 10405   0.640E-02    0.155E-01
RMM:   9    -0.628122786247E+03    0.92650E-04   -0.26887E-04  9653   0.538E-02    0.944E-02
RMM:  10    -0.628122769601E+03    0.16647E-04   -0.16541E-04  8669   0.386E-02    0.745E-02
RMM:  11    -0.628122744125E+03    0.25476E-04   -0.70588E-05  7011   0.268E-02    0.324E-02
RMM:  12    -0.628122745827E+03   -0.17020E-05   -0.39570E-05  6131   0.195E-02
  36 F= -.62812275E+03 E0= -.62805323E+03  d E =-.594485E-02
       N       E                     dE             d eps       ncg     rms          rms(c)
DAV:   1    -0.628073690322E+03    0.49054E-01   -0.36762E+00 10024   0.109E+01    0.954E-01
RMM:   2    -0.628188557575E+03   -0.11487E+00   -0.67317E-01 12221   0.268E+00    0.318E+00
RMM:   3    -0.628136109324E+03    0.52448E-01   -0.11409E-01 10777   0.134E+00    0.158E+00
RMM:   4    -0.628132999626E+03    0.31097E-02   -0.41173E-02 12056   0.619E-01    0.120E+00
RMM:   5    -0.628128529353E+03    0.44703E-02   -0.14181E-02 11428   0.377E-01    0.665E-01
RMM:   6    -0.628126433754E+03    0.20956E-02   -0.59577E-03 11500   0.212E-01    0.435E-01
RMM:   7    -0.628125962259E+03    0.47150E-03   -0.27219E-03 11202   0.154E-01    0.340E-01
RMM:   8    -0.628125931068E+03    0.31191E-04   -0.19494E-03 11168   0.120E-01    0.320E-01
RMM:   9    -0.628125490248E+03    0.44082E-03   -0.12369E-03 11074   0.105E-01    0.184E-01
RMM:  10    -0.628125457941E+03    0.32307E-04   -0.64617E-04 10391   0.760E-02    0.166E-01
RMM:  11    -0.628125318026E+03    0.13991E-03   -0.29835E-04  9777   0.527E-02    0.551E-02
RMM:  12    -0.628125317595E+03    0.43085E-06   -0.12445E-04  8147   0.295E-02    0.467E-02
RMM:  13    -0.628125309738E+03    0.78571E-05   -0.62522E-05  6541   0.215E-02
  37 F= -.62812531E+03 E0= -.62805606E+03  d E =-.256391E-02
       N       E                     dE             d eps       ncg     rms          rms(c)
DAV:   1    -0.628124508089E+03    0.80951E-03   -0.65817E-02 11760   0.146E+00    0.131E-01
RMM:   2    -0.628126840009E+03   -0.23319E-02   -0.11815E-02 12191   0.357E-01    0.499E-01
RMM:   3    -0.628125565062E+03    0.12749E-02   -0.20582E-03 10149   0.184E-01    0.199E-01
RMM:   4    -0.628125532208E+03    0.32855E-04   -0.78240E-04 10476   0.941E-02    0.171E-01
RMM:   5    -0.628125451942E+03    0.80266E-04   -0.25830E-04  9340   0.600E-02    0.106E-01
RMM:   6    -0.628125405573E+03    0.46368E-04   -0.10882E-04  7638   0.410E-02    0.697E-02
RMM:   7    -0.628125383192E+03    0.22382E-04   -0.50274E-05  6481   0.284E-02    0.365E-02
RMM:   8    -0.628125383294E+03   -0.10277E-06   -0.32526E-05  5959   0.224E-02
  38 F= -.62812538E+03 E0= -.62805613E+03  d E =-.263747E-02
       N       E                     dE             d eps       ncg     rms          rms(c)
DAV:   1    -0.628067757598E+03    0.57626E-01   -0.32313E+00  9016   0.107E+01    0.527E-01
RMM:   2    -0.628131848722E+03   -0.64091E-01   -0.57730E-01 13379   0.225E+00    0.132E+00
RMM:   3    -0.628129595467E+03    0.22533E-02   -0.78714E-02 11774   0.913E-01    0.711E-01
RMM:   4    -0.628130564569E+03   -0.96910E-03   -0.19883E-02 12003   0.409E-01    0.660E-01
RMM:   5    -0.628128939653E+03    0.16249E-02   -0.52395E-03 10923   0.256E-01    0.395E-01
RMM:   6    -0.628128300022E+03    0.63963E-03   -0.25847E-03 11350   0.143E-01    0.225E-01
RMM:   7    -0.628128459123E+03   -0.15910E-03   -0.13765E-03 10813   0.978E-02    0.290E-01
RMM:   8    -0.628128352816E+03    0.10631E-03   -0.10716E-03 11057   0.928E-02    0.252E-01
RMM:   9    -0.628128067814E+03    0.28500E-03   -0.53688E-04 10059   0.756E-02    0.125E-01
RMM:  10    -0.628128058449E+03    0.93654E-05   -0.34334E-04  9841   0.521E-02    0.110E-01
RMM:  11    -0.628128001328E+03    0.57121E-04   -0.14336E-04  8649   0.370E-02    0.462E-02
RMM:  12    -0.628128002103E+03   -0.77456E-06   -0.66006E-05  6579   0.246E-02
  39 F= -.62812800E+03 E0= -.62805854E+03  d E =-.261881E-02
       N       E                     dE             d eps       ncg     rms          rms(c)
DAV:   1    -0.628124008728E+03    0.39926E-02   -0.21986E-01  9800   0.281E+00    0.141E-01
RMM:   2    -0.628128715310E+03   -0.47066E-02   -0.39707E-02 13381   0.592E-01    0.421E-01
RMM:   3    -0.628128221537E+03    0.49377E-03   -0.53790E-03 11423   0.244E-01    0.192E-01
RMM:   4    -0.628128297630E+03   -0.76093E-04   -0.14869E-03 11225   0.119E-01    0.177E-01
RMM:   5    -0.628128183110E+03    0.11452E-03   -0.42358E-04  9686   0.734E-02    0.102E-01
RMM:   6    -0.628128145060E+03    0.38050E-04   -0.20445E-04  9034   0.464E-02    0.650E-02
RMM:   7    -0.628128150882E+03   -0.58224E-05   -0.10031E-04  7152   0.312E-02    0.710E-02
RMM:   8    -0.628128146383E+03    0.44990E-05   -0.79463E-05  7556   0.297E-02
  40 F= -.62812815E+03 E0= -.62805864E+03  d E =-.276309E-02
       N       E                     dE             d eps       ncg     rms          rms(c)
DAV:   1    -0.628119621146E+03    0.85297E-02   -0.52306E-01 10556   0.426E+00    0.362E-01
RMM:   2    -0.628135880184E+03   -0.16259E-01   -0.11217E-01 12622   0.111E+00    0.106E+00
RMM:   3    -0.628130702654E+03    0.51775E-02   -0.21848E-02 10951   0.527E-01    0.549E-01
RMM:   4    -0.628130409154E+03    0.29350E-03   -0.63722E-03 11922   0.236E-01    0.440E-01
RMM:   5    -0.628129924327E+03    0.48483E-03   -0.21397E-03 10891   0.151E-01    0.295E-01
RMM:   6    -0.628129553891E+03    0.37044E-03   -0.94323E-04 10603   0.914E-02    0.180E-01
RMM:   7    -0.628129466585E+03    0.87306E-04   -0.42397E-04  9605   0.645E-02    0.128E-01
RMM:   8    -0.628129467755E+03   -0.11704E-05   -0.32554E-04 10214   0.500E-02    0.129E-01
RMM:   9    -0.628129387865E+03    0.79890E-04   -0.18482E-04  9360   0.462E-02    0.726E-02
RMM:  10    -0.628129385343E+03    0.25222E-05   -0.10448E-04  8035   0.326E-02    0.667E-02
RMM:  11    -0.628129363633E+03    0.21710E-04   -0.43930E-05  6491   0.241E-02    0.294E-02
RMM:  12    -0.628129361449E+03    0.21837E-05   -0.18528E-05  5612   0.179E-02
  41 F= -.62812936E+03 E0= -.62805956E+03  d E =-.121507E-02
       N       E                     dE             d eps       ncg     rms          rms(c)
DAV:   1    -0.628128885585E+03    0.47805E-03   -0.33010E-02 11200   0.106E+00    0.926E-02
RMM:   2    -0.628129982658E+03   -0.10971E-02   -0.65516E-03 12432   0.268E-01    0.303E-01
RMM:   3    -0.628129491143E+03    0.49151E-03   -0.12094E-03 10230   0.134E-01    0.130E-01
RMM:   4    -0.628129480830E+03    0.10313E-04   -0.42621E-04 10336   0.669E-02    0.108E-01
RMM:   5    -0.628129449521E+03    0.31309E-04   -0.12473E-04  8109   0.430E-02    0.712E-02
RMM:   6    -0.628129430220E+03    0.19302E-04   -0.56643E-05  6428   0.260E-02    0.507E-02
RMM:   7    -0.628129421986E+03    0.82337E-05   -0.24583E-05  5659   0.229E-02
  42 F= -.62812942E+03 E0= -.62805957E+03  d E =-.127560E-02
       N       E                     dE             d eps       ncg     rms          rms(c)
DAV:   1    -0.628122414643E+03    0.70156E-02   -0.50100E-01 11312   0.424E+00    0.444E-01
RMM:   2    -0.628143963042E+03   -0.21548E-01   -0.11078E-01 11782   0.116E+00    0.145E+00
RMM:   3    -0.628132261949E+03    0.11701E-01   -0.25151E-02 10508   0.608E-01    0.653E-01
RMM:   4    -0.628131912269E+03    0.34968E-03   -0.91077E-03 12017   0.269E-01    0.537E-01
RMM:   5    -0.628131158386E+03    0.75388E-03   -0.26559E-03 10926   0.167E-01    0.345E-01
RMM:   6    -0.628130674060E+03    0.48433E-03   -0.12426E-03 10791   0.105E-01    0.217E-01
RMM:   7    -0.628130492019E+03    0.18204E-03   -0.49568E-04  9474   0.739E-02    0.130E-01
RMM:   8    -0.628130515102E+03   -0.23082E-04   -0.37752E-04 10282   0.527E-02    0.145E-01
RMM:   9    -0.628130433493E+03    0.81608E-04   -0.22944E-04  9483   0.507E-02    0.975E-02
RMM:  10    -0.628130408862E+03    0.24632E-04   -0.11369E-04  8236   0.342E-02    0.662E-02
RMM:  11    -0.628130393572E+03    0.15290E-04   -0.53565E-05  7017   0.250E-02    0.343E-02
RMM:  12    -0.628130393720E+03   -0.14799E-06   -0.22294E-05  5732   0.188E-02
  43 F= -.62813039E+03 E0= -.62806049E+03  d E =-.971734E-03
       N       E                     dE             d eps       ncg     rms          rms(c)
DAV:   1    -0.628130060157E+03    0.33341E-03   -0.22715E-02 11788   0.903E-01    0.981E-02
RMM:   2    -0.628131180380E+03   -0.11202E-02   -0.51250E-03 11771   0.249E-01    0.341E-01
RMM:   3    -0.628130510137E+03    0.67024E-03   -0.11357E-03  9507   0.134E-01    0.140E-01
RMM:   4    -0.628130488953E+03    0.21184E-04   -0.43123E-04 10309   0.659E-02    0.113E-01
RMM:   5    -0.628130458165E+03    0.30788E-04   -0.12117E-04  7970   0.416E-02    0.754E-02
RMM:   6    -0.628130437705E+03    0.20459E-04   -0.53327E-05  6251   0.264E-02    0.503E-02
RMM:   7    -0.628130428827E+03    0.88782E-05   -0.24257E-05  5605   0.242E-02
  44 F= -.62813043E+03 E0= -.62806051E+03  d E =-.100684E-02
       N       E                     dE             d eps       ncg     rms          rms(c)
DAV:   1    -0.628125591048E+03    0.48467E-02   -0.23206E-01  9212   0.287E+00    0.131E-01
RMM:   2    -0.628130441214E+03   -0.48502E-02   -0.47893E-02 13328   0.659E-01    0.270E-01
RMM:   3    -0.628131173120E+03   -0.73191E-03   -0.89909E-03 11903   0.236E-01    0.219E-01
RMM:   4    -0.628131224486E+03   -0.51367E-04   -0.12069E-03 11024   0.106E-01    0.191E-01
RMM:   5    -0.628131067881E+03    0.15660E-03   -0.39148E-04  9765   0.660E-02    0.990E-02
RMM:   6    -0.628131030618E+03    0.37264E-04   -0.16967E-04  8503   0.423E-02    0.610E-02
RMM:   7    -0.628131054768E+03   -0.24150E-04   -0.11610E-04  7965   0.355E-02    0.932E-02
RMM:   8    -0.628131024225E+03    0.30543E-04   -0.95829E-05  7884   0.313E-02    0.586E-02
RMM:   9    -0.628131009038E+03    0.15187E-04   -0.42337E-05  6542   0.229E-02    0.350E-02
RMM:  10    -0.628131005530E+03    0.35076E-05   -0.20029E-05  5595   0.194E-02
  45 F= -.62813101E+03 E0= -.62806105E+03  d E =-.576703E-03
       N       E                     dE             d eps       ncg     rms          rms(c)
DAV:   1    -0.628125733485E+03    0.52756E-02   -0.23200E-01  9184   0.287E+00    0.133E-01
RMM:   2    -0.628130646375E+03   -0.49129E-02   -0.47714E-02 13309   0.656E-01    0.310E-01
RMM:   3    -0.628131225019E+03   -0.57864E-03   -0.88713E-03 11883   0.238E-01    0.193E-01
RMM:   4    -0.628131349649E+03   -0.12463E-03   -0.13455E-03 11132   0.108E-01    0.204E-01
RMM:   5    -0.628131162892E+03    0.18676E-03   -0.36619E-04  9459   0.656E-02    0.930E-02
RMM:   6    -0.628131151504E+03    0.11388E-04   -0.19077E-04  8610   0.436E-02    0.771E-02
RMM:   7    -0.628131145815E+03    0.56887E-05   -0.11182E-04  7993   0.343E-02    0.680E-02
RMM:   8    -0.628131129250E+03    0.16565E-04   -0.80918E-05  7717   0.276E-02    0.499E-02
RMM:   9    -0.628131120569E+03    0.86812E-05   -0.40374E-05  6385   0.224E-02
  46 F= -.62813112E+03 E0= -.62806114E+03  d E =-.691742E-03
       N       E                     dE             d eps       ncg     rms          rms(c)
DAV:   1    -0.628130811829E+03    0.31742E-03   -0.14230E-02 10360   0.710E-01    0.383E-02
RMM:   2    -0.628131184736E+03   -0.37291E-03   -0.29290E-03 13115   0.160E-01    0.134E-01
RMM:   3    -0.628131132881E+03    0.51855E-04   -0.51823E-04  9614   0.702E-02    0.391E-02
RMM:   4    -0.628131143229E+03   -0.10347E-04   -0.99591E-05  7234   0.365E-02    0.456E-02
RMM:   5    -0.628131135581E+03    0.76472E-05   -0.26136E-05  5737   0.233E-02
  47 F= -.62813114E+03 E0= -.62806114E+03  d E =-.706754E-03
       N       E                     dE             d eps       ncg     rms          rms(c)
DAV:   1    -0.628128668959E+03    0.24743E-02   -0.90207E-02  9408   0.197E+00    0.109E-01
RMM:   2    -0.628131626298E+03   -0.29573E-02   -0.24835E-02 13344   0.434E-01    0.338E-01
RMM:   3    -0.628131524971E+03    0.10133E-03   -0.45806E-03 10880   0.183E-01    0.190E-01
RMM:   4    -0.628131512898E+03    0.12073E-04   -0.77135E-04 10330   0.884E-02    0.144E-01
RMM:   5    -0.628131439798E+03    0.73101E-04   -0.21230E-04  8441   0.517E-02    0.859E-02
RMM:   6    -0.628131409653E+03    0.30144E-04   -0.86264E-05  6968   0.334E-02    0.515E-02
RMM:   7    -0.628131400854E+03    0.87990E-05   -0.38559E-05  6036   0.241E-02
  48 F= -.62813140E+03 E0= -.62806138E+03  d E =-.265273E-03
       N       E                     dE             d eps       ncg     rms          rms(c)
DAV:   1    -0.628128825499E+03    0.25842E-02   -0.90876E-02  8736   0.197E+00    0.106E-01
RMM:   2    -0.628131829913E+03   -0.30044E-02   -0.24958E-02 13302   0.441E-01    0.335E-01
RMM:   3    -0.628131669315E+03    0.16060E-03   -0.47404E-03 10973   0.186E-01    0.165E-01
RMM:   4    -0.628131662840E+03    0.64749E-05   -0.75656E-04 10421   0.842E-02    0.120E-01
RMM:   5    -0.628131608490E+03    0.54350E-04   -0.21977E-04  8790   0.477E-02    0.732E-02
RMM:   6    -0.628131594429E+03    0.14061E-04   -0.80752E-05  6765   0.303E-02    0.511E-02
RMM:   7    -0.628131590388E+03    0.40415E-05   -0.43721E-05  6195   0.250E-02
  49 F= -.62813159E+03 E0= -.62806153E+03  d E =-.454806E-03
       N       E                     dE             d eps       ncg     rms          rms(c)
DAV:   1    -0.628120667904E+03    0.10927E-01   -0.36278E-01  8624   0.393E+00    0.201E-01
RMM:   2    -0.628131609365E+03   -0.10941E-01   -0.98852E-02 13358   0.877E-01    0.539E-01
RMM:   3    -0.628132061703E+03   -0.45234E-03   -0.18676E-02 11494   0.352E-01    0.316E-01
RMM:   4    -0.628132044376E+03    0.17327E-04   -0.26950E-03 11201   0.152E-01    0.230E-01
RMM:   5    -0.628131797761E+03    0.24662E-03   -0.78123E-04 10138   0.907E-02    0.117E-01
RMM:   6    -0.628131765263E+03    0.32498E-04   -0.32422E-04  9431   0.505E-02    0.850E-02
RMM:   7    -0.628131765077E+03    0.18509E-06   -0.15473E-04  8313   0.357E-02    0.852E-02
RMM:   8    -0.628131773647E+03   -0.85696E-05   -0.12524E-04  8120   0.352E-02    0.974E-02
RMM:   9    -0.628131736016E+03    0.37631E-04   -0.93184E-05  7895   0.301E-02    0.534E-02
RMM:  10    -0.628131735877E+03    0.13867E-06   -0.50238E-05  6716   0.232E-02
  50 F= -.62813174E+03 E0= -.62806162E+03  d E =-.600296E-03
       N       E                     dE             d eps       ncg     rms          rms(c)
DAV:   1    -0.628130842734E+03    0.89328E-03   -0.66851E-02 10556   0.150E+00    0.639E-02
RMM:   2    -0.628131929937E+03   -0.10872E-02   -0.11285E-02 13301   0.306E-01    0.977E-02
RMM:   3    -0.628132108985E+03   -0.17905E-03   -0.17120E-03 11444   0.117E-01    0.109E-01
RMM:   4    -0.628132093632E+03    0.15353E-04   -0.30407E-04 10009   0.621E-02    0.758E-02
RMM:   5    -0.628132075728E+03    0.17904E-04   -0.84094E-05  7157   0.352E-02    0.530E-02
RMM:   6    -0.628132068416E+03    0.73128E-05   -0.43081E-05  6168   0.270E-02
  51 F= -.62813207E+03 E0= -.62806186E+03  d E =-.332538E-03
       N       E                     dE             d eps       ncg     rms          rms(c)
DAV:   1    -0.628131357341E+03    0.71839E-03   -0.44734E-02 10556   0.122E+00    0.606E-02
RMM:   2    -0.628132334275E+03   -0.97693E-03   -0.78732E-03 13316   0.259E-01    0.231E-01
RMM:   3    -0.628132197741E+03    0.13653E-03   -0.11960E-03 10790   0.109E-01    0.752E-02
RMM:   4    -0.628132236433E+03   -0.38692E-04   -0.29304E-04  9458   0.571E-02    0.100E-01
RMM:   5    -0.628132195984E+03    0.40449E-04   -0.79176E-05  6960   0.380E-02    0.474E-02
RMM:   6    -0.628132189036E+03    0.69485E-05   -0.48518E-05  6413   0.249E-02
  52 F= -.62813219E+03 E0= -.62806196E+03  d E =-.453158E-03
       N       E                     dE             d eps       ncg     rms          rms(c)
DAV:   1    -0.628132379128E+03   -0.18314E-03   -0.57058E-02 12600   0.135E+00    0.257E-01
RMM:   2    -0.628138531191E+03   -0.61521E-02   -0.13500E-02 10565   0.482E-01    0.983E-01
RMM:   3    -0.628133103081E+03    0.54281E-02   -0.47697E-03 10071   0.295E-01    0.380E-01
RMM:   4    -0.628132749800E+03    0.35328E-03   -0.18473E-03 10803   0.142E-01    0.283E-01
RMM:   5    -0.628132567274E+03    0.18253E-03   -0.81576E-04 10183   0.919E-02    0.205E-01
RMM:   6    -0.628132450718E+03    0.11656E-03   -0.36377E-04  9278   0.638E-02    0.167E-01
RMM:   7    -0.628132328407E+03    0.12231E-03   -0.16084E-04  8331   0.463E-02    0.707E-02
RMM:   8    -0.628132330988E+03   -0.25804E-05   -0.11040E-04  8407   0.313E-02    0.718E-02
RMM:   9    -0.628132311135E+03    0.19853E-04   -0.64861E-05  7387   0.276E-02    0.502E-02
RMM:  10    -0.628132301601E+03    0.95336E-05   -0.25115E-05  5620   0.211E-02
  53 F= -.62813230E+03 E0= -.62806208E+03  d E =-.112565E-03
       N       E                     dE             d eps       ncg     rms          rms(c)
DAV:   1    -0.628132296106E+03    0.15028E-04   -0.47214E-04 12964   0.124E-01    0.317E-02
RMM:   2    -0.628132404935E+03   -0.10883E-03   -0.18125E-04  8340   0.528E-02    0.128E-01
RMM:   3    -0.628132304374E+03    0.10056E-03   -0.62677E-05  6616   0.389E-02    0.452E-02
RMM:   4    -0.628132296043E+03    0.83304E-05   -0.18868E-05  5502   0.190E-02
  54 F= -.62813230E+03 E0= -.62806208E+03  d E =-.107008E-03
       N       E                     dE             d eps       ncg     rms          rms(c)
DAV:   1    -0.628132303848E+03    0.52604E-06   -0.29087E-04 12936   0.963E-02    0.297E-02
RMM:   2    -0.628132543612E+03   -0.23976E-03   -0.16494E-04  7592   0.516E-02    0.222E-01
RMM:   3    -0.628132313087E+03    0.23052E-03   -0.72686E-05  6820   0.409E-02    0.458E-02
RMM:   4    -0.628132300604E+03    0.12483E-04   -0.13347E-05  5310   0.165E-02    0.187E-02
RMM:   5    -0.628132300313E+03    0.29126E-06   -0.58059E-06  4481   0.123E-02
  55 F= -.62813230E+03 E0= -.62806207E+03  d E =-.111277E-03
       N       E                     dE             d eps       ncg     rms          rms(c)
DAV:   1    -0.628130889989E+03    0.14106E-02   -0.64400E-02  9240   0.159E+00    0.780E-02
RMM:   2    -0.628132400623E+03   -0.15106E-02   -0.14119E-02 13265   0.326E-01    0.175E-01
RMM:   3    -0.628132429383E+03   -0.28760E-04   -0.21761E-03 11010   0.135E-01    0.862E-02
RMM:   4    -0.628132447199E+03   -0.17816E-04   -0.36665E-04  9991   0.612E-02    0.840E-02
RMM:   5    -0.628132423656E+03    0.23543E-04   -0.90573E-05  7096   0.396E-02    0.573E-02
RMM:   6    -0.628132411416E+03    0.12241E-04   -0.43762E-05  6236   0.265E-02    0.295E-02
RMM:   7    -0.628132416515E+03   -0.50995E-05   -0.23593E-05  5710   0.204E-02
  56 F= -.62813242E+03 E0= -.62806219E+03  d E =-.116202E-03
       N       E                     dE             d eps       ncg     rms          rms(c)
DAV:   1    -0.628132378534E+03    0.32881E-04   -0.24903E-03 12740   0.303E-01    0.397E-02
RMM:   2    -0.628132798655E+03   -0.42012E-03   -0.66605E-04 10163   0.843E-02    0.271E-01
RMM:   3    -0.628132441802E+03    0.35685E-03   -0.19649E-04  7758   0.630E-02    0.679E-02
RMM:   4    -0.628132418201E+03    0.23601E-04   -0.51260E-05  7050   0.277E-02    0.213E-02
RMM:   5    -0.628132420206E+03   -0.20049E-05   -0.13507E-05  5417   0.170E-02
  57 F= -.62813242E+03 E0= -.62806220E+03  d E =-.119893E-03
       N       E                     dE             d eps       ncg     rms          rms(c)
DAV:   1    -0.628132914798E+03   -0.49660E-03   -0.31633E-02 12040   0.970E-01    0.229E-01
RMM:   2    -0.628137011372E+03   -0.40966E-02   -0.88389E-03 10403   0.407E-01    0.806E-01
RMM:   3    -0.628133194005E+03    0.38174E-02   -0.32424E-03  9874   0.252E-01    0.335E-01
RMM:   4    -0.628132985503E+03    0.20850E-03   -0.12924E-03 10520   0.118E-01    0.279E-01
RMM:   5    -0.628132751280E+03    0.23422E-03   -0.54914E-04  9605   0.804E-02    0.165E-01
RMM:   6    -0.628132658332E+03    0.92948E-04   -0.26420E-04  9378   0.517E-02    0.133E-01
RMM:   7    -0.628132579820E+03    0.78512E-04   -0.98345E-05  7553   0.381E-02    0.623E-02
RMM:   8    -0.628132580919E+03   -0.10989E-05   -0.79800E-05  7750   0.271E-02
  58 F= -.62813258E+03 E0= -.62806231E+03  d E =-.160713E-03
       N       E                     dE             d eps       ncg     rms          rms(c)
DAV:   1    -0.628132651187E+03   -0.71366E-04   -0.75712E-03 12208   0.476E-01    0.125E-01
RMM:   2    -0.628134113471E+03   -0.14623E-02   -0.24946E-03 10382   0.212E-01    0.491E-01
RMM:   3    -0.628132697883E+03    0.14156E-02   -0.96155E-04  9144   0.138E-01    0.168E-01
RMM:   4    -0.628132643218E+03    0.54665E-04   -0.34058E-04  9521   0.661E-02    0.144E-01
RMM:   5    -0.628132594876E+03    0.48342E-04   -0.14556E-04  8294   0.426E-02    0.989E-02
RMM:   6    -0.628132554569E+03    0.40307E-04   -0.71092E-05  7002   0.315E-02    0.615E-02
RMM:   7    -0.628132534390E+03    0.20179E-04   -0.27827E-05  5701   0.228E-02    0.299E-02
RMM:   8    -0.628132536282E+03   -0.18921E-05   -0.21948E-05  5600   0.189E-02
  59 F= -.62813254E+03 E0= -.62806226E+03  d E =-.116077E-03
       N       E                     dE             d eps       ncg     rms          rms(c)
DAV:   1    -0.628132568287E+03   -0.33896E-04   -0.20309E-03 11816   0.244E-01    0.671E-02
RMM:   2    -0.628133260186E+03   -0.69190E-03   -0.80487E-04  9434   0.123E-01    0.347E-01
RMM:   3    -0.628132597589E+03    0.66260E-03   -0.32347E-04  7913   0.826E-02    0.856E-02
RMM:   4    -0.628132564854E+03    0.32736E-04   -0.82641E-05  7625   0.378E-02    0.597E-02
RMM:   5    -0.628132553083E+03    0.11771E-04   -0.29172E-05  5744   0.232E-02    0.376E-02
RMM:   6    -0.628132555534E+03   -0.24506E-05   -0.18726E-05  5470   0.205E-02
  60 F= -.62813256E+03 E0= -.62806228E+03  d E =-.135328E-03
       N       E                     dE             d eps       ncg     rms          rms(c)
DAV:   1    -0.628132550699E+03    0.23846E-05   -0.29658E-04 12376   0.956E-02    0.254E-02
RMM:   2    -0.628132641971E+03   -0.91272E-04   -0.91748E-05  7234   0.419E-02    0.132E-01
RMM:   3    -0.628132555561E+03    0.86410E-04   -0.37709E-05  5978   0.320E-02    0.400E-02
RMM:   4    -0.628132550101E+03    0.54598E-05   -0.10789E-05  5116   0.157E-02
  61 F= -.62813255E+03 E0= -.62806226E+03  d E =-.129896E-03
       N       E                     dE             d eps       ncg     rms          rms(c)
DAV:   1    -0.628132552360E+03    0.32015E-05   -0.24557E-04 12208   0.835E-02    0.267E-02
RMM:   2    -0.628132609365E+03   -0.57006E-04   -0.99175E-05  7507   0.396E-02    0.941E-02
RMM:   3    -0.628132564635E+03    0.44731E-04   -0.37853E-05  6152   0.314E-02    0.558E-02
RMM:   4    -0.628132549935E+03    0.14700E-04   -0.10937E-05  4952   0.164E-02    0.213E-02
RMM:   5    -0.628132549448E+03    0.48689E-06   -0.53054E-06  4372   0.123E-02
  62 F= -.62813255E+03 E0= -.62806227E+03  d E =-.129242E-03
       N       E                     dE             d eps       ncg     rms          rms(c)
DAV:   1    -0.628132549556E+03    0.37836E-06   -0.22929E-05  6412   0.272E-02    0.160E-02
RMM:   2    -0.628132613963E+03   -0.64407E-04   -0.36590E-05  6124   0.265E-02    0.113E-01
RMM:   3    -0.628132551706E+03    0.62257E-04   -0.20524E-05  5565   0.240E-02    0.197E-02
RMM:   4    -0.628132549441E+03    0.22647E-05   -0.26770E-06  4360   0.699E-03
  63 F= -.62813255E+03 E0= -.62806227E+03  d E =-.129235E-03
       N       E                     dE             d eps       ncg     rms          rms(c)
DAV:   1    -0.628131845307E+03    0.70640E-03   -0.25119E-02  8904   0.103E+00    0.513E-02
RMM:   2    -0.628132595797E+03   -0.75049E-03   -0.68999E-03 13213   0.231E-01    0.134E-01
RMM:   3    -0.628132635599E+03   -0.39802E-04   -0.12077E-03 10562   0.920E-02    0.835E-02
RMM:   4    -0.628132644115E+03   -0.85158E-05   -0.16862E-04  8182   0.469E-02    0.767E-02
RMM:   5    -0.628132622193E+03    0.21922E-04   -0.50632E-05  6079   0.296E-02    0.421E-02
RMM:   6    -0.628132615069E+03    0.71242E-05   -0.22392E-05  5638   0.213E-02
  64 F= -.62813262E+03 E0= -.62806236E+03  d E =-.656272E-04
       N       E                     dE             d eps       ncg     rms          rms(c)
DAV:   1    -0.628132610732E+03    0.11460E-04   -0.77957E-04 13832   0.167E-01    0.232E-02
RMM:   2    -0.628132726493E+03   -0.11576E-03   -0.17764E-04  8043   0.465E-02    0.143E-01
RMM:   3    -0.628132623090E+03    0.10340E-03   -0.54766E-05  6256   0.384E-02    0.276E-02
RMM:   4    -0.628132620547E+03    0.25430E-05   -0.12590E-05  5355   0.146E-02
  65 F= -.62813262E+03 E0= -.62806237E+03  d E =-.711059E-04
