    2    2  100    1
  0.1388154E+02  0.3028000E-09  0.3028000E-09  0.3028000E-09  0.5000000E-15
  1.000000000000000E-004
  CAR 
 HECN                                    
     22      4     28
 
  0.0000000E+00  0.0000000E+00  0.0000000E+00  0.3703704E-01
      1        -31.990119   1.000000
      2        -31.990119   1.000000
      3        -31.990119   1.000000
      4        -31.399636   1.000000
      5        -31.399636   1.000000
      6        -31.399636   1.000000
      7         -0.788246   1.000000
      8          2.748165   1.000000
      9          2.748165   1.000000
     10          6.053737   0.000832
     11          6.053737   0.000832
     12          6.053737   0.000832
     13          8.019149   0.000000
     14          8.019149   0.000000
     15          9.283196   0.000000
     16          9.283196   0.000000
     17          9.283196   0.000000
     18         15.927551   0.000000
     19         15.927551   0.000000
     20         15.927551   0.000000
     21         22.375312   0.000000
     22         22.375312   0.000000
     23         26.714022   0.000000
     24         26.714022   0.000000
     25         26.714022   0.000000
     26         27.378989   0.000000
     27         32.980231   0.000000
     28         32.980231   0.000000
 
  0.3333333E+00  0.0000000E+00  0.0000000E+00  0.2222222E+00
      1        -31.966097   1.000000
      2        -31.836241   1.000000
      3        -31.836241   1.000000
      4        -31.674497   1.000000
      5        -31.540700   1.000000
      6        -31.540700   1.000000
      7          1.202321   1.000000
      8          3.452175   1.000000
      9          3.888641   1.000000
     10          6.092403   0.000112
     11          6.092403   0.000112
     12          6.509985   0.000000
     13          6.796236   0.000000
     14          7.372141   0.000000
     15          7.372141   0.000000
     16          8.406254   0.000000
     17          8.554399   0.000000
     18         10.948143   0.000000
     19         19.951301   0.000000
     20         19.951301   0.000000
     21         22.531002   0.000000
     22         23.606252   0.000000
     23         23.817788   0.000000
     24         26.072825   0.000000
     25         26.072825   0.000000
     26         26.804159   0.000000
     27         33.814014   0.000000
     28         33.814014   0.000000
 
  0.3333333E+00  0.3333333E+00  0.0000000E+00  0.4444444E+00
      1        -32.195625   1.000000
      2        -32.055743   1.000000
      3        -31.752171   1.000000
      4        -31.604224   1.000000
      5        -31.556529   1.000000
      6        -31.405063   1.000000
      7          2.237575   1.000000
      8          3.219010   1.000000
      9          4.894488   1.000000
     10          5.140017   1.000000
     11          5.419448   1.000000
     12          5.831455   0.499680
     13          7.274845   0.000000
     14          7.862822   0.000000
     15          8.228730   0.000000
     16          8.575400   0.000000
     17          9.567160   0.000000
     18         11.109312   0.000000
     19         15.630826   0.000000
     20         19.023986   0.000000
     21         22.114063   0.000000
     22         22.398116   0.000000
     23         23.171118   0.000000
     24         27.598671   0.000000
     25         28.272748   0.000000
     26         29.832369   0.000000
     27         31.872592   0.000000
     28         32.536335   0.000000
 
  0.3333333E+00  0.3333333E+00  0.3333333E+00  0.2962963E+00
      1        -32.080054   1.000000
      2        -31.992218   1.000000
      3        -31.992218   1.000000
      4        -31.596763   1.000000
      5        -31.596763   1.000000
      6        -31.507392   1.000000
      7          3.811599   1.000000
      8          4.089391   1.000000
      9          4.539586   1.000000
     10          4.539586   1.000000
     11          4.753504   1.000000
     12          4.753504   1.000000
     13          8.226041   0.000000
     14          8.226041   0.000000
     15          8.274689   0.000000
     16          8.274689   0.000000
     17         10.850199   0.000000
     18         14.557181   0.000000
     19         14.557181   0.000000
     20         16.699209   0.000000
     21         19.461430   0.000000
     22         19.461430   0.000000
     23         20.993340   0.000000
     24         24.418373   0.000000
     25         31.052995   0.000000
     26         31.052995   0.000000
     27         32.224843   0.000000
     28         35.478262   0.000000
