 running   28 mpi-ranks, on    1 nodes
 distrk:  each k-point on   28 cores,    1 groups
 distr:  one band on    1 cores,   28 groups
 vasp.6.4.3 19Mar24 (build Sep 18 2024 11:30:23) complex                        
  
 POSCAR found type information on POSCAR V 
 POSCAR found :  1 types and       2 ions
 Reading from existing POTCAR
 scaLAPACK will be used
 -----------------------------------------------------------------------------
|                                                                             |
|           W    W    AA    RRRRR   N    N  II  N    N   GGGG   !!!           |
|           W    W   A  A   R    R  NN   N  II  NN   N  G    G  !!!           |
|           W    W  A    A  R    R  N N  N  II  N N  N  G       !!!           |
|           W WW W  AAAAAA  RRRRR   N  N N  II  N  N N  G  GGG   !            |
|           WW  WW  A    A  R   R   N   NN  II  N   NN  G    G                |
|           W    W  A    A  R    R  N    N  II  N    N   GGGG   !!!           |
|                                                                             |
|     For optimal performance we recommend to set                             |
|       NCORE = 2 up to number-of-cores-per-socket                            |
|     NCORE specifies how many cores store one orbital (NPAR=cpu/NCORE).      |
|     This setting can greatly improve the performance of VASP for DFT.       |
|     The default, NCORE=1 might be grossly inefficient on modern             |
|     multi-core architectures or massively parallel machines. Do your        |
|     own testing! More info at https://www.vasp.at/wiki/index.php/NCORE      |
|     Unfortunately you need to use the default for GW and RPA                |
|     calculations (for HF NCORE is supported but not extensively tested      |
|     yet).                                                                   |
|                                                                             |
 -----------------------------------------------------------------------------

 Reading from existing POTCAR
 LDA part: xc-table for (Slater+PW92), standard interpolation
 POSCAR, INCAR and KPOINTS ok, starting setup
 FFT: planning ... GRIDC
 FFT: planning ... GRID_SOFT
 FFT: planning ... GRID
 WAVECAR not read
 entering main loop
       N       E                     dE             d eps       ncg     rms          rms(c)
DAV:   1     0.325671454858E+02    0.32567E+02   -0.13675E+04   224   0.734E+02
DAV:   2    -0.211046726356E+02   -0.53672E+02   -0.53285E+02   280   0.124E+02
DAV:   3    -0.212261553996E+02   -0.12148E+00   -0.12148E+00   308   0.786E+00
DAV:   4    -0.212261878481E+02   -0.32449E-04   -0.32448E-04   308   0.112E-01
DAV:   5    -0.212261878642E+02   -0.16073E-07   -0.16069E-07   336   0.222E-03    0.112E+01
RMM:   6    -0.181864529005E+02    0.30397E+01   -0.31691E+00   224   0.140E+01    0.166E+00
RMM:   7    -0.181602303151E+02    0.26223E-01   -0.12868E-01   224   0.250E+00    0.988E-01
RMM:   8    -0.181486115129E+02    0.11619E-01   -0.16437E-02   224   0.777E-01    0.328E-01
RMM:   9    -0.181466888997E+02    0.19226E-02   -0.41026E-03   225   0.459E-01    0.314E-02
RMM:  10    -0.181467189599E+02   -0.30060E-04   -0.46967E-04   215   0.105E-01    0.169E-02
RMM:  11    -0.181467279153E+02   -0.89554E-05   -0.88461E-05   213   0.562E-02
   1 F= -.18146728E+02 E0= -.18134175E+02  d E =-.181467E+02
 curvature:   0.00 expect dE= 0.000E+00 dE for cont linesearch  0.000E+00
 trial: gam= 0.00000 g(F)=  0.436E-60 g(S)=  0.451E-01 ort = 0.000E+00 (trialstep = 0.100E+01)
 search vector abs. value=  0.451E-01
 bond charge predicted
       N       E                     dE             d eps       ncg     rms          rms(c)
DAV:   1    -0.191170797121E+02   -0.97036E+00   -0.25690E+01   224   0.413E+01    0.725E+00
RMM:   2    -0.181180370465E+02    0.99904E+00   -0.10513E+00   224   0.826E+00    0.116E+00
RMM:   3    -0.181232290773E+02   -0.51920E-02   -0.53672E-02   224   0.168E+00    0.620E-01
RMM:   4    -0.181269125513E+02   -0.36835E-02   -0.13003E-02   224   0.733E-01    0.147E-01
RMM:   5    -0.181268752576E+02    0.37294E-04   -0.24181E-03   224   0.321E-01    0.364E-02
RMM:   6    -0.181268642681E+02    0.10990E-04   -0.50000E-04   222   0.159E-01    0.159E-02
RMM:   7    -0.181268735904E+02   -0.93224E-05   -0.13382E-04   184   0.678E-02    0.765E-03
RMM:   8    -0.181268762079E+02   -0.26175E-05   -0.26704E-05   144   0.323E-02
   2 F= -.18126876E+02 E0= -.18114164E+02  d E =0.198517E-01
 trial-energy change:    0.019852  1 .order    0.016871   -0.045081    0.078823
 step:   0.3318(harm=  0.3638)  dis= 0.00000  next Energy=   -18.154099 (dE=-0.737E-02)
 bond charge predicted
       N       E                     dE             d eps       ncg     rms          rms(c)
DAV:   1    -0.186797937641E+02   -0.55292E+00   -0.12026E+01   280   0.287E+01    0.581E+00
RMM:   2    -0.181542305512E+02    0.52556E+00   -0.71477E-01   224   0.659E+00    0.104E+00
RMM:   3    -0.181496049616E+02    0.46256E-02   -0.20510E-02   224   0.125E+00    0.468E-01
RMM:   4    -0.181525438059E+02   -0.29388E-02   -0.76961E-03   228   0.534E-01    0.370E-02
RMM:   5    -0.181526599665E+02   -0.11616E-03   -0.11295E-03   224   0.186E-01    0.260E-02
RMM:   6    -0.181526738816E+02   -0.13915E-04   -0.11683E-04   204   0.713E-02    0.279E-02
RMM:   7    -0.181526639267E+02    0.99549E-05   -0.39002E-05   146   0.376E-02
   3 F= -.18152664E+02 E0= -.18140090E+02  d E =-.593601E-02
 curvature:  -0.18 expect dE=-0.229E-05 dE for cont linesearch -0.229E-05
 trial: gam= 0.00000 g(F)=  0.334E-60 g(S)=  0.126E-04 ort =-0.754E-03 (trialstep = 0.866E+00)
 search vector abs. value=  0.126E-04
 reached required accuracy - stopping structural energy minimisation
