  64  64   0   0
  0.2218804E+02  0.1124000E-08  0.1124000E-08  0.1124000E-08  0.5000000E-15
  1.000000000000000E-004
  CAR 
 HECN                                    
     14.17736731    -52.79067001  301      8.09705718      1.00000000
    -52.791  0.0000E+00  0.0000E+00
    -52.567  0.0000E+00  0.0000E+00
    -52.344  0.0000E+00  0.0000E+00
    -52.121  0.0000E+00  0.0000E+00
    -51.898  0.0000E+00  0.0000E+00
    -51.675  0.0000E+00  0.0000E+00
    -51.451  0.0000E+00  0.0000E+00
    -51.228  0.0000E+00  0.0000E+00
    -51.005  0.0000E+00  0.0000E+00
    -50.782  0.0000E+00  0.0000E+00
    -50.558  0.0000E+00  0.0000E+00
    -50.335  0.4974E-17  0.1110E-17
    -50.112  0.1072E-07  0.2393E-08
    -49.889  0.1995E-02  0.4454E-03
    -49.665  0.8288E-01  0.1895E-01
    -49.442  0.3212E+00  0.9066E-01
    -49.219  0.1694E+00  0.1285E+00
    -48.996  0.5154E-01  0.1400E+00
    -48.773  0.1332E-03  0.1400E+00
    -48.549  0.4000E-10  0.1400E+00
    -48.326  0.0000E+00  0.1400E+00
    -48.103  0.0000E+00  0.1400E+00
    -47.880  0.0000E+00  0.1400E+00
    -47.656  0.0000E+00  0.1400E+00
    -47.433  0.0000E+00  0.1400E+00
    -47.210  0.0000E+00  0.1400E+00
    -46.987  0.0000E+00  0.1400E+00
    -46.764  0.0000E+00  0.1400E+00
    -46.540  0.0000E+00  0.1400E+00
    -46.317  0.0000E+00  0.1400E+00
    -46.094  0.0000E+00  0.1400E+00
    -45.871  0.0000E+00  0.1400E+00
    -45.647  0.0000E+00  0.1400E+00
    -45.424  0.0000E+00  0.1400E+00
    -45.201  0.0000E+00  0.1400E+00
    -44.978  0.0000E+00  0.1400E+00
    -44.755  0.0000E+00  0.1400E+00
    -44.531  0.0000E+00  0.1400E+00
    -44.308  0.0000E+00  0.1400E+00
    -44.085  0.0000E+00  0.1400E+00
    -43.862  0.0000E+00  0.1400E+00
    -43.638  0.0000E+00  0.1400E+00
    -43.415  0.0000E+00  0.1400E+00
    -43.192  0.0000E+00  0.1400E+00
    -42.969  0.0000E+00  0.1400E+00
    -42.745  0.0000E+00  0.1400E+00
    -42.522  0.0000E+00  0.1400E+00
    -42.299  0.0000E+00  0.1400E+00
    -42.076  0.0000E+00  0.1400E+00
    -41.853  0.2303E-14  0.1400E+00
    -41.629  0.5529E-06  0.1400E+00
    -41.406  0.1009E-01  0.1423E+00
    -41.183  0.1162E+00  0.1682E+00
    -40.960  0.1525E+00  0.2022E+00
    -40.736  0.1976E+00  0.2464E+00
    -40.513  0.6243E-01  0.2603E+00
    -40.290  0.7446E-01  0.2769E+00
    -40.067  0.1380E-01  0.2800E+00
    -39.844  0.1327E-05  0.2800E+00
    -39.620  0.1007E-13  0.2800E+00
    -39.397  0.0000E+00  0.2800E+00
    -39.174  0.0000E+00  0.2800E+00
    -38.951  0.0000E+00  0.2800E+00
    -38.727  0.0000E+00  0.2800E+00
    -38.504  0.0000E+00  0.2800E+00
    -38.281  0.0000E+00  0.2800E+00
    -38.058  0.0000E+00  0.2800E+00
    -37.834  0.0000E+00  0.2800E+00
    -37.611  0.0000E+00  0.2800E+00
    -37.388  0.0000E+00  0.2800E+00
    -37.165  0.0000E+00  0.2800E+00
    -36.942  0.0000E+00  0.2800E+00
    -36.718  0.0000E+00  0.2800E+00
    -36.495  0.0000E+00  0.2800E+00
    -36.272  0.0000E+00  0.2800E+00
    -36.049  0.0000E+00  0.2800E+00
    -35.825  0.0000E+00  0.2800E+00
    -35.602  0.0000E+00  0.2800E+00
    -35.379  0.0000E+00  0.2800E+00
    -35.156  0.0000E+00  0.2800E+00
    -34.933  0.0000E+00  0.2800E+00
    -34.709  0.0000E+00  0.2800E+00
    -34.486  0.0000E+00  0.2800E+00
    -34.263  0.0000E+00  0.2800E+00
    -34.040  0.0000E+00  0.2800E+00
    -33.816  0.0000E+00  0.2800E+00
    -33.593  0.0000E+00  0.2800E+00
    -33.370  0.0000E+00  0.2800E+00
    -33.147  0.0000E+00  0.2800E+00
    -32.923  0.0000E+00  0.2800E+00
    -32.700  0.0000E+00  0.2800E+00
    -32.477  0.0000E+00  0.2800E+00
    -32.254  0.0000E+00  0.2800E+00
    -32.031  0.0000E+00  0.2800E+00
    -31.807  0.6960E-08  0.2800E+00
    -31.584  0.2801E-02  0.2806E+00
    -31.361  0.2902E+00  0.3454E+00
    -31.138  0.8281E+00  0.5303E+00
    -30.914  0.4816E+00  0.6378E+00
    -30.691  0.9946E-02  0.6400E+00
    -30.468  0.1546E-06  0.6400E+00
    -30.245  0.2056E-15  0.6400E+00
    -30.022  0.0000E+00  0.6400E+00
    -29.798  0.0000E+00  0.6400E+00
    -29.575  0.0000E+00  0.6400E+00
    -29.352  0.0000E+00  0.6400E+00
    -29.129  0.0000E+00  0.6400E+00
    -28.905  0.0000E+00  0.6400E+00
    -28.682  0.0000E+00  0.6400E+00
    -28.459  0.0000E+00  0.6400E+00
    -28.236  0.9942E-11  0.6400E+00
    -28.012  0.6439E-04  0.6400E+00
    -27.789  0.5816E-01  0.6530E+00
    -27.566  0.4540E+00  0.7543E+00
    -27.343  0.3414E+00  0.8305E+00
    -27.120  0.5246E+00  0.9476E+00
    -26.896  0.2318E+00  0.9994E+00
    -26.673  0.2777E-02  0.1000E+01
    -26.450  0.2303E-05  0.1000E+01
    -26.227  0.2291E-01  0.1005E+01
    -26.003  0.3023E+00  0.1073E+01
    -25.780  0.9956E+00  0.1295E+01
    -25.557  0.4445E+00  0.1394E+01
    -25.334  0.1160E+00  0.1420E+01
    -25.111  0.1977E-03  0.1420E+01
    -24.887  0.5133E-10  0.1420E+01
    -24.664  0.0000E+00  0.1420E+01
    -24.441  0.0000E+00  0.1420E+01
    -24.218  0.0000E+00  0.1420E+01
    -23.994  0.0000E+00  0.1420E+01
    -23.771  0.0000E+00  0.1420E+01
    -23.548  0.0000E+00  0.1420E+01
    -23.325  0.0000E+00  0.1420E+01
    -23.102  0.0000E+00  0.1420E+01
    -22.878  0.0000E+00  0.1420E+01
    -22.655  0.0000E+00  0.1420E+01
    -22.432  0.0000E+00  0.1420E+01
    -22.209  0.0000E+00  0.1420E+01
    -21.985  0.0000E+00  0.1420E+01
    -21.762  0.0000E+00  0.1420E+01
    -21.539  0.0000E+00  0.1420E+01
    -21.316  0.0000E+00  0.1420E+01
    -21.092  0.0000E+00  0.1420E+01
    -20.869  0.0000E+00  0.1420E+01
    -20.646  0.0000E+00  0.1420E+01
    -20.423  0.0000E+00  0.1420E+01
    -20.200  0.3591E-10  0.1420E+01
    -19.976  0.1403E-03  0.1420E+01
    -19.753  0.8419E-01  0.1439E+01
    -19.530  0.3119E+00  0.1508E+01
    -19.307  0.3846E+00  0.1594E+01
    -19.083  0.5574E+00  0.1719E+01
    -18.860  0.2699E+00  0.1779E+01
    -18.637  0.1626E+00  0.1815E+01
    -18.414  0.1104E+00  0.1840E+01
    -18.191  0.3289E-03  0.1840E+01
    -17.967  0.1505E-09  0.1840E+01
    -17.744  0.0000E+00  0.1840E+01
    -17.521  0.0000E+00  0.1840E+01
    -17.298  0.0000E+00  0.1840E+01
    -17.074  0.0000E+00  0.1840E+01
    -16.851  0.0000E+00  0.1840E+01
    -16.628  0.0000E+00  0.1840E+01
    -16.405  0.0000E+00  0.1840E+01
    -16.181  0.0000E+00  0.1840E+01
    -15.958  0.0000E+00  0.1840E+01
    -15.735  0.0000E+00  0.1840E+01
    -15.512  0.0000E+00  0.1840E+01
    -15.289  0.0000E+00  0.1840E+01
    -15.065  0.0000E+00  0.1840E+01
    -14.842  0.0000E+00  0.1840E+01
    -14.619  0.0000E+00  0.1840E+01
    -14.396  0.0000E+00  0.1840E+01
    -14.172  0.0000E+00  0.1840E+01
    -13.949  0.0000E+00  0.1840E+01
    -13.726  0.0000E+00  0.1840E+01
    -13.503  0.0000E+00  0.1840E+01
    -13.280  0.0000E+00  0.1840E+01
    -13.056  0.0000E+00  0.1840E+01
    -12.833  0.0000E+00  0.1840E+01
    -12.610  0.0000E+00  0.1840E+01
    -12.387  0.0000E+00  0.1840E+01
    -12.163  0.0000E+00  0.1840E+01
    -11.940  0.0000E+00  0.1840E+01
    -11.717  0.0000E+00  0.1840E+01
    -11.494  0.0000E+00  0.1840E+01
    -11.270  0.0000E+00  0.1840E+01
    -11.047  0.0000E+00  0.1840E+01
    -10.824  0.0000E+00  0.1840E+01
    -10.601  0.0000E+00  0.1840E+01
    -10.378  0.0000E+00  0.1840E+01
    -10.154  0.0000E+00  0.1840E+01
     -9.931  0.0000E+00  0.1840E+01
     -9.708  0.0000E+00  0.1840E+01
     -9.485  0.0000E+00  0.1840E+01
     -9.261  0.0000E+00  0.1840E+01
     -9.038  0.8036E-10  0.1840E+01
     -8.815  0.7422E-04  0.1840E+01
     -8.592  0.3143E-01  0.1847E+01
     -8.369  0.5753E-01  0.1860E+01
     -8.145  0.8855E-03  0.1860E+01
     -7.922  0.3522E-01  0.1868E+01
     -7.699  0.7352E-01  0.1884E+01
     -7.476  0.1025E+00  0.1907E+01
     -7.252  0.1700E+00  0.1945E+01
     -7.029  0.2785E+00  0.2007E+01
     -6.806  0.2038E+00  0.2053E+01
     -6.583  0.1211E+00  0.2080E+01
     -6.359  0.4496E-01  0.2090E+01
     -6.136  0.4154E-01  0.2099E+01
     -5.913  0.3674E-02  0.2100E+01
     -5.690  0.7538E-06  0.2100E+01
     -5.467  0.8051E-09  0.2100E+01
     -5.243  0.1729E-03  0.2100E+01
     -5.020  0.2284E-01  0.2105E+01
     -4.797  0.6114E-01  0.2119E+01
     -4.574  0.5992E-01  0.2132E+01
     -4.350  0.7056E-01  0.2148E+01
     -4.127  0.1298E+00  0.2177E+01
     -3.904  0.1693E+00  0.2215E+01
     -3.681  0.2326E+00  0.2267E+01
     -3.458  0.2147E+00  0.2315E+01
     -3.234  0.2544E+00  0.2371E+01
     -3.011  0.1819E+00  0.2412E+01
     -2.788  0.1319E+00  0.2441E+01
     -2.565  0.1055E+00  0.2465E+01
     -2.341  0.5677E-01  0.2478E+01
     -2.118  0.1055E-01  0.2480E+01
     -1.895  0.2673E-03  0.2480E+01
     -1.672  0.7898E-08  0.2480E+01
     -1.449  0.1768E-16  0.2480E+01
     -1.225  0.0000E+00  0.2480E+01
     -1.002  0.0000E+00  0.2480E+01
     -0.779  0.9727E-11  0.2480E+01
     -0.556  0.1325E-04  0.2480E+01
     -0.332  0.3451E-02  0.2481E+01
     -0.109  0.1535E-01  0.2484E+01
      0.114  0.6248E-01  0.2498E+01
      0.337  0.9679E-01  0.2520E+01
      0.561  0.1038E+00  0.2543E+01
      0.784  0.1204E+00  0.2570E+01
      1.007  0.1859E+00  0.2611E+01
      1.230  0.2728E+00  0.2672E+01
      1.453  0.2748E+00  0.2734E+01
      1.677  0.2231E+00  0.2783E+01
      1.900  0.2993E+00  0.2850E+01
      2.123  0.3746E+00  0.2934E+01
      2.346  0.3697E+00  0.3016E+01
      2.570  0.4299E+00  0.3112E+01
      2.793  0.5460E+00  0.3234E+01
      3.016  0.6400E+00  0.3377E+01
      3.239  0.6599E+00  0.3524E+01
      3.462  0.6585E+00  0.3671E+01
      3.686  0.6333E+00  0.3813E+01
      3.909  0.5612E+00  0.3938E+01
      4.132  0.4532E+00  0.4039E+01
      4.355  0.3820E+00  0.4124E+01
      4.579  0.3273E+00  0.4197E+01
      4.802  0.2765E+00  0.4259E+01
      5.025  0.2008E+00  0.4304E+01
      5.248  0.2026E+00  0.4349E+01
      5.472  0.1559E+00  0.4384E+01
      5.695  0.7948E-01  0.4402E+01
      5.918  0.1365E+00  0.4432E+01
      6.141  0.1524E+00  0.4466E+01
      6.364  0.1694E+00  0.4504E+01
      6.588  0.1460E+00  0.4537E+01
      6.811  0.1759E+00  0.4576E+01
      7.034  0.1910E+00  0.4619E+01
      7.257  0.1995E+00  0.4663E+01
      7.481  0.1742E+00  0.4702E+01
      7.704  0.1954E+00  0.4746E+01
      7.927  0.2141E+00  0.4793E+01
      8.150  0.2206E+00  0.4843E+01
      8.373  0.2782E+00  0.4905E+01
      8.597  0.3359E+00  0.4980E+01
      8.820  0.3742E+00  0.5063E+01
      9.043  0.3868E+00  0.5150E+01
      9.266  0.4758E+00  0.5256E+01
      9.490  0.4794E+00  0.5363E+01
      9.713  0.5419E+00  0.5484E+01
      9.936  0.5196E+00  0.5600E+01
     10.159  0.5556E+00  0.5724E+01
     10.383  0.5456E+00  0.5846E+01
     10.606  0.4885E+00  0.5955E+01
     10.829  0.4683E+00  0.6059E+01
     11.052  0.3775E+00  0.6143E+01
     11.275  0.7373E-01  0.6160E+01
     11.499  0.3750E-03  0.6160E+01
     11.722  0.1017E-08  0.6160E+01
     11.945  0.0000E+00  0.6160E+01
     12.168  0.0000E+00  0.6160E+01
     12.392  0.0000E+00  0.6160E+01
     12.615  0.0000E+00  0.6160E+01
     12.838  0.0000E+00  0.6160E+01
     13.061  0.0000E+00  0.6160E+01
     13.284  0.0000E+00  0.6160E+01
     13.508  0.0000E+00  0.6160E+01
     13.731  0.0000E+00  0.6160E+01
     13.954  0.0000E+00  0.6160E+01
     14.177  0.0000E+00  0.6160E+01
