 running   28 mpi-ranks, on    1 nodes
 distrk:  each k-point on   28 cores,    1 groups
 distr:  one band on    1 cores,   28 groups
 vasp.6.4.3 19Mar24 (build Sep 18 2024 11:30:23) complex                        
  
 POSCAR found type information on POSCAR TiMoTaN C ZrW 
 POSCAR found :  7 types and      64 ions
 Reading from existing POTCAR
 scaLAPACK will be used
 -----------------------------------------------------------------------------
|                                                                             |
|           W    W    AA    RRRRR   N    N  II  N    N   GGGG   !!!           |
|           W    W   A  A   R    R  NN   N  II  NN   N  G    G  !!!           |
|           W    W  A    A  R    R  N N  N  II  N N  N  G       !!!           |
|           W WW W  AAAAAA  RRRRR   N  N N  II  N  N N  G  GGG   !            |
|           WW  WW  A    A  R   R   N   NN  II  N   NN  G    G                |
|           W    W  A    A  R    R  N    N  II  N    N   GGGG   !!!           |
|                                                                             |
|     For optimal performance we recommend to set                             |
|       NCORE = 2 up to number-of-cores-per-socket                            |
|     NCORE specifies how many cores store one orbital (NPAR=cpu/NCORE).      |
|     This setting can greatly improve the performance of VASP for DFT.       |
|     The default, NCORE=1 might be grossly inefficient on modern             |
|     multi-core architectures or massively parallel machines. Do your        |
|     own testing! More info at https://www.vasp.at/wiki/index.php/NCORE      |
|     Unfortunately you need to use the default for GW and RPA                |
|     calculations (for HF NCORE is supported but not extensively tested      |
|     yet).                                                                   |
|                                                                             |
 -----------------------------------------------------------------------------

 Reading from existing POTCAR
 -----------------------------------------------------------------------------
|                                                                             |
|               ----> ADVICE to this user running VASP <----                  |
|                                                                             |
|     You have a (more or less) 'large supercell' and for larger cells it     |
|     might be more efficient to use real-space projection operators.         |
|     Therefore, try LREAL= Auto in the INCAR file.                           |
|     Mind: If you want to do very accurate calculations, keep the            |
|     reciprocal projection scheme (i.e. LREAL=.FALSE.).                      |
|                                                                             |
 -----------------------------------------------------------------------------

 LDA part: xc-table for (Slater+PW92), standard interpolation
 POSCAR, INCAR and KPOINTS ok, starting setup
 FFT: planning ... GRIDC
 FFT: planning ... GRID_SOFT
 FFT: planning ... GRID
 WAVECAR not read
 entering main loop
       N       E                     dE             d eps       ncg     rms          rms(c)
DAV:   1     0.364399100236E+04    0.36440E+04   -0.20484E+05  9044   0.124E+03
DAV:   2    -0.206260031353E+02   -0.36646E+04   -0.35659E+04  8624   0.384E+02
DAV:   3    -0.565981708264E+03   -0.54536E+03   -0.52894E+03 13692   0.118E+02
DAV:   4    -0.618711334389E+03   -0.52730E+02   -0.51143E+02 13748   0.378E+01
DAV:   5    -0.625853808353E+03   -0.71425E+01   -0.70159E+01 15456   0.113E+01    0.660E+01
RMM:   6    -0.518257760216E+03    0.10760E+03   -0.12400E+03 12393   0.473E+01    0.554E+01
RMM:   7    -0.493811999611E+03    0.24446E+02   -0.25444E+02 12493   0.240E+01    0.351E+01
RMM:   8    -0.468267358743E+03    0.25545E+02   -0.75352E+01 13140   0.107E+01    0.151E+01
RMM:   9    -0.470312748762E+03   -0.20454E+01   -0.39011E+01 13250   0.604E+00    0.187E+01
RMM:  10    -0.468870975680E+03    0.14418E+01   -0.17525E+01 13930   0.396E+00    0.142E+01
RMM:  11    -0.468269448718E+03    0.60153E+00   -0.11055E+01 12771   0.359E+00    0.144E+01
RMM:  12    -0.468205272433E+03    0.64176E-01   -0.73176E+00 13094   0.305E+00    0.129E+01
RMM:  13    -0.468012491897E+03    0.19278E+00   -0.43228E+00 13082   0.228E+00    0.117E+01
RMM:  14    -0.466987451236E+03    0.10250E+01   -0.26682E+00 13081   0.223E+00    0.659E+00
RMM:  15    -0.466984447792E+03    0.30034E-02   -0.20402E+00 13784   0.138E+00    0.583E+00
RMM:  16    -0.467032059273E+03   -0.47611E-01   -0.16001E+00 13464   0.125E+00    0.535E+00
RMM:  17    -0.466945907789E+03    0.86151E-01   -0.10718E+00 13863   0.969E-01    0.332E+00
RMM:  18    -0.466961290267E+03   -0.15382E-01   -0.79956E-01 14262   0.897E-01    0.259E+00
RMM:  19    -0.466997764297E+03   -0.36474E-01   -0.56183E-01 13561   0.809E-01    0.235E+00
RMM:  20    -0.467014028731E+03   -0.16264E-01   -0.40044E-01 13565   0.617E-01    0.189E+00
RMM:  21    -0.467023613645E+03   -0.95849E-02   -0.31146E-01 13833   0.522E-01    0.138E+00
RMM:  22    -0.467031395632E+03   -0.77820E-02   -0.24910E-01 13517   0.450E-01    0.128E+00
RMM:  23    -0.467037355105E+03   -0.59595E-02   -0.21485E-01 13835   0.407E-01    0.794E-01
RMM:  24    -0.467047409842E+03   -0.10055E-01   -0.18232E-01 13760   0.372E-01    0.380E-01
RMM:  25    -0.467056615394E+03   -0.92056E-02   -0.12094E-01 13513   0.277E-01    0.283E-01
RMM:  26    -0.467063956516E+03   -0.73411E-02   -0.88588E-02 13579   0.220E-01    0.238E-01
RMM:  27    -0.467069420605E+03   -0.54641E-02   -0.69436E-02 13634   0.195E-01    0.154E-01
RMM:  28    -0.467074930232E+03   -0.55096E-02   -0.57992E-02 13672   0.176E-01    0.161E-01
RMM:  29    -0.467079566733E+03   -0.46365E-02   -0.48142E-02 13454   0.159E-01    0.156E-01
RMM:  30    -0.467082763516E+03   -0.31968E-02   -0.35737E-02 13204   0.135E-01    0.120E-01
RMM:  31    -0.467085623262E+03   -0.28597E-02   -0.31151E-02 13207   0.121E-01    0.591E-02
RMM:  32    -0.467088012067E+03   -0.23888E-02   -0.24183E-02 13243   0.109E-01    0.527E-02
RMM:  33    -0.467090017646E+03   -0.20056E-02   -0.20434E-02 12664   0.927E-02    0.482E-02
RMM:  34    -0.467091596499E+03   -0.15789E-02   -0.16419E-02 12522   0.818E-02    0.397E-02
RMM:  35    -0.467092931009E+03   -0.13345E-02   -0.13833E-02 12436   0.732E-02    0.212E-02
RMM:  36    -0.467094076242E+03   -0.11452E-02   -0.11672E-02 12364   0.673E-02    0.110E-02
RMM:  37    -0.467095013512E+03   -0.93727E-03   -0.95176E-03 12005   0.597E-02    0.184E-02
RMM:  38    -0.467095813024E+03   -0.79951E-03   -0.81306E-03 11144   0.534E-02    0.211E-02
RMM:  39    -0.467096457056E+03   -0.64403E-03   -0.65732E-03 11665   0.497E-02    0.108E-02
RMM:  40    -0.467097024972E+03   -0.56792E-03   -0.57653E-03 11402   0.453E-02    0.983E-03
RMM:  41    -0.467097491944E+03   -0.46697E-03   -0.47359E-03 10929   0.411E-02    0.888E-03
RMM:  42    -0.467097894450E+03   -0.40251E-03   -0.40662E-03 11372   0.386E-02    0.463E-03
RMM:  43    -0.467098232213E+03   -0.33776E-03   -0.34364E-03  9709   0.343E-02    0.888E-03
RMM:  44    -0.467098521724E+03   -0.28951E-03   -0.29403E-03 10058   0.318E-02    0.869E-03
RMM:  45    -0.467098764928E+03   -0.24320E-03   -0.24613E-03 10635   0.300E-02    0.174E-03
RMM:  46    -0.467098977979E+03   -0.21305E-03   -0.21703E-03  8989   0.268E-02    0.131E-02
WARNING in EDDRMM: call to ZHEGV failed, returncode =   6  3      7
RMM:  47    -0.467099155365E+03   -0.17739E-03   -0.18070E-03  9660   0.257E-02    0.903E-03
RMM:  48    -0.467099311192E+03   -0.15583E-03   -0.15857E-03  8994   0.236E-02    0.108E-02
RMM:  49    -0.467099445320E+03   -0.13413E-03   -0.13668E-03  8753   0.218E-02    0.128E-02
RMM:  50    -0.467099560860E+03   -0.11554E-03   -0.11704E-03  8575   0.206E-02    0.209E-02
RMM:  51    -0.467099656516E+03   -0.95656E-04   -0.99198E-04  9711   0.197E-02    0.118E-02
WARNING in EDDRMM: call to ZHEGV failed, returncode =   6  3      9
RMM:  52    -0.467099740197E+03   -0.83681E-04   -0.85613E-04  9749   0.188E-02    0.588E-03
RMM:  53    -0.467099814985E+03   -0.74788E-04   -0.75997E-04  9237   0.176E-02    0.292E-03
RMM:  54    -0.467099877379E+03   -0.62394E-04   -0.63869E-04  8397   0.164E-02    0.416E-03
RMM:  55    -0.467099933580E+03   -0.56201E-04   -0.57609E-04  8432   0.158E-02    0.417E-03
RMM:  56    -0.467099980633E+03   -0.47053E-04   -0.48613E-04  7630   0.146E-02    0.773E-03
RMM:  57    -0.467100022509E+03   -0.41875E-04   -0.43285E-04  7654   0.140E-02    0.903E-03
RMM:  58    -0.467100058860E+03   -0.36351E-04   -0.37735E-04  7872   0.139E-02    0.980E-03
RMM:  59    -0.467100094839E+03   -0.35979E-04   -0.35859E-04  7335   0.131E-02    0.109E-02
RMM:  60    -0.467100122622E+03   -0.27784E-04   -0.28890E-04  7260   0.127E-02
 -----------------------------------------------------------------------------
|                                                                             |
|           W    W    AA    RRRRR   N    N  II  N    N   GGGG   !!!           |
|           W    W   A  A   R    R  NN   N  II  NN   N  G    G  !!!           |
|           W    W  A    A  R    R  N N  N  II  N N  N  G       !!!           |
|           W WW W  AAAAAA  RRRRR   N  N N  II  N  N N  G  GGG   !            |
|           WW  WW  A    A  R   R   N   NN  II  N   NN  G    G                |
|           W    W  A    A  R    R  N    N  II  N    N   GGGG   !!!           |
|                                                                             |
|     The electronic self-consistency was not achieved in the given           |
|     number of steps (NELM). The forces and other quantities evaluated       |
|     might not be reliable so examine the results carefully. If you find     |
|     spurious results, we suggest increasing NELM, if you were close to      |
|     convergence or switching to a different ALGO or adjusting the           |
|     density mixing parameters otherwise.                                    |
|                                                                             |
 -----------------------------------------------------------------------------

   1 F= -.46710012E+03 E0= -.46684546E+03  d E =-.467100E+03
 curvature:   0.00 expect dE= 0.000E+00 dE for cont linesearch  0.000E+00
 trial: gam= 0.00000 g(F)=  0.106E+01 g(S)=  0.330E+03 ort = 0.000E+00 (trialstep = 0.100E+01)
 search vector abs. value=  0.331E+03
 bond charge predicted
       N       E                     dE             d eps       ncg     rms          rms(c)
DAV:   1    -0.319798045933E+04   -0.27309E+04   -0.87209E+04  9100   0.864E+02    0.319E+02
RMM:   2    -0.120862080113E+04    0.19894E+04   -0.53125E+03 13132   0.215E+02    0.170E+02
RMM:   3    -0.536587689491E+03    0.67203E+03   -0.21216E+03  9341   0.128E+02    0.500E+01
RMM:   4    -0.559854852859E+03   -0.23267E+02   -0.88868E+02 12902   0.703E+01    0.265E+01
RMM:   5    -0.558579013864E+03    0.12758E+01   -0.16455E+02 13340   0.335E+01    0.126E+01
RMM:   6    -0.560916019274E+03   -0.23370E+01   -0.50750E+01 15301   0.150E+01    0.798E+00
RMM:   7    -0.565498701229E+03   -0.45827E+01   -0.31657E+01 15330   0.983E+00    0.635E+00
RMM:   8    -0.568099677457E+03   -0.26010E+01   -0.20239E+01 15327   0.788E+00    0.437E+00
RMM:   9    -0.570280033892E+03   -0.21804E+01   -0.14191E+01 15323   0.596E+00    0.349E+00
RMM:  10    -0.571706639582E+03   -0.14266E+01   -0.10043E+01 15321   0.513E+00    0.254E+00
RMM:  11    -0.572516954669E+03   -0.81032E+00   -0.66438E+00 15234   0.435E+00    0.117E+00
RMM:  12    -0.572949738293E+03   -0.43278E+00   -0.44198E+00 15237   0.366E+00    0.569E-01
RMM:  13    -0.573210390312E+03   -0.26065E+00   -0.27198E+00 15323   0.289E+00    0.774E-01
RMM:  14    -0.573363320227E+03   -0.15293E+00   -0.16135E+00 15192   0.234E+00    0.510E-01
RMM:  15    -0.573459176832E+03   -0.95857E-01   -0.10003E+00 15062   0.195E+00    0.618E-01
RMM:  16    -0.573525986200E+03   -0.66809E-01   -0.68185E-01 15211   0.165E+00    0.900E-01
RMM:  17    -0.573568403786E+03   -0.42418E-01   -0.44846E-01 15120   0.131E+00    0.886E-01
RMM:  18    -0.573599994112E+03   -0.31590E-01   -0.31377E-01 15159   0.111E+00    0.133E+00
RMM:  19    -0.573620609218E+03   -0.20615E-01   -0.20678E-01 15063   0.932E-01    0.148E+00
RMM:  20    -0.573634873446E+03   -0.14264E-01   -0.14707E-01 15047   0.788E-01    0.156E+00
RMM:  21    -0.573645012545E+03   -0.10139E-01   -0.10392E-01 14885   0.676E-01    0.165E+00
RMM:  22    -0.573647543658E+03   -0.25311E-02   -0.72919E-02 15030   0.629E-01    0.112E+00
RMM:  23    -0.573652248919E+03   -0.47053E-02   -0.57205E-02 15220   0.511E-01    0.107E+00
RMM:  24    -0.573654798822E+03   -0.25499E-02   -0.43118E-02 15127   0.457E-01    0.816E-01
RMM:  25    -0.573657755176E+03   -0.29564E-02   -0.34295E-02 15296   0.393E-01    0.794E-01
RMM:  26    -0.573660974834E+03   -0.32197E-02   -0.28220E-02 15034   0.354E-01    0.951E-01
RMM:  27    -0.573662786109E+03   -0.18113E-02   -0.23409E-02 14913   0.310E-01    0.911E-01
RMM:  28    -0.573663702007E+03   -0.91590E-03   -0.19169E-02 14948   0.293E-01    0.746E-01
RMM:  29    -0.573664882358E+03   -0.11804E-02   -0.16393E-02 15032   0.255E-01    0.695E-01
RMM:  30    -0.573665656746E+03   -0.77439E-03   -0.13602E-02 14818   0.236E-01    0.600E-01
RMM:  31    -0.573666384250E+03   -0.72750E-03   -0.12117E-02 14747   0.214E-01    0.537E-01
RMM:  32    -0.573666825462E+03   -0.44121E-03   -0.10396E-02 15047   0.209E-01    0.415E-01
WARNING in EDDRMM: call to ZHEGV failed, returncode =   8  4      4
WARNING in EDDRMM: call to ZHEGV failed, returncode =   8  4      4
RMM:  33    -0.573667172380E+03   -0.34692E-03   -0.96880E-03 15227   0.206E-01    0.249E-01
RMM:  34    -0.573667601921E+03   -0.42954E-03   -0.84183E-03 15179   0.192E-01    0.103E-01
WARNING in EDDRMM: call to ZHEGV failed, returncode =   8  4      7
WARNING in EDDRMM: call to ZHEGV failed, returncode =   8  4      4
RMM:  35    -0.573668112457E+03   -0.51054E-03   -0.76335E-03 13341   0.164E-01    0.317E-02
RMM:  36    -0.573668589170E+03   -0.47671E-03   -0.68283E-03 11862   0.150E-01    0.332E-02
WARNING in EDDRMM: call to ZHEGV failed, returncode =   6  3      8
WARNING in EDDRMM: call to ZHEGV failed, returncode =   6  3      6
WARNING in EDDRMM: call to ZHEGV failed, returncode =   8  4      6
RMM:  37    -0.573668993172E+03   -0.40400E-03   -0.62433E-03 11474   0.142E-01    0.684E-03
RMM:  38    -0.573669367490E+03   -0.37432E-03   -0.55951E-03  9587   0.133E-01    0.462E-03
RMM:  39    -0.573669708199E+03   -0.34071E-03   -0.52114E-03  8793   0.124E-01    0.463E-03
RMM:  40    -0.573670010684E+03   -0.30248E-03   -0.47527E-03  8895   0.119E-01    0.198E-02
WARNING in EDDRMM: call to ZHEGV failed, returncode =   6  3      5
RMM:  41    -0.573670290068E+03   -0.27938E-03   -0.44574E-03  8424   0.113E-01    0.243E-02
RMM:  42    -0.573670552357E+03   -0.26229E-03   -0.41997E-03  8176   0.107E-01    0.243E-02
RMM:  43    -0.573670781188E+03   -0.22883E-03   -0.38577E-03  8204   0.102E-01    0.243E-02
RMM:  44    -0.573670993153E+03   -0.21197E-03   -0.35699E-03  8028   0.968E-02    0.152E-02
RMM:  45    -0.573671191729E+03   -0.19858E-03   -0.34034E-03  8011   0.922E-02    0.220E-02
RMM:  46    -0.573671371803E+03   -0.18007E-03   -0.31495E-03  8091   0.895E-02    0.903E-03
RMM:  47    -0.573671539465E+03   -0.16766E-03   -0.29793E-03  7931   0.851E-02    0.914E-03
RMM:  48    -0.573671694683E+03   -0.15522E-03   -0.27939E-03  7585   0.808E-02    0.900E-03
RMM:  49    -0.573671840187E+03   -0.14550E-03   -0.26539E-03  7603   0.779E-02    0.846E-03
RMM:  50    -0.573671974836E+03   -0.13465E-03   -0.24959E-03  6464   0.747E-02    0.818E-03
RMM:  51    -0.573672101294E+03   -0.12646E-03   -0.23784E-03  6233   0.721E-02    0.785E-03
RMM:  52    -0.573672218740E+03   -0.11745E-03   -0.22442E-03  5756   0.697E-02    0.840E-03
RMM:  53    -0.573672329797E+03   -0.11106E-03   -0.21458E-03  5673   0.676E-02    0.725E-03
RMM:  54    -0.573672433232E+03   -0.10344E-03   -0.20292E-03  5616   0.656E-02    0.791E-03
RMM:  55    -0.573672531447E+03   -0.98215E-04   -0.19447E-03  5714   0.638E-02    0.698E-03
RMM:  56    -0.573672622951E+03   -0.91504E-04   -0.18417E-03  5326   0.619E-02    0.767E-03
RMM:  57    -0.573672711101E+03   -0.88150E-04   -0.17803E-03  5084   0.601E-02    0.727E-03
RMM:  58    -0.573672792293E+03   -0.81192E-04   -0.16803E-03  5011   0.585E-02    0.788E-03
RMM:  59    -0.573672870106E+03   -0.77813E-04   -0.16157E-03  4860   0.568E-02    0.734E-03
RMM:  60    -0.573672943198E+03   -0.73092E-04   -0.15375E-03  4864   0.554E-02
 -----------------------------------------------------------------------------
|                                                                             |
|           W    W    AA    RRRRR   N    N  II  N    N   GGGG   !!!           |
|           W    W   A  A   R    R  NN   N  II  NN   N  G    G  !!!           |
|           W    W  A    A  R    R  N N  N  II  N N  N  G       !!!           |
|           W WW W  AAAAAA  RRRRR   N  N N  II  N  N N  G  GGG   !            |
|           WW  WW  A    A  R   R   N   NN  II  N   NN  G    G                |
|           W    W  A    A  R    R  N    N  II  N    N   GGGG   !!!           |
|                                                                             |
|     The electronic self-consistency was not achieved in the given           |
|     number of steps (NELM). The forces and other quantities evaluated       |
|     might not be reliable so examine the results carefully. If you find     |
|     spurious results, we suggest increasing NELM, if you were close to      |
|     convergence or switching to a different ALGO or adjusting the           |
|     density mixing parameters otherwise.                                    |
|                                                                             |
 -----------------------------------------------------------------------------

   2 F= -.57367294E+03 E0= -.57363083E+03  d E =-.106573E+03
 trial-energy change: -106.572821  1 .order   86.213527 -330.968492  503.395546
 step:   0.6921(harm=  0.3967)  dis= 0.02584  next Energy=  -645.543477 (dE=-0.178E+03)
 bond charge predicted
       N       E                     dE             d eps       ncg     rms          rms(c)
DAV:   1    -0.104240743590E+04   -0.46873E+03   -0.90251E+03 11564   0.294E+02    0.215E+02
RMM:   2    -0.119855809810E+04   -0.15615E+03   -0.17832E+03 12826   0.102E+02    0.113E+02
RMM:   3    -0.792605344375E+03    0.40595E+03   -0.67878E+02 12979   0.493E+01    0.589E+01
RMM:   4    -0.702111603654E+03    0.90494E+02   -0.36610E+02 13415   0.299E+01    0.423E+01
RMM:   5    -0.652027633898E+03    0.50084E+02   -0.16193E+02 13174   0.209E+01    0.232E+01
RMM:   6    -0.648343693103E+03    0.36839E+01   -0.10029E+02 13609   0.160E+01    0.134E+01
RMM:   7    -0.648290626921E+03    0.53066E-01   -0.37506E+01 14392   0.867E+00    0.786E+00
RMM:   8    -0.649852944177E+03   -0.15623E+01   -0.18859E+01 14712   0.558E+00    0.738E+00
RMM:   9    -0.651116990852E+03   -0.12640E+01   -0.10553E+01 15130   0.419E+00    0.512E+00
RMM:  10    -0.652075324275E+03   -0.95833E+00   -0.72014E+00 15264   0.328E+00    0.463E+00
RMM:  11    -0.652601181191E+03   -0.52586E+00   -0.42394E+00 15311   0.266E+00    0.306E+00
RMM:  12    -0.652833840897E+03   -0.23266E+00   -0.27086E+00 15293   0.216E+00    0.149E+00
RMM:  13    -0.653014297153E+03   -0.18046E+00   -0.17629E+00 15317   0.170E+00    0.998E-01
RMM:  14    -0.653119710091E+03   -0.10541E+00   -0.10993E+00 15303   0.137E+00    0.805E-01
RMM:  15    -0.653174310633E+03   -0.54601E-01   -0.69309E-01 15311   0.110E+00    0.522E-01
RMM:  16    -0.653213791817E+03   -0.39481E-01   -0.48737E-01 15201   0.917E-01    0.281E-01
RMM:  17    -0.653245883014E+03   -0.32091E-01   -0.33181E-01 15200   0.770E-01    0.369E-01
RMM:  18    -0.653261877192E+03   -0.15994E-01   -0.20501E-01 15237   0.652E-01    0.110E-01
RMM:  19    -0.653275792605E+03   -0.13915E-01   -0.15074E-01 15177   0.542E-01    0.923E-02
RMM:  20    -0.653284891387E+03   -0.90988E-02   -0.99683E-02 15075   0.458E-01    0.683E-02
RMM:  21    -0.653291435814E+03   -0.65444E-02   -0.71330E-02 15043   0.393E-01    0.597E-02
RMM:  22    -0.653296004794E+03   -0.45690E-02   -0.50593E-02 15054   0.341E-01    0.320E-02
RMM:  23    -0.653299323534E+03   -0.33187E-02   -0.36869E-02 15023   0.297E-01    0.173E-02
RMM:  24    -0.653301719630E+03   -0.23961E-02   -0.26980E-02 14889   0.260E-01    0.140E-02
RMM:  25    -0.653303459374E+03   -0.17397E-02   -0.19991E-02 14889   0.230E-01    0.812E-03
RMM:  26    -0.653304743233E+03   -0.12839E-02   -0.15145E-02 14862   0.205E-01    0.514E-03
RMM:  27    -0.653305683902E+03   -0.94067E-03   -0.11526E-02 14808   0.183E-01    0.552E-03
RMM:  28    -0.653306384936E+03   -0.70103E-03   -0.89964E-03 14777   0.165E-01    0.375E-03
RMM:  29    -0.653306899734E+03   -0.51480E-03   -0.70481E-03 14720   0.150E-01    0.267E-03
RMM:  30    -0.653307288899E+03   -0.38916E-03   -0.57324E-03 14605   0.136E-01    0.267E-03
RMM:  31    -0.653307569751E+03   -0.28085E-03   -0.46336E-03 14397   0.125E-01    0.243E-03
RMM:  32    -0.653307777358E+03   -0.20761E-03   -0.38629E-03 14024   0.116E-01    0.215E-03
RMM:  33    -0.653307923873E+03   -0.14651E-03   -0.32537E-03 13490   0.108E-01    0.161E-03
RMM:  34    -0.653308026380E+03   -0.10251E-03   -0.28216E-03 13083   0.101E-01    0.196E-03
RMM:  35    -0.653308093691E+03   -0.67311E-04   -0.24873E-03 12674   0.958E-02    0.599E-03
RMM:  36    -0.653308134135E+03   -0.40444E-04   -0.22386E-03 12254   0.908E-02    0.706E-03
RMM:  37    -0.653308152453E+03   -0.18318E-04   -0.20439E-03 11867   0.869E-02    0.768E-03
RMM:  38    -0.653308153276E+03   -0.82237E-06   -0.18960E-03 11581   0.834E-02    0.875E-03
RMM:  39    -0.653308140015E+03    0.13261E-04   -0.17881E-03 11283   0.805E-02    0.102E-02
RMM:  40    -0.653308115903E+03    0.24112E-04   -0.17147E-03 11016   0.780E-02    0.105E-02
RMM:  41    -0.653308081162E+03    0.34741E-04   -0.16500E-03 10776   0.758E-02    0.112E-02
RMM:  42    -0.653308038701E+03    0.42461E-04   -0.16104E-03 10652   0.739E-02    0.110E-02
RMM:  43    -0.653307989234E+03    0.49466E-04   -0.15840E-03 10508   0.723E-02    0.113E-02
RMM:  44    -0.653307933679E+03    0.55555E-04   -0.15678E-03 10517   0.710E-02    0.102E-02
RMM:  45    -0.653307872649E+03    0.61030E-04   -0.15574E-03 10251   0.698E-02    0.988E-03
RMM:  46    -0.653307807240E+03    0.65408E-04   -0.15605E-03 10131   0.688E-02    0.103E-02
RMM:  47    -0.653307737852E+03    0.69388E-04   -0.15710E-03  9890   0.680E-02    0.107E-02
RMM:  48    -0.653307663846E+03    0.74006E-04   -0.15783E-03  9775   0.674E-02    0.110E-02
RMM:  49    -0.653307586512E+03    0.77335E-04   -0.15963E-03  9644   0.668E-02    0.111E-02
RMM:  50    -0.653307506043E+03    0.80468E-04   -0.16209E-03  9437   0.663E-02    0.112E-02
RMM:  51    -0.653307420926E+03    0.85117E-04   -0.16344E-03  9394   0.660E-02    0.112E-02
RMM:  52    -0.653307333432E+03    0.87495E-04   -0.16642E-03  9394   0.657E-02    0.114E-02
RMM:  53    -0.653307241639E+03    0.91793E-04   -0.16840E-03  9203   0.654E-02    0.114E-02
RMM:  54    -0.653307146861E+03    0.94778E-04   -0.17138E-03  9256   0.653E-02    0.115E-02
RMM:  55    -0.653307048693E+03    0.98168E-04   -0.17431E-03  9050   0.652E-02    0.116E-02
RMM:  56    -0.653306947517E+03    0.10118E-03   -0.17790E-03  9097   0.652E-02    0.117E-02
RMM:  57    -0.653306844263E+03    0.10325E-03   -0.18255E-03  8999   0.653E-02    0.125E-02
RMM:  58    -0.653306735772E+03    0.10849E-03   -0.18484E-03  8888   0.653E-02    0.125E-02
RMM:  59    -0.653306624894E+03    0.11088E-03   -0.18909E-03  8870   0.655E-02    0.125E-02
RMM:  60    -0.653306509923E+03    0.11497E-03   -0.19248E-03  8706   0.656E-02
 -----------------------------------------------------------------------------
|                                                                             |
|           W    W    AA    RRRRR   N    N  II  N    N   GGGG   !!!           |
|           W    W   A  A   R    R  NN   N  II  NN   N  G    G  !!!           |
|           W    W  A    A  R    R  N N  N  II  N N  N  G       !!!           |
|           W WW W  AAAAAA  RRRRR   N  N N  II  N  N N  G  GGG   !            |
|           WW  WW  A    A  R   R   N   NN  II  N   NN  G    G                |
|           W    W  A    A  R    R  N    N  II  N    N   GGGG   !!!           |
|                                                                             |
|     The electronic self-consistency was not achieved in the given           |
|     number of steps (NELM). The forces and other quantities evaluated       |
|     might not be reliable so examine the results carefully. If you find     |
|     spurious results, we suggest increasing NELM, if you were close to      |
|     convergence or switching to a different ALGO or adjusting the           |
|     density mixing parameters otherwise.                                    |
|                                                                             |
 -----------------------------------------------------------------------------

   3 F= -.65330651E+03 E0= -.65323821E+03  d E =-.186206E+03
 curvature:  -0.15 expect dE=-0.128E+01 dE for cont linesearch -0.917E+00
 ZBRENT: interpolating
 opt :   0.7173  next Energy=  -653.871930 (dE=-0.187E+03)
 bond charge predicted
       N       E                     dE             d eps       ncg     rms          rms(c)
DAV:   1    -0.656088920679E+03   -0.27823E+01   -0.52099E+01 11956   0.210E+01    0.862E+00
RMM:   2    -0.655658009580E+03    0.43091E+00   -0.84091E+00 12151   0.742E+00    0.775E+00
RMM:   3    -0.654605982320E+03    0.10520E+01   -0.20727E+00 12926   0.336E+00    0.409E+00
RMM:   4    -0.654357319183E+03    0.24866E+00   -0.94440E-01 12945   0.190E+00    0.216E+00
RMM:   5    -0.654291411282E+03    0.65908E-01   -0.41285E-01 13104   0.128E+00    0.127E+00
RMM:   6    -0.654269575962E+03    0.21835E-01   -0.11559E-01 14183   0.669E-01    0.578E-01
RMM:   7    -0.654268163631E+03    0.14123E-02   -0.36189E-02 14749   0.363E-01    0.394E-01
RMM:   8    -0.654267886699E+03    0.27693E-03   -0.14702E-02 15105   0.225E-01    0.194E-01
RMM:   9    -0.654269183975E+03   -0.12973E-02   -0.81043E-03 15114   0.158E-01    0.132E-01
RMM:  10    -0.654269833345E+03   -0.64937E-03   -0.49162E-03 15231   0.119E-01    0.677E-02
WARNING in EDDRMM: call to ZHEGV failed, returncode =   8  4      3
RMM:  11    -0.654270279005E+03   -0.44566E-03   -0.31913E-03 15201   0.915E-02    0.584E-02
RMM:  12    -0.654270505907E+03   -0.22690E-03   -0.20627E-03 15277   0.752E-02    0.548E-02
RMM:  13    -0.654270660751E+03   -0.15484E-03   -0.13658E-03 14988   0.612E-02    0.494E-02
RMM:  14    -0.654270779340E+03   -0.11859E-03   -0.91103E-04 14858   0.523E-02    0.400E-02
RMM:  15    -0.654270941180E+03   -0.16184E-03   -0.71457E-04 14904   0.501E-02    0.267E-02
RMM:  16    -0.654270983907E+03   -0.42727E-04   -0.51077E-04 14863   0.421E-02    0.158E-02
RMM:  17    -0.654271012320E+03   -0.28413E-04   -0.37589E-04 14612   0.361E-02    0.352E-03
RMM:  18    -0.654271034057E+03   -0.21737E-04   -0.27407E-04 14206   0.314E-02    0.504E-03
RMM:  19    -0.654271049400E+03   -0.15343E-04   -0.19990E-04 13631   0.274E-02    0.530E-03
RMM:  20    -0.654271060133E+03   -0.10733E-04   -0.14558E-04 12812   0.245E-02    0.427E-03
RMM:  21    -0.654271067530E+03   -0.73980E-05   -0.10837E-04 11893   0.220E-02    0.329E-03
RMM:  22    -0.654271072253E+03   -0.47226E-05   -0.83688E-05 11043   0.203E-02
   4 F= -.65427107E+03 E0= -.65420571E+03  d E =-.187171E+03
 curvature:  -0.09 expect dE=-0.324E+00 dE for cont linesearch -0.709E-01
 ZBRENT: interpolating
 opt :   0.7307  next Energy=  -654.380704 (dE=-0.187E+03)
 bond charge predicted
       N       E                     dE             d eps       ncg     rms          rms(c)
DAV:   1    -0.654907909710E+03   -0.63684E+00   -0.14835E+01 11200   0.113E+01    0.464E+00
RMM:   2    -0.654813039164E+03    0.94871E-01   -0.24692E+00 12083   0.405E+00    0.423E+00
RMM:   3    -0.654489115551E+03    0.32392E+00   -0.59349E-01 12695   0.184E+00    0.211E+00
RMM:   4    -0.654424579265E+03    0.64536E-01   -0.27774E-01 12916   0.100E+00    0.116E+00
RMM:   5    -0.654405803084E+03    0.18776E-01   -0.11861E-01 13082   0.680E-01    0.672E-01
RMM:   6    -0.654399604261E+03    0.61988E-02   -0.33107E-02 14022   0.360E-01    0.303E-01
RMM:   7    -0.654399216387E+03    0.38787E-03   -0.96025E-03 14671   0.194E-01    0.204E-01
RMM:   8    -0.654399134242E+03    0.82145E-04   -0.37380E-03 14982   0.119E-01    0.962E-02
RMM:   9    -0.654399469533E+03   -0.33529E-03   -0.18157E-03 14931   0.790E-02    0.635E-02
RMM:  10    -0.654399650337E+03   -0.18080E-03   -0.11065E-03 14819   0.591E-02    0.347E-02
RMM:  11    -0.654399761009E+03   -0.11067E-03   -0.65291E-04 14480   0.438E-02    0.283E-02
RMM:  12    -0.654399814918E+03   -0.53909E-04   -0.42410E-04 14511   0.354E-02    0.280E-02
RMM:  13    -0.654399849611E+03   -0.34693E-04   -0.27272E-04 13871   0.281E-02    0.251E-02
RMM:  14    -0.654399879141E+03   -0.29530E-04   -0.18623E-04 13367   0.240E-02    0.195E-02
RMM:  15    -0.654399926760E+03   -0.47618E-04   -0.16030E-04 12576   0.231E-02    0.123E-02
RMM:  16    -0.654399939124E+03   -0.12364E-04   -0.11204E-04 12098   0.198E-02    0.570E-03
RMM:  17    -0.654399943780E+03   -0.46558E-05   -0.66198E-05 10361   0.167E-02
   5 F= -.65439994E+03 E0= -.65433613E+03  d E =-.187300E+03
 curvature:  -0.14 expect dE=-0.417E+00 dE for cont linesearch -0.690E-04
 trial: gam= 0.00996 g(F)=  0.289E+01 g(S)=  0.491E-02 ort =-0.399E+00 (trialstep = 0.946E+00)
 search vector abs. value=  0.292E+01
 bond charge predicted
       N       E                     dE             d eps       ncg     rms          rms(c)
DAV:   1    -0.653939527432E+03    0.46041E+00   -0.38171E+02  8624   0.491E+01    0.323E+00
RMM:   2    -0.655816931372E+03   -0.18774E+01   -0.21642E+01 12623   0.123E+01    0.264E+00
RMM:   3    -0.656120385756E+03   -0.30345E+00   -0.45151E+00 13986   0.466E+00    0.168E+00
RMM:   4    -0.656110875466E+03    0.95103E-02   -0.71743E-01 13742   0.169E+00    0.108E+00
RMM:   5    -0.656120838770E+03   -0.99633E-02   -0.32434E-01 14411   0.936E-01    0.923E-01
RMM:   6    -0.656117486244E+03    0.33525E-02   -0.16951E-01 13857   0.658E-01    0.414E-01
RMM:   7    -0.656124384460E+03   -0.68982E-02   -0.10063E-01 14978   0.449E-01    0.330E-01
RMM:   8    -0.656128305349E+03   -0.39209E-02   -0.55090E-02 15124   0.318E-01    0.208E-01
RMM:   9    -0.656131352199E+03   -0.30469E-02   -0.35530E-02 15192   0.244E-01    0.156E-01
RMM:  10    -0.656133064622E+03   -0.17124E-02   -0.20301E-02 15081   0.189E-01    0.122E-01
RMM:  11    -0.656134196505E+03   -0.11319E-02   -0.12927E-02 15060   0.152E-01    0.789E-02
RMM:  12    -0.656134881783E+03   -0.68528E-03   -0.77544E-03 14790   0.123E-01    0.405E-02
RMM:  13    -0.656135295183E+03   -0.41340E-03   -0.49160E-03 14540   0.977E-02    0.199E-02
RMM:  14    -0.656135578140E+03   -0.28296E-03   -0.31799E-03 14222   0.787E-02    0.167E-02
RMM:  15    -0.656135756305E+03   -0.17816E-03   -0.20240E-03 14042   0.644E-02    0.128E-02
RMM:  16    -0.656135874066E+03   -0.11776E-03   -0.13297E-03 13903   0.531E-02    0.599E-03
RMM:  17    -0.656135952204E+03   -0.78137E-04   -0.88663E-04 13806   0.444E-02    0.430E-03
RMM:  18    -0.656136007191E+03   -0.54988E-04   -0.61817E-04 13614   0.369E-02    0.258E-03
RMM:  19    -0.656136045083E+03   -0.37892E-04   -0.42673E-04 13245   0.311E-02    0.344E-03
RMM:  20    -0.656136071842E+03   -0.26759E-04   -0.30261E-04 12757   0.264E-02    0.157E-03
RMM:  21    -0.656136090605E+03   -0.18762E-04   -0.21476E-04 12109   0.228E-02    0.148E-03
RMM:  22    -0.656136103584E+03   -0.12980E-04   -0.15128E-04 10995   0.199E-02    0.127E-03
RMM:  23    -0.656136112758E+03   -0.91736E-05   -0.11214E-04 10391   0.181E-02    0.876E-04
RMM:  24    -0.656136119404E+03   -0.66460E-05   -0.84615E-05  9671   0.168E-02
   6 F= -.65613612E+03 E0= -.65607790E+03  d E =-.173618E+01
 trial-energy change:   -1.736176  1 .order   -1.718067   -2.739267   -0.696868
 step:   1.2478(harm=  1.2690)  dis= 0.08387  next Energy=  -656.247798 (dE=-0.185E+01)
 bond charge predicted
       N       E                     dE             d eps       ncg     rms          rms(c)
DAV:   1    -0.656021334286E+03    0.11478E+00   -0.38938E+01  9408   0.157E+01    0.101E+00
RMM:   2    -0.656208800933E+03   -0.18747E+00   -0.21855E+00 12582   0.394E+00    0.773E-01
RMM:   3    -0.656244832333E+03   -0.36031E-01   -0.47161E-01 13991   0.150E+00    0.523E-01
RMM:   4    -0.656244249887E+03    0.58245E-03   -0.72750E-02 13671   0.528E-01    0.335E-01
RMM:   5    -0.656245557840E+03   -0.13080E-02   -0.32877E-02 14431   0.296E-01    0.296E-01
RMM:   6    -0.656245123450E+03    0.43439E-03   -0.17359E-02 13784   0.214E-01    0.120E-01
RMM:   7    -0.656245965852E+03   -0.84240E-03   -0.10676E-02 14855   0.145E-01    0.104E-01
RMM:   8    -0.656246392824E+03   -0.42697E-03   -0.58403E-03 14668   0.104E-01    0.652E-02
RMM:   9    -0.656246730274E+03   -0.33745E-03   -0.38006E-03 13873   0.807E-02    0.538E-02
RMM:  10    -0.656246917925E+03   -0.18765E-03   -0.21542E-03 13536   0.622E-02    0.420E-02
RMM:  11    -0.656247039476E+03   -0.12155E-03   -0.13615E-03 13289   0.502E-02    0.243E-02
RMM:  12    -0.656247111710E+03   -0.72233E-04   -0.81970E-04 13192   0.412E-02    0.126E-02
RMM:  13    -0.656247156037E+03   -0.44327E-04   -0.53655E-04 12834   0.327E-02    0.610E-03
RMM:  14    -0.656247186165E+03   -0.30129E-04   -0.34351E-04 12548   0.264E-02    0.514E-03
RMM:  15    -0.656247205233E+03   -0.19068E-04   -0.21890E-04 12254   0.215E-02    0.410E-03
RMM:  16    -0.656247217366E+03   -0.12133E-04   -0.13983E-04 11690   0.178E-02    0.202E-03
RMM:  17    -0.656247224128E+03   -0.67619E-05   -0.82790E-05 10427   0.151E-02
   7 F= -.65624722E+03 E0= -.65618929E+03  d E =-.184728E+01
 curvature:  -0.64 expect dE=-0.430E+00 dE for cont linesearch -0.153E-04
 trial: gam= 0.19845 g(F)=  0.307E+00 g(S)=  0.366E+00 ort =-0.836E-02 (trialstep = 0.101E+01)
 search vector abs. value=  0.785E+00
 bond charge predicted
       N       E                     dE             d eps       ncg     rms          rms(c)
DAV:   1    -0.657102265240E+03   -0.85505E+00   -0.11679E+02  8792   0.316E+01    0.785E+00
RMM:   2    -0.657927102416E+03   -0.82484E+00   -0.15163E+01 13038   0.105E+01    0.800E+00
RMM:   3    -0.656766072107E+03    0.11610E+01   -0.34667E+00 13711   0.426E+00    0.393E+00
RMM:   4    -0.656580624350E+03    0.18545E+00   -0.10338E+00 13924   0.209E+00    0.312E+00
RMM:   5    -0.656420109830E+03    0.16051E+00   -0.48559E-01 13704   0.143E+00    0.162E+00
RMM:   6    -0.656390675129E+03    0.29435E-01   -0.27172E-01 14336   0.108E+00    0.791E-01
RMM:   7    -0.656385414089E+03    0.52610E-02   -0.87088E-02 14726   0.587E-01    0.493E-01
RMM:   8    -0.656384407922E+03    0.10062E-02   -0.44435E-02 15245   0.375E-01    0.252E-01
RMM:   9    -0.656385979717E+03   -0.15718E-02   -0.27751E-02 15204   0.280E-01    0.158E-01
RMM:  10    -0.656387436518E+03   -0.14568E-02   -0.18058E-02 15311   0.228E-01    0.108E-01
RMM:  11    -0.656388511892E+03   -0.10754E-02   -0.12269E-02 15237   0.184E-01    0.745E-02
RMM:  12    -0.656389322619E+03   -0.81073E-03   -0.86194E-03 15281   0.156E-01    0.577E-02
RMM:  13    -0.656389915445E+03   -0.59283E-03   -0.63451E-03 15143   0.133E-01    0.450E-02
RMM:  14    -0.656390322497E+03   -0.40705E-03   -0.45602E-03 15183   0.113E-01    0.310E-02
RMM:  15    -0.656390624742E+03   -0.30224E-03   -0.34078E-03 14852   0.950E-02    0.210E-02
RMM:  16    -0.656390853860E+03   -0.22912E-03   -0.25512E-03 14675   0.814E-02    0.858E-03
RMM:  17    -0.656391028930E+03   -0.17507E-03   -0.19141E-03 14634   0.692E-02    0.763E-03
RMM:  18    -0.656391163550E+03   -0.13462E-03   -0.14745E-03 14543   0.597E-02    0.777E-03
RMM:  19    -0.656391269482E+03   -0.10593E-03   -0.11616E-03 14263   0.519E-02    0.870E-03
RMM:  20    -0.656391355940E+03   -0.86457E-04   -0.92334E-04 13957   0.456E-02    0.201E-02
RMM:  21    -0.656391421370E+03   -0.65430E-04   -0.72626E-04 13038   0.398E-02    0.172E-02
RMM:  22    -0.656391471753E+03   -0.50383E-04   -0.57172E-04 11914   0.358E-02    0.933E-03
RMM:  23    -0.656391513194E+03   -0.41441E-04   -0.46457E-04 11005   0.325E-02    0.959E-03
RMM:  24    -0.656391546133E+03   -0.32939E-04   -0.37335E-04 10143   0.297E-02    0.112E-02
RMM:  25    -0.656391571574E+03   -0.25441E-04   -0.30704E-04  9785   0.277E-02    0.731E-03
RMM:  26    -0.656391593346E+03   -0.21772E-04   -0.25642E-04  9609   0.259E-02    0.659E-03
RMM:  27    -0.656391611064E+03   -0.17718E-04   -0.20988E-04  9158   0.240E-02    0.672E-03
RMM:  28    -0.656391625981E+03   -0.14917E-04   -0.17923E-04  9125   0.228E-02    0.823E-03
RMM:  29    -0.656391637936E+03   -0.11955E-04   -0.14786E-04  8776   0.213E-02    0.846E-03
RMM:  30    -0.656391648090E+03   -0.10154E-04   -0.12742E-04  8850   0.203E-02    0.916E-03
RMM:  31    -0.656391656423E+03   -0.83327E-05   -0.10740E-04  8594   0.191E-02    0.937E-03
RMM:  32    -0.656391663517E+03   -0.70942E-05   -0.93546E-05  8627   0.183E-02
   8 F= -.65639166E+03 E0= -.65632877E+03  d E =-.144439E+00
 trial-energy change:   -0.144439  1 .order   -0.151957   -0.675856    0.371943
 step:   0.6392(harm=  0.6492)  dis= 0.02335  next Energy=  -656.459900 (dE=-0.213E+00)
 bond charge predicted
       N       E                     dE             d eps       ncg     rms          rms(c)
DAV:   1    -0.656555028294E+03   -0.16337E+00   -0.15429E+01  9464   0.115E+01    0.275E+00
RMM:   2    -0.656603146045E+03   -0.48118E-01   -0.18879E+00 12969   0.375E+00    0.253E+00
RMM:   3    -0.656504437789E+03    0.98708E-01   -0.44415E-01 13811   0.158E+00    0.145E+00
RMM:   4    -0.656475692771E+03    0.28745E-01   -0.12754E-01 13737   0.774E-01    0.941E-01
RMM:   5    -0.656462673882E+03    0.13019E-01   -0.60563E-02 13881   0.530E-01    0.543E-01
RMM:   6    -0.656458619489E+03    0.40544E-02   -0.26342E-02 14396   0.338E-01    0.243E-01
RMM:   7    -0.656458318997E+03    0.30049E-03   -0.93238E-03 14821   0.198E-01    0.145E-01
RMM:   8    -0.656458348128E+03   -0.29130E-04   -0.49492E-03 15142   0.129E-01    0.752E-02
RMM:   9    -0.656458635731E+03   -0.28760E-03   -0.34001E-03 14946   0.984E-02    0.576E-02
RMM:  10    -0.656458821058E+03   -0.18533E-03   -0.22473E-03 14810   0.796E-02    0.283E-02
RMM:  11    -0.656458984206E+03   -0.16315E-03   -0.16017E-03 14482   0.642E-02    0.231E-02
RMM:  12    -0.656459099140E+03   -0.11493E-03   -0.11129E-03 14280   0.547E-02    0.196E-02
RMM:  13    -0.656459184195E+03   -0.85056E-04   -0.81063E-04 14071   0.461E-02    0.144E-02
RMM:  14    -0.656459242768E+03   -0.58572E-04   -0.58920E-04 13842   0.393E-02    0.867E-03
RMM:  15    -0.656459285323E+03   -0.42555E-04   -0.44851E-04 13440   0.339E-02    0.479E-03
RMM:  16    -0.656459316796E+03   -0.31473E-04   -0.33642E-04 12767   0.287E-02    0.315E-03
RMM:  17    -0.656459339051E+03   -0.22254E-04   -0.24322E-04 10832   0.249E-02    0.285E-03
RMM:  18    -0.656459355888E+03   -0.16837E-04   -0.19164E-04 10159   0.228E-02    0.349E-03
RMM:  19    -0.656459368501E+03   -0.12613E-04   -0.14869E-04  9073   0.210E-02    0.649E-03
RMM:  20    -0.656459379108E+03   -0.10608E-04   -0.12829E-04  9150   0.199E-02    0.521E-03
RMM:  21    -0.656459387113E+03   -0.80044E-05   -0.10115E-04  8575   0.186E-02    0.379E-03
RMM:  22    -0.656459394013E+03   -0.69006E-05   -0.88260E-05  8618   0.176E-02
   9 F= -.65645939E+03 E0= -.65639829E+03  d E =-.212170E+00
 curvature:  -0.38 expect dE=-0.144E+00 dE for cont linesearch -0.459E-05
 trial: gam= 0.58699 g(F)=  0.206E+00 g(S)=  0.175E+00 ort =-0.308E-02 (trialstep = 0.933E+00)
 search vector abs. value=  0.648E+00
 bond charge predicted
       N       E                     dE             d eps       ncg     rms          rms(c)
DAV:   1    -0.655985615672E+03    0.47377E+00   -0.80483E+01  9016   0.240E+01    0.188E+00
RMM:   2    -0.656560325009E+03   -0.57471E+00   -0.66680E+00 12709   0.630E+00    0.125E+00
RMM:   3    -0.656686657244E+03   -0.12633E+00   -0.14225E+00 14219   0.249E+00    0.112E+00
RMM:   4    -0.656680425652E+03    0.62316E-02   -0.20509E-01 13794   0.869E-01    0.612E-01
RMM:   5    -0.656683413769E+03   -0.29881E-02   -0.94294E-02 14378   0.492E-01    0.510E-01
RMM:   6    -0.656681853800E+03    0.15600E-02   -0.51228E-02 13615   0.386E-01    0.244E-01
RMM:   7    -0.656683829373E+03   -0.19756E-02   -0.30783E-02 14736   0.253E-01    0.151E-01
RMM:   8    -0.656684977942E+03   -0.11486E-02   -0.16852E-02 14674   0.181E-01    0.100E-01
RMM:   9    -0.656685892156E+03   -0.91421E-03   -0.10914E-02 14786   0.136E-01    0.741E-02
RMM:  10    -0.656686452492E+03   -0.56034E-03   -0.63700E-03 14454   0.105E-01    0.536E-02
RMM:  11    -0.656686803710E+03   -0.35122E-03   -0.38722E-03 13943   0.826E-02    0.420E-02
RMM:  12    -0.656687030334E+03   -0.22662E-03   -0.24065E-03 13867   0.681E-02    0.231E-02
RMM:  13    -0.656687162739E+03   -0.13241E-03   -0.15431E-03 13604   0.546E-02    0.104E-02
RMM:  14    -0.656687251556E+03   -0.88817E-04   -0.10079E-03 13474   0.439E-02    0.781E-03
RMM:  15    -0.656687308354E+03   -0.56798E-04   -0.64362E-04 13361   0.360E-02    0.589E-03
RMM:  16    -0.656687345891E+03   -0.37536E-04   -0.42365E-04 13162   0.296E-02    0.356E-03
RMM:  17    -0.656687370343E+03   -0.24452E-04   -0.27740E-04 12642   0.248E-02    0.219E-03
RMM:  18    -0.656687386979E+03   -0.16636E-04   -0.18836E-04 12098   0.210E-02    0.148E-03
RMM:  19    -0.656687397658E+03   -0.10679E-04   -0.12421E-04 11271   0.182E-02    0.111E-03
RMM:  20    -0.656687404508E+03   -0.68499E-05   -0.84050E-05 10258   0.162E-02
  10 F= -.65668740E+03 E0= -.65662360E+03  d E =-.228010E+00
 trial-energy change:   -0.228010  1 .order   -0.224185   -0.353622   -0.094748
 step:   1.2385(harm=  1.2745)  dis= 0.05739  next Energy=  -656.703052 (dE=-0.244E+00)
 bond charge predicted
       N       E                     dE             d eps       ncg     rms          rms(c)
DAV:   1    -0.656626695331E+03    0.60702E-01   -0.86134E+00  9800   0.786E+00    0.617E-01
RMM:   2    -0.656689188762E+03   -0.62493E-01   -0.72400E-01 12796   0.208E+00    0.420E-01
RMM:   3    -0.656702649910E+03   -0.13461E-01   -0.15370E-01 14187   0.813E-01    0.368E-01
RMM:   4    -0.656702126660E+03    0.52325E-03   -0.23077E-02 13843   0.291E-01    0.202E-01
RMM:   5    -0.656702503653E+03   -0.37699E-03   -0.10802E-02 14392   0.166E-01    0.168E-01
RMM:   6    -0.656702362030E+03    0.14162E-03   -0.58444E-03 13597   0.130E-01    0.771E-02
RMM:   7    -0.656702613475E+03   -0.25144E-03   -0.35551E-03 14553   0.856E-02    0.508E-02
RMM:   8    -0.656702753543E+03   -0.14007E-03   -0.19728E-03 13897   0.626E-02    0.326E-02
RMM:   9    -0.656702862791E+03   -0.10925E-03   -0.12679E-03 13250   0.479E-02    0.248E-02
RMM:  10    -0.656702929924E+03   -0.67133E-04   -0.74631E-04 12818   0.364E-02    0.180E-02
RMM:  11    -0.656702973015E+03   -0.43091E-04   -0.45863E-04 12590   0.292E-02    0.142E-02
RMM:  12    -0.656703001363E+03   -0.28348E-04   -0.28343E-04 12340   0.241E-02    0.714E-03
RMM:  13    -0.656703017336E+03   -0.15973E-04   -0.17938E-04 11828   0.196E-02    0.342E-03
RMM:  14    -0.656703027037E+03   -0.97015E-05   -0.11398E-04 11170   0.159E-02    0.229E-03
RMM:  15    -0.656703031908E+03   -0.48703E-05   -0.62997E-05  9831   0.141E-02
  11 F= -.65670303E+03 E0= -.65663881E+03  d E =-.243638E+00
 curvature:  -1.08 expect dE=-0.206E+00 dE for cont linesearch -0.105E-04
 trial: gam= 0.51735 g(F)=  0.177E+00 g(S)=  0.138E-01 ort =-0.251E-02 (trialstep = 0.994E+00)
 search vector abs. value=  0.362E+00
 bond charge predicted
       N       E                     dE             d eps       ncg     rms          rms(c)
DAV:   1    -0.656535059517E+03    0.16797E+00   -0.51152E+01  8624   0.168E+01    0.140E+00
RMM:   2    -0.656793904043E+03   -0.25884E+00   -0.31121E+00 12867   0.439E+00    0.904E-01
RMM:   3    -0.656853366191E+03   -0.59462E-01   -0.69209E-01 13982   0.172E+00    0.753E-01
RMM:   4    -0.656851124582E+03    0.22416E-02   -0.98096E-02 13969   0.611E-01    0.430E-01
RMM:   5    -0.656852062685E+03   -0.93810E-03   -0.41634E-02 14224   0.345E-01    0.353E-01
RMM:   6    -0.656851478887E+03    0.58380E-03   -0.21625E-02 13830   0.240E-01    0.157E-01
RMM:   7    -0.656852191997E+03   -0.71311E-03   -0.11846E-02 14760   0.161E-01    0.103E-01
RMM:   8    -0.656852594784E+03   -0.40279E-03   -0.68277E-03 14644   0.113E-01    0.592E-02
RMM:   9    -0.656852926227E+03   -0.33144E-03   -0.42066E-03 14416   0.851E-02    0.389E-02
RMM:  10    -0.656853124532E+03   -0.19831E-03   -0.23954E-03 14079   0.647E-02    0.275E-02
RMM:  11    -0.656853249655E+03   -0.12512E-03   -0.14619E-03 13522   0.510E-02    0.193E-02
RMM:  12    -0.656853324927E+03   -0.75271E-04   -0.88203E-04 13227   0.408E-02    0.121E-02
RMM:  13    -0.656853373061E+03   -0.48134E-04   -0.56409E-04 12920   0.328E-02    0.606E-03
RMM:  14    -0.656853405482E+03   -0.32421E-04   -0.36158E-04 12648   0.266E-02    0.533E-03
RMM:  15    -0.656853426121E+03   -0.20639E-04   -0.23000E-04 12218   0.220E-02    0.295E-03
RMM:  16    -0.656853439556E+03   -0.13434E-04   -0.14990E-04 11477   0.183E-02    0.161E-03
RMM:  17    -0.656853447248E+03   -0.76926E-05   -0.90586E-05 10042   0.158E-02
  12 F= -.65685345E+03 E0= -.65678949E+03  d E =-.150415E+00
 trial-energy change:   -0.150415  1 .order   -0.145989   -0.188457   -0.103522
 step:   1.7721(harm=  2.2058)  dis= 0.08748  next Energy=  -656.896079 (dE=-0.193E+00)
 bond charge predicted
       N       E                     dE             d eps       ncg     rms          rms(c)
DAV:   1    -0.656699356475E+03    0.15408E+00   -0.31239E+01  8624   0.131E+01    0.108E+00
RMM:   2    -0.656854493865E+03   -0.15514E+00   -0.18933E+00 12834   0.343E+00    0.635E-01
RMM:   3    -0.656895695702E+03   -0.41202E-01   -0.43938E-01 13920   0.136E+00    0.604E-01
RMM:   4    -0.656894650209E+03    0.10455E-02   -0.64402E-02 14138   0.495E-01    0.347E-01
RMM:   5    -0.656895200157E+03   -0.54995E-03   -0.25215E-02 14397   0.261E-01    0.292E-01
RMM:   6    -0.656894657607E+03    0.54255E-03   -0.13527E-02 13824   0.195E-01    0.147E-01
RMM:   7    -0.656894984697E+03   -0.32709E-03   -0.73009E-03 14549   0.135E-01    0.812E-02
RMM:   8    -0.656895193941E+03   -0.20924E-03   -0.41224E-03 14451   0.938E-02    0.421E-02
RMM:   9    -0.656895405864E+03   -0.21192E-03   -0.26786E-03 14115   0.703E-02    0.305E-02
RMM:  10    -0.656895532527E+03   -0.12666E-03   -0.15353E-03 13869   0.536E-02    0.215E-02
RMM:  11    -0.656895611930E+03   -0.79403E-04   -0.94050E-04 13267   0.418E-02    0.157E-02
RMM:  12    -0.656895660403E+03   -0.48473E-04   -0.57748E-04 13062   0.340E-02    0.951E-03
RMM:  13    -0.656895691643E+03   -0.31239E-04   -0.36641E-04 12747   0.273E-02    0.491E-03
RMM:  14    -0.656895712857E+03   -0.21215E-04   -0.23788E-04 12384   0.224E-02    0.313E-03
RMM:  15    -0.656895726136E+03   -0.13279E-04   -0.14849E-04 11749   0.186E-02    0.212E-03
RMM:  16    -0.656895733595E+03   -0.74590E-05   -0.87995E-05 10270   0.159E-02
  13 F= -.65689573E+03 E0= -.65683360E+03  d E =-.192702E+00
 curvature:  -1.83 expect dE=-0.300E+00 dE for cont linesearch -0.538E-04
 trial: gam= 0.57419 g(F)=  0.153E+00 g(S)=  0.111E-01 ort =-0.326E-02 (trialstep = 0.115E+01)
 search vector abs. value=  0.279E+00
 bond charge predicted
       N       E                     dE             d eps       ncg     rms          rms(c)
DAV:   1    -0.656608424831E+03    0.28730E+00   -0.50941E+01  8624   0.191E+01    0.167E+00
RMM:   2    -0.656925134109E+03   -0.31671E+00   -0.39793E+00 12838   0.494E+00    0.942E-01
RMM:   3    -0.657005492598E+03   -0.80358E-01   -0.90943E-01 14061   0.199E+00    0.851E-01
RMM:   4    -0.657004148492E+03    0.13441E-02   -0.14985E-01 13965   0.748E-01    0.471E-01
RMM:   5    -0.657004862610E+03   -0.71412E-03   -0.56996E-02 14173   0.420E-01    0.344E-01
RMM:   6    -0.657005337402E+03   -0.47479E-03   -0.31506E-02 13916   0.283E-01    0.187E-01
RMM:   7    -0.657006296280E+03   -0.95888E-03   -0.17385E-02 14728   0.191E-01    0.100E-01
RMM:   8    -0.657007053937E+03   -0.75766E-03   -0.10484E-02 14636   0.137E-01    0.583E-02
RMM:   9    -0.657007584246E+03   -0.53031E-03   -0.62647E-03 14411   0.105E-01    0.467E-02
RMM:  10    -0.657007900824E+03   -0.31658E-03   -0.36882E-03 14195   0.799E-02    0.341E-02
RMM:  11    -0.657008087725E+03   -0.18690E-03   -0.21740E-03 13699   0.630E-02    0.228E-02
RMM:  12    -0.657008205695E+03   -0.11797E-03   -0.13474E-03 13505   0.508E-02    0.141E-02
RMM:  13    -0.657008279714E+03   -0.74019E-04   -0.85469E-04 13373   0.409E-02    0.781E-03
RMM:  14    -0.657008330108E+03   -0.50394E-04   -0.55980E-04 13093   0.332E-02    0.529E-03
RMM:  15    -0.657008361455E+03   -0.31347E-04   -0.35105E-04 12744   0.270E-02    0.352E-03
RMM:  16    -0.657008382036E+03   -0.20581E-04   -0.22983E-04 12198   0.224E-02    0.196E-03
RMM:  17    -0.657008394935E+03   -0.12899E-04   -0.14611E-04 11356   0.188E-02    0.120E-03
RMM:  18    -0.657008402800E+03   -0.78651E-05   -0.93564E-05 10259   0.167E-02
  14 F= -.65700840E+03 E0= -.65694858E+03  d E =-.112669E+00
 trial-energy change:   -0.112669  1 .order   -0.110240   -0.186076   -0.034405
 step:   1.3835(harm=  1.4105)  dis= 0.03500  next Energy=  -657.011921 (dE=-0.116E+00)
 bond charge predicted
       N       E                     dE             d eps       ncg     rms          rms(c)
DAV:   1    -0.656995567198E+03    0.12828E-01   -0.21027E+00 10108   0.389E+00    0.338E-01
RMM:   2    -0.657008674435E+03   -0.13107E-01   -0.16496E-01 12909   0.998E-01    0.188E-01
RMM:   3    -0.657011970735E+03   -0.32963E-02   -0.37676E-02 14094   0.402E-01    0.167E-01
RMM:   4    -0.657011968730E+03    0.20052E-05   -0.64866E-03 13940   0.152E-01    0.958E-02
RMM:   5    -0.657012002463E+03   -0.33733E-04   -0.24908E-03 13819   0.879E-02    0.688E-02
RMM:   6    -0.657012046729E+03   -0.44266E-04   -0.14440E-03 13600   0.605E-02    0.435E-02
RMM:   7    -0.657012084242E+03   -0.37513E-04   -0.81472E-04 13292   0.426E-02    0.196E-02
RMM:   8    -0.657012121698E+03   -0.37456E-04   -0.50649E-04 12539   0.321E-02    0.117E-02
RMM:   9    -0.657012146286E+03   -0.24588E-04   -0.30132E-04 12180   0.243E-02    0.891E-03
WARNING in EDDRMM: call to ZHEGV failed, returncode =   6  3      4
RMM:  10    -0.657012161215E+03   -0.14929E-04   -0.17865E-04 11642   0.191E-02    0.636E-03
RMM:  11    -0.657012169334E+03   -0.81184E-05   -0.10302E-04 10935   0.152E-02    0.429E-03
RMM:  12    -0.657012172929E+03   -0.35947E-05   -0.53392E-05  9557   0.133E-02
  15 F= -.65701217E+03 E0= -.65695281E+03  d E =-.116439E+00
 curvature:  -1.20 expect dE=-0.147E+00 dE for cont linesearch -0.428E-05
 trial: gam= 0.53046 g(F)=  0.885E-01 g(S)=  0.337E-01 ort = 0.996E-03 (trialstep = 0.120E+01)
 search vector abs. value=  0.202E+00
 bond charge predicted
       N       E                     dE             d eps       ncg     rms          rms(c)
DAV:   1    -0.656831477970E+03    0.18069E+00   -0.40430E+01  8624   0.172E+01    0.220E+00
RMM:   2    -0.657093081399E+03   -0.26160E+00   -0.36279E+00 12957   0.472E+00    0.171E+00
RMM:   3    -0.657105997060E+03   -0.12916E-01   -0.79790E-01 13859   0.194E+00    0.118E+00
RMM:   4    -0.657089915933E+03    0.16081E-01   -0.14593E-01 13744   0.791E-01    0.666E-01
RMM:   5    -0.657086745258E+03    0.31707E-02   -0.62957E-02 14120   0.485E-01    0.412E-01
RMM:   6    -0.657085509169E+03    0.12361E-02   -0.30347E-02 14257   0.306E-01    0.185E-01
RMM:   7    -0.657086252676E+03   -0.74351E-03   -0.15813E-02 14923   0.196E-01    0.102E-01
RMM:   8    -0.657086990082E+03   -0.73741E-03   -0.92874E-03 15048   0.137E-01    0.701E-02
RMM:   9    -0.657087471004E+03   -0.48092E-03   -0.54595E-03 14785   0.104E-01    0.464E-02
RMM:  10    -0.657087795718E+03   -0.32471E-03   -0.33784E-03 14106   0.824E-02    0.338E-02
RMM:  11    -0.657088001771E+03   -0.20605E-03   -0.20245E-03 13936   0.666E-02    0.184E-02
RMM:  12    -0.657088130674E+03   -0.12890E-03   -0.13294E-03 13669   0.539E-02    0.122E-02
RMM:  13    -0.657088210393E+03   -0.79719E-04   -0.86424E-04 13407   0.442E-02    0.927E-03
RMM:  14    -0.657088262023E+03   -0.51630E-04   -0.56810E-04 13197   0.361E-02    0.648E-03
RMM:  15    -0.657088296625E+03   -0.34602E-04   -0.37782E-04 12977   0.299E-02    0.274E-03
RMM:  16    -0.657088320207E+03   -0.23582E-04   -0.25777E-04 12499   0.249E-02    0.219E-03
RMM:  17    -0.657088335918E+03   -0.15711E-04   -0.17427E-04 11675   0.213E-02    0.207E-03
RMM:  18    -0.657088345841E+03   -0.99228E-05   -0.11348E-04 10055   0.186E-02    0.176E-03
RMM:  19    -0.657088353173E+03   -0.73323E-05   -0.90012E-05  9897   0.175E-02
  16 F= -.65708835E+03 E0= -.65703063E+03  d E =-.761802E-01
 trial-energy change:   -0.076180  1 .order   -0.072921   -0.146851    0.001010
 step:   1.1892(harm=  1.1883)  dis= 0.02930  next Energy=  -657.088356 (dE=-0.762E-01)
 bond charge predicted
       N       E                     dE             d eps       ncg     rms          rms(c)
DAV:   1    -0.657088380081E+03   -0.34240E-04   -0.18506E-03 10108   0.108E-01    0.165E-02
RMM:   2    -0.657088390820E+03   -0.10740E-04   -0.15732E-04 12298   0.320E-02    0.120E-02
RMM:   3    -0.657088391511E+03   -0.69104E-06   -0.36037E-05  6646   0.132E-02
  17 F= -.65708839E+03 E0= -.65703066E+03  d E =-.762186E-01
 curvature:  -0.96 expect dE=-0.137E+00 dE for cont linesearch -0.736E-06
 trial: gam= 1.08061 g(F)=  0.565E-01 g(S)=  0.859E-01 ort = 0.393E-03 (trialstep = 0.636E+00)
 search vector abs. value=  0.379E+00
 bond charge predicted
       N       E                     dE             d eps       ncg     rms          rms(c)
DAV:   1    -0.657010537324E+03    0.77853E-01   -0.21720E+01  8624   0.123E+01    0.151E+00
RMM:   2    -0.657127541244E+03   -0.11700E+00   -0.17453E+00 12800   0.331E+00    0.105E+00
RMM:   3    -0.657144803761E+03   -0.17263E-01   -0.41025E-01 13809   0.136E+00    0.806E-01
RMM:   4    -0.657137065903E+03    0.77379E-02   -0.73200E-02 13566   0.577E-01    0.390E-01
RMM:   5    -0.657136961513E+03    0.10439E-03   -0.30690E-02 14368   0.336E-01    0.298E-01
RMM:   6    -0.657136379842E+03    0.58167E-03   -0.14638E-02 14498   0.217E-01    0.117E-01
RMM:   7    -0.657136899233E+03   -0.51939E-03   -0.85530E-03 15206   0.136E-01    0.696E-02
RMM:   8    -0.657137262614E+03   -0.36338E-03   -0.49666E-03 14843   0.993E-02    0.430E-02
RMM:   9    -0.657137509979E+03   -0.24736E-03   -0.30172E-03 14432   0.765E-02    0.290E-02
RMM:  10    -0.657137663956E+03   -0.15398E-03   -0.17956E-03 13998   0.604E-02    0.211E-02
RMM:  11    -0.657137756044E+03   -0.92088E-04   -0.10864E-03 13695   0.481E-02    0.127E-02
WARNING in EDDRMM: call to ZHEGV failed, returncode =   8  4      4
RMM:  12    -0.657137817601E+03   -0.61557E-04   -0.70695E-04 13433   0.396E-02    0.853E-03
RMM:  13    -0.657137856924E+03   -0.39323E-04   -0.44775E-04 13186   0.318E-02    0.600E-03
RMM:  14    -0.657137883421E+03   -0.26497E-04   -0.29378E-04 12835   0.266E-02    0.373E-03
RMM:  15    -0.657137900518E+03   -0.17097E-04   -0.19121E-04 12376   0.218E-02    0.208E-03
RMM:  16    -0.657137911369E+03   -0.10851E-04   -0.12335E-04 11388   0.187E-02    0.155E-03
RMM:  17    -0.657137917692E+03   -0.63231E-05   -0.77202E-05 10030   0.164E-02
  18 F= -.65713792E+03 E0= -.65708005E+03  d E =-.495262E-01
 trial-energy change:   -0.049526  1 .order   -0.049226   -0.090941   -0.007512
 step:   0.6924(harm=  0.6937)  dis= 0.02393  next Energy=  -657.138248 (dE=-0.499E-01)
 bond charge predicted
       N       E                     dE             d eps       ncg     rms          rms(c)
DAV:   1    -0.657137334297E+03    0.57707E-03   -0.16775E-01 10332   0.108E+00    0.133E-01
RMM:   2    -0.657138234052E+03   -0.89975E-03   -0.13544E-02 12926   0.292E-01    0.903E-02
RMM:   3    -0.657138383402E+03   -0.14935E-03   -0.32990E-03 13969   0.121E-01    0.709E-02
WARNING in EDDRMM: call to ZHEGV failed, returncode =   8  4      6
RMM:   4    -0.657138325611E+03    0.57791E-04   -0.64464E-04 13425   0.534E-02    0.339E-02
RMM:   5    -0.657138326852E+03   -0.12404E-05   -0.29900E-04 12808   0.333E-02    0.254E-02
RMM:   6    -0.657138324375E+03    0.24762E-05   -0.15962E-04 11450   0.245E-02    0.101E-02
RMM:   7    -0.657138328766E+03   -0.43909E-05   -0.91054E-05 10803   0.172E-02
  19 F= -.65713833E+03 E0= -.65708045E+03  d E =-.499373E-01
 curvature:  -0.92 expect dE=-0.404E-01 dE for cont linesearch -0.324E-07
 trial: gam= 0.20377 g(F)=  0.409E-01 g(S)=  0.302E-02 ort = 0.116E-03 (trialstep = 0.648E+00)
 search vector abs. value=  0.597E-01
 bond charge predicted
       N       E                     dE             d eps       ncg     rms          rms(c)
DAV:   1    -0.657130236002E+03    0.80884E-02   -0.36503E+00  9016   0.546E+00    0.371E-01
RMM:   2    -0.657155612876E+03   -0.25377E-01   -0.28493E-01 12619   0.132E+00    0.247E-01
RMM:   3    -0.657161959294E+03   -0.63464E-02   -0.69698E-02 14066   0.548E-01    0.193E-01
RMM:   4    -0.657162161458E+03   -0.20216E-03   -0.10539E-02 13695   0.190E-01    0.117E-01
RMM:   5    -0.657162295452E+03   -0.13399E-03   -0.39519E-03 14121   0.104E-01    0.863E-02
RMM:   6    -0.657162295344E+03    0.10748E-06   -0.21566E-03 13268   0.824E-02    0.377E-02
RMM:   7    -0.657162401164E+03   -0.10582E-03   -0.13530E-03 13593   0.515E-02    0.216E-02
WARNING in EDDRMM: call to ZHEGV failed, returncode =   8  4      4
RMM:   8    -0.657162455670E+03   -0.54505E-04   -0.70402E-04 12558   0.383E-02    0.144E-02
RMM:   9    -0.657162493176E+03   -0.37507E-04   -0.42411E-04 12115   0.280E-02    0.880E-03
RMM:  10    -0.657162516531E+03   -0.23354E-04   -0.25124E-04 11757   0.215E-02    0.717E-03
RMM:  11    -0.657162529658E+03   -0.13128E-04   -0.14111E-04 11130   0.169E-02    0.445E-03
RMM:  12    -0.657162537034E+03   -0.73760E-05   -0.80459E-05 10398   0.139E-02
  20 F= -.65716254E+03 E0= -.65710466E+03  d E =-.242083E-01
 trial-energy change:   -0.024208  1 .order   -0.024092   -0.028463   -0.019721
 step:   1.8387(harm=  2.1084)  dis= 0.02328  next Energy=  -657.181398 (dE=-0.431E-01)
 bond charge predicted
       N       E                     dE             d eps       ncg     rms          rms(c)
DAV:   1    -0.657074289313E+03    0.88240E-01   -0.12344E+01  8624   0.100E+01    0.684E-01
RMM:   2    -0.657160069472E+03   -0.85780E-01   -0.96429E-01 12589   0.243E+00    0.448E-01
RMM:   3    -0.657181663628E+03   -0.21594E-01   -0.23670E-01 14030   0.101E+00    0.348E-01
RMM:   4    -0.657182495965E+03   -0.83234E-03   -0.36370E-02 13766   0.355E-01    0.213E-01
RMM:   5    -0.657182967722E+03   -0.47176E-03   -0.13489E-02 14309   0.192E-01    0.158E-01
RMM:   6    -0.657182970785E+03   -0.30632E-05   -0.73025E-03 13506   0.151E-01    0.697E-02
RMM:   7    -0.657183329412E+03   -0.35863E-03   -0.46116E-03 14637   0.936E-02    0.402E-02
RMM:   8    -0.657183516156E+03   -0.18674E-03   -0.24226E-03 13739   0.675E-02    0.271E-02
RMM:   9    -0.657183645348E+03   -0.12919E-03   -0.14762E-03 13338   0.510E-02    0.178E-02
RMM:  10    -0.657183725445E+03   -0.80097E-04   -0.88089E-04 12903   0.385E-02    0.139E-02
RMM:  11    -0.657183772835E+03   -0.47389E-04   -0.51877E-04 12521   0.304E-02    0.101E-02
RMM:  12    -0.657183801404E+03   -0.28569E-04   -0.31189E-04 12212   0.246E-02    0.438E-03
RMM:  13    -0.657183819283E+03   -0.17879E-04   -0.19933E-04 11708   0.197E-02    0.321E-03
RMM:  14    -0.657183829764E+03   -0.10481E-04   -0.12075E-04 11015   0.160E-02    0.198E-03
RMM:  15    -0.657183835343E+03   -0.55795E-05   -0.68952E-05 10000   0.137E-02
  21 F= -.65718384E+03 E0= -.65712596E+03  d E =-.455066E-01
 curvature:  -1.38 expect dE=-0.353E-01 dE for cont linesearch -0.527E-03
 trial: gam= 0.44946 g(F)=  0.241E-01 g(S)=  0.146E-02 ort = 0.477E-02 (trialstep = 0.886E+00)
 search vector abs. value=  0.419E-01
 bond charge predicted
       N       E                     dE             d eps       ncg     rms          rms(c)
DAV:   1    -0.657154478014E+03    0.29352E-01   -0.48950E+00  8624   0.618E+00    0.488E-01
RMM:   2    -0.657190684591E+03   -0.36207E-01   -0.43014E-01 12154   0.166E+00    0.255E-01
RMM:   3    -0.657202093135E+03   -0.11409E-01   -0.11703E-01 14012   0.743E-01    0.245E-01
RMM:   4    -0.657202421147E+03   -0.32801E-03   -0.16908E-02 13947   0.243E-01    0.150E-01
RMM:   5    -0.657202395984E+03    0.25163E-04   -0.52926E-03 14039   0.129E-01    0.107E-01
RMM:   6    -0.657202386531E+03    0.94523E-05   -0.31490E-03 13468   0.991E-02    0.557E-02
RMM:   7    -0.657202486530E+03   -0.99998E-04   -0.18284E-03 14191   0.639E-02    0.290E-02
RMM:   8    -0.657202553044E+03   -0.66514E-04   -0.10227E-03 13394   0.472E-02    0.185E-02
RMM:   9    -0.657202600777E+03   -0.47733E-04   -0.60360E-04 12850   0.343E-02    0.129E-02
RMM:  10    -0.657202630715E+03   -0.29938E-04   -0.35945E-04 12175   0.257E-02    0.971E-03
RMM:  11    -0.657202647457E+03   -0.16742E-04   -0.21203E-04 11768   0.208E-02    0.626E-03
RMM:  12    -0.657202656915E+03   -0.94576E-05   -0.12466E-04 10990   0.165E-02    0.308E-03
RMM:  13    -0.657202663022E+03   -0.61071E-05   -0.76375E-05 10436   0.141E-02
  22 F= -.65720266E+03 E0= -.65714495E+03  d E =-.188277E-01
 trial-energy change:   -0.018828  1 .order   -0.018713   -0.024510   -0.012917
 step:   1.7686(harm=  1.8728)  dis= 0.01816  next Energy=  -657.209213 (dE=-0.254E-01)
 bond charge predicted
       N       E                     dE             d eps       ncg     rms          rms(c)
DAV:   1    -0.657161998329E+03    0.40659E-01   -0.48616E+00  8624   0.616E+00    0.487E-01
RMM:   2    -0.657197905263E+03   -0.35907E-01   -0.42692E-01 12147   0.165E+00    0.254E-01
RMM:   3    -0.657209304759E+03   -0.11399E-01   -0.11689E-01 14030   0.741E-01    0.243E-01
RMM:   4    -0.657209692453E+03   -0.38769E-03   -0.17129E-02 13952   0.244E-01    0.149E-01
RMM:   5    -0.657209679825E+03    0.12628E-04   -0.53764E-03 14078   0.130E-01    0.107E-01
RMM:   6    -0.657209677740E+03    0.20841E-05   -0.32061E-03 13512   0.997E-02    0.559E-02
RMM:   7    -0.657209781619E+03   -0.10388E-03   -0.18716E-03 14210   0.646E-02    0.290E-02
RMM:   8    -0.657209851304E+03   -0.69685E-04   -0.10571E-03 13452   0.480E-02    0.186E-02
RMM:   9    -0.657209901415E+03   -0.50111E-04   -0.62774E-04 12937   0.352E-02    0.131E-02
RMM:  10    -0.657209932769E+03   -0.31354E-04   -0.37455E-04 12240   0.263E-02    0.989E-03
RMM:  11    -0.657209950743E+03   -0.17974E-04   -0.22429E-04 11898   0.214E-02    0.659E-03
RMM:  12    -0.657209960845E+03   -0.10102E-04   -0.13194E-04 11049   0.170E-02    0.324E-03
RMM:  13    -0.657209967588E+03   -0.67432E-05   -0.83524E-05 10609   0.145E-02
  23 F= -.65720997E+03 E0= -.65715247E+03  d E =-.261322E-01
 curvature:  -1.40 expect dE=-0.404E-01 dE for cont linesearch -0.906E-04
 trial: gam= 1.17458 g(F)=  0.140E-01 g(S)=  0.149E-01 ort = 0.165E-02 (trialstep = 0.492E+00)
 search vector abs. value=  0.905E-01
 bond charge predicted
       N       E                     dE             d eps       ncg     rms          rms(c)
DAV:   1    -0.657196571997E+03    0.13389E-01   -0.32357E+00  8792   0.495E+00    0.643E-01
RMM:   2    -0.657219209559E+03   -0.22638E-01   -0.31722E-01 12553   0.145E+00    0.490E-01
RMM:   3    -0.657221600515E+03   -0.23910E-02   -0.79713E-02 13910   0.631E-01    0.327E-01
RMM:   4    -0.657220591594E+03    0.10089E-02   -0.13279E-02 13586   0.240E-01    0.185E-01
RMM:   5    -0.657220402253E+03    0.18934E-03   -0.49520E-03 14381   0.137E-01    0.125E-01
RMM:   6    -0.657220268241E+03    0.13401E-03   -0.23738E-03 14045   0.877E-02    0.542E-02
RMM:   7    -0.657220328622E+03   -0.60381E-04   -0.12486E-03 14393   0.568E-02    0.264E-02
RMM:   8    -0.657220390423E+03   -0.61801E-04   -0.72574E-04 13250   0.397E-02    0.174E-02
RMM:   9    -0.657220432805E+03   -0.42382E-04   -0.42238E-04 12806   0.306E-02    0.111E-02
RMM:  10    -0.657220460411E+03   -0.27607E-04   -0.25539E-04 12340   0.235E-02    0.869E-03
RMM:  11    -0.657220478081E+03   -0.17670E-04   -0.15309E-04 11909   0.193E-02    0.528E-03
RMM:  12    -0.657220488426E+03   -0.10345E-04   -0.92879E-05 11164   0.159E-02    0.327E-03
RMM:  13    -0.657220492047E+03   -0.36209E-05   -0.41485E-05  9155   0.138E-02
  24 F= -.65722049E+03 E0= -.65716321E+03  d E =-.105245E-01
 trial-energy change:   -0.010524  1 .order   -0.010429   -0.015130   -0.005728
 step:   0.7653(harm=  0.7912)  dis= 0.01330  next Energy=  -657.222102 (dE=-0.121E-01)
 bond charge predicted
       N       E                     dE             d eps       ncg     rms          rms(c)
DAV:   1    -0.657214673571E+03    0.58149E-02   -0.10012E+00  9408   0.275E+00    0.356E-01
RMM:   2    -0.657221732984E+03   -0.70594E-02   -0.98415E-02 12550   0.807E-01    0.272E-01
RMM:   3    -0.657222492891E+03   -0.75991E-03   -0.24877E-02 13913   0.351E-01    0.180E-01
RMM:   4    -0.657222205171E+03    0.28772E-03   -0.42020E-03 13618   0.135E-01    0.102E-01
RMM:   5    -0.657222160593E+03    0.44578E-04   -0.15774E-03 14239   0.775E-02    0.691E-02
WARNING in EDDRMM: call to ZHEGV failed, returncode =   8  4      8
RMM:   6    -0.657222127367E+03    0.33226E-04   -0.76639E-04 13793   0.503E-02    0.300E-02
RMM:   7    -0.657222152406E+03   -0.25038E-04   -0.42051E-04 13087   0.339E-02    0.147E-02
RMM:   8    -0.657222174408E+03   -0.22002E-04   -0.24325E-04 12311   0.249E-02    0.977E-03
RMM:   9    -0.657222189517E+03   -0.15109E-04   -0.13883E-04 11608   0.186E-02    0.642E-03
RMM:  10    -0.657222198842E+03   -0.93248E-05   -0.80393E-05 11000   0.150E-02
  25 F= -.65722220E+03 E0= -.65716505E+03  d E =-.122313E-01
 curvature:  -1.15 expect dE=-0.209E-01 dE for cont linesearch -0.375E-05
 trial: gam= 0.63729 g(F)=  0.107E-01 g(S)=  0.741E-02 ort = 0.542E-03 (trialstep = 0.546E+00)
 search vector abs. value=  0.556E-01
 bond charge predicted
       N       E                     dE             d eps       ncg     rms          rms(c)
DAV:   1    -0.657208404250E+03    0.13785E-01   -0.24382E+00  8792   0.400E+00    0.323E-01
RMM:   2    -0.657224475459E+03   -0.16071E-01   -0.19088E-01 12038   0.110E+00    0.168E-01
WARNING in EDDRMM: call to ZHEGV failed, returncode =   8  4      7
RMM:   3    -0.657229591065E+03   -0.51156E-02   -0.52361E-02 14019   0.499E-01    0.144E-01
RMM:   4    -0.657229846489E+03   -0.25542E-03   -0.72727E-03 13971   0.155E-01    0.994E-02
RMM:   5    -0.657229817310E+03    0.29179E-04   -0.22126E-03 13735   0.842E-02    0.647E-02
RMM:   6    -0.657229837002E+03   -0.19692E-04   -0.13087E-03 13344   0.614E-02    0.393E-02
RMM:   7    -0.657229868816E+03   -0.31814E-04   -0.71746E-04 13416   0.413E-02    0.195E-02
RMM:   8    -0.657229894037E+03   -0.25221E-04   -0.40224E-04 12432   0.305E-02    0.122E-02
RMM:   9    -0.657229910703E+03   -0.16666E-04   -0.23295E-04 11797   0.218E-02    0.793E-03
RMM:  10    -0.657229921545E+03   -0.10842E-04   -0.13647E-04 11303   0.172E-02    0.576E-03
RMM:  11    -0.657229926232E+03   -0.46865E-05   -0.68252E-05 10016   0.134E-02
  26 F= -.65722993E+03 E0= -.65717261E+03  d E =-.772739E-02
 trial-energy change:   -0.007727  1 .order   -0.007590   -0.010100   -0.005079
 step:   0.9738(harm=  1.0993)  dis= 0.01378  next Energy=  -657.231979 (dE=-0.978E-02)
 bond charge predicted
       N       E                     dE             d eps       ncg     rms          rms(c)
DAV:   1    -0.657219232654E+03    0.10689E-01   -0.14916E+00  8960   0.313E+00    0.253E-01
RMM:   2    -0.657229051043E+03   -0.98184E-02   -0.11674E-01 12049   0.862E-01    0.131E-01
RMM:   3    -0.657232194308E+03   -0.31433E-02   -0.32167E-02 14024   0.391E-01    0.111E-01
RMM:   4    -0.657232362546E+03   -0.16824E-03   -0.45652E-03 13895   0.121E-01    0.768E-02
RMM:   5    -0.657232349541E+03    0.13005E-04   -0.14004E-03 13496   0.668E-02    0.499E-02
RMM:   6    -0.657232364261E+03   -0.14719E-04   -0.83822E-04 13173   0.492E-02    0.301E-02
RMM:   7    -0.657232386625E+03   -0.22364E-04   -0.46954E-04 12850   0.334E-02    0.151E-02
RMM:   8    -0.657232402919E+03   -0.16294E-04   -0.25897E-04 11885   0.250E-02    0.969E-03
RMM:   9    -0.657232413549E+03   -0.10631E-04   -0.14962E-04 11287   0.181E-02    0.635E-03
RMM:  10    -0.657232419803E+03   -0.62539E-05   -0.83073E-05 10465   0.144E-02
  27 F= -.65723242E+03 E0= -.65717498E+03  d E =-.102210E-01
 curvature:  -1.57 expect dE=-0.975E-02 dE for cont linesearch -0.955E-04
 ZBRENT: extrapolating
 opt :   1.0793  next Energy=  -657.232517 (dE=-0.103E-01)
 bond charge predicted
       N       E                     dE             d eps       ncg     rms          rms(c)
DAV:   1    -0.657231741127E+03    0.67242E-03   -0.90944E-02 10388   0.771E-01    0.624E-02
RMM:   2    -0.657232346073E+03   -0.60495E-03   -0.71574E-03 12198   0.213E-01    0.324E-02
RMM:   3    -0.657232538132E+03   -0.19206E-03   -0.19781E-03 13739   0.956E-02    0.288E-02
RMM:   4    -0.657232549901E+03   -0.11768E-04   -0.32254E-04 12108   0.328E-02    0.188E-02
RMM:   5    -0.657232551473E+03   -0.15727E-05   -0.11665E-04 10858   0.213E-02    0.126E-02
RMM:   6    -0.657232552801E+03   -0.13277E-05   -0.67861E-05  9905   0.151E-02
  28 F= -.65723255E+03 E0= -.65717508E+03  d E =-.103540E-01
 curvature:  -1.59 expect dE=-0.113E-01 dE for cont linesearch -0.443E-07
 trial: gam= 0.29879 g(F)=  0.662E-02 g(S)=  0.465E-03 ort = 0.393E-04 (trialstep = 0.653E+00)
 search vector abs. value=  0.121E-01
 bond charge predicted
       N       E                     dE             d eps       ncg     rms          rms(c)
DAV:   1    -0.657230157153E+03    0.23943E-02   -0.75150E-01  9408   0.230E+00    0.193E-01
RMM:   2    -0.657234639190E+03   -0.44820E-02   -0.55600E-02 12333   0.594E-01    0.107E-01
WARNING in EDDRMM: call to ZHEGV failed, returncode =   6  3      8
RMM:   3    -0.657235971371E+03   -0.13322E-02   -0.14304E-02 14090   0.258E-01    0.931E-02
RMM:   4    -0.657235987311E+03   -0.15940E-04   -0.22027E-03 13658   0.871E-02    0.545E-02
RMM:   5    -0.657235988739E+03   -0.14277E-05   -0.80416E-04 13200   0.504E-02    0.374E-02
RMM:   6    -0.657235996208E+03   -0.74690E-05   -0.46162E-04 12786   0.370E-02    0.204E-02
RMM:   7    -0.657236011477E+03   -0.15270E-04   -0.26909E-04 12050   0.250E-02    0.959E-03
RMM:   8    -0.657236022373E+03   -0.10896E-04   -0.15381E-04 11413   0.191E-02    0.610E-03
RMM:   9    -0.657236028363E+03   -0.59898E-05   -0.79197E-05 10180   0.139E-02
  29 F= -.65723603E+03 E0= -.65717864E+03  d E =-.347556E-02
 trial-energy change:   -0.003476  1 .order   -0.003418   -0.004633   -0.002203
 step:   1.1286(harm=  1.2449)  dis= 0.00639  next Energy=  -657.236853 (dE=-0.430E-02)
 bond charge predicted
       N       E                     dE             d eps       ncg     rms          rms(c)
DAV:   1    -0.657233864844E+03    0.21575E-02   -0.39852E-01  9352   0.167E+00    0.140E-01
RMM:   2    -0.657236288879E+03   -0.24240E-02   -0.29753E-02 12437   0.434E-01    0.775E-02
RMM:   3    -0.657236994843E+03   -0.70596E-03   -0.76176E-03 14049   0.187E-01    0.679E-02
RMM:   4    -0.657237010370E+03   -0.15528E-04   -0.12629E-03 13471   0.652E-02    0.399E-02
RMM:   5    -0.657237016152E+03   -0.57818E-05   -0.48790E-04 12653   0.391E-02    0.277E-02
RMM:   6    -0.657237022479E+03   -0.63270E-05   -0.28044E-04 12161   0.290E-02    0.147E-02
RMM:   7    -0.657237032909E+03   -0.10430E-04   -0.16747E-04 11535   0.202E-02    0.700E-03
RMM:   8    -0.657237039080E+03   -0.61707E-05   -0.88323E-05 10371   0.152E-02
  30 F= -.65723704E+03 E0= -.65717971E+03  d E =-.448628E-02
 curvature:  -1.02 expect dE=-0.324E-02 dE for cont linesearch -0.369E-04
 ZBRENT: extrapolating
 opt :   1.2445  next Energy=  -657.237077 (dE=-0.452E-02)
 bond charge predicted
       N       E                     dE             d eps       ncg     rms          rms(c)
DAV:   1    -0.657236902517E+03    0.13039E-03   -0.23808E-02 10472   0.410E-01    0.342E-02
RMM:   2    -0.657237051691E+03   -0.14917E-03   -0.18098E-03 12605   0.107E-01    0.194E-02
RMM:   3    -0.657237098517E+03   -0.46826E-04   -0.50387E-04 13012   0.478E-02    0.180E-02
RMM:   4    -0.657237100974E+03   -0.24574E-05   -0.10955E-04 10580   0.203E-02    0.997E-03
RMM:   5    -0.657237102840E+03   -0.18654E-05   -0.50755E-05  9311   0.142E-02
  31 F= -.65723710E+03 E0= -.65717979E+03  d E =-.455004E-02
 curvature:  -1.06 expect dE=-0.388E-02 dE for cont linesearch -0.112E-06
 trial: gam= 0.49611 g(F)=  0.265E-02 g(S)=  0.102E-02 ort = 0.357E-04 (trialstep = 0.771E+00)
 search vector abs. value=  0.667E-02
 bond charge predicted
       N       E                     dE             d eps       ncg     rms          rms(c)
DAV:   1    -0.657235561422E+03    0.15396E-02   -0.59979E-01  8960   0.203E+00    0.254E-01
RMM:   2    -0.657238748303E+03   -0.31869E-02   -0.47812E-02 12654   0.560E-01    0.183E-01
RMM:   3    -0.657239074354E+03   -0.32605E-03   -0.11177E-02 13957   0.233E-01    0.134E-01
RMM:   4    -0.657238885620E+03    0.18873E-03   -0.19799E-03 13508   0.949E-02    0.712E-02
RMM:   5    -0.657238870395E+03    0.15224E-04   -0.83375E-04 13899   0.560E-02    0.504E-02
RMM:   6    -0.657238854100E+03    0.16295E-04   -0.38488E-04 13363   0.369E-02    0.213E-02
RMM:   7    -0.657238866739E+03   -0.12639E-04   -0.20009E-04 11784   0.245E-02    0.113E-02
RMM:   8    -0.657238877653E+03   -0.10914E-04   -0.11449E-04 11309   0.187E-02    0.672E-03
RMM:   9    -0.657238883635E+03   -0.59823E-05   -0.47468E-05  9114   0.139E-02
  32 F= -.65723888E+03 E0= -.65718159E+03  d E =-.178079E-02
 trial-energy change:   -0.001781  1 .order   -0.001748   -0.002841   -0.000654
 step:   1.0020(harm=  1.0020)  dis= 0.00326  next Energy=  -657.238948 (dE=-0.185E-02)
 bond charge predicted
       N       E                     dE             d eps       ncg     rms          rms(c)
DAV:   1    -0.657238678117E+03    0.19954E-03   -0.53708E-02  9408   0.608E-01    0.754E-02
RMM:   2    -0.657238975862E+03   -0.29775E-03   -0.43323E-03 12784   0.168E-01    0.542E-02
RMM:   3    -0.657239009816E+03   -0.33954E-04   -0.10464E-03 13852   0.699E-02    0.394E-02
RMM:   4    -0.657238999005E+03    0.10811E-04   -0.21889E-04 12568   0.311E-02    0.208E-02
RMM:   5    -0.657239001854E+03   -0.28493E-05   -0.10317E-04 10917   0.201E-02    0.146E-02
RMM:   6    -0.657239003763E+03   -0.19094E-05   -0.51907E-05  9748   0.154E-02
  33 F= -.65723900E+03 E0= -.65718172E+03  d E =-.190092E-02
 curvature:  -0.91 expect dE=-0.288E-02 dE for cont linesearch -0.177E-06
 trial: gam= 0.84938 g(F)=  0.124E-02 g(S)=  0.193E-02 ort = 0.360E-04 (trialstep = 0.678E+00)
 search vector abs. value=  0.804E-02
 bond charge predicted
       N       E                     dE             d eps       ncg     rms          rms(c)
DAV:   1    -0.657237109444E+03    0.18924E-02   -0.56058E-01  9072   0.193E+00    0.223E-01
RMM:   2    -0.657240028801E+03   -0.29194E-02   -0.42177E-02 12500   0.526E-01    0.155E-01
RMM:   3    -0.657240524000E+03   -0.49520E-03   -0.10267E-02 13978   0.225E-01    0.121E-01
RMM:   4    -0.657240388276E+03    0.13572E-03   -0.18164E-03 13759   0.885E-02    0.668E-02
RMM:   5    -0.657240363256E+03    0.25021E-04   -0.69838E-04 13939   0.503E-02    0.480E-02
RMM:   6    -0.657240339350E+03    0.23906E-04   -0.35978E-04 13300   0.350E-02    0.218E-02
RMM:   7    -0.657240341998E+03   -0.26489E-05   -0.18787E-04 11973   0.237E-02    0.976E-03
RMM:   8    -0.657240348202E+03   -0.62038E-05   -0.10851E-04 11328   0.178E-02    0.690E-03
RMM:   9    -0.657240349113E+03   -0.91100E-06   -0.42070E-05  8993   0.138E-02
  34 F= -.65724035E+03 E0= -.65718293E+03  d E =-.134535E-02
 trial-energy change:   -0.001345  1 .order   -0.001249   -0.002170   -0.000329
 step:   0.7675(harm=  0.7992)  dis= 0.00357  next Energy=  -657.240371 (dE=-0.137E-02)
 bond charge predicted
       N       E                     dE             d eps       ncg     rms          rms(c)
DAV:   1    -0.657240338654E+03    0.95486E-05   -0.98732E-03 10948   0.255E-01    0.296E-02
RMM:   2    -0.657240390931E+03   -0.52278E-04   -0.75364E-04 12874   0.701E-02    0.208E-02
RMM:   3    -0.657240400452E+03   -0.95206E-05   -0.19994E-04 12376   0.305E-02    0.158E-02
RMM:   4    -0.657240397876E+03    0.25756E-05   -0.44862E-05  9512   0.169E-02
  35 F= -.65724040E+03 E0= -.65718296E+03  d E =-.139411E-02
 curvature:  -0.94 expect dE=-0.112E-02 dE for cont linesearch -0.724E-05
 ZBRENT: increasing intervall
 opt :   0.9465  next Energy=  -657.240400 (dE=-0.140E-02)
 bond charge predicted
       N       E                     dE             d eps       ncg     rms          rms(c)
DAV:   1    -0.657240157521E+03    0.24293E-03   -0.38871E-02  9408   0.508E-01    0.604E-02
RMM:   2    -0.657240363292E+03   -0.20577E-03   -0.29637E-03 12696   0.139E-01    0.435E-02
RMM:   3    -0.657240395136E+03   -0.31844E-04   -0.73259E-04 13784   0.586E-02    0.333E-02
RMM:   4    -0.657240383230E+03    0.11906E-04   -0.14734E-04 11981   0.250E-02    0.182E-02
RMM:   5    -0.657240380363E+03    0.28672E-05   -0.62683E-05 10287   0.167E-02
  36 F= -.65724038E+03 E0= -.65718292E+03  d E =-.137660E-02
 curvature:  -0.32 expect dE=-0.620E-03 dE for cont linesearch -0.118E-04
 ZBRENT: bracketing found
 ZBRENT: interpolating
 opt :   0.8234  next Energy=  -657.240405 (dE=-0.140E-02)
 bond charge predicted
       N       E                     dE             d eps       ncg     rms          rms(c)
DAV:   1    -0.657240299553E+03    0.83677E-04   -0.18675E-02  9408   0.354E-01    0.397E-02
RMM:   2    -0.657240392385E+03   -0.92832E-04   -0.13722E-03 12181   0.964E-02    0.267E-02
RMM:   3    -0.657240412386E+03   -0.20001E-04   -0.34281E-04 13237   0.418E-02    0.228E-02
RMM:   4    -0.657240407363E+03    0.50233E-05   -0.54703E-05  9289   0.165E-02
  37 F= -.65724041E+03 E0= -.65718296E+03  d E =-.140360E-02
 curvature:  -0.19 expect dE=-0.328E-03 dE for cont linesearch -0.813E-10
 trial: gam= 0.65813 g(F)=  0.121E-02 g(S)=  0.552E-03 ort = 0.188E-05 (trialstep = 0.707E+00)
 search vector abs. value=  0.525E-02
 bond charge predicted
       N       E                     dE             d eps       ncg     rms          rms(c)
DAV:   1    -0.657237817603E+03    0.25948E-02   -0.39733E-01  8988   0.172E+00    0.125E-01
RMM:   2    -0.657240395863E+03   -0.25783E-02   -0.30315E-02 12185   0.443E-01    0.657E-02
RMM:   3    -0.657241174730E+03   -0.77887E-03   -0.78949E-03 13951   0.199E-01    0.645E-02
RMM:   4    -0.657241207527E+03   -0.32797E-04   -0.12216E-03 13220   0.650E-02    0.377E-02
RMM:   5    -0.657241209249E+03   -0.17222E-05   -0.37955E-04 12233   0.364E-02    0.267E-02
RMM:   6    -0.657241214836E+03   -0.55865E-05   -0.22418E-04 11915   0.280E-02    0.150E-02
RMM:   7    -0.657241223486E+03   -0.86505E-05   -0.12898E-04 10979   0.192E-02    0.913E-03
RMM:   8    -0.657241226400E+03   -0.29134E-05   -0.60144E-05  9679   0.148E-02
  38 F= -.65724123E+03 E0= -.65718378E+03  d E =-.819037E-03
 trial-energy change:   -0.000819  1 .order   -0.000861   -0.001249   -0.000473
 step:   1.1374(harm=  1.1374)  dis= 0.00486  next Energy=  -657.241412 (dE=-0.100E-02)
 bond charge predicted
       N       E                     dE             d eps       ncg     rms          rms(c)
DAV:   1    -0.657240098241E+03    0.11252E-02   -0.14740E-01  9240   0.105E+00    0.747E-02
RMM:   2    -0.657241106761E+03   -0.10085E-02   -0.11650E-02 12434   0.272E-01    0.397E-02
RMM:   3    -0.657241392336E+03   -0.28558E-03   -0.29493E-03 13795   0.118E-01    0.378E-02
RMM:   4    -0.657241411567E+03   -0.19231E-04   -0.51096E-04 12614   0.421E-02    0.230E-02
RMM:   5    -0.657241415726E+03   -0.41590E-05   -0.19064E-04 11419   0.264E-02    0.149E-02
RMM:   6    -0.657241421943E+03   -0.62168E-05   -0.10941E-04 10828   0.191E-02    0.788E-03
RMM:   7    -0.657241425545E+03   -0.36021E-05   -0.52812E-05  9396   0.139E-02
  39 F= -.65724143E+03 E0= -.65718399E+03  d E =-.101818E-02
 curvature:  -1.69 expect dE=-0.105E-02 dE for cont linesearch -0.749E-05
 ZBRENT: extrapolating
 opt :   1.2647  next Energy=  -657.241435 (dE=-0.103E-02)
 bond charge predicted
       N       E                     dE             d eps       ncg     rms          rms(c)
DAV:   1    -0.657241319647E+03    0.10230E-03   -0.12940E-02 10052   0.311E-01    0.227E-02
RMM:   2    -0.657241413559E+03   -0.93912E-04   -0.10777E-03 12647   0.816E-02    0.120E-02
RMM:   3    -0.657241440565E+03   -0.27005E-04   -0.28280E-04 12105   0.354E-02    0.115E-02
RMM:   4    -0.657241443697E+03   -0.31319E-05   -0.60823E-05  9203   0.178E-02
  40 F= -.65724144E+03 E0= -.65718401E+03  d E =-.103633E-02
 curvature:  -2.19 expect dE=-0.146E-02 dE for cont linesearch -0.155E-05
 trial: gam= 0.25592 g(F)=  0.634E-03 g(S)=  0.319E-04 ort =-0.611E-04 (trialstep = 0.819E+00)
 search vector abs. value=  0.979E-03
 bond charge predicted
       N       E                     dE             d eps       ncg     rms          rms(c)
DAV:   1    -0.657241113234E+03    0.32733E-03   -0.92813E-02  9324   0.852E-01    0.595E-02
RMM:   2    -0.657241687403E+03   -0.57417E-03   -0.66798E-03 12839   0.205E-01    0.351E-02
RMM:   3    -0.657241838107E+03   -0.15070E-03   -0.15838E-03 13702   0.835E-02    0.337E-02
RMM:   4    -0.657241842242E+03   -0.41350E-05   -0.30322E-04 12214   0.330E-02    0.185E-02
RMM:   5    -0.657241846576E+03   -0.43346E-05   -0.12431E-04 10951   0.201E-02    0.133E-02
RMM:   6    -0.657241848032E+03   -0.14559E-05   -0.65076E-05  9809   0.152E-02
  41 F= -.65724185E+03 E0= -.65718438E+03  d E =-.404335E-03
 trial-energy change:   -0.000404  1 .order   -0.000387   -0.000532   -0.000241
 step:   1.4958(harm=  1.4958)  dis= 0.00262  next Energy=  -657.241930 (dE=-0.486E-03)
 bond charge predicted
       N       E                     dE             d eps       ncg     rms          rms(c)
DAV:   1    -0.657241448631E+03    0.39795E-03   -0.63412E-02  9324   0.706E-01    0.507E-02
RMM:   2    -0.657241840736E+03   -0.39211E-03   -0.46503E-03 12870   0.170E-01    0.279E-02
RMM:   3    -0.657241948623E+03   -0.10789E-03   -0.11430E-03 13406   0.700E-02    0.267E-02
RMM:   4    -0.657241956025E+03   -0.74020E-05   -0.24191E-04 11971   0.293E-02    0.153E-02
RMM:   5    -0.657241960347E+03   -0.43225E-05   -0.10156E-04 10516   0.179E-02    0.110E-02
RMM:   6    -0.657241961553E+03   -0.12059E-05   -0.52843E-05  9364   0.140E-02
  42 F= -.65724196E+03 E0= -.65718447E+03  d E =-.517857E-03
 curvature:  -1.13 expect dE=-0.427E-03 dE for cont linesearch -0.378E-08
 trial: gam= 0.57347 g(F)=  0.372E-03 g(S)=  0.688E-05 ort = 0.181E-05 (trialstep = 0.954E+00)
 search vector abs. value=  0.703E-03
 bond charge predicted
       N       E                     dE             d eps       ncg     rms          rms(c)
DAV:   1    -0.657241410236E+03    0.55011E-03   -0.93870E-02  9576   0.860E-01    0.575E-02
RMM:   2    -0.657242042002E+03   -0.63177E-03   -0.73257E-03 12585   0.210E-01    0.309E-02
RMM:   3    -0.657242214245E+03   -0.17224E-03   -0.17468E-03 13578   0.879E-02    0.301E-02
RMM:   4    -0.657242220544E+03   -0.62986E-05   -0.28949E-04 12225   0.315E-02    0.173E-02
RMM:   5    -0.657242225006E+03   -0.44618E-05   -0.11678E-04 10806   0.198E-02    0.125E-02
RMM:   6    -0.657242226928E+03   -0.19224E-05   -0.65735E-05  9988   0.153E-02
  43 F= -.65724223E+03 E0= -.65718467E+03  d E =-.265375E-03
 trial-energy change:   -0.000265  1 .order   -0.000252   -0.000363   -0.000140
 step:   1.5570(harm=  1.5570)  dis= 0.00175  next Energy=  -657.242258 (dE=-0.296E-03)
 bond charge predicted
       N       E                     dE             d eps       ncg     rms          rms(c)
DAV:   1    -0.657241944620E+03    0.28039E-03   -0.37505E-02  9716   0.545E-01    0.375E-02
RMM:   2    -0.657242201644E+03   -0.25702E-03   -0.30044E-03 12680   0.134E-01    0.199E-02
RMM:   3    -0.657242273575E+03   -0.71931E-04   -0.73212E-04 13071   0.559E-02    0.196E-02
RMM:   4    -0.657242277739E+03   -0.41639E-05   -0.13851E-04 11178   0.224E-02    0.112E-02
RMM:   5    -0.657242280474E+03   -0.27354E-05   -0.56100E-05  9254   0.142E-02
  44 F= -.65724228E+03 E0= -.65718467E+03  d E =-.318921E-03
 curvature:  -1.44 expect dE=-0.276E-03 dE for cont linesearch -0.230E-07
 trial: gam= 0.50781 g(F)=  0.174E-03 g(S)=  0.170E-04 ort =-0.335E-05 (trialstep = 0.107E+01)
 search vector abs. value=  0.369E-03
 bond charge predicted
       N       E                     dE             d eps       ncg     rms          rms(c)
DAV:   1    -0.657241959326E+03    0.31841E-03   -0.63020E-02  9212   0.657E-01    0.507E-02
RMM:   2    -0.657242323743E+03   -0.36442E-03   -0.44632E-03 12678   0.169E-01    0.275E-02
RMM:   3    -0.657242422204E+03   -0.98461E-04   -0.10853E-03 13597   0.680E-02    0.258E-02
RMM:   4    -0.657242423392E+03   -0.11879E-05   -0.17758E-04 11453   0.261E-02    0.153E-02
RMM:   5    -0.657242424624E+03   -0.12317E-05   -0.73192E-05  9763   0.169E-02
  45 F= -.65724242E+03 E0= -.65718480E+03  d E =-.144150E-03
 trial-energy change:   -0.000144  1 .order   -0.000120   -0.000204   -0.000036
 step:   1.3039(harm=  1.3039)  dis= 0.00119  next Energy=  -657.242404 (dE=-0.124E-03)
 reached required accuracy - stopping structural energy minimisation
