HECN                                    
           1
    11.240000    0.000000    0.000000
     0.000000   11.240000    0.000000
     0.000000    0.000000   11.240000
   Ti   Mo   Ta   N    C    Zr   W 
     7     6     6    13    19     7     6
Direct configuration=     1
   0.00000000  0.00000000  0.00000000
   0.25000000  0.00000000  0.25000000
   0.25000000  0.50000000  0.25000000
   0.50000000  0.50000000  0.00000000
   0.50000000  0.25000000  0.75000004
   0.00000000  0.50000000  0.50000000
   0.50000000  0.75000004  0.75000004
   0.00000000  0.25000000  0.25000000
   0.75000004  0.75000004  0.00000000
   0.00000000  0.25000000  0.75000004
   0.75000004  0.25000000  0.50000000
   0.00000000  0.75000004  0.75000004
   0.25000000  0.50000000  0.75000004
   0.25000000  0.25000000  0.00000000
   0.50000000  0.25000000  0.25000000
   0.75000004  0.00000000  0.25000000
   0.75000004  0.25000000  0.00000000
   0.25000000  0.75000004  0.00000000
   0.25000000  0.25000000  0.50000000
   0.25000000  0.25000000  0.25000000
   0.25000000  0.00000000  0.00000000
   0.00000000  0.25000000  0.00000000
   0.75000004  0.25000000  0.25000000
   0.75000004  0.00000000  0.00000000
   0.50000000  0.00000000  0.25000000
   0.00000000  0.50000000  0.25000000
   0.50000000  0.75000004  0.00000000
   0.00000000  0.00000000  0.75000004
   0.75000004  0.25000000  0.75000004
   0.75000004  0.00000000  0.50000000
   0.50000000  0.25000000  0.50000000
   0.50000000  0.00000000  0.75000004
   0.00000000  0.00000000  0.25000000
   0.50000000  0.25000000  0.00000000
   0.25000000  0.75000004  0.25000000
   0.25000000  0.50000000  0.00000000
   0.00000000  0.75000004  0.00000000
   0.75000004  0.75000004  0.25000000
   0.75000004  0.50000000  0.00000000
   0.50000000  0.50000000  0.25000000
   0.25000000  0.25000000  0.75000004
   0.25000000  0.00000000  0.50000000
   0.00000000  0.25000000  0.50000000
   0.25000000  0.75000004  0.75000004
   0.25000000  0.50000000  0.50000000
   0.00000000  0.75000004  0.50000000
   0.00000000  0.50000000  0.75000004
   0.75000004  0.75000004  0.75000004
   0.75000004  0.50000000  0.50000000
   0.50000000  0.75000004  0.50000000
   0.50000000  0.50000000  0.75000004
   0.50000000  0.00000000  0.00000000
   0.00000000  0.50000000  0.00000000
   0.50000000  0.75000004  0.25000000
   0.25000000  0.00000000  0.75000004
   0.50000000  0.00000000  0.50000000
   0.75000004  0.00000000  0.75000004
   0.25000000  0.75000004  0.50000000
   0.00000000  0.75000004  0.25000000
   0.75000004  0.50000000  0.25000000
   0.00000000  0.00000000  0.50000000
   0.50000000  0.50000000  0.50000000
   0.75000004  0.50000000  0.75000004
   0.75000004  0.75000004  0.50000000
HECN                                    
           1
     8.000305    0.003171    0.000232
     0.003171    8.016530    0.000903
     0.000232    0.000903    7.994795
   Ti   Mo   Ta   N    C    Zr   W 
     7     6     6    13    19     7     6
Direct configuration=     2
   0.99953868  0.99899191  0.00153551
   0.24762695  0.99932255  0.25142469
   0.25129308  0.50087305  0.25026929
   0.50030488  0.49868621  0.99980476
   0.49915506  0.25277373  0.75084317
   0.99985766  0.49979585  0.50110150
   0.50017543  0.74731927  0.74865661
   0.99974345  0.24750885  0.25227141
   0.75308762  0.74746358  0.99986231
   0.00187368  0.25213346  0.74772135
   0.75287261  0.25242342  0.49974431
   0.99983201  0.74772883  0.74986082
   0.25018174  0.50008841  0.74986787
   0.25118628  0.25288570  0.99780516
   0.50077323  0.25316122  0.24885398
   0.75332113  0.99820652  0.25067438
   0.74855849  0.25267833  0.00020311
   0.24718287  0.74699756  0.99947906
   0.24759111  0.25072594  0.50227859
   0.25219171  0.24976113  0.25010646
   0.25164581  0.00006194  0.99867826
   0.99984549  0.25111925  0.00003702
   0.74797695  0.24897452  0.24803333
   0.74845967  0.00240876  0.00050895
   0.50193234  0.00065519  0.24965408
   0.99858990  0.50103356  0.24863256
   0.49748771  0.75191497  0.00132802
   0.99954434  0.00018123  0.74908534
   0.74987953  0.24942242  0.75210361
   0.74961484  0.99900749  0.49937922
   0.49794577  0.24951307  0.49790443
   0.50056900  0.00006230  0.75029757
   0.99743312  0.99892369  0.25196541
   0.50025315  0.24852934  0.00255994
   0.24919133  0.75012775  0.24830923
   0.24891293  0.49985453  0.99967050
   0.00169180  0.74930745  0.00132622
   0.75096446  0.75032511  0.25131963
   0.75100945  0.49803279  0.00007634
   0.50208351  0.49810703  0.25179886
   0.24917764  0.24947475  0.74993666
   0.24944046  0.00171552  0.50090239
   0.00129198  0.24801035  0.49991730
   0.24969351  0.75073923  0.75165075
   0.25178520  0.49812114  0.50031432
   0.99862055  0.75191197  0.49869862
   0.99843160  0.49985354  0.75069458
   0.75045005  0.74893156  0.74862380
   0.74830516  0.50106902  0.49992951
   0.50121204  0.74933932  0.49919184
   0.50156691  0.49996360  0.74795769
   0.50059794  0.00126179  0.00060235
   0.99955265  0.50061610  0.99935883
   0.50067313  0.74774691  0.25091211
   0.24787374  0.99979997  0.74878494
   0.49909118  0.99906159  0.49949096
   0.75219630  0.99878645  0.74935639
   0.24919594  0.74930665  0.50046384
   0.99928223  0.75247262  0.25010151
   0.74774456  0.50252818  0.25003709
   0.00138928  0.00044674  0.49764183
   0.50019164  0.50172605  0.50008834
   0.74997440  0.50255072  0.75003594
   0.75088382  0.74747898  0.50027626
HECN                                    
           1
     8.997810    0.002195    0.000161
     0.002195    9.009039    0.000625
     0.000161    0.000625    8.993996
   Ti   Mo   Ta   N    C    Zr   W 
     7     6     6    13    19     7     6
Direct configuration=     3
   0.99973809  0.99942710  0.00087076
   0.24865339  0.99961467  0.25080791
   0.25073387  0.50049638  0.25015278
   0.50017277  0.49925343  0.99988921
   0.49952105  0.25157618  0.75047832
   0.99991921  0.49988401  0.50062467
   0.50009906  0.74847655  0.74923803
   0.99985403  0.24858437  0.25128803
   0.75175155  0.74855912  0.99992183
   0.00106349  0.25121263  0.74870788
   0.75163039  0.25137769  0.49985515
   0.99990429  0.74870929  0.74992098
   0.25010313  0.50005027  0.74992509
   0.25067358  0.25164001  0.99875542
   0.50043927  0.25179657  0.24935024
   0.75188418  0.99898138  0.25038240
   0.74918254  0.25152184  0.00011530
   0.24840100  0.74829325  0.99970438
   0.24863331  0.25041224  0.50129223
   0.25124357  0.24986463  0.25006039
   0.25093385  0.00003542  0.99925044
   0.99991252  0.25063603  0.00002104
   0.74885191  0.24941679  0.24888459
   0.74912643  0.00136864  0.00028874
   0.50109655  0.00037265  0.24980388
   0.99920004  0.50058706  0.24922453
   0.49857483  0.75108791  0.00075321
   0.99974147  0.00010287  0.74948130
   0.74993159  0.24967185  0.75119299
   0.74978129  0.99943587  0.49964789
   0.49883429  0.24972283  0.49881151
   0.50032288  0.00003552  0.75016878
   0.99854335  0.99938800  0.25111454
   0.50014342  0.24916441  0.00145172
   0.24954115  0.75007240  0.24904113
   0.24938315  0.49991713  0.99981312
   0.00095985  0.74960680  0.00075211
   0.75054734  0.75018500  0.25074841
   0.75057246  0.49888223  0.00004321
   0.50118191  0.49892469  0.25102010
   0.24953329  0.24970136  0.74996406
   0.24968281  0.00097487  0.50051184
   0.00073275  0.24886952  0.49995302
   0.24982624  0.75042014  0.75093622
   0.25101263  0.49893258  0.50017819
   0.99921759  0.75108628  0.49926204
   0.99911005  0.49991653  0.75039390
   0.75025518  0.74939284  0.74921950
   0.74903852  0.50060722  0.49996005
   0.50068761  0.74962473  0.49954166
   0.50088906  0.49997948  0.74884181
   0.50033950  0.00071719  0.00034167
   0.99974626  0.50035002  0.99963641
   0.50038157  0.74871977  0.25051717
   0.24879348  0.99988590  0.74931090
   0.49948416  0.99946653  0.49971126
   0.75124602  0.99931069  0.74963498
   0.24954365  0.74960588  0.50026301
   0.99959315  0.75140507  0.25005768
   0.74872068  0.50143636  0.25002113
   0.00078835  0.00025400  0.49866268
   0.50010904  0.50098094  0.50005019
   0.74998593  0.50144955  0.75002053
   0.75050108  0.74856751  0.50015656
HECN                                    
           1
     8.916168    0.002275    0.000167
     0.002275    8.927806    0.000647
     0.000167    0.000647    8.912215
   Ti   Mo   Ta   N    C    Zr   W 
     7     6     6    13    19     7     6
Direct configuration=     4
   0.99972357  0.99939541  0.00091912
   0.24857869  0.99959339  0.25085278
   0.25077457  0.50052382  0.25016125
   0.50018237  0.49921212  0.99988307
   0.49949443  0.25166340  0.75050486
   0.99991473  0.49987759  0.50065936
   0.50010461  0.74839226  0.74919572
   0.99984597  0.24850604  0.25135957
   0.75184876  0.74847934  0.99991750
   0.00112246  0.25127970  0.74863611
   0.75172081  0.25145386  0.49984709
   0.99989902  0.74863789  0.74991660
   0.25010885  0.50005304  0.74992093
   0.25071090  0.25173074  0.99868629
   0.50046359  0.25189596  0.24931414
   0.75198875  0.99892496  0.25040365
   0.74913714  0.25160606  0.00012169
   0.24831234  0.74819887  0.99968798
   0.24855747  0.25043508  0.50136399
   0.25131257  0.24985711  0.25006374
   0.25098566  0.00003735  0.99920881
   0.99990765  0.25067123  0.00002221
   0.74878823  0.24938456  0.24882266
   0.74907792  0.00144439  0.00030476
   0.50115738  0.00039324  0.24979298
   0.99915565  0.50061957  0.24918146
   0.49849573  0.75114814  0.00079503
   0.99972712  0.00010857  0.74945250
   0.74992780  0.24965368  0.75125924
   0.74976917  0.99940467  0.49962834
   0.49876962  0.24970754  0.49874552
   0.50034079  0.00003747  0.75017815
   0.99846255  0.99935417  0.25117644
   0.50015140  0.24911816  0.00153234
   0.24951569  0.75007642  0.24898788
   0.24934893  0.49991256  0.99980274
   0.00101311  0.74958501  0.00079388
   0.75057770  0.75019521  0.25078997
   0.75060425  0.49882037  0.00004562
   0.50124752  0.49886515  0.25107676
   0.24950740  0.24968485  0.74996207
   0.24966519  0.00102881  0.50054025
   0.00077344  0.24880695  0.49995042
   0.24981658  0.75044338  0.75098821
   0.25106885  0.49887350  0.50018809
   0.99917415  0.75114640  0.49922105
   0.99906067  0.49991194  0.75041578
   0.75026936  0.74935925  0.74917616
   0.74898516  0.50064085  0.49995783
   0.50072577  0.74960395  0.49951621
   0.50093838  0.49997833  0.74877749
   0.50035832  0.00075686  0.00036064
   0.99973218  0.50036939  0.99961621
   0.50040278  0.74864892  0.25054590
   0.24872655  0.99987963  0.74927264
   0.49945555  0.99943703  0.49969523
   0.75131517  0.99927252  0.74961472
   0.24951835  0.74958408  0.50027762
   0.99957054  0.75148282  0.25006087
   0.74864966  0.50151586  0.25002229
   0.00083208  0.00026804  0.49858841
   0.50011506  0.50103520  0.50005297
   0.74998510  0.50152975  0.75002165
   0.75052892  0.74848824  0.50016526
HECN                                    
           1
     8.872786    0.002317    0.000170
     0.002317    8.884641    0.000660
     0.000170    0.000660    8.868760
   Ti   Mo   Ta   N    C    Zr   W 
     7     6     6    13    19     7     6
Direct configuration=     5
   0.99971579  0.99937841  0.00094505
   0.24853864  0.99958198  0.25087684
   0.25079639  0.50053854  0.25016580
   0.50018753  0.49918997  0.99987977
   0.49948016  0.25171016  0.75051910
   0.99991233  0.49987415  0.50067796
   0.50010758  0.74834707  0.74917304
   0.99984165  0.24846404  0.25139794
   0.75190089  0.74843657  0.99991517
   0.00115408  0.25131567  0.74859763
   0.75176929  0.25149471  0.49984276
   0.99989619  0.74859960  0.74991425
   0.25011192  0.50005453  0.74991869
   0.25073092  0.25177939  0.99864922
   0.50047663  0.25194925  0.24929478
   0.75204482  0.99889471  0.25041504
   0.74911280  0.25165122  0.00012512
   0.24826479  0.74814826  0.99967919
   0.24851680  0.25044733  0.50140247
   0.25134957  0.24985307  0.25006554
   0.25101344  0.00003839  0.99918649
   0.99990504  0.25069010  0.00002283
   0.74875408  0.24936729  0.24878945
   0.74905191  0.00148500  0.00031335
   0.50118999  0.00040427  0.24978714
   0.99913184  0.50063700  0.24915837
   0.49845331  0.75118043  0.00081745
   0.99971943  0.00011163  0.74943705
   0.74992577  0.24964394  0.75129476
   0.74976268  0.99938794  0.49961786
   0.49873495  0.24969934  0.49871013
   0.50035039  0.00003852  0.75018318
   0.99841923  0.99933604  0.25120963
   0.50015568  0.24909336  0.00157558
   0.24950204  0.75007858  0.24895933
   0.24933058  0.49991012  0.99979717
   0.00104168  0.74957333  0.00081627
   0.75059398  0.75020069  0.25081226
   0.75062130  0.49878720  0.00004691
   0.50128270  0.49883322  0.25110714
   0.24949352  0.24967600  0.74996100
   0.24965573  0.00105773  0.50055549
   0.00079525  0.24877340  0.49994903
   0.24981140  0.75045584  0.75101608
   0.25109899  0.49884181  0.50019340
   0.99915085  0.75117864  0.49919907
   0.99903420  0.49990948  0.75042751
   0.75027696  0.74934123  0.74915292
   0.74895654  0.50065888  0.49995664
   0.50074623  0.74959281  0.49950256
   0.50096484  0.49997771  0.74874299
   0.50036840  0.00077813  0.00037081
   0.99972462  0.50037978  0.99960538
   0.50041415  0.74861093  0.25056131
   0.24869065  0.99987627  0.74925212
   0.49944022  0.99942122  0.49968663
   0.75135225  0.99925206  0.74960385
   0.24950478  0.74957239  0.50028545
   0.99955841  0.75152450  0.25006258
   0.74861157  0.50155849  0.25002292
   0.00085553  0.00027557  0.49854858
   0.50011829  0.50106430  0.50005446
   0.74998466  0.50157275  0.75002225
   0.75054385  0.74844573  0.50016993
HECN                                    
           1
     8.860947    0.001519    0.001324
     0.001518    8.870913    0.000398
     0.001324    0.000399    8.845478
   Ti   Mo   Ta   N    C    Zr   W 
     7     6     6    13    19     7     6
Direct configuration=     6
   0.99846845  0.99851920  0.00317884
   0.24366142  0.99880051  0.25182873
   0.25299533  0.50139031  0.25049134
   0.50057826  0.49739198  0.99962964
   0.49868349  0.25642836  0.75188377
   0.00035985  0.49928357  0.50133857
   0.50145280  0.74331557  0.74826282
   0.00084669  0.24422840  0.25460053
   0.75744924  0.74420786  0.99902973
   0.00447601  0.25474364  0.74512622
   0.75708763  0.25553941  0.50046526
   0.99956204  0.74508318  0.74982000
   0.25216962  0.50072266  0.74988678
   0.25076049  0.25554498  0.99688550
   0.50041016  0.25655407  0.24840121
   0.75718126  0.99622143  0.25128526
   0.74758109  0.25516409  0.99894567
   0.24497023  0.74426317  0.99854828
   0.24471777  0.25279346  0.50386139
   0.25254535  0.24920437  0.25048242
   0.24601495  0.00029836  0.00486791
   0.99990118  0.24500286  0.99988672
   0.74818733  0.24938433  0.24819978
   0.75478212  0.00318215  0.00358904
   0.50016015  0.00396269  0.24904807
   0.00030647  0.50186170  0.25459858
   0.49607523  0.74646485  0.99476655
   0.99924047  0.99987183  0.75134915
   0.74685527  0.25339712  0.75207737
   0.75311318  0.99759779  0.49613660
   0.49732626  0.25302756  0.50064966
   0.50142255  0.00007081  0.75065000
   0.00125170  0.99836517  0.24960161
   0.50043749  0.25524089  0.99943961
   0.24375437  0.75081624  0.24471603
   0.25498286  0.49961000  0.00249876
   0.00082520  0.75590988  0.00157719
   0.75508038  0.74877518  0.25159256
   0.74471255  0.49897955  0.99992701
   0.50028223  0.49462447  0.24955339
   0.25079160  0.25361197  0.74922189
   0.24454987  0.00567351  0.49366268
   0.99953828  0.25040119  0.50011609
   0.25146903  0.74659510  0.75519710
   0.25012390  0.49407484  0.49765411
   0.99430363  0.75040968  0.49849531
   0.99774616  0.49998470  0.74366699
   0.74759027  0.74340558  0.74836746
   0.75115081  0.50098557  0.50002003
   0.50581099  0.74405643  0.50667365
   0.50234939  0.50028108  0.74974955
   0.50097499  0.00086842  0.00034041
   0.99934460  0.49966314  0.00021945
   0.50141825  0.74507168  0.24907311
   0.24474601  0.99923981  0.75065850
   0.49887221  0.99946723  0.49997801
   0.75499787  0.99836390  0.74916186
   0.24742893  0.74677293  0.50111054
   0.99918460  0.75582393  0.24981622
   0.74526653  0.50572750  0.25010848
   0.00243946  0.00128787  0.49529872
   0.49946605  0.50293376  0.50042871
   0.74790740  0.50588944  0.75046959
   0.75186075  0.74356775  0.50183466
HECN                                    
           1
     8.857172    0.001264    0.001692
     0.001263    8.866535    0.000314
     0.001692    0.000315    8.838055
   Ti   Mo   Ta   N    C    Zr   W 
     7     6     6    13    19     7     6
Direct configuration=     7
   0.99807010  0.99824482  0.00389296
   0.24210427  0.99855084  0.25213322
   0.25369737  0.50166237  0.25059533
   0.50070296  0.49681784  0.99954964
   0.49842923  0.25793499  0.75232010
   0.00050268  0.49909500  0.50154972
   0.50188217  0.74170891  0.74797175
   0.00116731  0.24287592  0.25562423
   0.75922051  0.74285768  0.99874641
   0.00553681  0.25583835  0.74401641
   0.75878564  0.25683114  0.50066407
   0.99945527  0.74396029  0.74978985
   0.25282658  0.50093607  0.74987650
   0.25077011  0.25674742  0.99632173
   0.50038910  0.25802449  0.24811561
   0.75882100  0.99536794  0.25156321
   0.74709224  0.25628578  0.99856873
   0.24391834  0.74302246  0.99818686
   0.24350486  0.25354255  0.50464761
   0.25292707  0.24899727  0.25061563
   0.24441891  0.00038128  0.00668431
   0.99989979  0.24318678  0.99984316
   0.74800642  0.24938975  0.24801131
   0.75661144  0.00372428  0.00463596
   0.49983150  0.00509894  0.24881189
   0.00068130  0.50225286  0.25633762
   0.49531612  0.74495892  0.99283230
   0.99908746  0.99979526  0.75196041
   0.74587507  0.25459552  0.75232772
   0.75418294  0.99702621  0.49502359
   0.49687654  0.25409032  0.50126977
   0.50176483  0.00008115  0.75079919
   0.00215603  0.99805521  0.24908745
   0.50052773  0.25720394  0.99875685
   0.24191957  0.75105159  0.24335981
   0.25678727  0.49951436  0.00336214
   0.00075624  0.75793330  0.00182050
   0.75651262  0.74832011  0.25184180
   0.74282615  0.49904080  0.99988893
   0.49996276  0.49328047  0.24905670
   0.25120616  0.25486885  0.74898560
   0.24292020  0.00714723  0.49145950
   0.99913702  0.25092095  0.50016956
   0.25199795  0.74536235  0.75653355
   0.24981256  0.49255258  0.49684237
   0.99275612  0.75016399  0.49827053
   0.99733523  0.50000862  0.74150590
   0.74673239  0.74151009  0.74811643
   0.75185136  0.50108995  0.50004020
   0.50742750  0.74228873  0.50896578
   0.50279139  0.50037800  0.75007126
   0.50116865  0.00089726  0.00033066
   0.99922322  0.49943429  0.00041575
   0.50173878  0.74394153  0.24859731
   0.24348658  0.99903648  0.75110824
   0.49869085  0.99948192  0.50007118
   0.75616175  0.99808039  0.74902041
   0.24676609  0.74587894  0.50137436
   0.99906540  0.75719684  0.24973752
   0.74419871  0.50705868  0.25013601
   0.00294530  0.00161114  0.49425977
   0.49925785  0.50353071  0.50054839
   0.74724432  0.50726782  0.75061272
   0.75228096  0.74201013  0.50236672
HECN                                    
           1
     8.938825   -0.007718    0.006067
    -0.007731    8.964516    0.000955
     0.006060    0.000953    8.899951
   Ti   Mo   Ta   N    C    Zr   W 
     7     6     6    13    19     7     6
Direct configuration=     8
   0.99768168  0.99862513  0.00516338
   0.23875059  0.99799727  0.25149835
   0.25528317  0.50163781  0.25125509
   0.49994235  0.49741115  0.99944239
   0.49749520  0.26047130  0.75336867
   0.00111469  0.49894656  0.50061264
   0.50199876  0.73916902  0.74924364
   0.00159579  0.23991052  0.25705942
   0.76337244  0.74035673  0.99817283
   0.00844937  0.25951045  0.74306887
   0.76255289  0.25928218  0.50109639
   0.99841927  0.74037431  0.74954190
   0.25466181  0.50035157  0.74984599
   0.25214334  0.25792871  0.99525985
   0.50043127  0.25788647  0.24770952
   0.76064944  0.99359372  0.25253352
   0.74568886  0.25830681  0.99728359
   0.24269867  0.74123210  0.99839441
   0.24274290  0.25332707  0.50574370
   0.25375310  0.24862797  0.25049173
   0.24323598  0.00135671  0.00866468
   0.99982577  0.24146984  0.99980400
   0.74788442  0.24880225  0.24777924
   0.75831809  0.00479218  0.00550185
   0.50067824  0.00634551  0.24870301
   0.00022186  0.50205728  0.25779766
   0.49466387  0.74393604  0.99065486
   0.99911946  0.99981975  0.75282819
   0.74462425  0.25533420  0.75280386
   0.75447822  0.99592868  0.49411976
   0.49620810  0.25451202  0.50201203
   0.50217311  0.00052816  0.75097896
   0.00391292  0.99802762  0.24814678
   0.50013003  0.25771543  0.99734280
   0.24216133  0.75109177  0.24411958
   0.25638950  0.49934834  0.00443189
   0.99999230  0.75743884  0.00108405
   0.75550595  0.74868108  0.25143821
   0.74295527  0.49997693  0.00016249
   0.49849658  0.49537895  0.24841486
   0.25194917  0.25474302  0.74919558
   0.24310997  0.00642351  0.49092534
   0.99781413  0.25213541  0.50066882
   0.25193221  0.74500406  0.75576028
   0.24957205  0.49366003  0.49551427
   0.99270977  0.75028482  0.49883621
   0.99657348  0.49938541  0.74122072
   0.74563804  0.74267031  0.74902546
   0.75244716  0.49999854  0.49967269
   0.50639250  0.74246518  0.50918468
   0.50244692  0.49995560  0.75029181
   0.50121129  0.00153661  0.99961047
   0.99830205  0.49915611  0.00032450
   0.50175614  0.74288506  0.24870287
   0.24265930  0.99893165  0.75112520
   0.49727242  0.99871060  0.50064044
   0.75691403  0.99737757  0.74769721
   0.24680505  0.74598849  0.50144329
   0.00042452  0.75925207  0.24955373
   0.74226677  0.50848410  0.25044279
   0.00384966  0.00285360  0.49159639
   0.49900008  0.50411718  0.50068989
   0.74593441  0.50848694  0.75094545
   0.75261875  0.73800636  0.50335795
HECN                                    
           1
     8.909026   -0.004440    0.004470
    -0.004448    8.928758    0.000721
     0.004466    0.000720    8.877362
   Ti   Mo   Ta   N    C    Zr   W 
     7     6     6    13    19     7     6
Direct configuration=     9
   0.99782222  0.99848802  0.00470290
   0.23996343  0.99819829  0.25172783
   0.25470984  0.50164612  0.25101626
   0.50021716  0.49719726  0.99948114
   0.49783223  0.25955615  0.75298855
   0.00089327  0.49899989  0.50095235
   0.50195775  0.74008582  0.74878265
   0.00144218  0.24098080  0.25653929
   0.76187183  0.74125796  0.99838137
   0.00739463  0.25818387  0.74341288
   0.76118976  0.25839609  0.50094045
   0.99879517  0.74166909  0.74963148
   0.25399836  0.50056189  0.74985736
   0.25164613  0.25750178  0.99564496
   0.50041600  0.25793627  0.24785670
   0.75998906  0.99423351  0.25218215
   0.74619538  0.25757777  0.99774914
   0.24314041  0.74187880  0.99831893
   0.24301871  0.25340515  0.50534632
   0.25345450  0.24876097  0.25053677
   0.24366375  0.00100510  0.00794678
   0.99985316  0.24208962  0.99981813
   0.74792871  0.24901435  0.24786331
   0.75770070  0.00440611  0.00518837
   0.50037157  0.00589523  0.24874265
   0.00038833  0.50212808  0.25726844
   0.49489972  0.74430544  0.99144385
   0.99910803  0.99981092  0.75251370
   0.74507638  0.25506803  0.75263110
   0.75437168  0.99632472  0.49444734
   0.49644980  0.25436006  0.50174291
   0.50202534  0.00036666  0.75091389
   0.00327744  0.99803692  0.24848800
   0.50027341  0.25753091  0.99785521
   0.24207403  0.75107720  0.24384427
   0.25653359  0.49940844  0.00404412
   0.00026861  0.75761758  0.00135080
   0.75586978  0.74855114  0.25158431
   0.74290828  0.49963898  0.00006339
   0.49902590  0.49462199  0.24864726
   0.25168057  0.25478817  0.74911961
   0.24304151  0.00668466  0.49111894
   0.99829216  0.25169753  0.50048768
   0.25195598  0.74513339  0.75604050
   0.24965838  0.49326033  0.49599558
   0.99272659  0.75024124  0.49863119
   0.99684912  0.49961064  0.74132393
   0.74603352  0.74225193  0.74869585
   0.75223204  0.50039228  0.49980595
   0.50676675  0.74240187  0.50910517
   0.50257168  0.50010820  0.75021180
   0.50119551  0.00130580  0.99987150
   0.99863525  0.49925686  0.00035740
   0.50175026  0.74326640  0.24866459
   0.24295850  0.99896979  0.75111890
   0.49778573  0.99898955  0.50043386
   0.75664201  0.99763096  0.74817687
   0.24679093  0.74594893  0.50141832
   0.99993226  0.75850971  0.24962063
   0.74296493  0.50797029  0.25033130
   0.00352170  0.00240472  0.49256183
   0.49909310  0.50390558  0.50063858
   0.74640772  0.50804736  0.75082467
   0.75249823  0.73945148  0.50299867
HECN                                    
           1
     8.900799   -0.014017    0.008423
    -0.014042    8.930737    0.002278
     0.008414    0.002267    8.851307
   Ti   Mo   Ta   N    C    Zr   W 
     7     6     6    13    19     7     6
Direct configuration=    10
   0.99767866  0.99907275  0.00595719
   0.23705250  0.99768859  0.25085411
   0.25654068  0.50142893  0.25186446
   0.49928141  0.49804508  0.99951898
   0.49658997  0.26183998  0.75390723
   0.00169980  0.49894833  0.49955719
   0.50185529  0.73786376  0.75023611
   0.00157938  0.23778165  0.25799058
   0.76651142  0.73855681  0.99775141
   0.01113218  0.26302783  0.74308798
   0.76534438  0.26088933  0.50126514
   0.99711082  0.73702782  0.74940408
   0.25591217  0.49936654  0.74968487
   0.25339761  0.25839976  0.99465295
   0.50070582  0.25802999  0.24741137
   0.76156131  0.99229224  0.25350045
   0.74452539  0.25958081  0.99631990
   0.24174414  0.74027874  0.99871963
   0.24262000  0.25286409  0.50615778
   0.25428719  0.24833141  0.25046082
   0.24361563  0.00213936  0.00879127
   0.99976500  0.24143017  0.99991375
   0.74791871  0.24820582  0.24757875
   0.75825472  0.00566199  0.00561582
   0.50217537  0.00683708  0.24866385
   0.99922113  0.50158098  0.25771480
   0.49424968  0.74442103  0.99038778
   0.99910166  0.00002868  0.75281749
   0.74422424  0.25529610  0.75314795
   0.75405735  0.99517146  0.49387531
   0.49555657  0.25413672  0.50187558
   0.50231623  0.00095058  0.75105719
   0.00406801  0.99793702  0.24765544
   0.49980938  0.25706030  0.99698248
   0.24329491  0.75100307  0.24514226
   0.25471709  0.49930533  0.00454998
   0.99984878  0.75560505  0.00041009
   0.75433467  0.74924642  0.25107639
   0.74402927  0.50062420  0.00042017
   0.49767247  0.49672783  0.24845856
   0.25222610  0.25387265  0.74936365
   0.24410061  0.00530047  0.49192149
   0.99740428  0.25262784  0.50138010
   0.25122395  0.74528142  0.75486578
   0.24990040  0.49477190  0.49525425
   0.99314140  0.75098511  0.49936206
   0.99602291  0.49867515  0.74230182
   0.74521004  0.74436521  0.74980823
   0.75234221  0.49896706  0.49936968
   0.50492710  0.74340380  0.50799747
   0.50194307  0.49963738  0.75015538
   0.50111638  0.00199923  0.99910796
   0.99790292  0.49881464  0.00060198
   0.50140525  0.74324130  0.24876210
   0.24239440  0.99879893  0.75131638
   0.49630274  0.99827351  0.50105998
   0.75721432  0.99715362  0.74639568
   0.24704230  0.74661385  0.50136721
   0.00133328  0.76019396  0.24944689
   0.74056491  0.50921512  0.25056748
   0.00467772  0.00417183  0.48949684
   0.49872418  0.50475381  0.50039218
   0.74490481  0.50936439  0.75130351
   0.75261439  0.73483490  0.50396542
HECN                                    
           1
     8.898106   -0.017153    0.009718
    -0.017183    8.931385    0.002788
     0.009707    0.002774    8.842775
   Ti   Mo   Ta   N    C    Zr   W 
     7     6     6    13    19     7     6
Direct configuration=    11
   0.99763163  0.99926406  0.00636912
   0.23609836  0.99752074  0.25056762
   0.25714056  0.50135842  0.25214277
   0.49897500  0.49832232  0.99953150
   0.49618348  0.26258720  0.75420899
   0.00196434  0.49893181  0.49909887
   0.50182071  0.73713617  0.75071361
   0.00162301  0.23673425  0.25846738
   0.76803125  0.73767415  0.99754399
   0.01235897  0.26461502  0.74298044
   0.76670694  0.26170704  0.50137102
   0.99655714  0.73550775  0.74932991
   0.25653906  0.49897588  0.74962801
   0.25397215  0.25869442  0.99432684
   0.50080091  0.25806080  0.24726507
   0.76207576  0.99165717  0.25393329
   0.74397894  0.26023608  0.99585064
   0.24128587  0.73975438  0.99885153
   0.24248901  0.25268676  0.50642438
   0.25455998  0.24819107  0.25043577
   0.24360013  0.00251064  0.00906856
   0.99973586  0.24121423  0.99994521
   0.74791519  0.24794112  0.24748534
   0.75843669  0.00607332  0.00575605
   0.50276693  0.00714607  0.24863765
   0.99883830  0.50140143  0.25786160
   0.49403682  0.74445871  0.99004103
   0.99909961  0.00009996  0.75291725
   0.74394494  0.25537043  0.75331781
   0.75395401  0.99479381  0.49368756
   0.49526370  0.25406327  0.50191929
   0.50241176  0.00114184  0.75110418
   0.00432722  0.99790464  0.24738189
   0.49965724  0.25690612  0.99669595
   0.24369486  0.75097916  0.24556838
   0.25412160  0.49927091  0.00471638
   0.99971060  0.75494607  0.00010132
   0.75383183  0.74947353  0.25090977
   0.74439698  0.50094713  0.00053712
   0.49722964  0.49741679  0.24839667
   0.25240454  0.25357310  0.74944377
   0.24444714  0.00484763  0.49218499
   0.99711347  0.25293205  0.50167327
   0.25098424  0.74532969  0.75448008
   0.24998037  0.49526690  0.49501065
   0.99327752  0.75122875  0.49960199
   0.99575163  0.49836853  0.74262316
   0.74494072  0.74505672  0.75017356
   0.75237788  0.49850052  0.49922646
   0.50432464  0.74373123  0.50763388
   0.50173688  0.49948302  0.75013697
   0.50109080  0.00222627  0.99885717
   0.99766270  0.49866959  0.00068244
   0.50129215  0.74323295  0.24879418
   0.24220943  0.99874278  0.75138133
   0.49581632  0.99803853  0.50126588
   0.75740200  0.99699765  0.74581064
   0.24712493  0.74683162  0.50135035
   0.00179310  0.76074586  0.24938953
   0.73977868  0.50962181  0.25064532
   0.00505769  0.00475094  0.48848996
   0.49860360  0.50503140  0.50031126
   0.74441261  0.50979502  0.75146092
   0.75265070  0.73332347  0.50428317
HECN                                    
           1
     8.910933   -0.018565    0.009375
    -0.018626    8.933395    0.006762
     0.009380    0.006705    8.849617
   Ti   Mo   Ta   N    C    Zr   W 