       N       E                     dE             d eps       ncg     rms          rms(c)
DAV:   1     0.452175753220E+04    0.45218E+04   -0.23152E+05  8736   0.143E+03
DAV:   2    -0.185038906743E+03   -0.47068E+04   -0.44915E+04  9936   0.543E+02
DAV:   3    -0.751501414851E+03   -0.56646E+03   -0.55523E+03 14016   0.160E+02
DAV:   4    -0.787699769028E+03   -0.36198E+02   -0.35839E+02 15168   0.412E+01
DAV:   5    -0.790595540457E+03   -0.28958E+01   -0.28863E+01 15528   0.894E+00    0.550E+01
RMM:   6    -0.682305997619E+03    0.10829E+03   -0.69471E+02 13747   0.327E+01    0.156E+01
RMM:   7    -0.675560321997E+03    0.67457E+01   -0.50245E+01 14504   0.168E+01    0.943E+00
RMM:   8    -0.675220137957E+03    0.34018E+00   -0.11068E+01 14596   0.420E+00    0.654E+00
RMM:   9    -0.674880510574E+03    0.33963E+00   -0.36365E+00 14396   0.343E+00    0.313E+00
RMM:  10    -0.674893966408E+03   -0.13456E-01   -0.13715E+00 15047   0.154E+00    0.171E+00
RMM:  11    -0.674895169097E+03   -0.12027E-02   -0.68222E-01 15296   0.108E+00    0.990E-01
RMM:  12    -0.674922422270E+03   -0.27253E-01   -0.38433E-01 15849   0.638E-01    0.778E-01
RMM:  13    -0.674924911667E+03   -0.24894E-02   -0.14016E-01 15452   0.449E-01    0.478E-01
RMM:  14    -0.674925652893E+03   -0.74123E-03   -0.82703E-02 15172   0.320E-01    0.146E-01
RMM:  15    -0.674927640594E+03   -0.19877E-02   -0.32870E-02 16073   0.215E-01    0.112E-01
RMM:  16    -0.674928547355E+03   -0.90676E-03   -0.15077E-02 15980   0.131E-01    0.502E-02
RMM:  17    -0.674929175306E+03   -0.62795E-03   -0.84971E-03 15674   0.985E-02    0.398E-02
RMM:  18    -0.674929499848E+03   -0.32454E-03   -0.42348E-03 15174   0.677E-02    0.217E-02
RMM:  19    -0.674929697654E+03   -0.19781E-03   -0.23305E-03 14525   0.516E-02    0.890E-03
RMM:  20    -0.674929806425E+03   -0.10877E-03   -0.12313E-03 13876   0.404E-02    0.607E-03
RMM:  21    -0.674929869912E+03   -0.63487E-04   -0.71079E-04 13457   0.307E-02    0.274E-03
RMM:  22    -0.674929904731E+03   -0.34819E-04   -0.40565E-04 12815   0.243E-02    0.583E-03
RMM:  23    -0.674929923974E+03   -0.19243E-04   -0.20990E-04 11600   0.199E-02    0.315E-03
RMM:  24    -0.674929935306E+03   -0.11332E-04   -0.14163E-04 10925   0.187E-02    0.152E-02
RMM:  25    -0.674929941356E+03   -0.60492E-05   -0.64393E-05  9567   0.159E-02
   1 F= -.67492994E+03 E0= -.67488054E+03  d E =-.987928E-01
