 vasp.5.4.4.18Apr17-6-g9f103f2a35 (build Oct 18 2021 20:38:43) complex          
  
 executed on             LinuxIFC date 2025.11.12  17:07:39
 running on   24 total cores
 distrk:  each k-point on   24 cores,    1 groups
 distr:  one band on NCORES_PER_BAND=   1 cores,   24 groups


--------------------------------------------------------------------------------------------------------


 INCAR:
 POTCAR:   PAW_PBE Zr_sv 07Sep2000                
 POTCAR:   PAW_PBE W_pv 06Sep2000                 
 POTCAR:   PAW_PBE Hf_pv 06Sep2000                
 POTCAR:   PAW_PBE N 08Apr2002                    
 POTCAR:   PAW_PBE C 08Apr2002                    
 POTCAR:   PAW_PBE Ta_pv 07Sep2000                
 POTCAR:   PAW_PBE Nb_sv 17Jan2003                

 ----------------------------------------------------------------------------- 
|                                                                             |
|           W    W    AA    RRRRR   N    N  II  N    N   GGGG   !!!           |
|           W    W   A  A   R    R  NN   N  II  NN   N  G    G  !!!           |
|           W    W  A    A  R    R  N N  N  II  N N  N  G       !!!           |
|           W WW W  AAAAAA  RRRRR   N  N N  II  N  N N  G  GGG   !            |
|           WW  WW  A    A  R   R   N   NN  II  N   NN  G    G                |
|           W    W  A    A  R    R  N    N  II  N    N   GGGG   !!!           |
|                                                                             |
|      For optimal performance we recommend to set                            |
|        NCORE= 4 - approx SQRT( number of cores)                             |
|      NCORE specifies how many cores store one orbital (NPAR=cpu/NCORE).     |
|      This setting can  greatly improve the performance of VASP for DFT.     |
|      The default,   NCORE=1            might be grossly inefficient         |
|      on modern multi-core architectures or massively parallel machines.     |
|      Do your own testing !!!!                                               |
|      Unfortunately you need to use the default for GW and RPA calculations. |
|      (for HF NCORE is supported but not extensively tested yet)             |
|                                                                             |
 ----------------------------------------------------------------------------- 

 POTCAR:   PAW_PBE Zr_sv 07Sep2000                
   VRHFIN =Zr: 4s4p5s4d                                                         
   LEXCH  = PE                                                                  
   EATOM  =  1283.3934 eV,   94.3268 Ry                                         
                                                                                
   TITEL  = PAW_PBE Zr_sv 07Sep2000                                             
   LULTRA =        F    use ultrasoft PP ?                                      
   IUNSCR =        1    unscreen: 0-lin 1-nonlin 2-no                           
   RPACOR =    2.200    partial core radius                                     
   POMASS =   91.224; ZVAL   =   12.000    mass and valenz                      
   RCORE  =    2.500    outmost cutoff radius                                   
   RWIGS  =    3.070; RWIGS  =    1.625    wigner-seitz radius (au A)           
   ENMAX  =  229.839; ENMIN  =  172.379 eV                                      
   RCLOC  =    2.213    cutoff for local pot                                    
   LCOR   =        T    correct aug charges                                     
   LPAW   =        T    paw PP                                                  
   EAUG   =  357.078                                                            
   DEXC   =     .000                                                            
   RMAX   =    3.041    core radius for proj-oper                               
   RAUG   =    1.300    factor for augmentation sphere                          
   RDEP   =    2.597    radius for radial grids                                 
   QCUT   =   -4.110; QGAM   =    8.220    optimization parameters              
                                                                                
   Description                                                                  
     l     E      TYP  RCUT    TYP  RCUT                                        
     0   .000     23  2.500                                                     
     0   .000     23  2.500                                                     
     1   .000     23  2.500                                                     
     1   .000     23  2.500                                                     
     2   .000     23  2.500                                                     
     2   .000     23  2.500                                                     
     3   .000      7   .000                                                     
  local pseudopotential read in
  partial core-charges read in
  atomic valenz-charges read in
  non local Contribution for L=           0  read in
    real space projection operators read in
  non local Contribution for L=           0  read in
    real space projection operators read in
  non local Contribution for L=           1  read in
    real space projection operators read in
  non local Contribution for L=           1  read in
    real space projection operators read in
  non local Contribution for L=           2  read in
    real space projection operators read in
  non local Contribution for L=           2  read in
    real space projection operators read in
    PAW grid and wavefunctions read in
 
   number of l-projection  operators is LMAX  =           6
   number of lm-projection operators is LMMAX =          18
 
 POTCAR:   PAW_PBE W_pv 06Sep2000                 
   VRHFIN =W : 5p6s5d                                                           
   LEXCH  = PE                                                                  
   EATOM  =  1260.0376 eV,   92.6101 Ry                                         
                                                                                
   TITEL  = PAW_PBE W_pv 06Sep2000                                              
   LULTRA =        F    use ultrasoft PP ?                                      
   IUNSCR =        1    unscreen: 0-lin 1-nonlin 2-no                           
   RPACOR =    2.330    partial core radius                                     
   POMASS =  183.850; ZVAL   =   12.000    mass and valenz                      
   RCORE  =    2.500    outmost cutoff radius                                   
   RWIGS  =    2.750; RWIGS  =    1.455    wigner-seitz radius (au A)           
   ENMAX  =  223.065; ENMIN  =  167.299 eV                                      
   RCLOC  =    2.147    cutoff for local pot                                    
   LCOR   =        T    correct aug charges                                     
   LPAW   =        T    paw PP                                                  
   EAUG   =  373.438                                                            
   DEXC   =    -.018                                                            
   RMAX   =    3.087    core radius for proj-oper                               
   RAUG   =    1.300    factor for augmentation sphere                          
   RDEP   =    2.539    radius for radial grids                                 
   QCUT   =   -4.049; QGAM   =    8.098    optimization parameters              
                                                                                
   Description                                                                  
     l     E      TYP  RCUT    TYP  RCUT                                        
     1   .000     23  2.500                                                     
     1  -.200     23  2.500                                                     
     2   .000     23  2.500                                                     
     2   .000     23  2.500                                                     
     0   .000     23  2.500                                                     
     0   .000     23  2.500                                                     
     3   .000      7   .000                                                     
  local pseudopotential read in
  partial core-charges read in
  atomic valenz-charges read in
  non local Contribution for L=           1  read in
    real space projection operators read in
  non local Contribution for L=           1  read in
    real space projection operators read in
  non local Contribution for L=           2  read in
    real space projection operators read in
  non local Contribution for L=           2  read in
    real space projection operators read in
  non local Contribution for L=           0  read in
    real space projection operators read in
  non local Contribution for L=           0  read in
    real space projection operators read in
    PAW grid and wavefunctions read in
 
   number of l-projection  operators is LMAX  =           6
   number of lm-projection operators is LMMAX =          18
 
 POTCAR:   PAW_PBE Hf_pv 06Sep2000                
   VRHFIN =Hf: 5p6s5d                                                           
   LEXCH  = PE                                                                  
   EATOM  =   859.6195 eV,   63.1803 Ry                                         
                                                                                
   TITEL  = PAW_PBE Hf_pv 06Sep2000                                             
   LULTRA =        F    use ultrasoft PP ?                                      
   IUNSCR =        1    unscreen: 0-lin 1-nonlin 2-no                           
   RPACOR =    2.500    partial core radius                                     
   POMASS =  178.490; ZVAL   =   10.000    mass and valenz                      
   RCORE  =    2.600    outmost cutoff radius                                   
   RWIGS  =    3.050; RWIGS  =    1.614    wigner-seitz radius (au A)           
   ENMAX  =  220.342; ENMIN  =  165.256 eV                                      
   RCLOC  =    2.212    cutoff for local pot                                    
   LCOR   =        T    correct aug charges                                     
   LPAW   =        T    paw PP                                                  
   EAUG   =  380.878                                                            
   DEXC   =    -.057                                                            
   RMAX   =    3.106    core radius for proj-oper                               
   RAUG   =    1.300    factor for augmentation sphere                          
   RDEP   =    2.681    radius for radial grids                                 
   QCUT   =   -4.024; QGAM   =    8.049    optimization parameters              
                                                                                
   Description                                                                  
     l     E      TYP  RCUT    TYP  RCUT                                        
     1   .000     23  2.500                                                     
     1   .000     23  2.500                                                     
     2   .000     23  2.500                                                     
     2   .000     23  2.500                                                     
     0   .000     23  2.600                                                     
     0   .000     23  2.600                                                     
     3   .000      7   .000                                                     
  local pseudopotential read in
  partial core-charges read in
  atomic valenz-charges read in
  non local Contribution for L=           1  read in
    real space projection operators read in
  non local Contribution for L=           1  read in
    real space projection operators read in
  non local Contribution for L=           2  read in
    real space projection operators read in
  non local Contribution for L=           2  read in
    real space projection operators read in
  non local Contribution for L=           0  read in
    real space projection operators read in
  non local Contribution for L=           0  read in
    real space projection operators read in
    PAW grid and wavefunctions read in
 
   number of l-projection  operators is LMAX  =           6
   number of lm-projection operators is LMMAX =          18
 
 POTCAR:   PAW_PBE N 08Apr2002                    
   VRHFIN =N: s2p3                                                              
   LEXCH  = PE                                                                  
   EATOM  =   264.5486 eV,   19.4438 Ry                                         
                                                                                
   TITEL  = PAW_PBE N 08Apr2002                                                 
   LULTRA =        F    use ultrasoft PP ?                                      
   IUNSCR =        0    unscreen: 0-lin 1-nonlin 2-no                           
   RPACOR =     .000    partial core radius                                     
   POMASS =   14.001; ZVAL   =    5.000    mass and valenz                      
   RCORE  =    1.500    outmost cutoff radius                                   
   RWIGS  =    1.400; RWIGS  =     .741    wigner-seitz radius (au A)           
   ENMAX  =  400.000; ENMIN  =  300.000 eV                                      
   ICORE  =        2    local potential                                         
   LCOR   =        T    correct aug charges                                     
   LPAW   =        T    paw PP                                                  
   EAUG   =  627.112                                                            
   DEXC   =     .000                                                            
   RMAX   =    2.247    core radius for proj-oper                               
   RAUG   =    1.300    factor for augmentation sphere                          
   RDEP   =    1.514    radius for radial grids                                 
   QCUT   =   -5.562; QGAM   =   11.124    optimization parameters              
                                                                                
   Description                                                                  
     l     E      TYP  RCUT    TYP  RCUT                                        
     0   .000     23  1.200                                                     
     0   .000     23  1.200                                                     
     1   .000     23  1.500                                                     
     1   .700     23  1.500                                                     
     2   .000      7  1.500                                                     
  local pseudopotential read in
  atomic valenz-charges read in
  non local Contribution for L=           0  read in
    real space projection operators read in
  non local Contribution for L=           0  read in
    real space projection operators read in
  non local Contribution for L=           1  read in
    real space projection operators read in
  non local Contribution for L=           1  read in
    real space projection operators read in
    PAW grid and wavefunctions read in
 
   number of l-projection  operators is LMAX  =           4
   number of lm-projection operators is LMMAX =           8
 
 POTCAR:   PAW_PBE C 08Apr2002                    
   VRHFIN =C: s2p2                                                              
   LEXCH  = PE                                                                  
   EATOM  =   147.1560 eV,   10.8157 Ry                                         
                                                                                
   TITEL  = PAW_PBE C 08Apr2002                                                 
   LULTRA =        F    use ultrasoft PP ?                                      
   IUNSCR =        0    unscreen: 0-lin 1-nonlin 2-no                           
   RPACOR =     .000    partial core radius                                     
   POMASS =   12.011; ZVAL   =    4.000    mass and valenz                      
   RCORE  =    1.500    outmost cutoff radius                                   
   RWIGS  =    1.630; RWIGS  =     .863    wigner-seitz radius (au A)           
   ENMAX  =  400.000; ENMIN  =  300.000 eV                                      
   ICORE  =        2    local potential                                         
   LCOR   =        T    correct aug charges                                     
   LPAW   =        T    paw PP                                                  
   EAUG   =  644.873                                                            
   DEXC   =     .000                                                            
   RMAX   =    2.266    core radius for proj-oper                               
   RAUG   =    1.300    factor for augmentation sphere                          
   RDEP   =    1.501    radius for radial grids                                 
   RDEPT  =    1.300    core radius for aug-charge                              
   QCUT   =   -5.516; QGAM   =   11.032    optimization parameters              
                                                                                
   Description                                                                  
     l     E      TYP  RCUT    TYP  RCUT                                        
     0   .000     23  1.200                                                     
     0   .000     23  1.200                                                     
     1   .000     23  1.500                                                     
     1  2.500     23  1.500                                                     
     2   .000      7  1.500                                                     
  local pseudopotential read in
  atomic valenz-charges read in
  non local Contribution for L=           0  read in
    real space projection operators read in
  non local Contribution for L=           0  read in
    real space projection operators read in
  non local Contribution for L=           1  read in
    real space projection operators read in
  non local Contribution for L=           1  read in
    real space projection operators read in
    PAW grid and wavefunctions read in
 
   number of l-projection  operators is LMAX  =           4
   number of lm-projection operators is LMMAX =           8
 
 POTCAR:   PAW_PBE Ta_pv 07Sep2000                
   VRHFIN =Ta:  5p6s5d                                                          
   LEXCH  = PE                                                                  
   EATOM  =  1045.8051 eV,   76.8645 Ry                                         
                                                                                
   TITEL  = PAW_PBE Ta_pv 07Sep2000                                             
   LULTRA =        F    use ultrasoft PP ?                                      
   IUNSCR =        1    unscreen: 0-lin 1-nonlin 2-no                           
   RPACOR =    2.330    partial core radius                                     
   POMASS =  180.948; ZVAL   =   11.000    mass and valenz                      
   RCORE  =    2.500    outmost cutoff radius                                   
   RWIGS  =    2.840; RWIGS  =    1.503    wigner-seitz radius (au A)           
   ENMAX  =  223.675; ENMIN  =  167.756 eV                                      
   RCLOC  =    2.205    cutoff for local pot                                    
   LCOR   =        T    correct aug charges                                     
   LPAW   =        T    paw PP                                                  
   EAUG   =  377.421                                                            
   DEXC   =    -.043                                                            
   RMAX   =    3.083    core radius for proj-oper                               
   RAUG   =    1.300    factor for augmentation sphere                          
   RDEP   =    2.526    radius for radial grids                                 
   QCUT   =   -4.055; QGAM   =    8.109    optimization parameters              
                                                                                
   Description                                                                  
     l     E      TYP  RCUT    TYP  RCUT                                        
     1   .000     23  2.500                                                     
     1   .100     23  2.500                                                     
     2   .000     23  2.500                                                     
     2   .000     23  2.500                                                     
     0   .000     23  2.500                                                     
     0   .000     23  2.500                                                     
     3   .000      7   .000                                                     
  local pseudopotential read in
  partial core-charges read in
  atomic valenz-charges read in
  non local Contribution for L=           1  read in
    real space projection operators read in
  non local Contribution for L=           1  read in
    real space projection operators read in
  non local Contribution for L=           2  read in
    real space projection operators read in
  non local Contribution for L=           2  read in
    real space projection operators read in
  non local Contribution for L=           0  read in
    real space projection operators read in
  non local Contribution for L=           0  read in
    real space projection operators read in
    PAW grid and wavefunctions read in
 
   number of l-projection  operators is LMAX  =           6
   number of lm-projection operators is LMMAX =          18
 
 POTCAR:   PAW_PBE Nb_sv 17Jan2003                
   VRHFIN =Nb: 4p5s4d                                                           
   LEXCH  = PE                                                                  
   EATOM  =  1555.1913 eV,  114.3033 Ry                                         
                                                                                
   TITEL  = PAW_PBE Nb_sv 17Jan2003                                             
   LULTRA =        F    use ultrasoft PP ?                                      
   IUNSCR =        1    unscreen: 0-lin 1-nonlin 2-no                           
   RPACOR =    1.800    partial core radius                                     
   POMASS =   92.910; ZVAL   =   13.000    mass and valenz                      
   RCORE  =    2.200    outmost cutoff radius                                   
   RWIGS  =    2.400; RWIGS  =    1.270    wigner-seitz radius (au A)           
   ENMAX  =  293.235; ENMIN  =  219.927 eV                                      
   RCLOC  =    1.411    cutoff for local pot                                    
   LCOR   =        T    correct aug charges                                     
   LPAW   =        T    paw PP                                                  
   EAUG   =  455.659                                                            
   DEXC   =     .000                                                            
   RMAX   =    2.693    core radius for proj-oper                               
   RAUG   =    1.300    factor for augmentation sphere                          
   RDEP   =    2.299    radius for radial grids                                 
   QCUT   =   -4.642; QGAM   =    9.285    optimization parameters              
                                                                                
   Description                                                                  
     l     E      TYP  RCUT    TYP  RCUT                                        
     0   .000     23  2.200                                                     
     0   .000     23  2.200                                                     
     0   .000     23  2.200                                                     
     0   .000     23  2.200                                                     
     1   .000     23  2.200                                                     
     1  1.000     23  2.200                                                     
     2   .000     23  2.200                                                     
     2   .000     23  2.200                                                     
     3   .000      7   .000                                                     
  local pseudopotential read in
  partial core-charges read in
  atomic valenz-charges read in
  non local Contribution for L=           0  read in
    real space projection operators read in
  non local Contribution for L=           0  read in
    real space projection operators read in
  non local Contribution for L=           1  read in
    real space projection operators read in
  non local Contribution for L=           1  read in
    real space projection operators read in
  non local Contribution for L=           2  read in
    real space projection operators read in
  non local Contribution for L=           2  read in
    real space projection operators read in
    PAW grid and wavefunctions read in
 
   number of l-projection  operators is LMAX  =           6
   number of lm-projection operators is LMMAX =          18
 

 ----------------------------------------------------------------------------- 
|                                                                             |
|  ADVICE TO THIS USER RUNNING 'VASP/VAMP'   (HEAR YOUR MASTER'S VOICE ...):  |
|                                                                             |
|      You have a (more or less) 'large supercell' and for larger cells       |
|      it might be more efficient to use real space projection operators      |
|      So try LREAL= Auto  in the INCAR   file.                               |
|      Mind: If you want to do a very accurate calculations keep the          |
|      reciprocal projection scheme          (i.e. LREAL=.FALSE.)             |
|                                                                             |
 ----------------------------------------------------------------------------- 

 PAW_PBE Zr_sv 07Sep2000                :
 energy of atom  1       EATOM=-1283.3934
 kinetic energy error for atom=    0.0044 (will be added to EATOM!!)
 PAW_PBE W_pv 06Sep2000                 :
 energy of atom  2       EATOM=-1260.0376
 kinetic energy error for atom=    0.0051 (will be added to EATOM!!)
 PAW_PBE Hf_pv 06Sep2000                :
 energy of atom  3       EATOM= -859.6195
 kinetic energy error for atom=    0.0038 (will be added to EATOM!!)
 PAW_PBE N 08Apr2002                    :
 energy of atom  4       EATOM= -264.5486
 kinetic energy error for atom=    0.0736 (will be added to EATOM!!)
 PAW_PBE C 08Apr2002                    :
 energy of atom  5       EATOM= -147.1560
 kinetic energy error for atom=    0.0288 (will be added to EATOM!!)
 PAW_PBE Ta_pv 07Sep2000                :
 energy of atom  6       EATOM=-1045.8051
 kinetic energy error for atom=    0.0046 (will be added to EATOM!!)
 PAW_PBE Nb_sv 17Jan2003                :
 energy of atom  7       EATOM=-1555.1913
 kinetic energy error for atom=    0.0212 (will be added to EATOM!!)
 
 
 POSCAR: 43-ZrHfNbTaW                            
  positions in direct lattice
  velocities in cartesian coordinates
 exchange correlation table for  LEXCH =        8
   RHO(1)=    0.500       N(1)  =     2000
   RHO(2)=  100.500       N(2)  =     4000
 


--------------------------------------------------------------------------------------------------------


 ion  position               nearest neighbor table
   1  0.994  0.999  0.998-  25 2.24  29 2.25  38 2.29  34 2.30  23 2.31  22 2.38  58 3.11   9 3.12
                            59 3.13  18 3.18  16 3.19  17 3.19  56 3.19  14 3.22   8 3.23   2 3.27
   2  0.250  1.000  0.253-  21 2.25  43 2.26  36 2.26  26 2.28  34 2.29  22 2.33  59 3.12  61 3.12
                            57 3.14   8 3.16  20 3.21  19 3.21  18 3.23  55 3.23  14 3.25  15 3.26
   3  0.251  0.500  0.250-  41 2.26  36 2.27  21 2.29  46 2.30  37 2.30  27 2.32  55 3.16   4 3.17
                            62 3.18   6 3.18  15 3.20  18 3.21  54 3.21  20 3.22  19 3.22  14 3.22
   4  0.500  0.500  0.000-  41 2.28  52 2.30  40 2.31  37 2.31  35 2.33  28 2.37  63 3.14  13 3.14
                            60 3.16   3 3.17  17 3.18  55 3.18  15 3.19   7 3.22  14 3.23   5 3.24
   5  0.499  0.248  0.745-  33 2.25  42 2.25  32 2.26  52 2.29  35 2.31  30 2.37  13 3.08  53 3.12
                            19 3.16  14 3.20  56 3.21  57 3.21  17 3.23   4 3.24  63 3.24  62 3.29
   6  0.998  0.500  0.497-  50 2.27  44 2.29  27 2.29  48 2.30  46 2.30  47 2.32  11 3.01  10 3.08
                            12 3.08  64 3.10   3 3.18  19 3.18  20 3.18   8 3.19  60 3.21  63 3.24
   7  0.500  0.752  0.749-  33 2.25  51 2.27  49 2.29  52 2.29  28 2.32  45 2.34  63 3.07  57 3.09
                            62 3.13  58 3.14  13 3.19  53 3.20  20 3.20  64 3.20   4 3.22  18 3.23
   8  0.987  0.230  0.270-  34 2.10  24 2.16  44 2.20  21 2.34  23 2.34  27 2.37  11 2.78  61 2.93
                            16 3.04   2 3.16  19 3.17   6 3.19   1 3.23  17 3.27  14 3.39   3 3.43
   9  0.770  0.736  0.998-  38 2.08  40 2.12  49 2.22  39 2.24  25 2.40  28 2.44  54 2.96  12 2.99
                            63 3.04  60 3.10  59 3.11   1 3.12  58 3.19   4 3.25  16 3.30   7 3.33
  10  0.017  0.275  0.751-  48 2.05  42 2.12  44 2.16  30 2.33  23 2.36  29 2.44  13 2.96  14 3.04
                            19 3.04  54 3.05   6 3.08  56 3.19  17 3.21  11 3.32   1 3.36  58 3.52
  11  0.766  0.263  0.483-  44 2.09  50 2.12  24 2.16  31 2.35  32 2.36  30 2.36   8 2.78   6 3.01
                            60 3.05  15 3.16  16 3.19  61 3.20  10 3.32   5 3.37  58 3.47  57 3.53
  12  0.995  0.725  0.754-  48 2.04  49 2.20  38 2.23  45 2.23  47 2.24  29 2.56   9 2.99  54 3.00
                            63 3.01   6 3.08  18 3.15  64 3.18  20 3.18  13 3.20  58 3.24   1 3.32
  13  0.262  0.492  0.748-  52 2.14  46 2.19  42 2.21  37 2.23  48 2.34  45 2.37  10 2.96   5 3.08
                            19 3.10  62 3.12  14 3.14   4 3.14   7 3.19  12 3.20  20 3.22  18 3.25
  14  0.245  0.250  0.996-  42 2.22  23 2.22  37 2.26  22 2.28  21 2.31  35 2.33  10 3.04  13 3.14
                            56 3.18  54 3.19   5 3.20   1 3.22   3 3.22   4 3.23  53 3.24   2 3.25
  15  0.505  0.254  0.252-  32 2.19  24 2.22  41 2.25  35 2.26  26 2.31  21 2.35  60 3.14  11 3.16
                             4 3.19   3 3.20  16 3.21  53 3.22  62 3.23  17 3.24  19 3.25   2 3.26
  16  0.748  0.996  0.253-  26 2.22  34 2.24  39 2.25  31 2.25  25 2.28  24 2.29   8 3.04  59 3.07
                            11 3.19   1 3.19  55 3.20  53 3.20  15 3.21  64 3.21  61 3.21  57 3.23
  17  0.756  0.259  0.994-  23 2.22  40 2.22  30 2.26  24 2.27  35 2.28  25 2.35  54 3.13   4 3.18
                            53 3.19   1 3.19  63 3.20  10 3.21  60 3.22   5 3.23  15 3.24  58 3.27
  18  0.242  0.750  0.998-  38 2.19  45 2.22  37 2.27  36 2.27  22 2.27  28 2.34  54 3.13  12 3.15
                             1 3.18  59 3.19   3 3.21   7 3.23   2 3.23   4 3.25  13 3.25  56 3.25
  19  0.247  0.251  0.504-  42 2.21  46 2.26  44 2.27  43 2.28  21 2.28  32 2.34  10 3.04  13 3.10
                            56 3.12  61 3.15   5 3.16   8 3.17   6 3.18   2 3.21   3 3.22  57 3.24
  20  0.245  0.750  0.504-  45 2.23  47 2.25  43 2.27  46 2.27  36 2.29  51 2.30  57 3.09  61 3.15
                            62 3.15  56 3.16   6 3.18  12 3.18  59 3.19   7 3.20   2 3.21  55 3.21
  21  0.245  0.249  0.252-   2 2.25  19 2.28   3 2.29  14 2.31   8 2.34  15 2.35
  22  0.257  1.000  0.995-  56 2.27  18 2.27  53 2.27  14 2.28   2 2.33   1 2.38
  23  0.000  0.253  0.012-  17 2.22  14 2.22  54 2.27   1 2.31   8 2.34  10 2.36
  24  0.751  0.248  0.245-  11 2.16   8 2.16  15 2.22  17 2.27  16 2.29  60 2.34
  25  0.746  1.000  0.001-  53 2.14   1 2.24  58 2.25  16 2.28  17 2.35   9 2.40
  26  0.503  1.000  0.249-  16 2.22   2 2.28  57 2.29  15 2.31  53 2.31  55 2.31
  27  0.995  0.489  0.243-  54 2.19  60 2.28   6 2.29   3 2.32   8 2.37
  28  0.501  0.761  0.005-  55 2.24  53 2.24   7 2.32  18 2.34   4 2.37   9 2.44
  29  0.999  0.007  0.748-  56 2.19  58 2.22  61 2.25   1 2.25  10 2.44  12 2.56
  30  0.761  0.241  0.744-  17 2.26  58 2.29  10 2.33  11 2.36   5 2.37
  31  0.743  0.006  0.503-  58 2.25  16 2.25  57 2.29  11 2.35  61 2.36
  32  0.506  0.241  0.494-  15 2.19   5 2.26  57 2.30  19 2.34  11 2.36
  33  0.501  0.000  0.748-  53 2.21  57 2.22   5 2.25   7 2.25  58 2.29  56 2.34
  34  0.996  0.999  0.253-   8 2.10  59 2.12  61 2.22  16 2.24   2 2.29   1 2.30
  35  0.504  0.244  0.001-  53 2.14  15 2.26  17 2.28   5 2.31   4 2.33  14 2.33
  36  0.251  0.751  0.249-  55 2.25   2 2.26  18 2.27   3 2.27  59 2.29  20 2.29
  37  0.244  0.500  0.995-  54 2.21  13 2.23  14 2.26  18 2.27   3 2.30   4 2.31
  38  1.000  0.746  0.000-   9 2.08  18 2.19  54 2.20  12 2.23  59 2.29   1 2.29
  39  0.747  0.748  0.245-  60 2.20  55 2.23   9 2.24  16 2.25  59 2.27  64 2.29
  40  0.756  0.503  0.999-   9 2.12  54 2.20  17 2.22  63 2.27  60 2.27   4 2.31
  41  0.502  0.502  0.253-  60 2.18  55 2.21  62 2.21  15 2.25   3 2.26   4 2.28
  42  0.250  0.249  0.750-  10 2.12  13 2.21  19 2.21  14 2.22  56 2.22   5 2.25
  43  0.249  0.000  0.503-  56 2.17  57 2.18  61 2.21   2 2.26  20 2.27  19 2.28
  44  0.995  0.249  0.514-  11 2.09  10 2.16   8 2.20  61 2.24  19 2.27   6 2.29
  45  0.241  0.752  0.751-  18 2.22  20 2.23  12 2.23  56 2.29   7 2.34  13 2.37
  46  0.253  0.500  0.505-  13 2.19  62 2.24  19 2.26  20 2.27   3 2.30   6 2.30
  47  0.996  0.755  0.507-  64 2.20  12 2.24  61 2.24  20 2.25  59 2.29   6 2.32
  48  0.003  0.500  0.752-  12 2.04  10 2.05  54 2.24   6 2.30  13 2.34  63 2.37
  49  0.753  0.753  0.752-  58 2.15  63 2.18  12 2.20   9 2.22   7 2.29  64 2.29
  50  0.747  0.495  0.499-  11 2.12  64 2.22  62 2.23  60 2.24  63 2.25   6 2.27
  51  0.500  0.751  0.497-  57 2.15  62 2.16  55 2.19   7 2.27  64 2.29  20 2.30
  52  0.499  0.500  0.745-  13 2.14  63 2.19  62 2.24   5 2.29   7 2.29   4 2.30
  53  0.508  0.008  0.993-  35 2.14  25 2.14  33 2.21  28 2.24  22 2.27  26 2.31  58 3.10   5 3.12
                            17 3.19   7 3.20  16 3.20  15 3.22  14 3.24   2 3.30  56 3.31  55 3.35
  54  0.999  0.503  0.001-  27 2.19  40 2.20  38 2.20  37 2.21  48 2.24  23 2.27   9 2.96  12 3.00
                            10 3.05  17 3.13  18 3.13  14 3.19   3 3.21  60 3.22  63 3.28  13 3.28
  55  0.500  0.745  0.254-  51 2.19  41 2.21  39 2.23  28 2.24  36 2.25  26 2.31  62 3.05  60 3.09
                            57 3.14   3 3.16   4 3.18  64 3.19  16 3.20  20 3.21   2 3.23  18 3.29
  56  0.242  0.004  0.744-  43 2.17  29 2.19  42 2.22  22 2.27  45 2.29  33 2.34  61 3.09  19 3.12
                            57 3.12  20 3.16  14 3.18  10 3.19   1 3.19   5 3.21  18 3.25   7 3.27
  57  0.490  0.988  0.503-  51 2.15  43 2.18  33 2.22  31 2.29  26 2.29  32 2.30   7 3.09  20 3.09
                            56 3.12   2 3.14  55 3.14   5 3.21  16 3.23  19 3.24  64 3.27  58 3.28
  58  0.754  0.989  0.752-  49 2.15  29 2.22  25 2.25  31 2.25  30 2.29  33 2.29  53 3.10   1 3.11
                             7 3.14   9 3.19  61 3.21  64 3.21  12 3.24  17 3.27  57 3.28   5 3.29
  59  0.998  0.766  0.254-  34 2.12  39 2.27  47 2.29  38 2.29  36 2.29  16 3.07   9 3.11   2 3.12
                             1 3.13  18 3.19  20 3.19   6 3.26  54 3.29   3 3.32
  60  0.743  0.506  0.251-  41 2.18  39 2.20  50 2.24  40 2.27  27 2.28  24 2.34  11 3.05  55 3.09
                             9 3.10  15 3.14   4 3.16   6 3.21  54 3.22  17 3.22
  61  0.005  0.002  0.499-  43 2.21  34 2.22  44 2.24  47 2.24  29 2.25  31 2.36   8 2.93  56 3.09
                             2 3.12  19 3.15  20 3.15  11 3.20  58 3.21  16 3.21
  62  0.500  0.513  0.498-  51 2.16  41 2.21  50 2.23  46 2.24  52 2.24  55 3.05  13 3.12   7 3.13
                            20 3.15   3 3.18  15 3.23   5 3.29  19 3.30
  63  0.740  0.512  0.748-  49 2.18  52 2.19  50 2.25  40 2.27  48 2.37  12 3.01   9 3.04   7 3.07
                             4 3.14  17 3.20   6 3.24   5 3.24  54 3.28
  64  0.753  0.740  0.499-  47 2.20  50 2.22  49 2.29  39 2.29  51 2.29   6 3.10  12 3.18  55 3.19
                             7 3.20  58 3.21  16 3.21  57 3.27
 
  LATTYP: Found a triclinic cell.
 ALAT       =    12.7205645245
 B/A-ratio  =     0.7099943853
 C/A-ratio  =     0.7131232344
 COS(alpha) =     0.0008346579
 COS(beta)  =     0.0020929807
 COS(gamma) =     0.7056009935
  
  Lattice vectors:
  
 A1 = (  -8.9873488830,  -0.0183236791,   9.0022211771)
 A2 = (  -9.0315217184,  -0.0008932749,  -0.0117381862)
 A3 = (  -0.0066764593,  -9.0713275012,   0.0016985129)


Analysis of symmetry for initial positions (statically):
=====================================================================
 Subroutine PRICEL returns:
 Original cell was already a primitive cell.
 

 Routine SETGRP: Setting up the symmetry group for a 
 triclinic supercell.


 Subroutine GETGRP returns: Found  1 space group operations
 (whereof  1 operations were pure point group operations)
 out of a pool of  2 trial point group operations.


The static configuration has the point symmetry C_1 .


Analysis of symmetry for dynamics (positions and initial velocities):
=====================================================================
 Subroutine PRICEL returns:
 Original cell was already a primitive cell.
 

 Routine SETGRP: Setting up the symmetry group for a 
 triclinic supercell.


 Subroutine GETGRP returns: Found  1 space group operations
 (whereof  1 operations were pure point group operations)
 out of a pool of  2 trial point group operations.


The dynamic configuration has the point symmetry C_1 .


 Subroutine INISYM returns: Found  1 space group operations
 (whereof  1 operations are pure point group operations),
 and found     1 'primitive' translations

 
 
 KPOINTS: HECN                                    

Automatic generation of k-mesh.
Space group operators:
 irot       det(A)        alpha          n_x          n_y          n_z        tau_x        tau_y        tau_z
    1     1.000000     0.000000     1.000000     0.000000     0.000000     0.000000     0.000000     0.000000
 
 Subroutine IBZKPT returns following result:
 ===========================================
 
 Found     14 irreducible k-points:
 
 Following reciprocal coordinates:
            Coordinates               Weight
  0.000000  0.000000  0.000000      1.000000
  0.333333 -0.000000 -0.000000      2.000000
 -0.000000  0.333333  0.000000      2.000000
  0.333333  0.333333  0.000000      2.000000
 -0.333333  0.333333  0.000000      2.000000
 -0.000000  0.000000  0.333333      2.000000
  0.333333 -0.000000  0.333333      2.000000
 -0.333333  0.000000  0.333333      2.000000
  0.000000  0.333333  0.333333      2.000000
  0.333333  0.333333  0.333333      2.000000
 -0.333333  0.333333  0.333333      2.000000
 -0.000000 -0.333333  0.333333      2.000000
  0.333333 -0.333333  0.333333      2.000000
 -0.333333 -0.333333  0.333333      2.000000
 
 Following cartesian coordinates:
            Coordinates               Weight
  0.000000  0.000000  0.000000      1.000000
  0.036908 -0.000027 -0.000181      2.000000
 -0.000004  0.036746  0.000071      2.000000
  0.036904  0.036719 -0.000110      2.000000
 -0.036912  0.036773  0.000252      2.000000
 -0.000048  0.000007  0.036980      2.000000
  0.036860 -0.000020  0.036799      2.000000
 -0.036956  0.000034  0.037161      2.000000
 -0.000052  0.036753  0.037051      2.000000
  0.036856  0.036726  0.036870      2.000000
 -0.036960  0.036780  0.037232      2.000000
 -0.000044 -0.036739  0.036909      2.000000
  0.036864 -0.036766  0.036728      2.000000
 -0.036952 -0.036712  0.037090      2.000000
 


--------------------------------------------------------------------------------------------------------




 Dimension of arrays:
   k-points           NKPTS =     14   k-points in BZ     NKDIM =     14   number of bands    NBANDS=    312
   number of dos      NEDOS =    301   number of ions     NIONS =     64
   non local maximal  LDIM  =      6   non local SUM 2l+1 LMDIM =     18
   total plane-waves  NPLWV = 110592
   max r-space proj   IRMAX =      1   max aug-charges    IRDMAX=   9341
   dimension x,y,z NGX =    48 NGY =   48 NGZ =   48
   dimension x,y,z NGXF=    96 NGYF=   96 NGZF=   96
   support grid    NGXF=    96 NGYF=   96 NGZF=   96
   ions per type =               7   6   7  13  19   6   6
   NGX,Y,Z   is equivalent  to a cutoff of   8.84,  8.80,  8.85 a.u.
   NGXF,Y,Z  is equivalent  to a cutoff of  17.67, 17.59, 17.71 a.u.

 SYSTEM =  HEBCN                                   
 POSCAR =  43-ZrHfNbTaW                            

 Startparameter for this run:
   NWRITE =      2    write-flag & timer
   PREC   = normal    normal or accurate (medium, high low for compatibility)
   ISTART =      0    job   : 0-new  1-cont  2-samecut
   ICHARG =      2    charge: 1-file 2-atom 10-const
   ISPIN  =      1    spin polarized calculation?
   LNONCOLLINEAR =      F non collinear calculations
   LSORBIT =      F    spin-orbit coupling
   INIWAV =      1    electr: 0-lowe 1-rand  2-diag
   LASPH  =      F    aspherical Exc in radial PAW
   METAGGA=      F    non-selfconsistent MetaGGA calc.

 Electronic Relaxation 1
   ENCUT  =  400.0 eV  29.40 Ry    5.42 a.u.  14.73 14.79 14.70*2*pi/ulx,y,z
   ENINI  =  400.0     initial cutoff
   ENAUG  =  644.9 eV  augmentation charge cutoff
   NELM   =     60;   NELMIN=  2; NELMDL= -5     # of ELM steps 
   EDIFF  = 0.1E-04   stopping-criterion for ELM
   LREAL  =      F    real-space projection
   NLSPLINE    = F    spline interpolate recip. space projectors
   LCOMPAT=      F    compatible to vasp.4.4
   GGA_COMPAT  = T    GGA compatible to vasp.4.4-vasp.4.6
   LMAXPAW     = -100 max onsite density
   LMAXMIX     =    2 max onsite mixed and CHGCAR
   VOSKOWN=      0    Vosko Wilk Nusair interpolation
   ROPT   =    0.00000   0.00000   0.00000   0.00000
   ROPT   =    0.00000   0.00000   0.00000
 Ionic relaxation
   EDIFFG = -.1E-01   stopping-criterion for IOM
   NSW    =      0    number of steps for IOM
   NBLOCK =      1;   KBLOCK =      1    inner block; outer block 
   IBRION =     -1    ionic relax: 0-MD 1-quasi-New 2-CG
   NFREE  =      0    steps in history (QN), initial steepest desc. (CG)
   ISIF   =      2    stress and relaxation
   IWAVPR =     10    prediction:  0-non 1-charg 2-wave 3-comb
   ISYM   =      2    0-nonsym 1-usesym 2-fastsym
   LCORR  =      T    Harris-Foulkes like correction to forces

   POTIM  = 0.5000    time-step for ionic-motion
   TEIN   =    0.0    initial temperature
   TEBEG  =    0.0;   TEEND  =   0.0 temperature during run
   SMASS  =  -3.00    Nose mass-parameter (am)
   estimated Nose-frequenzy (Omega)   =  0.10E-29 period in steps =****** mass=  -0.186E-26a.u.
   SCALEE = 1.0000    scale energy and forces
   NPACO  =    256;   APACO  = 16.0  distance and # of slots for P.C.
   PSTRESS=    0.0 pullay stress

  Mass of Ions in am
   POMASS =  91.22183.85178.49 14.00 12.01180.95 92.91
  Ionic Valenz
   ZVAL   =  12.00 12.00 10.00  5.00  4.00 11.00 13.00
  Atomic Wigner-Seitz radii
   RWIGS  =  -1.00 -1.00 -1.00 -1.00 -1.00 -1.00 -1.00
  virtual crystal weights 
   VCA    =   1.00  1.00  1.00  1.00  1.00  1.00  1.00
   NELECT =     511.0000    total number of electrons
   NUPDOWN=      -1.0000    fix difference up-down

 DOS related values:
   EMIN   =  10.00;   EMAX   =-10.00  energy-range for DOS
   EFERMI =   0.00
   ISMEAR =     0;   SIGMA  =   0.10  broadening in eV -4-tet -1-fermi 0-gaus

 Electronic relaxation 2 (details)
   IALGO  =     68    algorithm
   LDIAG  =      T    sub-space diagonalisation (order eigenvalues)
   LSUBROT=      F    optimize rotation matrix (better conditioning)
   TURBO    =      0    0=normal 1=particle mesh
   IRESTART =      0    0=no restart 2=restart with 2 vectors
   NREBOOT  =      0    no. of reboots
   NMIN     =      0    reboot dimension
   EREF     =   0.00    reference energy to select bands
   IMIX   =      4    mixing-type and parameters
     AMIX     =   0.40;   BMIX     =  1.00
     AMIX_MAG =   1.60;   BMIX_MAG =  1.00
     AMIN     =   0.10
     WC   =   100.;   INIMIX=   1;  MIXPRE=   1;  MAXMIX= -45

 Intra band minimization:
   WEIMIN = 0.0000     energy-eigenvalue tresh-hold
   EBREAK =  0.80E-08  absolut break condition
   DEPER  =   0.30     relativ break condition  

   TIME   =   0.40     timestep for ELM

  volume/ion in A,a.u.               =      11.54        77.87
  Fermi-wavevector in a.u.,A,eV,Ry     =   1.447995  2.736313 28.527184  2.096689
  Thomas-Fermi vector in A             =   2.565886
 
 Write flags
   LWAVE        =      T    write WAVECAR
   LDOWNSAMPLE  =      F    k-point downsampling of WAVECAR
   LCHARG       =      T    write CHGCAR
   LVTOT        =      F    write LOCPOT, total local potential
   LVHAR        =      F    write LOCPOT, Hartree potential only
   LELF         =      F    write electronic localiz. function (ELF)
   LORBIT       =      0    0 simple, 1 ext, 2 COOP (PROOUT), +10 PAW based schemes


 Dipole corrections
   LMONO  =      F    monopole corrections only (constant potential shift)
   LDIPOL =      F    correct potential (dipole corrections)
   IDIPOL =      0    1-x, 2-y, 3-z, 4-all directions 
   EPSILON=  1.0000000 bulk dielectric constant

 Exchange correlation treatment:
   GGA     =    --    GGA type
   LEXCH   =     8    internal setting for exchange type
   VOSKOWN=      0    Vosko Wilk Nusair interpolation
   LHFCALC =     F    Hartree Fock is set to
   LHFONE  =     F    Hartree Fock one center treatment
   AEXX    =    0.0000 exact exchange contribution

 Linear response parameters
   LEPSILON=     F    determine dielectric tensor
   LRPA    =     F    only Hartree local field effects (RPA)
   LNABLA  =     F    use nabla operator in PAW spheres
   LVEL    =     F    velocity operator in full k-point grid
   LINTERFAST=   F  fast interpolation
   KINTER  =     0    interpolate to denser k-point grid
   CSHIFT  =0.1000    complex shift for real part using Kramers Kronig
   OMEGAMAX=  -1.0    maximum frequency
   DEG_THRESHOLD= 0.2000000E-02 threshold for treating states as degnerate
   RTIME   =   -0.100 relaxation time in fs
  (WPLASMAI=    0.000 imaginary part of plasma frequency in eV, 0.658/RTIME)
   DFIELD  = 0.0000000 0.0000000 0.0000000 field for delta impulse in time
 
 Orbital magnetization related:
   ORBITALMAG=     F  switch on orbital magnetization
   LCHIMAG   =     F  perturbation theory with respect to B field
   DQ        =  0.001000  dq finite difference perturbation B field
   LLRAUG    =     F  two centre corrections for induced B field



--------------------------------------------------------------------------------------------------------


 Static calculation
 charge density and potential will be updated during run
 non-spin polarized calculation
 RMM-DIIS sequential band-by-band and
  variant of blocked Davidson during initial phase
 perform sub-space diagonalisation
    before iterative eigenvector-optimisation
 modified Broyden-mixing scheme, WC =      100.0
 initial mixing is a Kerker type mixing with AMIX =  0.4000 and BMIX =      1.0000
 Hartree-type preconditioning will be used
 using additional bands           56
 reciprocal scheme for non local part
 use partial core corrections
 calculate Harris-corrections to forces 
   (improved forces if not selfconsistent)
 use gradient corrections 
 use of overlap-Matrix (Vanderbilt PP)
 Gauss-broadening in eV      SIGMA  =   0.10


--------------------------------------------------------------------------------------------------------


  energy-cutoff  :      400.00
  volume of cell :      738.49
      direct lattice vectors                 reciprocal lattice vectors
     9.031521718  0.000893275  0.011738186     0.110724026 -0.000081594 -0.000542760
     0.006676459  9.071327501 -0.001698513    -0.000011180  0.110237497  0.000213222
     0.044172835 -0.017430404  9.013959363    -0.000144189  0.000020878  0.110939787

  length of vectors
     9.031529391  9.071330117  9.014084449     0.110725386  0.110237704  0.110939883


 
 k-points in units of 2pi/SCALE and weight: HECN                                    
   0.00000000  0.00000000  0.00000000       0.037
   0.03690801 -0.00002720 -0.00018092       0.074
  -0.00000373  0.03674583  0.00007107       0.074
   0.03690428  0.03671863 -0.00010985       0.074
  -0.03691174  0.03677303  0.00025199       0.074
  -0.00004806  0.00000696  0.03697993       0.074
   0.03685995 -0.00002024  0.03679901       0.074
  -0.03695607  0.00003416  0.03716085       0.074
  -0.00005179  0.03675279  0.03705100       0.074
   0.03685622  0.03672559  0.03687008       0.074
  -0.03695980  0.03677999  0.03723192       0.074
  -0.00004434 -0.03673887  0.03690885       0.074
   0.03686367 -0.03676607  0.03672793       0.074
  -0.03695234 -0.03671167  0.03708977       0.074
 
 k-points in reciprocal lattice and weights: HECN                                    
   0.00000000  0.00000000  0.00000000       0.037
   0.33333333 -0.00000000 -0.00000000       0.074
  -0.00000000  0.33333333  0.00000000       0.074
   0.33333333  0.33333333  0.00000000       0.074
  -0.33333333  0.33333333  0.00000000       0.074
  -0.00000000  0.00000000  0.33333333       0.074
   0.33333333 -0.00000000  0.33333333       0.074
  -0.33333333  0.00000000  0.33333333       0.074
   0.00000000  0.33333333  0.33333333       0.074
   0.33333333  0.33333333  0.33333333       0.074
  -0.33333333  0.33333333  0.33333333       0.074
  -0.00000000 -0.33333333  0.33333333       0.074
   0.33333333 -0.33333333  0.33333333       0.074
  -0.33333333 -0.33333333  0.33333333       0.074
 
 position of ions in fractional coordinates (direct lattice) 
   0.99375065  0.99869904  0.99791431
   0.24969581  0.99996327  0.25294603
   0.25148989  0.50043348  0.25018032
   0.49996752  0.50010548  0.00012756
   0.49904481  0.24789586  0.74548406
   0.99817213  0.49990233  0.49676097
   0.49995759  0.75226734  0.74872767
   0.98741531  0.23018904  0.27007538
   0.76984676  0.73638645  0.99769782
   0.01650939  0.27533025  0.75125827
   0.76598240  0.26265670  0.48298220
   0.99526148  0.72486118  0.75350038
   0.26183560  0.49214178  0.74788742
   0.24547348  0.25038577  0.99553414
   0.50463143  0.25405391  0.25159795
   0.74815355  0.99588339  0.25340833
   0.75570540  0.25868474  0.99364820
   0.24218774  0.74968638  0.99798260
   0.24658805  0.25113234  0.50427463
   0.24481074  0.75009088  0.50390001
   0.24493836  0.24850025  0.25163897
   0.25684637  0.99979690  0.99499961
   0.00034968  0.25331962  0.01150705
   0.75073311  0.24833109  0.24486127
   0.74554802  0.99972781  0.00094658
   0.50260459  0.99991274  0.24932571
   0.99530668  0.48949502  0.24275196
   0.50074222  0.76084457  0.00546374
   0.99914975  0.00712107  0.74819380
   0.76107646  0.24086718  0.74401110
   0.74274363  0.00570468  0.50332197
   0.50558334  0.24143298  0.49439544
   0.50057418  0.00023285  0.74795374
   0.99585507  0.99944918  0.25307706
   0.50355983  0.24369838  0.00129961
   0.25112088  0.75098178  0.24944264
   0.24397795  0.49985978  0.99490207
   0.99979253  0.74618820  0.00025238
   0.74671170  0.74832588  0.24497443
   0.75576651  0.50319579  0.99897523
   0.50217824  0.50198106  0.25261955
   0.25013524  0.24906464  0.74970947
   0.24939151  0.00033368  0.50314992
   0.99523596  0.24852367  0.51367175
   0.24117208  0.75220536  0.75132560
   0.25317401  0.49982989  0.50501368
   0.99610236  0.75511642  0.50713587
   0.00278824  0.50044996  0.75219539
   0.75299353  0.75251300  0.75238636
   0.74695815  0.49525495  0.49892326
   0.49978000  0.75100540  0.49684204
   0.49856294  0.49992556  0.74529582
   0.50848914  0.00785773  0.99314520
   0.99924969  0.50320791  0.00063114
   0.49988212  0.74515927  0.25359950
   0.24152283  0.00412548  0.74397306
   0.49013034  0.98798714  0.50276242
   0.75376975  0.98907307  0.75197235
   0.99760228  0.76553028  0.25367829
   0.74309014  0.50604712  0.25063830
   0.00450615  0.00216200  0.49883092
   0.50032646  0.51284693  0.49758957
   0.74033993  0.51228718  0.74791081
   0.75315870  0.73977668  0.49881727
 
 position of ions in cartesian coordinates  (Angst):
   9.02582908  9.04301968  9.00512753
   2.27298272  9.06680845  2.28127779
   2.28572874  4.53545992  2.25721727
   4.51881207  4.53706498  0.00616909
   4.54171922  2.23619618  6.72519986
   9.04029419  4.52701061  4.48865088
   4.55347378  6.81145938  6.75359164
   8.93132967  2.08429470  2.44564795
   7.00187533  6.66330011  9.00099348
   0.18412838  2.48453088  6.77153762
   6.94107496  2.37491058  4.36212701
   9.02684938  6.56320842  6.80247317
   2.40109595  4.45157714  6.74366439
   2.26264630  2.25419802  8.97616044
   4.57039965  2.30067153  2.27338561
   6.77480774  9.03023568  2.29130281
   6.87078908  2.32996940  8.96513574
   2.23641284  6.78347176  8.99734408
   2.25101722  2.26953422  4.54797897
   2.23828012  6.79575551  4.54373381
   2.22494087  2.25005975  2.27071652
   2.37034063  9.05237130  8.97020280
   0.00535770  2.29774499  0.10329795
   6.79273656  2.24909527  2.21556003
   6.74014957  9.06950787  0.01558576
   4.55697359  9.06663904  2.25161312
   9.00312507  4.43702746  2.19900797
   4.52778535  6.90222230  0.05383547
   9.05694008  0.05244871  6.75590459
   6.90815176  2.17269648  6.71501038
   6.73037648  0.04363935  4.54563253
   4.58963769  2.18195175  4.46198492
   4.55398742 -0.01047772  6.74790005
   9.01193858  9.06280921  2.29121825
   4.54959600  2.21109498  0.01721162
   2.28403617  6.80827809  2.25013801
   2.25077708  4.51726819  8.97002164
   9.03464101  6.76980627  0.01274332
   6.75976035  6.78470616  2.21568351
   6.87320874  4.54791635  9.01273879
   4.54994404  4.54967994  2.28214444
   2.29388156  2.24650264  6.76036382
   2.27461264 -0.00552039  4.53829979
   9.01284483  2.24637515  4.64147643
   2.21636113  6.81062068  6.77397172
   2.31219159  4.52554422  4.55429562
   9.02376320  6.84195858  4.58171199
   0.06174993  4.52663695  6.77944135
   6.83893656  6.81385011  6.78954071
   6.77151413  4.48459061  4.50520071
   4.54073489  6.80440225  4.48310484
   4.53904161  4.52244304  6.72306929
   4.63635318  0.05442330  8.95812589
   9.02813278  4.56564531  0.01656370
   4.53087348  6.75560998  2.29053761
   2.21420964  0.02467155  6.70897096
   4.45542752  8.95402941  4.53595520
   6.84750809  8.95977188  6.78541613
   9.02618338  6.94084531  2.29705556
   6.72568471  4.58681423  2.26710645
   0.06274664  0.01092144  4.49649090
   4.54411320  4.64397618  4.49025399
   6.72285372  4.63474974  6.74945779
   6.82914241  6.70273477  4.50390276
 


--------------------------------------------------------------------------------------------------------


 k-point  1 :   0.0000 0.0000 0.0000  plane waves:   13383
 k-point  2 :   0.3333-0.0000-0.0000  plane waves:   13412
 k-point  3 :  -0.0000 0.3333 0.0000  plane waves:   13424
 k-point  4 :   0.3333 0.3333 0.0000  plane waves:   13434
 k-point  5 :  -0.3333 0.3333 0.0000  plane waves:   13440
 k-point  6 :  -0.0000 0.0000 0.3333  plane waves:   13410
 k-point  7 :   0.3333-0.0000 0.3333  plane waves:   13437
 k-point  8 :  -0.3333 0.0000 0.3333  plane waves:   13416
 k-point  9 :   0.0000 0.3333 0.3333  plane waves:   13428
 k-point 10 :   0.3333 0.3333 0.3333  plane waves:   13399
 k-point 11 :  -0.3333 0.3333 0.3333  plane waves:   13395
 k-point 12 :  -0.0000-0.3333 0.3333  plane waves:   13434
 k-point 13 :   0.3333-0.3333 0.3333  plane waves:   13406
 k-point 14 :  -0.3333-0.3333 0.3333  plane waves:   13393

 maximum and minimum number of plane-waves per node :     13440    13383

 maximum number of plane-waves:     13440
 maximum index in each direction: 
   IXMAX=   15   IYMAX=   15   IZMAX=   14
   IXMIN=  -15   IYMIN=  -15   IZMIN=  -15


 serial   3D FFT for wavefunctions
 parallel 3D FFT for charge:
    minimum data exchange during FFTs selected (reduces bandwidth)


 total amount of memory used by VASP MPI-rank0   285791. kBytes
=======================================================================

   base      :      30000. kBytes
   nonl-proj :     203427. kBytes
   fftplans  :       1726. kBytes
   grid      :       8060. kBytes
   one-center:        995. kBytes
   wavefun   :      41583. kBytes
 
     INWAV:  cpu time    0.0000: real time    0.0000
 Broyden mixing: mesh for mixing (old mesh)
   NGX = 29   NGY = 29   NGZ = 29
  (NGX  = 96   NGY  = 96   NGZ  = 96)
  gives a total of  24389 points

 initial charge density was supplied:
 charge density of overlapping atoms calculated
 number of electron     511.0000000 magnetization 
 keeping initial charge density in first step


--------------------------------------------------------------------------------------------------------


 Maximum index for augmentation-charges          518 (set IRDMAX)


--------------------------------------------------------------------------------------------------------


 First call to EWALD:  gamma=   0.196
 Maximum number of real-space cells 3x 3x 3
 Maximum number of reciprocal cells 3x 3x 3

    FEWALD:  cpu time    0.0031: real time    0.0031


--------------------------------------- Iteration      1(   1)  ---------------------------------------


    POTLOK:  cpu time    0.0343: real time    0.0411
    SETDIJ:  cpu time    0.0083: real time    0.0087
     EDDAV:  cpu time   32.9683: real time   33.4238
       DOS:  cpu time    0.0015: real time    0.0015
    --------------------------------------------
      LOOP:  cpu time   33.0124: real time   33.4750

 eigenvalue-minimisations  :  8736
 total energy-change (2. order) : 0.4521758E+04  (-0.2315190E+05)
 number of electron     511.0000000 magnetization 
 augmentation part      511.0000000 magnetization 

 Free energy of the ion-electron system (eV)
  ---------------------------------------------------
  alpha Z        PSCENC =      4650.35817871
  Ewald energy   TEWEN  =    -41451.35437318
  -Hartree energ DENC   =     -5759.33109387
  -exchange      EXHF   =         0.00000000
  -V(xc)+E(xc)   XCENC  =      1728.29130756
  PAW double counting   =     26359.63713107   -25893.84076579
  entropy T*S    EENTRO =        -0.05185330
  eigenvalues    EBANDS =       487.40547516
  atomic energy  EATOM  =     44400.64352583
  Solvation  Ediel_sol  =         0.00000000
  ---------------------------------------------------
  free energy    TOTEN  =      4521.75753220 eV

  energy without entropy =     4521.80938550  energy(sigma->0) =     4521.78345885


--------------------------------------------------------------------------------------------------------




--------------------------------------- Iteration      1(   2)  ---------------------------------------


     EDDAV:  cpu time   36.0848: real time   36.6205
       DOS:  cpu time    0.0014: real time    0.0014
    --------------------------------------------
      LOOP:  cpu time   36.0861: real time   36.6219

 eigenvalue-minimisations  :  9936
 total energy-change (2. order) :-0.4706796E+04  (-0.4491484E+04)
 number of electron     511.0000000 magnetization 
 augmentation part      511.0000000 magnetization 

 Free energy of the ion-electron system (eV)
  ---------------------------------------------------
  alpha Z        PSCENC =      4650.35817871
  Ewald energy   TEWEN  =    -41451.35437318
  -Hartree energ DENC   =     -5759.33109387
  -exchange      EXHF   =         0.00000000
  -V(xc)+E(xc)   XCENC  =      1728.29130756
  PAW double counting   =     26359.63713107   -25893.84076579
  entropy T*S    EENTRO =        -0.07629211
  eigenvalues    EBANDS =     -4219.36652498
  atomic energy  EATOM  =     44400.64352583
  Solvation  Ediel_sol  =         0.00000000
  ---------------------------------------------------
  free energy    TOTEN  =      -185.03890674 eV

  energy without entropy =     -184.96261464  energy(sigma->0) =     -185.00076069


--------------------------------------------------------------------------------------------------------




--------------------------------------- Iteration      1(   3)  ---------------------------------------


     EDDAV:  cpu time   47.7763: real time   48.2579
       DOS:  cpu time    0.0014: real time    0.0014
    --------------------------------------------
      LOOP:  cpu time   47.7777: real time   48.2593

 eigenvalue-minimisations  : 14016
 total energy-change (2. order) :-0.5664625E+03  (-0.5552296E+03)
 number of electron     511.0000000 magnetization 
 augmentation part      511.0000000 magnetization 

 Free energy of the ion-electron system (eV)
  ---------------------------------------------------
  alpha Z        PSCENC =      4650.35817871
  Ewald energy   TEWEN  =    -41451.35437318
  -Hartree energ DENC   =     -5759.33109387
  -exchange      EXHF   =         0.00000000
  -V(xc)+E(xc)   XCENC  =      1728.29130756
  PAW double counting   =     26359.63713107   -25893.84076579
  entropy T*S    EENTRO =        -0.07354851
  eigenvalues    EBANDS =     -4785.83177669
  atomic energy  EATOM  =     44400.64352583
  Solvation  Ediel_sol  =         0.00000000
  ---------------------------------------------------
  free energy    TOTEN  =      -751.50141485 eV

  energy without entropy =     -751.42786634  energy(sigma->0) =     -751.46464060


--------------------------------------------------------------------------------------------------------




--------------------------------------- Iteration      1(   4)  ---------------------------------------


     EDDAV:  cpu time   51.3725: real time   52.1471
       DOS:  cpu time    0.0013: real time    0.0013
    --------------------------------------------
      LOOP:  cpu time   51.3738: real time   52.1484

 eigenvalue-minimisations  : 15168
 total energy-change (2. order) :-0.3619835E+02  (-0.3583876E+02)
 number of electron     511.0000000 magnetization 
 augmentation part      511.0000000 magnetization 

 Free energy of the ion-electron system (eV)
  ---------------------------------------------------
  alpha Z        PSCENC =      4650.35817871
  Ewald energy   TEWEN  =    -41451.35437318
  -Hartree energ DENC   =     -5759.33109387
  -exchange      EXHF   =         0.00000000
  -V(xc)+E(xc)   XCENC  =      1728.29130756
  PAW double counting   =     26359.63713107   -25893.84076579
  entropy T*S    EENTRO =        -0.08044147
  eigenvalues    EBANDS =     -4822.02323790
  atomic energy  EATOM  =     44400.64352583
  Solvation  Ediel_sol  =         0.00000000
  ---------------------------------------------------
  free energy    TOTEN  =      -787.69976903 eV

  energy without entropy =     -787.61932756  energy(sigma->0) =     -787.65954829


--------------------------------------------------------------------------------------------------------




--------------------------------------- Iteration      1(   5)  ---------------------------------------


     EDDAV:  cpu time   52.2211: real time   52.9023
       DOS:  cpu time    0.0013: real time    0.0013
    CHARGE:  cpu time    0.3616: real time    0.3649
    MIXING:  cpu time    0.0016: real time    0.0017
    --------------------------------------------
      LOOP:  cpu time   52.5856: real time   53.2703

 eigenvalue-minimisations  : 15528
 total energy-change (2. order) :-0.2895771E+01  (-0.2886326E+01)
 number of electron     510.9999987 magnetization 
 augmentation part       92.1957958 magnetization 

 Broyden mixing:
  rms(total) = 0.55043E+01    rms(broyden)= 0.55027E+01
  rms(prec ) = 0.88013E+01
  weight for this iteration     100.00

 Free energy of the ion-electron system (eV)
  ---------------------------------------------------
  alpha Z        PSCENC =      4650.35817871
  Ewald energy   TEWEN  =    -41451.35437318
  -Hartree energ DENC   =     -5759.33109387
  -exchange      EXHF   =         0.00000000
  -V(xc)+E(xc)   XCENC  =      1728.29130756
  PAW double counting   =     26359.63713107   -25893.84076579
  entropy T*S    EENTRO =        -0.08211948
  eigenvalues    EBANDS =     -4824.91733132
  atomic energy  EATOM  =     44400.64352583
  Solvation  Ediel_sol  =         0.00000000
  ---------------------------------------------------
  free energy    TOTEN  =      -790.59554046 eV

  energy without entropy =     -790.51342097  energy(sigma->0) =     -790.55448072


--------------------------------------------------------------------------------------------------------




--------------------------------------- Iteration      1(   6)  ---------------------------------------


    POTLOK:  cpu time    0.0465: real time    0.0504
    SETDIJ:  cpu time    0.0081: real time    0.0082
    EDDIAG:  cpu time    2.0589: real time    2.0815
  RMM-DIIS:  cpu time   35.6443: real time   36.1768
    ORTHCH:  cpu time    0.4909: real time    0.4947
       DOS:  cpu time    0.0012: real time    0.0012
    CHARGE:  cpu time    0.3653: real time    0.3690
    MIXING:  cpu time    0.0017: real time    0.0024
    --------------------------------------------
      LOOP:  cpu time   38.6170: real time   39.1842

 eigenvalue-minimisations  : 13747
 total energy-change (2. order) : 0.1082895E+03  (-0.6947053E+02)
 number of electron     510.9999973 magnetization 
 augmentation part       95.0829664 magnetization 

 Broyden mixing:
  rms(total) = 0.15640E+01    rms(broyden)= 0.15616E+01
  rms(prec ) = 0.24469E+01
  weight for this iteration     100.00

 eigenvalues of (default mixing * dielectric matrix)
  average eigenvalue GAMMA=   0.8621
  0.8621

 Free energy of the ion-electron system (eV)
  ---------------------------------------------------
  alpha Z        PSCENC =      4650.35817871
  Ewald energy   TEWEN  =    -41451.35437318
  -Hartree energ DENC   =     -5506.28863437
  -exchange      EXHF   =         0.00000000
  -V(xc)+E(xc)   XCENC  =      1731.34074979
  PAW double counting   =     26097.27551565   -25688.56320704
  entropy T*S    EENTRO =        -0.10400749
  eigenvalues    EBANDS =     -4915.61374553
  atomic energy  EATOM  =     44400.64352583
  Solvation  Ediel_sol  =         0.00000000
  ---------------------------------------------------
  free energy    TOTEN  =      -682.30599762 eV

  energy without entropy =     -682.20199013  energy(sigma->0) =     -682.25399388


--------------------------------------------------------------------------------------------------------




--------------------------------------- Iteration      1(   7)  ---------------------------------------


    POTLOK:  cpu time    0.0278: real time    0.0310
    SETDIJ:  cpu time    0.0081: real time    0.0081
    EDDIAG:  cpu time    2.0645: real time    2.0850
  RMM-DIIS:  cpu time   37.6097: real time   37.9990
    ORTHCH:  cpu time    0.4719: real time    0.4758
       DOS:  cpu time    0.0012: real time    0.0013
    CHARGE:  cpu time    0.3663: real time    0.3696
    MIXING:  cpu time    0.0014: real time    0.0018
    --------------------------------------------
      LOOP:  cpu time   40.5510: real time   40.9716

 eigenvalue-minimisations  : 14504
 total energy-change (2. order) : 0.6745676E+01  (-0.5024511E+01)
 number of electron     510.9999974 magnetization 
 augmentation part       94.3906392 magnetization 

 Broyden mixing:
  rms(total) = 0.94260E+00    rms(broyden)= 0.94238E+00
  rms(prec ) = 0.13081E+01
  weight for this iteration     100.00

 eigenvalues of (default mixing * dielectric matrix)
  average eigenvalue GAMMA=   0.9993
  0.9993  0.9993

 Free energy of the ion-electron system (eV)
  ---------------------------------------------------
  alpha Z        PSCENC =      4650.35817871
  Ewald energy   TEWEN  =    -41451.35437318
  -Hartree energ DENC   =     -5450.38883828
  -exchange      EXHF   =         0.00000000
  -V(xc)+E(xc)   XCENC  =      1726.32013513
  PAW double counting   =     26647.33968315   -26249.60309023
  entropy T*S    EENTRO =        -0.09937776
  eigenvalues    EBANDS =     -4948.77616536
  atomic energy  EATOM  =     44400.64352583
  Solvation  Ediel_sol  =         0.00000000
  ---------------------------------------------------
  free energy    TOTEN  =      -675.56032200 eV

  energy without entropy =     -675.46094423  energy(sigma->0) =     -675.51063312


--------------------------------------------------------------------------------------------------------




--------------------------------------- Iteration      1(   8)  ---------------------------------------


    POTLOK:  cpu time    0.0282: real time    0.0312
    SETDIJ:  cpu time    0.0080: real time    0.0081
    EDDIAG:  cpu time    2.0771: real time    2.1088
  RMM-DIIS:  cpu time   37.3988: real time   37.7990
    ORTHCH:  cpu time    0.4742: real time    0.4787
       DOS:  cpu time    0.0012: real time    0.0012
    CHARGE:  cpu time    0.3649: real time    0.3687
    MIXING:  cpu time    0.0015: real time    0.0015
    --------------------------------------------
      LOOP:  cpu time   40.3539: real time   40.7972

 eigenvalue-minimisations  : 14596
 total energy-change (2. order) : 0.3401840E+00  (-0.1106753E+01)
 number of electron     510.9999973 magnetization 
 augmentation part       94.0675911 magnetization 

 Broyden mixing:
  rms(total) = 0.65446E+00    rms(broyden)= 0.65437E+00
  rms(prec ) = 0.86471E+00
  weight for this iteration     100.00

 eigenvalues of (default mixing * dielectric matrix)
  average eigenvalue GAMMA=   1.0598
  1.4088  1.1922  0.5784

 Free energy of the ion-electron system (eV)
  ---------------------------------------------------
  alpha Z        PSCENC =      4650.35817871
  Ewald energy   TEWEN  =    -41451.35437318
  -Hartree energ DENC   =     -5420.41804349
  -exchange      EXHF   =         0.00000000
  -V(xc)+E(xc)   XCENC  =      1724.09540800
  PAW double counting   =     26981.15437199   -26586.73144971
  entropy T*S    EENTRO =        -0.09875388
  eigenvalues    EBANDS =     -4972.86900223
  atomic energy  EATOM  =     44400.64352583
  Solvation  Ediel_sol  =         0.00000000
  ---------------------------------------------------
  free energy    TOTEN  =      -675.22013796 eV

  energy without entropy =     -675.12138408  energy(sigma->0) =     -675.17076102


--------------------------------------------------------------------------------------------------------




--------------------------------------- Iteration      1(   9)  ---------------------------------------


    POTLOK:  cpu time    0.0275: real time    0.0311
    SETDIJ:  cpu time    0.0080: real time    0.0081
    EDDIAG:  cpu time    2.0575: real time    2.0769
  RMM-DIIS:  cpu time   36.8379: real time   37.2413
    ORTHCH:  cpu time    0.4790: real time    0.4800
       DOS:  cpu time    0.0012: real time    0.0012
    CHARGE:  cpu time    0.3648: real time    0.3652
    MIXING:  cpu time    0.0015: real time    0.0015
    --------------------------------------------
      LOOP:  cpu time   39.7774: real time   40.2054

 eigenvalue-minimisations  : 14396
 total energy-change (2. order) : 0.3396274E+00  (-0.3636475E+00)
 number of electron     510.9999974 magnetization 
 augmentation part       93.6593445 magnetization 

 Broyden mixing:
  rms(total) = 0.31268E+00    rms(broyden)= 0.31261E+00
  rms(prec ) = 0.44417E+00
  weight for this iteration     100.00

 eigenvalues of (default mixing * dielectric matrix)
  average eigenvalue GAMMA=   1.1539
  2.1118  0.9854  0.9854  0.5328

 Free energy of the ion-electron system (eV)
  ---------------------------------------------------
  alpha Z        PSCENC =      4650.35817871
  Ewald energy   TEWEN  =    -41451.35437318
  -Hartree energ DENC   =     -5409.83245006
  -exchange      EXHF   =         0.00000000
  -V(xc)+E(xc)   XCENC  =      1722.67082463
  PAW double counting   =     27469.33724434   -27072.85759009
  entropy T*S    EENTRO =        -0.09782796
  eigenvalues    EBANDS =     -4983.74804280
  atomic energy  EATOM  =     44400.64352583
  Solvation  Ediel_sol  =         0.00000000
  ---------------------------------------------------
  free energy    TOTEN  =      -674.88051057 eV

  energy without entropy =     -674.78268262  energy(sigma->0) =     -674.83159660


--------------------------------------------------------------------------------------------------------




--------------------------------------- Iteration      1(  10)  ---------------------------------------


    POTLOK:  cpu time    0.0280: real time    0.0312
    SETDIJ:  cpu time    0.0081: real time    0.0081
    EDDIAG:  cpu time    2.0603: real time    2.0842
  RMM-DIIS:  cpu time   39.6138: real time   40.0276
    ORTHCH:  cpu time    0.4846: real time    0.4883
       DOS:  cpu time    0.0012: real time    0.0012
    CHARGE:  cpu time    0.3650: real time    0.3663
    MIXING:  cpu time    0.0015: real time    0.0015
    --------------------------------------------
      LOOP:  cpu time   42.5623: real time   43.0085

 eigenvalue-minimisations  : 15047
 total energy-change (2. order) :-0.1345583E-01  (-0.1371486E+00)
 number of electron     510.9999974 magnetization 
 augmentation part       93.4520658 magnetization 

 Broyden mixing:
  rms(total) = 0.17116E+00    rms(broyden)= 0.17113E+00
  rms(prec ) = 0.24816E+00
  weight for this iteration     100.00

 eigenvalues of (default mixing * dielectric matrix)
  average eigenvalue GAMMA=   1.1769
  2.4778  1.1174  1.1174  0.6917  0.4805

 Free energy of the ion-electron system (eV)
  ---------------------------------------------------
  alpha Z        PSCENC =      4650.35817871
  Ewald energy   TEWEN  =    -41451.35437318
  -Hartree energ DENC   =     -5404.45316049
  -exchange      EXHF   =         0.00000000
  -V(xc)+E(xc)   XCENC  =      1722.26999360
  PAW double counting   =     27762.65787533   -27363.02080193
  entropy T*S    EENTRO =        -0.09855194
  eigenvalues    EBANDS =     -4991.89665234
  atomic energy  EATOM  =     44400.64352583
  Solvation  Ediel_sol  =         0.00000000
  ---------------------------------------------------
  free energy    TOTEN  =      -674.89396641 eV

  energy without entropy =     -674.79541447  energy(sigma->0) =     -674.84469044


--------------------------------------------------------------------------------------------------------




--------------------------------------- Iteration      1(  11)  ---------------------------------------


    POTLOK:  cpu time    0.0284: real time    0.0312
    SETDIJ:  cpu time    0.0081: real time    0.0081
    EDDIAG:  cpu time    2.0568: real time    2.0750
  RMM-DIIS:  cpu time   39.5618: real time   40.1035
    ORTHCH:  cpu time    0.4708: real time    0.4747
       DOS:  cpu time    0.0013: real time    0.0013
    CHARGE:  cpu time    0.3631: real time    0.3669
    MIXING:  cpu time    0.0017: real time    0.0017
    --------------------------------------------
      LOOP:  cpu time   42.4919: real time   43.0625

 eigenvalue-minimisations  : 15296
 total energy-change (2. order) :-0.1202689E-02  (-0.6822175E-01)
 number of electron     510.9999974 magnetization 
 augmentation part       93.3676106 magnetization 

 Broyden mixing:
  rms(total) = 0.99045E-01    rms(broyden)= 0.99024E-01
  rms(prec ) = 0.12479E+00
  weight for this iteration     100.00

 eigenvalues of (default mixing * dielectric matrix)
  average eigenvalue GAMMA=   1.2066
  2.5101  1.7912  0.9342  0.9342  0.5918  0.4783

 Free energy of the ion-electron system (eV)
  ---------------------------------------------------
  alpha Z        PSCENC =      4650.35817871
  Ewald energy   TEWEN  =    -41451.35437318
  -Hartree energ DENC   =     -5404.01636684
  -exchange      EXHF   =         0.00000000
  -V(xc)+E(xc)   XCENC  =      1722.46031404
  PAW double counting   =     27884.19565367   -27480.99272263
  entropy T*S    EENTRO =        -0.09891644
  eigenvalues    EBANDS =     -4996.09046226
  atomic energy  EATOM  =     44400.64352583
  Solvation  Ediel_sol  =         0.00000000
  ---------------------------------------------------
  free energy    TOTEN  =      -674.89516910 eV

  energy without entropy =     -674.79625266  energy(sigma->0) =     -674.84571088


--------------------------------------------------------------------------------------------------------




--------------------------------------- Iteration      1(  12)  ---------------------------------------


    POTLOK:  cpu time    0.0406: real time    0.0443
    SETDIJ:  cpu time    0.0081: real time    0.0082
    EDDIAG:  cpu time    2.0865: real time    2.1115
  RMM-DIIS:  cpu time   40.3809: real time   41.0341
    ORTHCH:  cpu time    0.5061: real time    0.5163
       DOS:  cpu time    0.0012: real time    0.0012
    CHARGE:  cpu time    0.3839: real time    0.3878
    MIXING:  cpu time    0.0017: real time    0.0017
    --------------------------------------------
      LOOP:  cpu time   43.4088: real time   44.1051

 eigenvalue-minimisations  : 15849
 total energy-change (2. order) :-0.2725317E-01  (-0.3843347E-01)
 number of electron     510.9999974 magnetization 
 augmentation part       93.2731083 magnetization 

 Broyden mixing:
  rms(total) = 0.77816E-01    rms(broyden)= 0.77797E-01
  rms(prec ) = 0.10400E+00
  weight for this iteration     100.00

 eigenvalues of (default mixing * dielectric matrix)
  average eigenvalue GAMMA=   1.2791
  2.7140  2.5634  0.9287  0.9287  0.7603  0.5878  0.4706

 Free energy of the ion-electron system (eV)
  ---------------------------------------------------
  alpha Z        PSCENC =      4650.35817871
  Ewald energy   TEWEN  =    -41451.35437318
  -Hartree energ DENC   =     -5410.56125597
  -exchange      EXHF   =         0.00000000
  -V(xc)+E(xc)   XCENC  =      1722.89842366
  PAW double counting   =     27925.78461716   -27517.99762110
  entropy T*S    EENTRO =        -0.09874400
  eigenvalues    EBANDS =     -4994.59517338
  atomic energy  EATOM  =     44400.64352583
  Solvation  Ediel_sol  =         0.00000000
  ---------------------------------------------------
  free energy    TOTEN  =      -674.92242227 eV

  energy without entropy =     -674.82367827  energy(sigma->0) =     -674.87305027


--------------------------------------------------------------------------------------------------------




--------------------------------------- Iteration      1(  13)  ---------------------------------------


    POTLOK:  cpu time    0.0309: real time    0.0312
    SETDIJ:  cpu time    0.0082: real time    0.0082
    EDDIAG:  cpu time    2.0670: real time    2.0827
  RMM-DIIS:  cpu time   40.0465: real time   40.5180
    ORTHCH:  cpu time    0.4885: real time    0.4903
       DOS:  cpu time    0.0012: real time    0.0012
    CHARGE:  cpu time    0.3676: real time    0.3681
    MIXING:  cpu time    0.0017: real time    0.0017
    --------------------------------------------
      LOOP:  cpu time   43.0116: real time   43.5013

 eigenvalue-minimisations  : 15452
 total energy-change (2. order) :-0.2489398E-02  (-0.1401558E-01)
 number of electron     510.9999974 magnetization 
 augmentation part       93.1816710 magnetization 

 Broyden mixing:
  rms(total) = 0.47814E-01    rms(broyden)= 0.47807E-01
  rms(prec ) = 0.67318E-01
  weight for this iteration     100.00

 eigenvalues of (default mixing * dielectric matrix)
  average eigenvalue GAMMA=   1.3070
  3.4647  2.4264  1.0184  1.0184  0.8553  0.6576  0.5444  0.4707

 Free energy of the ion-electron system (eV)
[...]
  0.018  -0.031  -0.006  -0.000   0.005   0.025   0.002  -0.011   0.485   0.003   0.018   0.008   0.019  -0.593  -0.004  -0.010
  0.015  -0.025  -0.011   0.007   0.001   0.037  -0.022  -0.002   0.003   0.388  -0.013   0.002   0.006  -0.004  -0.556   0.022
 -0.020   0.033  -0.009  -0.005  -0.006   0.037   0.030   0.022   0.018  -0.013   0.526   0.002   0.028  -0.010   0.022  -1.088
  0.002  -0.004   0.000   0.003  -0.001  -0.000  -0.010  -0.000   0.008   0.002   0.002   0.528  -0.002   0.000   0.000  -0.002
  0.023  -0.041  -0.014  -0.000   0.014   0.060   0.002  -0.049   0.019   0.006   0.028  -0.002   0.485  -0.009  -0.003  -0.028
 -0.005   0.014   0.005  -0.000   0.001  -0.008   0.004   0.009  -0.593  -0.004  -0.010   0.000  -0.009   0.975   0.001  -0.001
 -0.016   0.031   0.005   0.003  -0.001  -0.056   0.005   0.005  -0.004  -0.556   0.022   0.000  -0.003   0.001   0.992  -0.058
  0.033  -0.065   0.000  -0.010   0.009  -0.047   0.003  -0.073  -0.010   0.022  -1.088  -0.002  -0.028  -0.001  -0.058   2.668
 -0.003   0.004  -0.000   0.004  -0.002   0.004   0.013   0.012  -0.000   0.000  -0.002  -0.618   0.004  -0.005   0.004  -0.001
 -0.022   0.037  -0.001  -0.001  -0.015  -0.075   0.021   0.144  -0.009  -0.003  -0.028   0.004  -1.011  -0.007  -0.021   0.008


------------------------ aborting loop because EDIFF is reached ----------------------------------------


    CHARGE:  cpu time    0.3645: real time    0.3657
    FORLOC:  cpu time    0.0160: real time    0.0160
    FORNL :  cpu time   33.3769: real time   33.5890
    STRESS:  cpu time   42.8811: real time   43.3337
    FORCOR:  cpu time    0.0331: real time    0.0333
    FORHAR:  cpu time    0.0213: real time    0.0214
    MIXING:  cpu time    0.0031: real time    0.0032
    OFIELD:  cpu time    0.0000: real time    0.0000

  FORCE on cell =-STRESS in cart. coord.  units (eV):
  Direction    XX          YY          ZZ          XY          YZ          ZX
  --------------------------------------------------------------------------------------
  Alpha Z  4650.35818  4650.35818  4650.35818
  Ewald  -13875.54185-13896.67624-13679.36507    -1.89362    -0.18529    10.25391
  Hartree  1742.68402  1787.26284  1893.38716     1.84086    -1.19809     0.82246
  E(xc)   -2157.93543 -2158.53445 -2157.71765     0.01017    -0.08724     0.04960
  Local    2556.49173  2531.19855  2218.43751    -0.94862     0.29965   -14.29058
  n-local -1287.08132 -1283.61759 -1283.48888     2.13884     0.58543     1.80292
  augment   777.37243   775.12056   776.22149     0.07936     0.13345     0.53928
  Kinetic  7593.64333  7594.77191  7582.10728    -1.17780     0.48394     0.88588
  Fock        0.00000     0.00000     0.00000     0.00000     0.00000     0.00000
  -------------------------------------------------------------------------------------
  Total      -0.00892    -0.11625    -0.05998     0.04918     0.03184     0.06347
  in kB      -0.01935    -0.25221    -0.13012     0.10670     0.06909     0.13770
  external pressure =       -0.13 kB  Pullay stress =        0.00 kB


 VOLUME and BASIS-vectors are now :
 -----------------------------------------------------------------------------
  energy-cutoff  :      400.00
  volume of cell :      738.49
      direct lattice vectors                 reciprocal lattice vectors
     9.031521718  0.000893275  0.011738186     0.110724026 -0.000081594 -0.000542760
     0.006676459  9.071327501 -0.001698513    -0.000011180  0.110237497  0.000213222
     0.044172835 -0.017430404  9.013959363    -0.000144189  0.000020878  0.110939787

  length of vectors
     9.031529391  9.071330117  9.014084449     0.110725386  0.110237704  0.110939883


 FORCES acting on ions
    electron-ion (+dipol)            ewald-force                    non-local-force                 convergence-correction
 -----------------------------------------------------------------------------------------------
   -.569E+02 -.290E+02 0.792E+01   0.567E+02 0.277E+02 -.726E+01   0.206E+00 0.128E+01 -.653E+00   -.373E-03 -.239E-03 -.751E-03
   -.773E+02 -.447E+01 0.484E+02   0.764E+02 0.290E+01 -.469E+02   0.854E+00 0.157E+01 -.148E+01   0.734E-03 -.269E-03 -.487E-04
   -.197E+02 0.746E+01 0.373E+02   0.207E+02 -.618E+01 -.372E+02   -.102E+01 -.128E+01 -.434E-01   0.925E-04 0.266E-03 0.268E-04
   0.739E+02 0.403E+02 -.207E+02   -.743E+02 -.421E+02 0.211E+02   0.425E+00 0.185E+01 -.392E+00   0.379E-03 0.241E-03 -.104E-04
   0.502E+01 0.216E+02 -.462E+02   -.613E+01 -.202E+02 0.471E+02   0.110E+01 -.138E+01 -.853E+00   0.728E-03 -.427E-03 -.282E-03
   -.116E+03 -.169E+02 0.169E+02   0.117E+03 0.174E+02 -.170E+02   -.425E+00 -.557E+00 0.761E-01   -.158E-03 0.626E-03 0.823E-04
   0.996E+02 -.348E+02 -.544E+02   -.998E+02 0.334E+02 0.533E+02   0.158E+00 0.144E+01 0.108E+01   0.397E-03 0.459E-03 0.159E-03
   -.104E+03 -.312E+02 0.101E+03   0.105E+03 0.298E+02 -.993E+02   -.448E+00 0.141E+01 -.130E+01   -.181E-03 0.411E-04 -.613E-04
   0.929E+02 -.794E+02 -.305E+02   -.919E+02 0.774E+02 0.310E+02   -.950E+00 0.195E+01 -.527E+00   -.323E-03 0.300E-03 -.339E-03
   0.697E+01 0.746E+02 -.590E+02   -.608E+01 -.732E+02 0.570E+02   -.895E+00 -.146E+01 0.203E+01   -.675E-03 -.544E-03 0.250E-03
   0.108E+03 0.771E+02 -.739E+02   -.107E+03 -.755E+02 0.747E+02   -.117E+01 -.161E+01 -.854E+00   -.734E-03 -.408E-03 0.542E-03
   -.115E+03 -.963E+02 -.432E+01   0.116E+03 0.949E+02 0.333E+01   -.978E+00 0.135E+01 0.989E+00   -.487E-03 0.606E-03 -.199E-03
   -.757E+01 -.424E+02 -.410E+02   0.908E+01 0.426E+02 0.407E+02   -.151E+01 -.144E+00 0.228E+00   0.145E-03 0.356E-03 -.868E-04
   -.631E+02 0.663E+01 -.417E+02   0.640E+02 -.524E+01 0.410E+02   -.904E+00 -.139E+01 0.667E+00   -.952E-04 -.473E-03 0.562E-04
   0.698E+02 0.385E+02 0.563E+02   -.698E+02 -.369E+02 -.570E+02   0.203E-01 -.163E+01 0.685E+00   0.206E-03 -.466E-03 0.285E-03
   0.708E+02 -.769E+01 0.396E+02   -.700E+02 0.588E+01 -.392E+02   -.820E+00 0.181E+01 -.378E+00   -.649E-03 -.215E-03 0.154E-03
   0.527E+02 0.347E+02 0.489E+01   -.538E+02 -.326E+02 -.529E+01   0.108E+01 -.201E+01 0.391E+00   -.152E-04 -.187E-03 -.516E-03
   -.506E+02 -.494E+01 -.581E+01   0.496E+02 0.387E+01 0.605E+01   0.944E+00 0.107E+01 -.243E+00   0.248E-03 0.441E-03 -.150E-03
   -.575E+02 0.492E+01 0.339E+02   0.567E+02 -.449E+01 -.333E+02   0.791E+00 -.427E+00 -.624E+00   0.497E-03 -.123E-03 -.778E-04
   -.200E+02 -.232E+01 0.579E+01   0.196E+02 0.204E+01 -.595E+01   0.390E+00 0.273E+00 0.153E+00   -.165E-03 0.168E-03 0.215E-03
   -.352E+02 -.751E+01 0.226E+02   0.363E+02 0.859E+01 -.231E+02   -.102E+01 -.109E+01 0.484E+00   0.447E-03 -.720E-04 -.892E-05
   -.188E+02 0.405E+00 -.248E+01   0.180E+02 -.996E+00 0.379E+01   0.772E+00 0.589E+00 -.132E+01   0.451E-04 -.825E-04 -.746E-04
   -.144E+02 0.827E+01 -.764E+01   0.148E+02 -.880E+01 0.850E+01   -.451E+00 0.538E+00 -.864E+00   -.117E-03 -.168E-03 -.401E-03
   0.542E+02 0.334E+02 0.660E+02   -.569E+02 -.330E+02 -.703E+02   0.270E+01 -.409E+00 0.430E+01   -.534E-03 0.186E-04 0.405E-05
   0.196E+02 -.234E+02 -.177E+02   -.183E+02 0.238E+02 0.198E+02   -.125E+01 -.376E+00 -.209E+01   -.484E-04 -.163E-03 -.268E-03
   0.708E+01 -.166E+02 0.177E+02   -.768E+01 0.174E+02 -.178E+02   0.600E+00 -.792E+00 0.127E+00   0.596E-04 -.304E-04 0.114E-03
   -.484E+02 0.422E+01 0.168E+02   0.492E+02 -.346E+01 -.157E+02   -.834E+00 -.763E+00 -.109E+01   -.146E-03 0.410E-03 0.282E-05
   0.311E+02 -.126E+02 -.111E+02   -.313E+02 0.116E+02 0.100E+02   0.230E+00 0.104E+01 0.103E+01   0.182E-03 0.108E-03 -.536E-05
   -.798E+01 0.120E+01 -.222E+02   0.742E+01 -.141E+01 0.224E+02   0.566E+00 0.205E+00 -.185E+00   -.216E-03 -.189E-03 -.495E-04
   0.154E+02 0.197E+02 -.177E+02   -.160E+02 -.197E+02 0.178E+02   0.641E+00 0.273E-01 -.879E-01   -.135E-03 -.152E-03 0.175E-04
   0.359E+02 -.131E+02 -.486E+00   -.361E+02 0.131E+02 0.761E-01   0.190E+00 -.207E-02 0.410E+00   -.113E-03 -.277E-03 0.245E-03
   0.251E+02 0.207E+02 0.135E+02   -.254E+02 -.201E+02 -.130E+02   0.255E+00 -.617E+00 -.504E+00   0.101E-03 -.270E-03 0.407E-05
   0.196E+02 -.107E+02 -.106E+02   -.202E+02 0.108E+02 0.103E+02   0.661E+00 -.104E+00 0.318E+00   0.232E-03 -.292E-04 -.116E-03
   -.759E+01 -.557E+01 0.361E+02   0.786E+01 0.404E+01 -.368E+02   -.274E+00 0.153E+01 0.635E+00   -.501E-04 -.294E-03 -.153E-04
   0.155E+02 -.413E+01 -.182E+02   -.156E+02 0.542E+01 0.181E+02   0.102E+00 -.129E+01 0.110E+00   0.118E-03 -.102E-03 -.136E-04
   -.195E+02 0.391E+01 0.101E+02   0.192E+02 -.422E+01 -.100E+02   0.313E+00 0.311E+00 -.578E-01   0.121E-03 0.528E-04 -.503E-05
   -.153E+02 -.322E+00 -.149E+02   0.162E+02 0.598E+00 0.164E+02   -.863E+00 -.277E+00 -.153E+01   0.771E-04 0.772E-04 0.917E-04
   -.554E+02 -.154E+02 -.353E+01   0.576E+02 0.164E+02 0.465E+01   -.221E+01 -.994E+00 -.112E+01   -.187E-03 0.107E-03 -.151E-03
   0.251E+02 -.419E+02 0.179E+02   -.252E+02 0.424E+02 -.171E+02   0.581E-01 -.484E+00 -.845E+00   -.106E-03 0.178E-04 0.481E-04
   0.191E+02 0.431E+02 -.245E+01   -.201E+02 -.450E+02 0.237E+01   0.105E+01 0.192E+01 0.835E-01   -.680E-04 0.133E-03 -.579E-04
   0.447E+02 0.240E+02 0.317E+02   -.455E+02 -.247E+02 -.323E+02   0.784E+00 0.720E+00 0.625E+00   0.965E-04 0.230E-04 -.723E-04
   -.272E+02 0.225E+02 -.137E+02   0.291E+02 -.234E+02 0.135E+02   -.186E+01 0.884E+00 0.123E+00   0.506E-04 -.225E-03 -.375E-05
   -.288E+02 -.241E+00 0.221E+01   0.283E+02 0.442E-01 -.322E+01   0.435E+00 0.194E+00 0.101E+01   0.151E-03 -.814E-04 0.984E-04
   -.431E+02 -.407E+00 -.159E+02   0.441E+02 0.513E+00 0.172E+02   -.102E+01 -.113E+00 -.122E+01   -.962E-04 -.134E-03 0.286E-03
   -.143E+02 -.105E+02 -.101E+02   0.155E+02 0.113E+02 0.996E+01   -.114E+01 -.769E+00 0.112E+00   -.561E-04 0.207E-03 -.186E-04
   0.851E+01 -.125E+01 0.171E+02   -.932E+01 0.143E+01 -.187E+02   0.807E+00 -.175E+00 0.159E+01   -.431E-04 0.680E-04 -.918E-04
   -.460E+02 0.916E+00 -.740E+01   0.463E+02 -.963E+00 0.660E+01   -.365E+00 0.446E-01 0.800E+00   -.237E-03 0.107E-03 0.162E-03
   -.215E+02 0.700E+01 -.845E+01   0.208E+02 -.710E+01 0.738E+01   0.732E+00 0.985E-01 0.106E+01   -.265E-03 0.161E-03 -.120E-04
   0.165E+02 -.387E+02 -.990E+01   -.182E+02 0.388E+02 0.871E+01   0.176E+01 -.338E-01 0.118E+01   0.517E-04 0.189E-03 -.717E-04
   0.193E+01 0.156E+02 -.893E+01   -.143E+01 -.146E+02 0.937E+01   -.493E+00 -.999E+00 -.427E+00   0.644E-05 0.175E-03 0.823E-04
   0.399E+02 -.336E+02 0.618E+01   -.403E+02 0.331E+02 -.525E+01   0.406E+00 0.530E+00 -.928E+00   0.240E-03 0.281E-03 -.585E-05
   0.210E+02 0.134E+02 -.279E+02   -.197E+02 -.133E+02 0.285E+02   -.128E+01 -.374E-01 -.565E+00   0.245E-03 0.132E-05 0.597E-04
   0.525E+02 -.215E+02 -.462E+02   -.525E+02 0.229E+02 0.463E+02   0.135E-01 -.133E+01 -.114E+00   0.373E-03 -.301E-03 -.127E-03
   -.792E+02 0.384E+02 -.211E+02   0.800E+02 -.380E+02 0.219E+02   -.771E+00 -.472E+00 -.850E+00   -.421E-03 0.172E-03 -.386E-04
   0.741E+02 -.620E+02 0.536E+02   -.747E+02 0.605E+02 -.531E+02   0.655E+00 0.155E+01 -.523E+00   0.202E-03 0.503E-03 -.214E-03
   -.425E+02 0.275E+02 -.411E+02   0.418E+02 -.279E+02 0.398E+02   0.736E+00 0.423E+00 0.133E+01   -.112E-03 -.372E-03 0.814E-04
   0.255E+02 -.387E+02 0.333E+02   -.267E+02 0.375E+02 -.333E+02   0.126E+01 0.119E+01 0.418E-01   0.526E-03 0.936E-04 0.515E-04
   0.237E+02 -.547E+02 -.175E+02   -.229E+02 0.540E+02 0.166E+02   -.818E+00 0.742E+00 0.886E+00   0.100E-04 -.124E-03 -.927E-04
   -.920E+02 0.415E+02 0.278E+02   0.920E+02 -.409E+02 -.277E+02   0.146E-01 -.615E+00 -.940E-01   -.145E-03 -.215E-03 0.118E-03
   0.265E+02 0.337E+02 0.825E+02   -.264E+02 -.332E+02 -.824E+02   -.148E+00 -.486E+00 -.715E-01   -.883E-04 0.313E-03 -.569E-04
   -.363E+02 0.225E+02 -.451E+02   0.365E+02 -.226E+02 0.452E+02   -.133E+00 0.108E+00 -.141E+00   -.681E-03 -.533E-03 0.114E-02
   0.112E+03 0.687E+02 0.148E+02   -.113E+03 -.680E+02 -.149E+02   0.110E+00 -.661E+00 0.989E-01   0.561E-03 0.107E-03 0.663E-05
   0.227E+02 0.107E+03 -.581E+02   -.232E+02 -.107E+03 0.581E+02   0.514E+00 -.372E+00 0.717E-02   0.806E-04 0.106E-03 -.631E-04
   0.267E+02 -.103E+03 0.157E+02   -.265E+02 0.103E+03 -.158E+02   -.192E+00 0.389E+00 0.453E-01   -.276E-04 0.350E-03 0.445E-03
 -----------------------------------------------------------------------------------------------
   0.191E+01 -.189E+01 -.752E+00   0.853E-13 0.867E-12 0.455E-12   -.191E+01 0.189E+01 0.747E+00   -.344E-03 0.120E-03 0.268E-03
 
 
 POSITION                                       TOTAL-FORCE (eV/Angst)
 -----------------------------------------------------------------------------------
      9.02583      9.04302      9.00513         0.002050     -0.000551     -0.000892
      2.27298      9.06681      2.28128         0.001845     -0.000053      0.003697
      2.28573      4.53546      2.25722        -0.001620      0.004094     -0.001575
      4.51881      4.53706      0.00617         0.003624     -0.000312      0.003968
      4.54172      2.23620      6.72520         0.000334      0.001166     -0.001062
      9.04029      4.52701      4.48865        -0.001393      0.002815     -0.001151
      4.55347      6.81146      6.75359        -0.004949     -0.001351     -0.002821
      8.93133      2.08429      2.44565        -0.003360      0.000016      0.003359
      7.00188      6.66330      9.00099        -0.000706     -0.000190      0.008786
      0.18413      2.48453      6.77154        -0.000774     -0.007837     -0.002034
      6.94107      2.37491      4.36213         0.002698     -0.006537     -0.008611
      9.02685      6.56321      6.80247         0.004150      0.004489     -0.000339
      2.40110      4.45158      6.74366         0.000919      0.003618     -0.001412
      2.26265      2.25420      8.97616         0.004831      0.002266     -0.006376
      4.57040      2.30067      2.27339         0.002249     -0.002468     -0.000349
      6.77481      9.03024      2.29130        -0.002592      0.004037      0.001999
      6.87079      2.32997      8.96514        -0.000924      0.005803     -0.006434
      2.23641      6.78347      8.99734        -0.000336     -0.000645     -0.004481
      2.25102      2.26953      4.54798        -0.001055     -0.001328      0.004893
      2.23828      6.79576      4.54373         0.001943     -0.003497      0.001376
      2.22494      2.25006      2.27072         0.001405      0.000479      0.000580
      2.37034      9.05237      8.97020        -0.000625     -0.001959     -0.001520
      0.00536      2.29774      0.10330         0.005046      0.002021      0.001212
      6.79274      2.24910      2.21556         0.004973     -0.001928      0.010339
      6.74015      9.06951      0.01559         0.001672     -0.001037      0.002893
      4.55697      9.06664      2.25161         0.002596     -0.000676     -0.004817
      9.00313      4.43703      2.19901         0.004086      0.002480      0.002579
      4.52779      6.90222      0.05384         0.002448     -0.001336      0.001263
      9.05694      0.05245      6.75590        -0.000991     -0.005183      0.001195
      6.90815      2.17270      6.71501         0.004043      0.000162      0.001014
      6.73038      0.04364      4.54563        -0.001322     -0.000417      0.001279
      4.58964      2.18195      4.46198         0.000311     -0.002673     -0.002569
      4.55399     -0.01048      6.74790         0.000730      0.000387     -0.002282
      9.01194      9.06281      2.29122        -0.001293     -0.002748      0.001584
      4.54960      2.21109      0.01721         0.002398     -0.001030     -0.002495
      2.28404      6.80828      2.25014        -0.000646      0.000763     -0.002010
      2.25078      4.51727      8.97002        -0.000800     -0.000434      0.000616
      9.03464      6.76981      0.01274         0.001424      0.000584      0.003785
      6.75976      6.78471      2.21568        -0.000949     -0.001787     -0.003454
      6.87321      4.54792      9.01274         0.002351      0.001142      0.001227
      4.54994      4.54968      2.28214         0.005253      0.000695     -0.004386
      2.29388      2.24650      6.76036         0.001266     -0.005630     -0.001109
      2.27461     -0.00552      4.53830        -0.001372     -0.002825     -0.001089
      9.01284      2.24638      4.64148         0.002833     -0.007174      0.002930
      2.21636      6.81062      6.77397        -0.005353     -0.000343     -0.000746
      2.31219      4.52554      4.55430        -0.002619     -0.000691      0.001874
      9.02376      6.84196      4.58171        -0.003927     -0.002342      0.001533
      0.06175      4.52664      6.77944        -0.002249      0.006325      0.002720
      6.83894      6.81385      6.78954        -0.004609     -0.001408     -0.004124
      6.77151      4.48459      4.50520         0.001424      0.004179      0.010519
      4.54073      6.80440      4.48310        -0.001564     -0.000078     -0.004795
      4.53904      4.52244      6.72307        -0.000085      0.002636      0.003957
      4.63635      0.05442      8.95813         0.002884      0.002421     -0.001736
      9.02813      4.56565      0.01656        -0.002748      0.002792     -0.002290
      4.53087      6.75561      2.29054         0.000077     -0.003755      0.001383
      2.21421      0.02467      6.70897         0.000179      0.004248     -0.006298
      4.45543      8.95403      4.53596        -0.006554     -0.001216     -0.003494
      6.84751      8.95977      6.78542        -0.000458      0.003098      0.005112
      9.02618      6.94085      2.29706         0.001032      0.002919     -0.001441
      6.72568      4.58681      2.26711        -0.007742     -0.002908      0.002565
      0.06275      0.01092      4.49649        -0.001708      0.006153     -0.003195
      4.54411      4.64398      4.49025        -0.003857      0.002843     -0.006551
      6.72285      4.63475      6.74946        -0.003332     -0.000512      0.000731
      6.82914      6.70273      4.50390        -0.000561      0.000229      0.006969
 -----------------------------------------------------------------------------------
    total drift:                               -0.003193      0.004174     -0.005417


--------------------------------------------------------------------------------------------------------



  FREE ENERGIE OF THE ION-ELECTRON SYSTEM (eV)
  ---------------------------------------------------
  free  energy   TOTEN  =      -674.92994136 eV

  energy  without entropy=     -674.83114855  energy(sigma->0) =     -674.88054495
 


--------------------------------------------------------------------------------------------------------


    POTLOK:  cpu time    0.0379: real time    0.0380


--------------------------------------------------------------------------------------------------------


 writing wavefunctions
     LOOP+:  cpu time 1101.5183: real time 1114.2190
    4ORBIT:  cpu time    0.0000: real time    0.0000

 total amount of memory used by VASP MPI-rank0   285791. kBytes
=======================================================================

   base      :      30000. kBytes
   nonl-proj :     203427. kBytes
   fftplans  :       1726. kBytes
   grid      :       8060. kBytes
   one-center:        995. kBytes
   wavefun   :      41583. kBytes
 
  
  
 General timing and accounting informations for this job:
 ========================================================
  
                  Total CPU time used (sec):     1112.108
                            User time (sec):     1093.415
                          System time (sec):       18.693
                         Elapsed time (sec):     1125.305
  
                   Maximum memory used (kb):      372868.
                   Average memory used (kb):           0.
  
                          Minor page faults:       241122
                          Major page faults:            0
                 Voluntary context switches:         2355
