  64  64   0   0
  0.1028217E+02  0.8690680E-09  0.8737820E-09  0.8666024E-09  0.5000000E-15
  1.000000000000000E-004
  CAR 
 HECN                                    
     14.24210862    -60.54117499  301      7.86726218      1.00000000
    -60.541  0.0000E+00  0.0000E+00
    -60.292  0.0000E+00  0.0000E+00
    -60.043  0.0000E+00  0.0000E+00
    -59.793  0.0000E+00  0.0000E+00
    -59.544  0.0000E+00  0.0000E+00
    -59.295  0.0000E+00  0.0000E+00
    -59.046  0.0000E+00  0.0000E+00
    -58.796  0.0000E+00  0.0000E+00
    -58.547  0.0000E+00  0.0000E+00
    -58.298  0.0000E+00  0.0000E+00
    -58.048  0.0000E+00  0.0000E+00
    -57.799  0.0000E+00  0.0000E+00
    -57.550  0.3851E-09  0.9600E-10
    -57.301  0.1524E-02  0.3799E-03
    -57.051  0.2246E+00  0.5638E-01
    -56.802  0.2504E+00  0.1188E+00
    -56.553  0.4772E-02  0.1200E+00
    -56.303  0.1106E-07  0.1200E+00
    -56.054  0.0000E+00  0.1200E+00
    -55.805  0.0000E+00  0.1200E+00
    -55.556  0.0000E+00  0.1200E+00
    -55.306  0.0000E+00  0.1200E+00
    -55.057  0.0000E+00  0.1200E+00
    -54.808  0.0000E+00  0.1200E+00
    -54.559  0.0000E+00  0.1200E+00
    -54.309  0.0000E+00  0.1200E+00
    -54.060  0.0000E+00  0.1200E+00
    -53.811  0.0000E+00  0.1200E+00
    -53.561  0.0000E+00  0.1200E+00
    -53.312  0.0000E+00  0.1200E+00
    -53.063  0.0000E+00  0.1200E+00
    -52.814  0.0000E+00  0.1200E+00
    -52.564  0.0000E+00  0.1200E+00
    -52.315  0.0000E+00  0.1200E+00
    -52.066  0.0000E+00  0.1200E+00
    -51.816  0.0000E+00  0.1200E+00
    -51.567  0.0000E+00  0.1200E+00
    -51.318  0.0000E+00  0.1200E+00
    -51.069  0.0000E+00  0.1200E+00
    -50.819  0.0000E+00  0.1200E+00
    -50.570  0.0000E+00  0.1200E+00
    -50.321  0.4454E-17  0.1200E+00
    -50.072  0.9569E-07  0.1200E+00
    -49.822  0.1413E-01  0.1235E+00
    -49.573  0.2364E+00  0.1824E+00
    -49.324  0.2032E+00  0.2331E+00
    -49.074  0.1076E+00  0.2599E+00
    -48.825  0.3811E-03  0.2600E+00
    -48.576  0.3593E-10  0.2600E+00
    -48.327  0.0000E+00  0.2600E+00
    -48.077  0.0000E+00  0.2600E+00
    -47.828  0.0000E+00  0.2600E+00
    -47.579  0.0000E+00  0.2600E+00
    -47.329  0.0000E+00  0.2600E+00
    -47.080  0.0000E+00  0.2600E+00
    -46.831  0.0000E+00  0.2600E+00
    -46.582  0.0000E+00  0.2600E+00
    -46.332  0.0000E+00  0.2600E+00
    -46.083  0.0000E+00  0.2600E+00
    -45.834  0.0000E+00  0.2600E+00
    -45.585  0.0000E+00  0.2600E+00
    -45.335  0.0000E+00  0.2600E+00
    -45.086  0.0000E+00  0.2600E+00
    -44.837  0.0000E+00  0.2600E+00
    -44.587  0.0000E+00  0.2600E+00
    -44.338  0.0000E+00  0.2600E+00
    -44.089  0.0000E+00  0.2600E+00
    -43.840  0.0000E+00  0.2600E+00
    -43.590  0.0000E+00  0.2600E+00
    -43.341  0.0000E+00  0.2600E+00
    -43.092  0.0000E+00  0.2600E+00
    -42.842  0.0000E+00  0.2600E+00
    -42.593  0.0000E+00  0.2600E+00
    -42.344  0.0000E+00  0.2600E+00
    -42.095  0.0000E+00  0.2600E+00
    -41.845  0.0000E+00  0.2600E+00
    -41.596  0.1229E-09  0.2600E+00
    -41.347  0.6527E-03  0.2602E+00
    -41.098  0.6923E-01  0.2774E+00
    -40.848  0.1109E+00  0.3051E+00
    -40.599  0.2569E+00  0.3691E+00
    -40.350  0.1238E+00  0.4000E+00
    -40.100  0.1235E-03  0.4000E+00
    -39.851  0.2765E-11  0.4000E+00
    -39.602  0.0000E+00  0.4000E+00
    -39.353  0.0000E+00  0.4000E+00
    -39.103  0.0000E+00  0.4000E+00
    -38.854  0.0000E+00  0.4000E+00
    -38.605  0.0000E+00  0.4000E+00
    -38.355  0.0000E+00  0.4000E+00
    -38.106  0.0000E+00  0.4000E+00
    -37.857  0.0000E+00  0.4000E+00
    -37.608  0.0000E+00  0.4000E+00
    -37.358  0.0000E+00  0.4000E+00
    -37.109  0.0000E+00  0.4000E+00
    -36.860  0.0000E+00  0.4000E+00
    -36.611  0.4117E-15  0.4000E+00
    -36.361  0.1022E-05  0.4000E+00
    -36.112  0.1983E-01  0.4049E+00
    -35.863  0.2424E+00  0.4654E+00
    -35.613  0.9836E+00  0.7106E+00
    -35.364  0.1980E+00  0.7599E+00
    -35.115  0.2890E-03  0.7600E+00
    -34.866  0.1185E-10  0.7600E+00
    -34.616  0.0000E+00  0.7600E+00
    -34.367  0.0000E+00  0.7600E+00
    -34.118  0.0000E+00  0.7600E+00
    -33.868  0.0000E+00  0.7600E+00
    -33.619  0.0000E+00  0.7600E+00
    -33.370  0.0000E+00  0.7600E+00
    -33.121  0.0000E+00  0.7600E+00
    -32.871  0.0000E+00  0.7600E+00
    -32.622  0.0000E+00  0.7600E+00
    -32.373  0.0000E+00  0.7600E+00
    -32.124  0.1258E-13  0.7600E+00
    -31.874  0.7318E-05  0.7600E+00
    -31.625  0.5548E-01  0.7738E+00
    -31.376  0.5998E+00  0.9234E+00
    -31.126  0.9238E+00  0.1154E+01
    -30.877  0.1031E+01  0.1411E+01
    -30.628  0.2780E+00  0.1480E+01
    -30.379  0.7098E-03  0.1480E+01
    -30.129  0.1012E-09  0.1480E+01
    -29.880  0.0000E+00  0.1480E+01
    -29.631  0.0000E+00  0.1480E+01
    -29.381  0.0000E+00  0.1480E+01
    -29.132  0.0000E+00  0.1480E+01
    -28.883  0.0000E+00  0.1480E+01
    -28.634  0.0000E+00  0.1480E+01
    -28.384  0.0000E+00  0.1480E+01
    -28.135  0.0000E+00  0.1480E+01
    -27.886  0.0000E+00  0.1480E+01
    -27.637  0.0000E+00  0.1480E+01
    -27.387  0.0000E+00  0.1480E+01
    -27.138  0.0000E+00  0.1480E+01
    -26.889  0.0000E+00  0.1480E+01
    -26.639  0.3487E-09  0.1480E+01
    -26.390  0.1104E-02  0.1480E+01
    -26.141  0.2256E+00  0.1537E+01
    -25.892  0.6359E+00  0.1695E+01
    -25.642  0.6611E+00  0.1860E+01
    -25.393  0.1611E+00  0.1900E+01
    -25.144  0.5856E-04  0.1900E+01
    -24.894  0.3395E-12  0.1900E+01
    -24.645  0.0000E+00  0.1900E+01
    -24.396  0.0000E+00  0.1900E+01
    -24.147  0.0000E+00  0.1900E+01
    -23.897  0.0000E+00  0.1900E+01
    -23.648  0.0000E+00  0.1900E+01
    -23.399  0.0000E+00  0.1900E+01
    -23.150  0.0000E+00  0.1900E+01
    -22.900  0.0000E+00  0.1900E+01
    -22.651  0.0000E+00  0.1900E+01
    -22.402  0.0000E+00  0.1900E+01
    -22.152  0.0000E+00  0.1900E+01
    -21.903  0.0000E+00  0.1900E+01
    -21.654  0.0000E+00  0.1900E+01
    -21.405  0.0000E+00  0.1900E+01
    -21.155  0.0000E+00  0.1900E+01
    -20.906  0.0000E+00  0.1900E+01
    -20.657  0.0000E+00  0.1900E+01
    -20.407  0.0000E+00  0.1900E+01
    -20.158  0.1982E-14  0.1900E+01
    -19.909  0.2467E-05  0.1900E+01
    -19.660  0.3065E-01  0.1908E+01
    -19.410  0.2270E+00  0.1964E+01
    -19.161  0.5503E+00  0.2101E+01
    -18.912  0.6095E+00  0.2253E+01
    -18.663  0.2171E+00  0.2307E+01
    -18.413  0.5031E-01  0.2320E+01
    -18.164  0.2954E-04  0.2320E+01
    -17.915  0.2086E-12  0.2320E+01
    -17.665  0.0000E+00  0.2320E+01
    -17.416  0.0000E+00  0.2320E+01
    -17.167  0.0000E+00  0.2320E+01
    -16.918  0.0000E+00  0.2320E+01
    -16.668  0.0000E+00  0.2320E+01
    -16.419  0.0000E+00  0.2320E+01
    -16.170  0.0000E+00  0.2320E+01
    -15.920  0.0000E+00  0.2320E+01
    -15.671  0.0000E+00  0.2320E+01
    -15.422  0.0000E+00  0.2320E+01
    -15.173  0.0000E+00  0.2320E+01
    -14.923  0.0000E+00  0.2320E+01
    -14.674  0.0000E+00  0.2320E+01
    -14.425  0.0000E+00  0.2320E+01
    -14.176  0.0000E+00  0.2320E+01
    -13.926  0.0000E+00  0.2320E+01
    -13.677  0.0000E+00  0.2320E+01
    -13.428  0.0000E+00  0.2320E+01
    -13.178  0.0000E+00  0.2320E+01
    -12.929  0.0000E+00  0.2320E+01
    -12.680  0.0000E+00  0.2320E+01
    -12.431  0.0000E+00  0.2320E+01
    -12.181  0.0000E+00  0.2320E+01
    -11.932  0.0000E+00  0.2320E+01
    -11.683  0.0000E+00  0.2320E+01
    -11.433  0.0000E+00  0.2320E+01
    -11.184  0.0000E+00  0.2320E+01
    -10.935  0.0000E+00  0.2320E+01
    -10.686  0.0000E+00  0.2320E+01
    -10.436  0.0000E+00  0.2320E+01
    -10.187  0.0000E+00  0.2320E+01
     -9.938  0.0000E+00  0.2320E+01
     -9.689  0.0000E+00  0.2320E+01
     -9.439  0.0000E+00  0.2320E+01
     -9.190  0.0000E+00  0.2320E+01
     -8.941  0.3299E-18  0.2320E+01
     -8.691  0.3852E-08  0.2320E+01
     -8.442  0.6601E-03  0.2320E+01
     -8.193  0.4348E-01  0.2331E+01
     -7.944  0.6483E-01  0.2347E+01
     -7.694  0.1063E+00  0.2374E+01
     -7.445  0.1063E+00  0.2400E+01
     -7.196  0.1285E+00  0.2432E+01
     -6.946  0.1598E+00  0.2472E+01
     -6.697  0.2339E+00  0.2530E+01
     -6.448  0.1355E+00  0.2564E+01
     -6.199  0.6344E-01  0.2580E+01
     -5.949  0.2594E-03  0.2580E+01
     -5.700  0.1884E-10  0.2580E+01
     -5.451  0.8086E-06  0.2580E+01
     -5.202  0.6783E-02  0.2582E+01
     -4.952  0.6465E-01  0.2598E+01
     -4.703  0.1504E-01  0.2602E+01
     -4.454  0.9380E-01  0.2625E+01
     -4.204  0.8038E-01  0.2645E+01
     -3.955  0.1447E+00  0.2681E+01
     -3.706  0.1906E+00  0.2729E+01
     -3.457  0.2208E+00  0.2784E+01
     -3.207  0.1510E+00  0.2821E+01
     -2.958  0.1791E+00  0.2866E+01
     -2.709  0.1549E+00  0.2905E+01
     -2.459  0.1419E+00  0.2940E+01
     -2.210  0.7694E-01  0.2959E+01
     -1.961  0.3754E-02  0.2960E+01
     -1.712  0.2236E-06  0.2960E+01
     -1.462  0.2989E-15  0.2960E+01
     -1.213  0.0000E+00  0.2960E+01
     -0.964  0.0000E+00  0.2960E+01
     -0.715  0.0000E+00  0.2960E+01
     -0.465  0.1564E-11  0.2960E+01
     -0.216  0.1737E-04  0.2960E+01
      0.033  0.6479E-02  0.2962E+01
      0.283  0.3419E-01  0.2970E+01
      0.532  0.1120E+00  0.2998E+01
      0.781  0.1249E+00  0.3029E+01
      1.030  0.1269E+00  0.3061E+01
      1.280  0.2309E+00  0.3118E+01
      1.529  0.2809E+00  0.3188E+01
      1.778  0.2811E+00  0.3258E+01
      2.028  0.2998E+00  0.3333E+01
      2.277  0.3684E+00  0.3425E+01
      2.526  0.3809E+00  0.3520E+01
      2.775  0.4597E+00  0.3635E+01
      3.025  0.5587E+00  0.3774E+01
      3.274  0.6044E+00  0.3925E+01
      3.523  0.5906E+00  0.4072E+01
      3.772  0.5736E+00  0.4215E+01
      4.022  0.5276E+00  0.4346E+01
      4.271  0.4701E+00  0.4463E+01
      4.520  0.4228E+00  0.4569E+01
      4.770  0.3471E+00  0.4655E+01
      5.019  0.2804E+00  0.4725E+01
      5.268  0.2575E+00  0.4789E+01
      5.517  0.1785E+00  0.4834E+01
      5.767  0.1432E+00  0.4870E+01
      6.016  0.8515E-01  0.4891E+01
      6.265  0.1428E+00  0.4926E+01
      6.515  0.1745E+00  0.4970E+01
      6.764  0.2071E+00  0.5022E+01
      7.013  0.2377E+00  0.5081E+01
      7.262  0.2304E+00  0.5138E+01
      7.512  0.2840E+00  0.5209E+01
      7.761  0.2869E+00  0.5281E+01
      8.010  0.2797E+00  0.5350E+01
      8.259  0.3872E+00  0.5447E+01
      8.509  0.4893E+00  0.5569E+01
      8.758  0.5603E+00  0.5708E+01
      9.007  0.5712E+00  0.5851E+01
      9.257  0.5367E+00  0.5985E+01
      9.506  0.5529E+00  0.6122E+01
      9.755  0.5414E+00  0.6257E+01
     10.004  0.5447E+00  0.6393E+01
     10.254  0.4797E+00  0.6513E+01
     10.503  0.4457E+00  0.6624E+01
     10.752  0.3252E+00  0.6705E+01
     11.001  0.6018E-01  0.6720E+01
     11.251  0.1880E-03  0.6720E+01
     11.500  0.3752E-10  0.6720E+01
     11.749  0.0000E+00  0.6720E+01
     11.999  0.0000E+00  0.6720E+01
     12.248  0.0000E+00  0.6720E+01
     12.497  0.0000E+00  0.6720E+01
     12.746  0.0000E+00  0.6720E+01
     12.996  0.0000E+00  0.6720E+01
     13.245  0.0000E+00  0.6720E+01
     13.494  0.0000E+00  0.6720E+01
     13.744  0.0000E+00  0.6720E+01
     13.993  0.0000E+00  0.6720E+01
     14.242  0.0000E+00  0.6720E+01
