  64  64   0   0
  0.1051089E+02  0.8692709E-09  0.8782581E-09  0.8811455E-09  0.5000000E-15
  1.000000000000000E-004
  CAR 
 HECN                                    
     15.53580891    -49.49155047  301      9.56182106      1.00000000
    -49.492  0.0000E+00  0.0000E+00
    -49.275  0.0000E+00  0.0000E+00
    -49.058  0.0000E+00  0.0000E+00
    -48.841  0.0000E+00  0.0000E+00
    -48.625  0.0000E+00  0.0000E+00
    -48.408  0.0000E+00  0.0000E+00
    -48.191  0.0000E+00  0.0000E+00
    -47.974  0.0000E+00  0.0000E+00
    -47.757  0.0000E+00  0.0000E+00
    -47.541  0.0000E+00  0.0000E+00
    -47.324  0.0000E+00  0.0000E+00
    -47.107  0.3073E-16  0.6661E-17
    -46.890  0.2500E-07  0.5419E-08
    -46.674  0.2803E-02  0.6076E-03
    -46.457  0.1787E+00  0.3934E-01
    -46.240  0.3452E+00  0.1142E+00
    -46.023  0.8897E-01  0.1335E+00
    -45.807  0.3019E-01  0.1400E+00
    -45.590  0.2047E-04  0.1400E+00
    -45.373  0.2199E-11  0.1400E+00
    -45.156  0.0000E+00  0.1400E+00
    -44.940  0.0000E+00  0.1400E+00
    -44.723  0.0000E+00  0.1400E+00
    -44.506  0.0000E+00  0.1400E+00
    -44.289  0.0000E+00  0.1400E+00
    -44.073  0.0000E+00  0.1400E+00
    -43.856  0.0000E+00  0.1400E+00
    -43.639  0.0000E+00  0.1400E+00
    -43.422  0.0000E+00  0.1400E+00
    -43.206  0.0000E+00  0.1400E+00
    -42.989  0.0000E+00  0.1400E+00
    -42.772  0.0000E+00  0.1400E+00
    -42.555  0.0000E+00  0.1400E+00
    -42.339  0.0000E+00  0.1400E+00
    -42.122  0.0000E+00  0.1400E+00
    -41.905  0.0000E+00  0.1400E+00
    -41.688  0.0000E+00  0.1400E+00
    -41.472  0.0000E+00  0.1400E+00
    -41.255  0.0000E+00  0.1400E+00
    -41.038  0.0000E+00  0.1400E+00
    -40.821  0.0000E+00  0.1400E+00
    -40.604  0.0000E+00  0.1400E+00
    -40.388  0.0000E+00  0.1400E+00
    -40.171  0.0000E+00  0.1400E+00
    -39.954  0.0000E+00  0.1400E+00
    -39.737  0.0000E+00  0.1400E+00
    -39.521  0.0000E+00  0.1400E+00
    -39.304  0.0000E+00  0.1400E+00
    -39.087  0.0000E+00  0.1400E+00
    -38.870  0.0000E+00  0.1400E+00
    -38.654  0.0000E+00  0.1400E+00
    -38.437  0.0000E+00  0.1400E+00
    -38.220  0.0000E+00  0.1400E+00
    -38.003  0.0000E+00  0.1400E+00
    -37.787  0.0000E+00  0.1400E+00
    -37.570  0.0000E+00  0.1400E+00
    -37.353  0.0000E+00  0.1400E+00
    -37.136  0.0000E+00  0.1400E+00
    -36.920  0.0000E+00  0.1400E+00
    -36.703  0.0000E+00  0.1400E+00
    -36.486  0.0000E+00  0.1400E+00
    -36.269  0.0000E+00  0.1400E+00
    -36.053  0.0000E+00  0.1400E+00
    -35.836  0.0000E+00  0.1400E+00
    -35.619  0.0000E+00  0.1400E+00
    -35.402  0.0000E+00  0.1400E+00
    -35.186  0.0000E+00  0.1400E+00
    -34.969  0.0000E+00  0.1400E+00
    -34.752  0.4997E-09  0.1400E+00
    -34.535  0.3694E-03  0.1401E+00
    -34.318  0.6202E-01  0.1535E+00
    -34.102  0.4344E+00  0.2477E+00
    -33.885  0.9557E+00  0.4548E+00
    -33.668  0.2074E+00  0.4998E+00
    -33.451  0.8950E-03  0.5000E+00
    -33.235  0.2509E-08  0.5000E+00
    -33.018  0.0000E+00  0.5000E+00
    -32.801  0.0000E+00  0.5000E+00
    -32.584  0.0000E+00  0.5000E+00
    -32.368  0.0000E+00  0.5000E+00
    -32.151  0.0000E+00  0.5000E+00
    -31.934  0.0000E+00  0.5000E+00
    -31.717  0.0000E+00  0.5000E+00
    -31.501  0.0000E+00  0.5000E+00
    -31.284  0.0000E+00  0.5000E+00
    -31.067  0.0000E+00  0.5000E+00
    -30.850  0.1024E-16  0.5000E+00
    -30.634  0.1069E-07  0.5000E+00
    -30.417  0.1636E-02  0.5004E+00
    -30.200  0.1165E+00  0.5256E+00
    -29.983  0.2445E+00  0.5786E+00
    -29.767  0.7649E+00  0.7444E+00
    -29.550  0.5170E+00  0.8565E+00
    -29.333  0.1626E-01  0.8600E+00
    -29.116  0.7190E-06  0.8600E+00
    -28.900  0.5296E-14  0.8600E+00
    -28.683  0.0000E+00  0.8600E+00
    -28.466  0.0000E+00  0.8600E+00
    -28.249  0.0000E+00  0.8600E+00
    -28.033  0.0000E+00  0.8600E+00
    -27.816  0.0000E+00  0.8600E+00
    -27.599  0.0000E+00  0.8600E+00
    -27.382  0.0000E+00  0.8600E+00
    -27.165  0.0000E+00  0.8600E+00
    -26.949  0.0000E+00  0.8600E+00
    -26.732  0.7972E-10  0.8600E+00
    -26.515  0.1473E-03  0.8600E+00
    -26.298  0.7042E-01  0.8753E+00
    -26.082  0.2028E+00  0.9193E+00
    -25.865  0.5924E+00  0.1048E+01
    -25.648  0.8968E+00  0.1242E+01
    -25.431  0.1746E+00  0.1280E+01
    -25.215  0.4343E-03  0.1280E+01
    -24.998  0.4124E-09  0.1280E+01
    -24.781  0.0000E+00  0.1280E+01
    -24.564  0.0000E+00  0.1280E+01
    -24.348  0.0000E+00  0.1280E+01
    -24.131  0.0000E+00  0.1280E+01
    -23.914  0.0000E+00  0.1280E+01
    -23.697  0.0000E+00  0.1280E+01
    -23.481  0.1334E-15  0.1280E+01
    -23.264  0.6283E-07  0.1280E+01
    -23.047  0.3584E-02  0.1281E+01
    -22.830  0.1123E+00  0.1305E+01
    -22.614  0.5171E+00  0.1417E+01
    -22.397  0.8901E+00  0.1610E+01
    -22.180  0.3670E+00  0.1690E+01
    -21.963  0.4758E-01  0.1700E+01
    -21.747  0.1554E-04  0.1700E+01
    -21.530  0.1101E-11  0.1700E+01
    -21.313  0.0000E+00  0.1700E+01
    -21.096  0.0000E+00  0.1700E+01
    -20.880  0.0000E+00  0.1700E+01
    -20.663  0.0000E+00  0.1700E+01
    -20.446  0.0000E+00  0.1700E+01
    -20.229  0.0000E+00  0.1700E+01
    -20.012  0.0000E+00  0.1700E+01
    -19.796  0.0000E+00  0.1700E+01
    -19.579  0.0000E+00  0.1700E+01
    -19.362  0.0000E+00  0.1700E+01
    -19.145  0.0000E+00  0.1700E+01
    -18.929  0.0000E+00  0.1700E+01
    -18.712  0.0000E+00  0.1700E+01
    -18.495  0.0000E+00  0.1700E+01
    -18.278  0.0000E+00  0.1700E+01
    -18.062  0.0000E+00  0.1700E+01
    -17.845  0.0000E+00  0.1700E+01
    -17.628  0.0000E+00  0.1700E+01
    -17.411  0.0000E+00  0.1700E+01
    -17.195  0.0000E+00  0.1700E+01
    -16.978  0.0000E+00  0.1700E+01
    -16.761  0.0000E+00  0.1700E+01
    -16.544  0.0000E+00  0.1700E+01
    -16.328  0.0000E+00  0.1700E+01
    -16.111  0.0000E+00  0.1700E+01
    -15.894  0.0000E+00  0.1700E+01
    -15.677  0.0000E+00  0.1700E+01
    -15.461  0.0000E+00  0.1700E+01
    -15.244  0.0000E+00  0.1700E+01
    -15.027  0.0000E+00  0.1700E+01
    -14.810  0.0000E+00  0.1700E+01
    -14.594  0.0000E+00  0.1700E+01
    -14.377  0.0000E+00  0.1700E+01
    -14.160  0.0000E+00  0.1700E+01
    -13.943  0.0000E+00  0.1700E+01
    -13.727  0.0000E+00  0.1700E+01
    -13.510  0.0000E+00  0.1700E+01
    -13.293  0.0000E+00  0.1700E+01
    -13.076  0.0000E+00  0.1700E+01
    -12.859  0.0000E+00  0.1700E+01
    -12.643  0.0000E+00  0.1700E+01
    -12.426  0.0000E+00  0.1700E+01
    -12.209  0.0000E+00  0.1700E+01
    -11.992  0.0000E+00  0.1700E+01
    -11.776  0.0000E+00  0.1700E+01
    -11.559  0.0000E+00  0.1700E+01
    -11.342  0.0000E+00  0.1700E+01
    -11.125  0.0000E+00  0.1700E+01
    -10.909  0.0000E+00  0.1700E+01
    -10.692  0.0000E+00  0.1700E+01
    -10.475  0.0000E+00  0.1700E+01
    -10.258  0.0000E+00  0.1700E+01
    -10.042  0.0000E+00  0.1700E+01
     -9.825  0.0000E+00  0.1700E+01
     -9.608  0.0000E+00  0.1700E+01
     -9.391  0.0000E+00  0.1700E+01
     -9.175  0.0000E+00  0.1700E+01
     -8.958  0.0000E+00  0.1700E+01
     -8.741  0.0000E+00  0.1700E+01
     -8.524  0.0000E+00  0.1700E+01
     -8.308  0.0000E+00  0.1700E+01
     -8.091  0.0000E+00  0.1700E+01
     -7.874  0.4743E-17  0.1700E+01
     -7.657  0.2469E-08  0.1700E+01
     -7.441  0.1998E-03  0.1700E+01
     -7.224  0.1931E-01  0.1704E+01
     -7.007  0.6558E-01  0.1718E+01
     -6.790  0.7062E-01  0.1734E+01
     -6.573  0.7454E-01  0.1750E+01
     -6.357  0.1594E+00  0.1784E+01
     -6.140  0.1311E+00  0.1813E+01
     -5.923  0.1921E+00  0.1855E+01
     -5.706  0.1306E+00  0.1883E+01
     -5.490  0.2717E+00  0.1942E+01
     -5.273  0.8416E-01  0.1960E+01
     -5.056  0.1751E-03  0.1960E+01
     -4.839  0.1201E-09  0.1960E+01
     -4.623  0.0000E+00  0.1960E+01
     -4.406  0.2078E-14  0.1960E+01
     -4.189  0.1384E-06  0.1960E+01
     -3.972  0.2070E-02  0.1960E+01
     -3.756  0.6412E-01  0.1974E+01
     -3.539  0.2782E-01  0.1980E+01
     -3.322  0.7781E-01  0.1997E+01
     -3.105  0.1197E+00  0.2023E+01
     -2.889  0.1224E+00  0.2050E+01
     -2.672  0.2218E+00  0.2098E+01
     -2.455  0.2314E+00  0.2148E+01
     -2.238  0.2782E+00  0.2208E+01
     -2.022  0.2491E+00  0.2262E+01
     -1.805  0.1726E+00  0.2300E+01
     -1.588  0.1241E+00  0.2327E+01
     -1.371  0.5587E-01  0.2339E+01
     -1.155  0.5999E-02  0.2340E+01
     -0.938  0.9031E-04  0.2340E+01
     -0.721  0.8628E-09  0.2340E+01
     -0.504  0.7588E-18  0.2340E+01
     -0.288  0.0000E+00  0.2340E+01
     -0.071  0.0000E+00  0.2340E+01
      0.146  0.1062E-16  0.2340E+01
      0.363  0.3768E-08  0.2340E+01
      0.580  0.1628E-03  0.2340E+01
      0.796  0.3498E-02  0.2341E+01
      1.013  0.1650E-01  0.2344E+01
      1.230  0.4901E-01  0.2355E+01
      1.447  0.9978E-01  0.2377E+01
      1.663  0.1161E+00  0.2402E+01
      1.880  0.1673E+00  0.2438E+01
      2.097  0.2042E+00  0.2482E+01
      2.314  0.2694E+00  0.2541E+01
      2.530  0.2794E+00  0.2601E+01
      2.747  0.2598E+00  0.2658E+01
      2.964  0.3198E+00  0.2727E+01
      3.181  0.2905E+00  0.2790E+01
      3.397  0.3388E+00  0.2863E+01
      3.614  0.4145E+00  0.2953E+01
      3.831  0.5395E+00  0.3070E+01
      4.048  0.5744E+00  0.3195E+01
      4.264  0.6297E+00  0.3331E+01
      4.481  0.6808E+00  0.3479E+01
      4.698  0.6820E+00  0.3626E+01
      4.915  0.6019E+00  0.3757E+01
      5.131  0.4977E+00  0.3865E+01
      5.348  0.3777E+00  0.3947E+01
      5.565  0.3191E+00  0.4016E+01
      5.782  0.2905E+00  0.4079E+01
      5.998  0.2546E+00  0.4134E+01
      6.215  0.2309E+00  0.4184E+01
      6.432  0.1850E+00  0.4224E+01
      6.649  0.1136E+00  0.4249E+01
      6.865  0.7133E-01  0.4264E+01
      7.082  0.1471E+00  0.4296E+01
      7.299  0.1629E+00  0.4331E+01
      7.516  0.1825E+00  0.4371E+01
      7.733  0.1972E+00  0.4414E+01
      7.949  0.2017E+00  0.4457E+01
      8.166  0.2062E+00  0.4502E+01
      8.383  0.2570E+00  0.4558E+01
      8.600  0.3100E+00  0.4625E+01
      8.816  0.3099E+00  0.4692E+01
      9.033  0.2482E+00  0.4746E+01
      9.250  0.2580E+00  0.4802E+01
      9.467  0.2743E+00  0.4861E+01
      9.683  0.3073E+00  0.4928E+01
      9.900  0.3463E+00  0.5003E+01
     10.117  0.3946E+00  0.5089E+01
     10.334  0.4432E+00  0.5185E+01
     10.550  0.4811E+00  0.5289E+01
     10.767  0.5107E+00  0.5400E+01
     10.984  0.4838E+00  0.5505E+01
     11.201  0.4863E+00  0.5610E+01
     11.417  0.4799E+00  0.5714E+01
     11.634  0.5025E+00  0.5823E+01
     11.851  0.4907E+00  0.5929E+01
     12.068  0.4884E+00  0.6035E+01
     12.284  0.4993E+00  0.6143E+01
     12.501  0.3746E+00  0.6225E+01
     12.718  0.7086E-01  0.6240E+01
     12.935  0.4805E-03  0.6240E+01
     13.151  0.2947E-08  0.6240E+01
     13.368  0.2276E-17  0.6240E+01
     13.585  0.0000E+00  0.6240E+01
     13.802  0.0000E+00  0.6240E+01
     14.019  0.0000E+00  0.6240E+01
     14.235  0.0000E+00  0.6240E+01
     14.452  0.0000E+00  0.6240E+01
     14.669  0.0000E+00  0.6240E+01
     14.886  0.0000E+00  0.6240E+01
     15.102  0.0000E+00  0.6240E+01
     15.319  0.0000E+00  0.6240E+01
     15.536  0.0000E+00  0.6240E+01
