  64  64   0   0
  0.1079086E+02  0.8843592E-09  0.8818045E-09  0.8856605E-09  0.5000000E-15
  1.000000000000000E-004
  CAR 
 HECN                                    
     15.67365343    -59.59292167  301      8.86067401      1.00000000
    -59.593  0.0000E+00  0.0000E+00
    -59.342  0.0000E+00  0.0000E+00
    -59.091  0.0000E+00  0.0000E+00
    -58.840  0.0000E+00  0.0000E+00
    -58.589  0.0000E+00  0.0000E+00
    -58.338  0.0000E+00  0.0000E+00
    -58.088  0.0000E+00  0.0000E+00
    -57.837  0.0000E+00  0.0000E+00
    -57.586  0.0000E+00  0.0000E+00
    -57.335  0.0000E+00  0.0000E+00
    -57.084  0.0000E+00  0.0000E+00
    -56.833  0.0000E+00  0.0000E+00
    -56.582  0.2596E-09  0.6514E-10
    -56.331  0.1120E-02  0.2811E-03
    -56.080  0.2083E+00  0.5253E-01
    -55.830  0.3398E+00  0.1378E+00
    -55.579  0.8869E-02  0.1400E+00
    -55.328  0.2086E-07  0.1400E+00
    -55.077  0.0000E+00  0.1400E+00
    -54.826  0.0000E+00  0.1400E+00
    -54.575  0.0000E+00  0.1400E+00
    -54.324  0.0000E+00  0.1400E+00
    -54.073  0.0000E+00  0.1400E+00
    -53.822  0.0000E+00  0.1400E+00
    -53.572  0.0000E+00  0.1400E+00
    -53.321  0.0000E+00  0.1400E+00
    -53.070  0.0000E+00  0.1400E+00
    -52.819  0.0000E+00  0.1400E+00
    -52.568  0.0000E+00  0.1400E+00
    -52.317  0.0000E+00  0.1400E+00
    -52.066  0.0000E+00  0.1400E+00
    -51.815  0.0000E+00  0.1400E+00
    -51.564  0.0000E+00  0.1400E+00
    -51.314  0.0000E+00  0.1400E+00
    -51.063  0.0000E+00  0.1400E+00
    -50.812  0.0000E+00  0.1400E+00
    -50.561  0.0000E+00  0.1400E+00
    -50.310  0.0000E+00  0.1400E+00
    -50.059  0.0000E+00  0.1400E+00
    -49.808  0.0000E+00  0.1400E+00
    -49.557  0.0000E+00  0.1400E+00
    -49.306  0.0000E+00  0.1400E+00
    -49.056  0.0000E+00  0.1400E+00
    -48.805  0.0000E+00  0.1400E+00
    -48.554  0.0000E+00  0.1400E+00
    -48.303  0.0000E+00  0.1400E+00
    -48.052  0.0000E+00  0.1400E+00
    -47.801  0.0000E+00  0.1400E+00
    -47.550  0.2926E-10  0.1400E+00
    -47.299  0.3675E-03  0.1401E+00
    -47.048  0.1163E+00  0.1693E+00
    -46.798  0.2212E+00  0.2248E+00
    -46.547  0.1193E+00  0.2547E+00
    -46.296  0.2110E-01  0.2600E+00
    -46.045  0.1158E-05  0.2600E+00
    -45.794  0.4337E-15  0.2600E+00
    -45.543  0.0000E+00  0.2600E+00
    -45.292  0.0000E+00  0.2600E+00
    -45.041  0.0000E+00  0.2600E+00
    -44.790  0.0000E+00  0.2600E+00
    -44.540  0.0000E+00  0.2600E+00
    -44.289  0.0000E+00  0.2600E+00
    -44.038  0.0000E+00  0.2600E+00
    -43.787  0.0000E+00  0.2600E+00
    -43.536  0.0000E+00  0.2600E+00
    -43.285  0.0000E+00  0.2600E+00
    -43.034  0.0000E+00  0.2600E+00
    -42.783  0.0000E+00  0.2600E+00
    -42.532  0.0000E+00  0.2600E+00
    -42.282  0.0000E+00  0.2600E+00
    -42.031  0.0000E+00  0.2600E+00
    -41.780  0.0000E+00  0.2600E+00
    -41.529  0.0000E+00  0.2600E+00
    -41.278  0.0000E+00  0.2600E+00
    -41.027  0.0000E+00  0.2600E+00
    -40.776  0.0000E+00  0.2600E+00
    -40.525  0.0000E+00  0.2600E+00
    -40.275  0.0000E+00  0.2600E+00
    -40.024  0.0000E+00  0.2600E+00
    -39.773  0.0000E+00  0.2600E+00
    -39.522  0.0000E+00  0.2600E+00
    -39.271  0.0000E+00  0.2600E+00
    -39.020  0.0000E+00  0.2600E+00
    -38.769  0.0000E+00  0.2600E+00
    -38.518  0.0000E+00  0.2600E+00
    -38.267  0.0000E+00  0.2600E+00
    -38.017  0.0000E+00  0.2600E+00
    -37.766  0.0000E+00  0.2600E+00
    -37.515  0.0000E+00  0.2600E+00
    -37.264  0.0000E+00  0.2600E+00
    -37.013  0.0000E+00  0.2600E+00
    -36.762  0.0000E+00  0.2600E+00
    -36.511  0.0000E+00  0.2600E+00
    -36.260  0.0000E+00  0.2600E+00
    -36.009  0.0000E+00  0.2600E+00
    -35.759  0.0000E+00  0.2600E+00
    -35.508  0.0000E+00  0.2600E+00
    -35.257  0.0000E+00  0.2600E+00
    -35.006  0.0000E+00  0.2600E+00
    -34.755  0.0000E+00  0.2600E+00
    -34.504  0.0000E+00  0.2600E+00
    -34.253  0.0000E+00  0.2600E+00
    -34.002  0.0000E+00  0.2600E+00
    -33.751  0.0000E+00  0.2600E+00
    -33.501  0.0000E+00  0.2600E+00
    -33.250  0.0000E+00  0.2600E+00
    -32.999  0.0000E+00  0.2600E+00
    -32.748  0.0000E+00  0.2600E+00
    -32.497  0.0000E+00  0.2600E+00
    -32.246  0.0000E+00  0.2600E+00
    -31.995  0.0000E+00  0.2600E+00
    -31.744  0.0000E+00  0.2600E+00
    -31.493  0.0000E+00  0.2600E+00
    -31.243  0.0000E+00  0.2600E+00
    -30.992  0.0000E+00  0.2600E+00
    -30.741  0.3789E-12  0.2600E+00
    -30.490  0.4438E-04  0.2600E+00
    -30.239  0.7478E-01  0.2788E+00
    -29.988  0.7915E+00  0.4774E+00
    -29.737  0.7939E+00  0.6765E+00
    -29.486  0.1382E-01  0.6800E+00
    -29.235  0.4007E-07  0.6800E+00
    -28.985  0.0000E+00  0.6800E+00
    -28.734  0.0000E+00  0.6800E+00
    -28.483  0.0000E+00  0.6800E+00
    -28.232  0.0000E+00  0.6800E+00
    -27.981  0.0000E+00  0.6800E+00
    -27.730  0.0000E+00  0.6800E+00
    -27.479  0.0000E+00  0.6800E+00
    -27.228  0.0000E+00  0.6800E+00
    -26.977  0.2238E-09  0.6800E+00
    -26.727  0.1145E-02  0.6803E+00
    -26.476  0.2206E+00  0.7356E+00
    -26.225  0.6369E+00  0.8954E+00
    -25.974  0.5538E+00  0.1034E+01
    -25.723  0.2244E-01  0.1040E+01
    -25.472  0.4942E-06  0.1040E+01
    -25.221  0.0000E+00  0.1040E+01
    -24.970  0.0000E+00  0.1040E+01
    -24.719  0.0000E+00  0.1040E+01
    -24.469  0.0000E+00  0.1040E+01
    -24.218  0.0000E+00  0.1040E+01
    -23.967  0.3889E-13  0.1040E+01
    -23.716  0.1340E-04  0.1040E+01
    -23.465  0.4067E-01  0.1050E+01
    -23.214  0.3525E+00  0.1139E+01
    -22.963  0.6454E+00  0.1301E+01
    -22.712  0.3094E+00  0.1378E+01
    -22.461  0.8693E-01  0.1400E+01
    -22.211  0.3361E-01  0.1408E+01
    -21.960  0.2334E+00  0.1467E+01
    -21.709  0.6445E+00  0.1629E+01
    -21.458  0.6189E+00  0.1784E+01
    -21.207  0.1427E+00  0.1820E+01
    -20.956  0.9678E-03  0.1820E+01
    -20.705  0.2617E-09  0.1820E+01
    -20.454  0.0000E+00  0.1820E+01
    -20.203  0.0000E+00  0.1820E+01
    -19.953  0.0000E+00  0.1820E+01
    -19.702  0.0000E+00  0.1820E+01
    -19.451  0.0000E+00  0.1820E+01
    -19.200  0.0000E+00  0.1820E+01
    -18.949  0.0000E+00  0.1820E+01
    -18.698  0.0000E+00  0.1820E+01
    -18.447  0.0000E+00  0.1820E+01
    -18.196  0.0000E+00  0.1820E+01
    -17.945  0.0000E+00  0.1820E+01
    -17.695  0.0000E+00  0.1820E+01
    -17.444  0.0000E+00  0.1820E+01
    -17.193  0.0000E+00  0.1820E+01
    -16.942  0.0000E+00  0.1820E+01
    -16.691  0.0000E+00  0.1820E+01
    -16.440  0.0000E+00  0.1820E+01
    -16.189  0.0000E+00  0.1820E+01
    -15.938  0.0000E+00  0.1820E+01
    -15.687  0.0000E+00  0.1820E+01
    -15.437  0.0000E+00  0.1820E+01
    -15.186  0.0000E+00  0.1820E+01
    -14.935  0.0000E+00  0.1820E+01
    -14.684  0.0000E+00  0.1820E+01
    -14.433  0.0000E+00  0.1820E+01
    -14.182  0.0000E+00  0.1820E+01
    -13.931  0.0000E+00  0.1820E+01
    -13.680  0.0000E+00  0.1820E+01
    -13.429  0.0000E+00  0.1820E+01
    -13.179  0.0000E+00  0.1820E+01
    -12.928  0.0000E+00  0.1820E+01
    -12.677  0.0000E+00  0.1820E+01
    -12.426  0.0000E+00  0.1820E+01
    -12.175  0.0000E+00  0.1820E+01
    -11.924  0.0000E+00  0.1820E+01
    -11.673  0.0000E+00  0.1820E+01
    -11.422  0.0000E+00  0.1820E+01
    -11.171  0.0000E+00  0.1820E+01
    -10.921  0.0000E+00  0.1820E+01
    -10.670  0.0000E+00  0.1820E+01
    -10.419  0.0000E+00  0.1820E+01
    -10.168  0.0000E+00  0.1820E+01
     -9.917  0.0000E+00  0.1820E+01
     -9.666  0.0000E+00  0.1820E+01
     -9.415  0.0000E+00  0.1820E+01
     -9.164  0.0000E+00  0.1820E+01
     -8.913  0.0000E+00  0.1820E+01
     -8.663  0.0000E+00  0.1820E+01
     -8.412  0.0000E+00  0.1820E+01
     -8.161  0.0000E+00  0.1820E+01
     -7.910  0.1773E-08  0.1820E+01
     -7.659  0.4549E-03  0.1820E+01
     -7.408  0.3685E-01  0.1829E+01
     -7.157  0.6638E-01  0.1846E+01
     -6.906  0.1024E+00  0.1872E+01
     -6.655  0.2149E+00  0.1926E+01
     -6.405  0.1483E+00  0.1963E+01
     -6.154  0.2013E+00  0.2013E+01
     -5.903  0.1375E+00  0.2048E+01
     -5.652  0.9486E-01  0.2072E+01
     -5.401  0.3338E-01  0.2080E+01
     -5.150  0.1732E-04  0.2080E+01
     -4.899  0.1523E-12  0.2080E+01
     -4.648  0.8195E-17  0.2080E+01
     -4.397  0.3946E-07  0.2080E+01
     -4.147  0.1483E-02  0.2080E+01
     -3.896  0.3830E-01  0.2090E+01
     -3.645  0.4098E-01  0.2100E+01
     -3.394  0.7299E-01  0.2119E+01
     -3.143  0.1002E+00  0.2144E+01
     -2.892  0.1534E+00  0.2182E+01
     -2.641  0.2451E+00  0.2244E+01
     -2.390  0.2572E+00  0.2308E+01
     -2.139  0.2414E+00  0.2369E+01
     -1.889  0.1883E+00  0.2416E+01
     -1.638  0.1265E+00  0.2448E+01
     -1.387  0.4357E-01  0.2459E+01
     -1.136  0.5230E-02  0.2460E+01
     -0.885  0.1101E-04  0.2460E+01
     -0.634  0.6406E-12  0.2460E+01
     -0.383  0.0000E+00  0.2460E+01
     -0.132  0.0000E+00  0.2460E+01
      0.119  0.2786E-17  0.2460E+01
      0.369  0.1607E-07  0.2460E+01
      0.620  0.7140E-03  0.2460E+01
      0.871  0.9783E-02  0.2463E+01
      1.122  0.4551E-01  0.2474E+01
      1.373  0.9976E-01  0.2499E+01
      1.624  0.1406E+00  0.2534E+01
      1.875  0.1865E+00  0.2581E+01
      2.126  0.2605E+00  0.2646E+01
      2.377  0.2879E+00  0.2719E+01
      2.627  0.2694E+00  0.2786E+01
      2.878  0.3351E+00  0.2870E+01
      3.129  0.3139E+00  0.2949E+01
      3.380  0.3489E+00  0.3037E+01
      3.631  0.4825E+00  0.3158E+01
      3.882  0.5599E+00  0.3298E+01
      4.133  0.6480E+00  0.3461E+01
      4.384  0.6478E+00  0.3623E+01
      4.635  0.6211E+00  0.3779E+01
      4.885  0.5800E+00  0.3925E+01
      5.136  0.4317E+00  0.4033E+01
      5.387  0.3437E+00  0.4119E+01
      5.638  0.2952E+00  0.4193E+01
      5.889  0.2833E+00  0.4264E+01
      6.140  0.1945E+00  0.4313E+01
      6.391  0.1695E+00  0.4356E+01
      6.642  0.7784E-01  0.4375E+01
      6.893  0.1042E+00  0.4401E+01
      7.143  0.1491E+00  0.4439E+01
      7.394  0.1858E+00  0.4485E+01
      7.645  0.2187E+00  0.4540E+01
      7.896  0.2002E+00  0.4590E+01
      8.147  0.2045E+00  0.4642E+01
      8.398  0.2566E+00  0.4706E+01
      8.649  0.2564E+00  0.4770E+01
      8.900  0.2272E+00  0.4827E+01
      9.151  0.2599E+00  0.4893E+01
      9.401  0.3376E+00  0.4977E+01
      9.652  0.3921E+00  0.5076E+01
      9.903  0.4891E+00  0.5198E+01
     10.154  0.4774E+00  0.5318E+01
     10.405  0.4578E+00  0.5433E+01
     10.656  0.4556E+00  0.5547E+01
     10.907  0.4317E+00  0.5656E+01
     11.158  0.4107E+00  0.5759E+01
     11.409  0.4345E+00  0.5868E+01
     11.659  0.4167E+00  0.5972E+01
     11.910  0.4063E+00  0.6074E+01
     12.161  0.2918E+00  0.6147E+01
     12.412  0.4986E-01  0.6160E+01
     12.663  0.1804E-03  0.6160E+01
     12.914  0.3872E-10  0.6160E+01
     13.165  0.0000E+00  0.6160E+01
     13.416  0.0000E+00  0.6160E+01
     13.667  0.0000E+00  0.6160E+01
     13.917  0.0000E+00  0.6160E+01
     14.168  0.0000E+00  0.6160E+01
     14.419  0.0000E+00  0.6160E+01
     14.670  0.0000E+00  0.6160E+01
     14.921  0.0000E+00  0.6160E+01
     15.172  0.0000E+00  0.6160E+01
     15.423  0.0000E+00  0.6160E+01
     15.674  0.0000E+00  0.6160E+01
