<?xml version="1.0" encoding="ISO-8859-1"?>
<modeling>
 <generator>
  <i name="program" type="string">vasp </i>
  <i name="version" type="string">6.4.3  </i>
  <i name="subversion" type="string">19Mar24 (build Sep 18 2024 11:30:23) complex                          parallel </i>
  <i name="platform" type="string">LinuxIFC </i>
  <i name="date" type="string">2026 07 03 </i>
  <i name="time" type="string">21:09:42 </i>
 </generator>
 <incar>
  <i type="string" name="SYSTEM">HECN</i>
  <i type="int" name="ISTART">     0</i>
  <i type="string" name="PREC">Normal</i>
  <i type="string" name="ALGO">Fast</i>
  <i type="int" name="ICHARG">     2</i>
  <i type="int" name="NELM">    60</i>
  <i type="int" name="IBRION">     2</i>
  <i name="EDIFF">      0.00001000</i>
  <i name="EDIFFG">     -0.01000000</i>
  <i type="int" name="NSW">   100</i>
  <i type="int" name="ISIF">     3</i>
  <i name="ENCUT">    400.00000000</i>
  <i name="POTIM">      0.50000000</i>
  <i type="logical" name="LREAL"> F  </i>
  <i type="int" name="ISMEAR">     0</i>
  <i name="SIGMA">      0.10000000</i>
  <i type="logical" name="LWAVE"> F  </i>
  <i type="logical" name="LCHARG"> F  </i>
 </incar>
 <primitive_cell>
  <structure name="primitive_cell" >
   <crystal>
    <varray name="basis" >
     <v>       8.84355593       0.00580454       0.02444992 </v>
     <v>       0.01203431       8.81799532      -0.02684570 </v>
     <v>       0.05644972      -0.04192564       8.85632569 </v>
    </varray>
    <i name="volume">    690.61507720 </i>
    <varray name="rec_basis" >
     <v>       0.11307878      -0.00015652      -0.00072150 </v>
     <v>      -0.00007592       0.11340620       0.00053735 </v>
     <v>      -0.00031241       0.00034419       0.11291726 </v>
    </varray>
   </crystal>
   <varray name="positions" >
    <v>       0.00707229       0.00689083       0.99685133 </v>
    <v>       0.26574806       0.00659720       0.24144976 </v>
    <v>       0.24916438       0.49265201       0.25174948 </v>
    <v>       0.49915202       0.50134422       0.00061730 </v>
    <v>       0.49984973       0.24086203       0.74706301 </v>
    <v>       0.00217109       0.50118372       0.50255788 </v>
    <v>       0.49229603       0.75871043       0.75564036 </v>
    <v>       0.99549332       0.23730715       0.25615246 </v>
    <v>       0.75886976       0.75191591       0.00457258 </v>
    <v>       0.00216169       0.25516861       0.74907176 </v>
    <v>       0.75655329       0.24224004       0.48921362 </v>
    <v>       0.00082287       0.74932639       0.75384787 </v>
    <v>       0.24741633       0.50135918       0.75055871 </v>
    <v>       0.25435326       0.26765790       0.98253870 </v>
    <v>       0.51555657       0.25899178       0.23862152 </v>
    <v>       0.73757875       0.99730551       0.27466417 </v>
    <v>       0.72549989       0.24468507       0.01001102 </v>
    <v>       0.23095035       0.72929637       0.00124494 </v>
    <v>       0.23503124       0.24206046       0.51668679 </v>
    <v>       0.26009731       0.76154942       0.49496059 </v>
    <v>       0.24744736       0.24884479       0.24795827 </v>
    <v>       0.25606605       0.00328336       0.99551098 </v>
    <v>       0.99928383       0.25220665       0.00248800 </v>
    <v>       0.74677209       0.24447865       0.24021629 </v>
    <v>       0.75714041       0.00831017       0.01612805 </v>
    <v>       0.51230717       0.00342504       0.23524195 </v>
    <v>       0.99802047       0.49960259       0.24994300 </v>
    <v>       0.49621527       0.75460841       0.00287934 </v>
    <v>       0.98331763       0.00417116       0.74903362 </v>
    <v>       0.74965933       0.24788108       0.75185581 </v>
    <v>       0.75973618       0.99900262       0.51296922 </v>
    <v>       0.50098804       0.24832732       0.49136974 </v>
    <v>       0.49172608       0.00006350       0.73576995 </v>
    <v>       0.99881336       0.99959816       0.25391810 </v>
    <v>       0.49102368       0.24877406       0.00239787 </v>
    <v>       0.25300134       0.75049135       0.24595109 </v>
    <v>       0.24710192       0.49845002       0.99951297 </v>
    <v>       0.00345488       0.74980418       0.00310693 </v>
    <v>       0.75210928       0.75391436       0.25302893 </v>
    <v>       0.75319449       0.49275375       0.00136470 </v>
    <v>       0.50257381       0.49379890       0.25295155 </v>
    <v>       0.24766842       0.24823267       0.75079150 </v>
    <v>       0.26451205       0.00306919       0.49699014 </v>
    <v>       0.00397942       0.24856152       0.50192811 </v>
    <v>       0.24413561       0.75274831       0.75220171 </v>
    <v>       0.25419077       0.49756945       0.50118522 </v>
    <v>       0.00404110       0.75481658       0.50066343 </v>
    <v>       0.99815229       0.50214390       0.74997375 </v>
    <v>       0.74745713       0.74877601       0.75219778 </v>
    <v>       0.74693133       0.49846930       0.49835808 </v>
    <v>       0.49504833       0.74679883       0.50303017 </v>
    <v>       0.50023810       0.49932754       0.74589168 </v>
    <v>       0.52206930       0.01058839       0.98477588 </v>
    <v>       0.00243973       0.50303596       0.98930189 </v>
    <v>       0.49724020       0.74459016       0.26089227 </v>
    <v>       0.23574610       0.99807687       0.73830607 </v>
    <v>       0.50860097       0.98627190       0.47623611 </v>
    <v>       0.73178947       0.98519938       0.77730379 </v>
    <v>       0.00643419       0.76158621       0.25206394 </v>
    <v>       0.74832348       0.49927186       0.24812398 </v>
    <v>       0.01500412       0.00196933       0.50653822 </v>
    <v>       0.49676924       0.50001609       0.50023817 </v>
    <v>       0.74963881       0.50477713       0.75450042 </v>
    <v>       0.74379932       0.75520879       0.49683761 </v>
   </varray>
  </structure>
  <varray name="primitive_index" >
   <v type="int" >        1 </v>
   <v type="int" >        2 </v>
   <v type="int" >        3 </v>
   <v type="int" >        4 </v>
   <v type="int" >        5 </v>
   <v type="int" >        6 </v>
   <v type="int" >        7 </v>
   <v type="int" >        8 </v>
   <v type="int" >        9 </v>
   <v type="int" >       10 </v>
   <v type="int" >       11 </v>
   <v type="int" >       12 </v>
   <v type="int" >       13 </v>
   <v type="int" >       14 </v>
   <v type="int" >       15 </v>
   <v type="int" >       16 </v>
   <v type="int" >       17 </v>
   <v type="int" >       18 </v>
   <v type="int" >       19 </v>
   <v type="int" >       20 </v>
   <v type="int" >       21 </v>
   <v type="int" >       22 </v>
   <v type="int" >       23 </v>
   <v type="int" >       24 </v>
   <v type="int" >       25 </v>
   <v type="int" >       26 </v>
   <v type="int" >       27 </v>
   <v type="int" >       28 </v>
   <v type="int" >       29 </v>
   <v type="int" >       30 </v>
   <v type="int" >       31 </v>
   <v type="int" >       32 </v>
   <v type="int" >       33 </v>
   <v type="int" >       34 </v>
   <v type="int" >       35 </v>
   <v type="int" >       36 </v>
   <v type="int" >       37 </v>
   <v type="int" >       38 </v>
   <v type="int" >       39 </v>
   <v type="int" >       40 </v>
   <v type="int" >       41 </v>
   <v type="int" >       42 </v>
   <v type="int" >       43 </v>
   <v type="int" >       44 </v>
   <v type="int" >       45 </v>
   <v type="int" >       46 </v>
   <v type="int" >       47 </v>
   <v type="int" >       48 </v>
   <v type="int" >       49 </v>
   <v type="int" >       50 </v>
   <v type="int" >       51 </v>
   <v type="int" >       52 </v>
   <v type="int" >       53 </v>
   <v type="int" >       54 </v>
   <v type="int" >       55 </v>
   <v type="int" >       56 </v>
   <v type="int" >       57 </v>
   <v type="int" >       58 </v>
   <v type="int" >       59 </v>
   <v type="int" >       60 </v>
   <v type="int" >       61 </v>
   <v type="int" >       62 </v>
   <v type="int" >       63 </v>
   <v type="int" >       64 </v>
  </varray>
 </primitive_cell>
 <kpoints>
  <generation param="Gamma">
   <v type="int" name="divisions">       3        3        3 </v>
   <v name="usershift">      0.00000000       0.00000000       0.00000000 </v>
   <v name="genvec1">      0.33333333      -0.00000000      -0.00000000 </v>
   <v name="genvec2">      0.00000000       0.33333333       0.00000000 </v>
   <v name="genvec3">     -0.00000000       0.00000000       0.33333333 </v>
   <v name="shift">      0.00000000       0.00000000       0.00000000 </v>
  </generation>
  <varray name="kpointlist" >
   <v>       0.00000000       0.00000000       0.00000000 </v>
   <v>       0.33333333      -0.00000000      -0.00000000 </v>
   <v>      -0.00000000       0.33333333      -0.00000000 </v>
   <v>       0.33333333       0.33333333       0.00000000 </v>
   <v>      -0.33333333       0.33333333      -0.00000000 </v>
   <v>      -0.00000000       0.00000000       0.33333333 </v>
   <v>       0.33333333      -0.00000000       0.33333333 </v>
   <v>      -0.33333333       0.00000000       0.33333333 </v>
   <v>      -0.00000000       0.33333333       0.33333333 </v>
   <v>       0.33333333       0.33333333       0.33333333 </v>
   <v>      -0.33333333       0.33333333       0.33333333 </v>
   <v>      -0.00000000      -0.33333333       0.33333333 </v>
   <v>       0.33333333      -0.33333333       0.33333333 </v>
   <v>      -0.33333333      -0.33333333       0.33333333 </v>
  </varray>
  <varray name="weights" >
   <v>       0.03703704 </v>
   <v>       0.07407407 </v>
   <v>       0.07407407 </v>
   <v>       0.07407407 </v>
   <v>       0.07407407 </v>
   <v>       0.07407407 </v>
   <v>       0.07407407 </v>
   <v>       0.07407407 </v>
   <v>       0.07407407 </v>
   <v>       0.07407407 </v>
   <v>       0.07407407 </v>
   <v>       0.07407407 </v>
   <v>       0.07407407 </v>
   <v>       0.07407407 </v>
  </varray>
 </kpoints>
 <parameters>
  <separator name="general" >
   <i type="string" name="SYSTEM">HECN</i>
   <i type="logical" name="LCOMPAT"> F  </i>
  </separator>
  <separator name="electronic" >
   <i type="string" name="PREC">normal</i>
   <i name="ENMAX">    400.00000000</i>
   <i name="ENAUG">    644.87300000</i>
   <i name="EDIFF">      0.00001000</i>
   <i type="int" name="IALGO">    68</i>
   <i type="int" name="IWAVPR">    11</i>
   <i type="int" name="NBANDS">   308</i>
   <i type="int" name="NBANDSLOW">    -1</i>
   <i type="int" name="NBANDSHIGH">    -1</i>
   <i name="NELECT">    482.00000000</i>
   <i type="int" name="TURBO">     0</i>
   <i type="int" name="IRESTART">     0</i>
   <i type="int" name="NREBOOT">     0</i>
   <i type="int" name="NMIN">     0</i>
   <i name="EREF">      0.00000000</i>
   <separator name="electronic smearing" >
    <i type="int" name="ISMEAR">     0</i>
    <i name="SIGMA">      0.10000000</i>
    <i name="KSPACING">      0.50000000</i>
    <i type="logical" name="KGAMMA"> T  </i>
    <i type="logical" name="KBLOWUP"> T  </i>
   </separator>
   <separator name="electronic projectors" >
    <i type="logical" name="LREAL"> F  </i>
    <v name="ROPT">      0.00000000      0.00000000      0.00000000      0.00000000      0.00000000      0.00000000      0.00000000</v>
    <i type="int" name="LMAXPAW">  -100</i>
    <i type="int" name="LMAXMIX">     2</i>
    <i type="logical" name="NLSPLINE"> F  </i>
   </separator>
   <separator name="electronic startup" >
    <i type="int" name="ISTART">     0</i>
    <i type="int" name="ICHARG">     2</i>
    <i type="int" name="INIWAV">     1</i>
   </separator>
   <separator name="electronic spin" >
    <i type="int" name="ISPIN">     1</i>
    <i type="logical" name="LNONCOLLINEAR"> F  </i>
    <v name="MAGMOM">      1.00000000      1.00000000      1.00000000      1.00000000      1.00000000      1.00000000      1.00000000      1.00000000      1.00000000      1.00000000      1.00000000      1.00000000      1.00000000      1.00000000      1.00000000      1.00000000      1.00000000      1.00000000      1.00000000      1.00000000
      1.00000000      1.00000000      1.00000000      1.00000000      1.00000000      1.00000000      1.00000000      1.00000000      1.00000000      1.00000000      1.00000000      1.00000000      1.00000000      1.00000000      1.00000000      1.00000000      1.00000000      1.00000000      1.00000000      1.00000000
      1.00000000      1.00000000      1.00000000      1.00000000      1.00000000      1.00000000      1.00000000      1.00000000      1.00000000      1.00000000      1.00000000      1.00000000      1.00000000      1.00000000      1.00000000      1.00000000      1.00000000      1.00000000      1.00000000      1.00000000
      1.00000000      1.00000000      1.00000000      1.00000000</v>
    <i name="NUPDOWN">     -1.00000000</i>
    <i type="logical" name="LSORBIT"> F  </i>
    <v name="SAXIS">      0.00000000      0.00000000      1.00000000</v>
    <i type="logical" name="LSPIRAL"> F  </i>
    <v name="QSPIRAL">      0.00000000      0.00000000      0.00000000</v>
    <i type="logical" name="LZEROZ"> F  </i>
   </separator>
   <separator name="electronic exchange-correlation" >
    <i type="logical" name="LASPH"> F  </i>
   </separator>
   <separator name="electronic convergence" >
    <i type="int" name="NELM">    60</i>
    <i type="int" name="NELMDL">    -5</i>
    <i type="int" name="NELMIN">     2</i>
    <i name="ENINI">    400.00000000</i>
    <separator name="electronic convergence detail" >
     <i type="logical" name="LDIAG"> T  </i>
     <i type="logical" name="LSUBROT"> F  </i>
     <i name="WEIMIN">      0.00100000</i>
     <i name="EBREAK">      0.00000001</i>
     <i name="DEPER">      0.30000000</i>
     <i type="int" name="NRMM">     4</i>
     <i name="TIME">      0.40000000</i>
    </separator>
   </separator>
   <separator name="electronic mixer" >
    <i name="AMIX">      0.40000000</i>
    <i name="BMIX">      1.00000000</i>
    <i name="AMIN">      0.10000000</i>
    <i name="AMIX_MAG">      1.60000000</i>
    <i name="BMIX_MAG">      1.00000000</i>
    <separator name="electronic mixer details" >
     <i type="int" name="IMIX">     4</i>
     <i type="logical" name="MIXFIRST"> F  </i>
     <i type="int" name="MAXMIX">   -45</i>
     <i name="WC">    100.00000000</i>
     <i type="int" name="INIMIX">     1</i>
     <i type="int" name="MIXPRE">     1</i>
     <i type="int" name="MREMOVE">     5</i>
    </separator>
   </separator>
   <separator name="electronic dipolcorrection" >
    <i type="logical" name="LDIPOL"> F  </i>
    <i type="logical" name="LMONO"> F  </i>
    <i type="int" name="IDIPOL">     0</i>
    <i name="EPSILON">      1.00000000</i>
    <v name="DIPOL">   -100.00000000   -100.00000000   -100.00000000</v>
    <i name="EFIELD">      0.00000000</i>
    <i type="logical" name="LVACPOTAV"> F  </i>
   </separator>
  </separator>
  <separator name="grids" >
   <i type="int" name="NGX">    48</i>
   <i type="int" name="NGY">    48</i>
   <i type="int" name="NGZ">    48</i>
   <i type="int" name="NGXF">    96</i>
   <i type="int" name="NGYF">    96</i>
   <i type="int" name="NGZF">    96</i>
   <i type="logical" name="ADDGRID"> F  </i>
  </separator>
  <separator name="ionic" >
   <i type="int" name="NSW">   100</i>
   <i type="int" name="IBRION">     2</i>
   <i type="int" name="MDALGO">     0</i>
   <i type="int" name="ISIF">     3</i>
   <i name="PSTRESS">      0.00000000</i>
   <i name="EDIFFG">     -0.01000000</i>
   <i type="int" name="NFREE">     1</i>
   <i name="POTIM">      0.50000000</i>
   <i name="SMASS">     -3.00000000</i>
   <i name="SCALEE">      1.00000000</i>
  </separator>
  <separator name="ionic md" >
   <i name="TEBEG">      0.00010000</i>
   <i name="TEEND">      0.00010000</i>
   <i type="int" name="NBLOCK">     1</i>
   <i type="int" name="KBLOCK">   100</i>
   <i type="int" name="NPACO">   256</i>
   <i name="APACO">     10.00000000</i>
  </separator>
  <separator name="symmetry" >
   <i type="int" name="ISYM">     2</i>
   <i name="SYMPREC">      0.00001000</i>
  </separator>
  <separator name="dos" >
   <i type="int" name="LORBIT">     0</i>
   <v name="RWIGS">     -1.00000000     -1.00000000     -1.00000000     -1.00000000     -1.00000000     -1.00000000     -1.00000000</v>
   <i type="int" name="NEDOS">   301</i>
   <i name="EMIN">     10.00000000</i>
   <i name="EMAX">    -10.00000000</i>
   <i name="EFERMI">      0.00000000</i>
  </separator>
  <separator name="writing" >
   <i type="int" name="NWRITE">     2</i>
   <i type="logical" name="LWAVE"> F  </i>
   <i type="logical" name="LDOWNSAMPLE"> F  </i>
   <i type="logical" name="LCHARG"> F  </i>
   <i type="logical" name="LPARD"> F  </i>
   <i type="logical" name="LVTOT"> F  </i>
   <i type="logical" name="LVHAR"> F  </i>
   <i type="logical" name="LELF"> F  </i>
   <i type="logical" name="LOPTICS"> F  </i>
   <v name="STM">      0.00000000      0.00000000      0.00000000      0.00000000      0.00000000      0.00000000      0.00000000</v>
  </separator>
  <separator name="performance" >
   <i type="int" name="NPAR">    28</i>
   <i type="int" name="NSIM">     4</i>
   <i type="int" name="NBLK">    -1</i>
   <i type="logical" name="LPLANE"> T  </i>
   <i type="logical" name="LSCALAPACK"> T  </i>
   <i type="logical" name="LSCAAWARE"> F  </i>
   <i type="logical" name="LSCALU"> F  </i>
   <i type="logical" name="LASYNC"> F  </i>
   <i type="logical" name="LORBITALREAL"> F  </i>
  </separator>
  <separator name="miscellaneous" >
   <i type="int" name="IDIOT">     3</i>
   <i type="int" name="PHON_NSTRUCT">    -1</i>
   <i type="logical" name="LMUSIC"> F  </i>
   <v name="POMASS">    178.49000000     92.91000000     50.94100000     14.00100000     12.01100000     95.94000000    180.94800000</v>
   <v name="DARWINR">      0.00000000      0.00000000      0.00000000      0.00000000      0.00000000      0.00000000      0.00000000</v>
   <v name="DARWINV">      1.00000000      1.00000000      1.00000000      1.00000000      1.00000000      1.00000000      1.00000000</v>
   <i type="logical" name="LCORR"> T  </i>
  </separator>
  <i type="logical" name="GGA_COMPAT"> T  </i>
  <i type="logical" name="LBERRY"> F  </i>
  <i type="int" name="ICORELEVEL">     0</i>
  <i type="logical" name="LDAU"> F  </i>
  <i type="int" name="I_CONSTRAINED_M">     0</i>
  <separator name="electronic exchange-correlation" >
   <i type="string" name="GGA    ">PE</i>
   <i type="string" name="XC_C">1</i>
   <i type="int" name="VOSKOWN">     0</i>
   <i type="logical" name="LHFCALC"> F  </i>
   <i type="string" name="PRECFOCK"></i>
   <i type="logical" name="LSYMGRAD"> F  </i>
   <i type="logical" name="LHFONE"> F  </i>
   <i type="logical" name="LRHFCALC"> F  </i>
   <i type="logical" name="LTHOMAS"> F  </i>
   <i type="logical" name="LMODELHF"> F  </i>
   <i type="logical" name="LFOCKACE"> F  </i>
   <i name="ENCUT4O">     -1.00000000</i>
   <i type="int" name="EXXOEP">     0</i>
   <i type="int" name="FOURORBIT">     0</i>
   <i name="AEXX">      0.00000000</i>
   <i name="HFALPHA">      0.00000000</i>
   <i name="MCALPHA">      0.00000000</i>
   <i name="ALDAX">      1.00000000</i>
   <i name="AGGAX">      1.00000000</i>
   <i name="AMGGAX">      1.00000000</i>
   <i name="ALDAC">      1.00000000</i>
   <i name="AGGAC">      1.00000000</i>
   <i name="AMGGAC">      1.00000000</i>
   <i type="int" name="NKREDX">     1</i>
   <i type="int" name="NKREDY">     1</i>
   <i type="int" name="NKREDZ">     1</i>
   <i type="logical" name="SHIFTRED"> F  </i>
   <i type="logical" name="ODDONLY"> F  </i>
   <i type="logical" name="EVENONLY"> F  </i>
   <i type="int" name="LMAXFOCK">     0</i>
   <i type="int" name="NMAXFOCKAE">     0</i>
   <i type="logical" name="LFOCKAEDFT"> F  </i>
   <i name="HFSCREEN">      0.00000000</i>
   <i name="HFSCREENC">      0.00000000</i>
   <i type="int" name="NBANDSGWLOW">     0</i>
  </separator>
  <separator name="vdW DFT" >
   <i type="logical" name="LUSE_VDW"> F  </i>
   <i type="int" name="IVDW_NL">    -1</i>
   <i type="logical" name="LSPIN_VDW"> F  </i>
   <i name="ZAB_VDW">     -0.84910000</i>
   <i name="GAMMA_VDW">      1.39626340</i>
   <i name="ALPHA_VDW">      0.00000000</i>
   <i name="PARAM1">      0.12340000</i>
   <i name="PARAM2">      1.00000000</i>
   <i name="BPARAM">      6.30000000</i>
   <i name="CPARAM">      0.00930000</i>
  </separator>
  <separator name="model GW" >
   <i type="int" name="MODEL_GW">     0</i>
   <i name="MODEL_EPS0">      6.47451635</i>
   <i name="MODEL_ALPHA">      1.00000000</i>
  </separator>
  <separator name="linear response parameters" >
   <i type="logical" name="LEPSILON"> F  </i>
   <i type="logical" name="LRPA"> F  </i>
   <i type="logical" name="LNABLA"> F  </i>
   <i type="logical" name="LVEL"> F  </i>
   <i name="CSHIFT">      0.10000000</i>
   <i name="OMEGAMAX">     -1.00000000</i>
   <i name="DEG_THRESHOLD">      0.00200000</i>
   <i name="RTIME">     -0.10000000</i>
   <i name="WPLASMAI">      0.00000000</i>
   <v name="DFIELD">      0.00000000      0.00000000      0.00000000</v>
   <v name="WPLASMA">      0.00000000      0.00000000      0.00000000      0.00000000      0.00000000      0.00000000      0.00000000      0.00000000      0.00000000</v>
  </separator>
  <separator name="orbital magnetization" >
   <i type="logical" name="NUCIND"> F  </i>
   <v name="MAGPOS">      0.00000000      0.00000000      0.00000000</v>
   <i type="logical" name="LNICSALL"> T  </i>
   <i type="logical" name="ORBITALMAG"> F  </i>
   <i type="logical" name="LMAGBLOCH"> F  </i>
   <i type="logical" name="LCHIMAG"> F  </i>
   <i type="logical" name="LGAUGE"> T  </i>
   <i type="int" name="MAGATOM">     0</i>
   <v name="MAGDIPOL">      0.00000000      0.00000000      0.00000000</v>
   <v name="AVECCONST">      0.00000000      0.00000000      0.00000000</v>
  </separator>
  <separator name="response functions" >
   <i type="logical" name="LALL_IN_ONE"> F  </i>
   <i type="int" name="IALL_IN_ONE">    -1</i>
   <i type="int" name="NBANDS_WAVE">    -1</i>
   <i type="logical" name="LFINITE_TEMPERATURE"> F  </i>
   <i type="logical" name="LADDER"> F  </i>
   <i type="logical" name="LRPAFORCE"> F  </i>
   <i type="logical" name="LFXC"> F  </i>
   <i type="logical" name="LHARTREE"> T  </i>
   <i type="int" name="IBSE">     0</i>
   <v type="int" name="KPOINT">    -1     0     0     0</v>
   <i type="logical" name="LTCTC"> F  </i>
   <i type="logical" name="LTCTE"> F  </i>
   <i type="logical" name="LTETE"> F  </i>
   <i type="logical" name="LTRIPLET"> F  </i>
   <i type="logical" name="LFXCEPS"> F  </i>
   <i type="logical" name="LFXHEG"> F  </i>
   <i type="int" name="NATURALO">     2</i>
   <i type="logical" name="LHOLEGF"> F  </i>
   <i type="logical" name="L2ORDER"> F  </i>
   <i type="logical" name="LDMP1"> F  </i>
   <i type="logical" name="LMP2LT"> F  </i>
   <i type="logical" name="LSMP2LT"> F  </i>
   <i type="logical" name="LGWLF"> F  </i>
   <i name="ENCUTGW">     -1.60000002</i>
   <i name="ENCUTGWSOFT">     -1.60000002</i>
   <i name="ENCUTLF">     -1.00000000</i>
   <i type="logical" name="ESF_SPLINES"> F  </i>
   <i name="ESF_CONV">      0.01000000</i>
   <i type="int" name="ESF_NINTER">    15</i>
   <i type="int" name="LMAXMP2">    -1</i>
   <i name="SCISSOR">      0.00000000</i>
   <i type="int" name="NOMEGA">     0</i>
   <i type="int" name="NOMEGAR">     0</i>
   <i type="int" name="NBANDSGW">    -1</i>
   <i type="int" name="NBANDSO">    -1</i>
   <i type="int" name="NBANDSV">    -1</i>
   <i type="int" name="NELMGW">     1</i>
   <i type="int" name="NELMHF">     1</i>
   <i type="int" name="DIM">     3</i>
   <i type="int" name="IESPILON">     4</i>
   <i type="int" name="ANTIRES">     0</i>
   <i name="OMEGAMAX">    -30.00000000</i>
   <i name="OMEGAMIN">    -30.00000000</i>
   <i name="OMEGATL">   -200.00000000</i>
   <i type="int" name="OMEGAGRID">     0</i>
   <i name="CSHIFT">     -0.10000000</i>
   <i type="logical" name="LSELFENERGY"> F  </i>
   <i type="logical" name="LSPECTRAL"> F  </i>
   <i type="logical" name="LSPECTRALGW"> F  </i>
   <i type="logical" name="LSINGLES"> F  </i>
   <i type="logical" name="LFERMIGW"> F  </i>
   <i type="logical" name="ODDONLYGW"> F  </i>
   <i type="logical" name="EVENONLYGW"> F  </i>
   <i type="int" name="NKREDLFX">     1</i>
   <i type="int" name="NKREDLFY">     1</i>
   <i type="int" name="NKREDLFZ">     1</i>
   <i type="int" name="MAXMEM">  2800</i>
   <i type="int" name="TELESCOPE">     0</i>
   <i type="int" name="NTAUPAR">    -1</i>
   <i type="int" name="NOMEGAPAR">    -1</i>
   <i name="DAMP_NEWTON">      0.80000001</i>
   <i name="LAMBDA">      1.00000000</i>
  </separator>
  <separator name="External order field" >
   <i name="OFIELD_KAPPA">      0.00000000</i>
   <v name="OFIELD_K">      0.00000000      0.00000000      0.00000000</v>
   <i name="OFIELD_Q6_NEAR">      0.00000000</i>
   <i name="OFIELD_Q6_FAR">      0.00000000</i>
   <i name="OFIELD_A">      0.00000000</i>
  </separator>
  <separator name="optional k-points parameters" >
   <i type="int" name="KPOINTS_OPT_MODE">     1</i>
   <i type="logical" name="LKPOINTS_OPT"> F  </i>
  </separator>
  <separator name="solvation model" >
   <i type="logical" name="LSOL"> F  </i>
  </separator>
 </parameters>
 <atominfo>
  <atoms>      64 </atoms>
  <types>       7 </types>
  <array name="atoms" >
   <dimension dim="1">ion</dimension>
   <field type="string">element</field>
   <field type="int">atomtype</field>
   <set>
    <rc><c>Hf</c><c>   1</c></rc>
    <rc><c>Hf</c><c>   1</c></rc>
    <rc><c>Hf</c><c>   1</c></rc>
    <rc><c>Hf</c><c>   1</c></rc>
    <rc><c>Hf</c><c>   1</c></rc>
    <rc><c>Hf</c><c>   1</c></rc>
    <rc><c>Hf</c><c>   1</c></rc>
    <rc><c>Nb</c><c>   2</c></rc>
    <rc><c>Nb</c><c>   2</c></rc>
    <rc><c>Nb</c><c>   2</c></rc>
    <rc><c>Nb</c><c>   2</c></rc>
    <rc><c>Nb</c><c>   2</c></rc>
    <rc><c>Nb</c><c>   2</c></rc>
    <rc><c>V </c><c>   3</c></rc>
    <rc><c>V </c><c>   3</c></rc>
    <rc><c>V </c><c>   3</c></rc>
    <rc><c>V </c><c>   3</c></rc>
    <rc><c>V </c><c>   3</c></rc>
    <rc><c>V </c><c>   3</c></rc>
    <rc><c>V </c><c>   3</c></rc>
    <rc><c>N </c><c>   4</c></rc>
    <rc><c>N </c><c>   4</c></rc>
    <rc><c>N </c><c>   4</c></rc>
    <rc><c>N </c><c>   4</c></rc>
    <rc><c>N </c><c>   4</c></rc>
    <rc><c>N </c><c>   4</c></rc>
    <rc><c>N </c><c>   4</c></rc>
    <rc><c>N </c><c>   4</c></rc>
    <rc><c>N </c><c>   4</c></rc>
    <rc><c>N </c><c>   4</c></rc>
    <rc><c>N </c><c>   4</c></rc>
    <rc><c>N </c><c>   4</c></rc>
    <rc><c>N </c><c>   4</c></rc>
    <rc><c>C </c><c>   5</c></rc>
    <rc><c>C </c><c>   5</c></rc>
    <rc><c>C </c><c>   5</c></rc>
    <rc><c>C </c><c>   5</c></rc>
    <rc><c>C </c><c>   5</c></rc>
    <rc><c>C </c><c>   5</c></rc>
    <rc><c>C </c><c>   5</c></rc>
    <rc><c>C </c><c>   5</c></rc>
    <rc><c>C </c><c>   5</c></rc>
    <rc><c>C </c><c>   5</c></rc>
    <rc><c>C </c><c>   5</c></rc>
    <rc><c>C </c><c>   5</c></rc>
    <rc><c>C </c><c>   5</c></rc>
    <rc><c>C </c><c>   5</c></rc>
    <rc><c>C </c><c>   5</c></rc>
    <rc><c>C </c><c>   5</c></rc>
    <rc><c>C </c><c>   5</c></rc>
    <rc><c>C </c><c>   5</c></rc>
    <rc><c>C </c><c>   5</c></rc>
    <rc><c>Mo</c><c>   6</c></rc>
    <rc><c>Mo</c><c>   6</c></rc>
    <rc><c>Mo</c><c>   6</c></rc>
    <rc><c>Mo</c><c>   6</c></rc>
    <rc><c>Mo</c><c>   6</c></rc>
    <rc><c>Mo</c><c>   6</c></rc>
    <rc><c>Ta</c><c>   7</c></rc>
    <rc><c>Ta</c><c>   7</c></rc>
    <rc><c>Ta</c><c>   7</c></rc>
    <rc><c>Ta</c><c>   7</c></rc>
    <rc><c>Ta</c><c>   7</c></rc>
    <rc><c>Ta</c><c>   7</c></rc>
   </set>
  </array>
  <array name="atomtypes" >
   <dimension dim="1">type</dimension>
   <field type="int">atomspertype</field>
   <field type="string">element</field>
   <field>mass</field>
   <field>valence</field>
   <field type="string">pseudopotential</field>
   <set>
    <rc><c>   7</c><c>Hf</c><c>    178.49000000</c><c>     10.00000000</c><c> PAW_PBE Hf_pv 06Sep2000                </c></rc>
    <rc><c>   6</c><c>Nb</c><c>     92.91000000</c><c>     13.00000000</c><c> PAW_PBE Nb_sv 17Jan2003                </c></rc>
    <rc><c>   7</c><c>V </c><c>     50.94100000</c><c>     13.00000000</c><c> PAW_PBE V_sv 07Sep2000                 </c></rc>
    <rc><c>  13</c><c>N </c><c>     14.00100000</c><c>      5.00000000</c><c> PAW_PBE N 08Apr2002                    </c></rc>
    <rc><c>  19</c><c>C </c><c>     12.01100000</c><c>      4.00000000</c><c> PAW_PBE C 08Apr2002                    </c></rc>
    <rc><c>   6</c><c>Mo</c><c>     95.94000000</c><c>      6.00000000</c><c> PAW_PBE Mo 08Apr2002                   </c></rc>
    <rc><c>   6</c><c>Ta</c><c>    180.94800000</c><c>     11.00000000</c><c> PAW_PBE Ta_pv 07Sep2000                </c></rc>
   </set>
  </array>
 </atominfo>
 <structure name="initialpos" >
  <crystal>
   <varray name="basis" >
    <v>       8.84355593       0.00580454       0.02444992 </v>
    <v>       0.01203431       8.81799532      -0.02684570 </v>
    <v>       0.05644972      -0.04192564       8.85632569 </v>
   </varray>
   <i name="volume">    690.61507720 </i>
   <varray name="rec_basis" >
    <v>       0.11307878      -0.00015652      -0.00072150 </v>
    <v>      -0.00007592       0.11340620       0.00053735 </v>
    <v>      -0.00031241       0.00034419       0.11291726 </v>
   </varray>
  </crystal>
  <varray name="positions" >
   <v>       0.00707229       0.00689083       0.99685133 </v>
   <v>       0.26574806       0.00659720       0.24144976 </v>
   <v>       0.24916438       0.49265201       0.25174948 </v>
   <v>       0.49915202       0.50134422       0.00061730 </v>
   <v>       0.49984973       0.24086203       0.74706301 </v>
   <v>       0.00217109       0.50118372       0.50255788 </v>
   <v>       0.49229603       0.75871043       0.75564036 </v>
   <v>       0.99549332       0.23730715       0.25615246 </v>
   <v>       0.75886976       0.75191591       0.00457258 </v>
   <v>       0.00216169       0.25516861       0.74907176 </v>
   <v>       0.75655329       0.24224004       0.48921362 </v>
   <v>       0.00082287       0.74932639       0.75384787 </v>
   <v>       0.24741633       0.50135918       0.75055871 </v>
   <v>       0.25435326       0.26765790       0.98253870 </v>
   <v>       0.51555657       0.25899178       0.23862152 </v>
   <v>       0.73757875       0.99730551       0.27466417 </v>
   <v>       0.72549989       0.24468507       0.01001102 </v>
   <v>       0.23095035       0.72929637       0.00124494 </v>
   <v>       0.23503124       0.24206046       0.51668679 </v>
   <v>       0.26009731       0.76154942       0.49496059 </v>
   <v>       0.24744736       0.24884479       0.24795827 </v>
   <v>       0.25606605       0.00328336       0.99551098 </v>
   <v>       0.99928383       0.25220665       0.00248800 </v>
   <v>       0.74677209       0.24447865       0.24021629 </v>
   <v>       0.75714041       0.00831017       0.01612805 </v>
   <v>       0.51230717       0.00342504       0.23524195 </v>
   <v>       0.99802047       0.49960259       0.24994300 </v>
   <v>       0.49621527       0.75460841       0.00287934 </v>
   <v>       0.98331763       0.00417116       0.74903362 </v>
   <v>       0.74965933       0.24788108       0.75185581 </v>
   <v>       0.75973618       0.99900262       0.51296922 </v>
   <v>       0.50098804       0.24832732       0.49136974 </v>
   <v>       0.49172608       0.00006350       0.73576995 </v>
   <v>       0.99881336       0.99959816       0.25391810 </v>
   <v>       0.49102368       0.24877406       0.00239787 </v>
   <v>       0.25300134       0.75049135       0.24595109 </v>
   <v>       0.24710192       0.49845002       0.99951297 </v>
   <v>       0.00345488       0.74980418       0.00310693 </v>
   <v>       0.75210928       0.75391436       0.25302893 </v>
   <v>       0.75319449       0.49275375       0.00136470 </v>
   <v>       0.50257381       0.49379890       0.25295155 </v>
   <v>       0.24766842       0.24823267       0.75079150 </v>
   <v>       0.26451205       0.00306919       0.49699014 </v>
   <v>       0.00397942       0.24856152       0.50192811 </v>
   <v>       0.24413561       0.75274831       0.75220171 </v>
   <v>       0.25419077       0.49756945       0.50118522 </v>
   <v>       0.00404110       0.75481658       0.50066343 </v>
   <v>       0.99815229       0.50214390       0.74997375 </v>
   <v>       0.74745713       0.74877601       0.75219778 </v>
   <v>       0.74693133       0.49846930       0.49835808 </v>
   <v>       0.49504833       0.74679883       0.50303017 </v>
   <v>       0.50023810       0.49932754       0.74589168 </v>
   <v>       0.52206930       0.01058839       0.98477588 </v>
   <v>       0.00243973       0.50303596       0.98930189 </v>
   <v>       0.49724020       0.74459016       0.26089227 </v>
   <v>       0.23574610       0.99807687       0.73830607 </v>
   <v>       0.50860097       0.98627190       0.47623611 </v>
   <v>       0.73178947       0.98519938       0.77730379 </v>
   <v>       0.00643419       0.76158621       0.25206394 </v>
   <v>       0.74832348       0.49927186       0.24812398 </v>
   <v>       0.01500412       0.00196933       0.50653822 </v>
   <v>       0.49676924       0.50001609       0.50023817 </v>
   <v>       0.74963881       0.50477713       0.75450042 </v>
   <v>       0.74379932       0.75520879       0.49683761 </v>
  </varray>
 </structure>
 <calculation>
  <scstep>
   <time name="dav">   18.56   18.71</time>
   <time name="total">   18.59   18.76</time>
   <energy>
    <i name="alphaZ">   3919.49510533 </i>
    <i name="ewald"> -37569.07838342 </i>
    <i name="hartreedc">  -7598.48183666 </i>
    <i name="XCdc">   1298.55390317 </i>
    <i name="pawpsdc">  26655.23559995 </i>
    <i name="pawaedc"> -26071.32907419 </i>
    <i name="eentropy">     -0.08556221 </i>
    <i name="bandstr">   1403.46305073 </i>
    <i name="atom">  42821.34141094 </i>
    <i name="e_fr_energy">   4859.11421364 </i>
    <i name="e_wo_entrp">   4859.19977584 </i>
    <i name="e_0_energy">   4859.15699474 </i>
   </energy>
  </scstep>
  <scstep>
   <time name="dav">   19.36   20.06</time>
   <time name="total">   19.37   20.06</time>
   <energy>
    <i name="e_fr_energy">   -124.55307943 </i>
    <i name="e_wo_entrp">   -124.44853685 </i>
    <i name="e_0_energy">   -124.50080814 </i>
   </energy>
  </scstep>
  <scstep>
   <time name="dav">   27.44   27.95</time>
   <time name="total">   27.44   27.95</time>
   <energy>
    <i name="e_fr_energy">   -751.49608140 </i>
    <i name="e_wo_entrp">   -751.41572323 </i>
    <i name="e_0_energy">   -751.45590232 </i>
   </energy>
  </scstep>
  <scstep>
   <time name="dav">   27.90   28.40</time>
   <time name="total">   27.90   28.40</time>
   <energy>
    <i name="e_fr_energy">   -791.20722892 </i>
    <i name="e_wo_entrp">   -791.11635339 </i>
    <i name="e_0_energy">   -791.16179116 </i>
   </energy>
  </scstep>
  <scstep>
   <time name="dav">   32.41   32.98</time>
   <time name="total">   32.59   33.18</time>
   <energy>
    <i name="e_fr_energy">   -795.01643844 </i>
    <i name="e_wo_entrp">   -794.92265455 </i>
    <i name="e_0_energy">   -794.96954649 </i>
   </energy>
  </scstep>
  <scstep>
   <time name="diag">    1.32    1.34</time>
   <time name="diis">   15.99   16.23</time>
   <time name="orth">    0.34    0.34</time>
   <time name="total">   17.85   18.10</time>
   <energy>
    <i name="e_fr_energy">   -730.60523045 </i>
    <i name="e_wo_entrp">   -730.48095876 </i>
    <i name="e_0_energy">   -730.54309461 </i>
   </energy>
  </scstep>
  <scstep>
   <time name="diag">    1.32    1.33</time>
   <time name="diis">   15.87   16.03</time>
   <time name="orth">    0.38    0.38</time>
   <time name="total">   17.75   17.92</time>
   <energy>
    <i name="e_fr_energy">   -676.12553879 </i>
    <i name="e_wo_entrp">   -676.03302711 </i>
    <i name="e_0_energy">   -676.07928295 </i>
   </energy>
  </scstep>
  <scstep>
   <time name="diag">    1.33    1.36</time>
   <time name="diis">   19.06   19.22</time>
   <time name="orth">    0.33    0.33</time>
   <time name="total">   20.90   21.09</time>
   <energy>
    <i name="e_fr_energy">   -660.07756964 </i>
    <i name="e_wo_entrp">   -659.98235980 </i>
    <i name="e_0_energy">   -660.02996472 </i>
   </energy>
  </scstep>
  <scstep>
   <time name="diag">    1.36    1.37</time>
   <time name="diis">   19.29   19.47</time>
   <time name="orth">    0.37    0.37</time>
   <time name="total">   21.20   21.39</time>
   <energy>
    <i name="e_fr_energy">   -659.67046264 </i>
    <i name="e_wo_entrp">   -659.57271545 </i>
    <i name="e_0_energy">   -659.62158905 </i>
   </energy>
  </scstep>
  <scstep>
   <time name="diag">    1.33    1.33</time>
   <time name="diis">   19.41   19.64</time>
   <time name="orth">    0.34    0.35</time>
   <time name="total">   21.26   21.51</time>
   <energy>
    <i name="e_fr_energy">   -659.56533751 </i>
    <i name="e_wo_entrp">   -659.47586074 </i>
    <i name="e_0_energy">   -659.52059912 </i>
   </energy>
  </scstep>
  <scstep>
   <time name="diag">    1.32    1.33</time>
   <time name="diis">   18.65   18.79</time>
   <time name="orth">    0.33    0.33</time>
   <time name="total">   20.48   20.63</time>
   <energy>
    <i name="e_fr_energy">   -658.81991028 </i>
    <i name="e_wo_entrp">   -658.71687831 </i>
    <i name="e_0_energy">   -658.76839430 </i>
   </energy>
  </scstep>
  <scstep>
   <time name="diag">    1.34    1.35</time>
   <time name="diis">   19.49   19.68</time>
   <time name="orth">    0.38    0.38</time>
   <time name="total">   21.39   21.59</time>
   <energy>
    <i name="e_fr_energy">   -659.24448072 </i>
    <i name="e_wo_entrp">   -659.13770580 </i>
    <i name="e_0_energy">   -659.19109326 </i>
   </energy>
  </scstep>
  <scstep>
   <time name="diag">    1.42    1.43</time>
   <time name="diis">   20.04   20.27</time>
   <time name="orth">    0.38    0.38</time>
   <time name="total">   22.02   22.26</time>
   <energy>
    <i name="e_fr_energy">   -659.00669710 </i>
    <i name="e_wo_entrp">   -658.90907766 </i>
    <i name="e_0_energy">   -658.95788738 </i>
   </energy>
  </scstep>
  <scstep>
   <time name="diag">    1.35    1.37</time>
   <time name="diis">   19.81   20.00</time>
   <time name="orth">    0.34    0.34</time>
   <time name="total">   21.68   21.89</time>
   <energy>
    <i name="e_fr_energy">   -658.92436105 </i>
    <i name="e_wo_entrp">   -658.82956074 </i>
    <i name="e_0_energy">   -658.87696089 </i>
   </energy>
  </scstep>
  <scstep>
   <time name="diag">    1.37    1.38</time>
   <time name="diis">   20.71   20.95</time>
   <time name="orth">    0.34    0.35</time>
   <time name="total">   22.60   22.87</time>
   <energy>
    <i name="e_fr_energy">   -658.93453277 </i>
    <i name="e_wo_entrp">   -658.83674960 </i>
    <i name="e_0_energy">   -658.88564119 </i>
   </energy>
  </scstep>
  <scstep>
   <time name="diag">    1.41    1.42</time>
   <time name="diis">   20.20   20.37</time>
   <time name="orth">    0.34    0.34</time>
   <time name="total">   22.14   22.33</time>
   <energy>
    <i name="e_fr_energy">   -658.95361276 </i>
    <i name="e_wo_entrp">   -658.85715191 </i>
    <i name="e_0_energy">   -658.90538233 </i>
   </energy>
  </scstep>
  <scstep>
   <time name="diag">    1.38    1.39</time>
   <time name="diis">   20.38   20.58</time>
   <time name="orth">    0.33    0.33</time>
   <time name="total">   22.28   22.49</time>
   <energy>
    <i name="e_fr_energy">   -658.98326476 </i>
    <i name="e_wo_entrp">   -658.88659189 </i>
    <i name="e_0_energy">   -658.93492832 </i>
   </energy>
  </scstep>
  <scstep>
   <time name="diag">    1.40    1.42</time>
   <time name="diis">   20.00   20.18</time>
   <time name="orth">    0.38    0.39</time>
   <time name="total">   21.99   22.21</time>
   <energy>
    <i name="e_fr_energy">   -658.99075043 </i>
    <i name="e_wo_entrp">   -658.89574027 </i>
    <i name="e_0_energy">   -658.94324535 </i>
   </energy>
  </scstep>
  <scstep>
   <time name="diag">    1.36    1.37</time>
   <time name="diis">   20.58   20.80</time>
   <time name="orth">    0.35    0.35</time>
   <time name="total">   22.48   22.70</time>
   <energy>
    <i name="e_fr_energy">   -658.99815393 </i>
    <i name="e_wo_entrp">   -658.90271786 </i>
    <i name="e_0_energy">   -658.95043589 </i>
   </energy>
  </scstep>
  <scstep>
   <time name="diag">    1.33    1.34</time>
   <time name="diis">   20.83   21.13</time>
   <time name="orth">    0.41    0.42</time>
   <time name="total">   22.83   23.16</time>
   <energy>
    <i name="e_fr_energy">   -659.00407914 </i>
    <i name="e_wo_entrp">   -658.90829847 </i>
    <i name="e_0_energy">   -658.95618881 </i>
   </energy>
  </scstep>
  <scstep>
   <time name="diag">    1.62    1.63</time>
   <time name="diis">   21.09   21.23</time>
   <time name="orth">    0.35    0.35</time>
   <time name="total">   23.35   23.50</time>
   <energy>
    <i name="e_fr_energy">   -659.00972724 </i>
    <i name="e_wo_entrp">   -658.91383987 </i>
    <i name="e_0_energy">   -658.96178356 </i>
   </energy>
  </scstep>
  <scstep>
   <time name="diag">    1.34    1.34</time>
   <time name="diis">   21.33   21.46</time>
   <time name="orth">    0.34    0.34</time>
   <time name="total">   23.18   23.32</time>
   <energy>
    <i name="e_fr_energy">   -659.01422368 </i>
    <i name="e_wo_entrp">   -658.91839437 </i>
    <i name="e_0_energy">   -658.96630902 </i>
   </energy>
  </scstep>
  <scstep>
   <time name="diag">    1.33    1.33</time>
   <time name="diis">   20.93   21.03</time>
   <time name="orth">    0.33    0.33</time>
   <time name="total">   22.78   22.88</time>
   <energy>
    <i name="e_fr_energy">   -659.01731829 </i>
    <i name="e_wo_entrp">   -658.92142338 </i>
    <i name="e_0_energy">   -658.96937084 </i>
   </energy>
  </scstep>
  <scstep>
   <time name="diag">    1.42    1.43</time>
   <time name="diis">   20.75   20.92</time>
   <time name="orth">    0.33    0.33</time>
   <time name="total">   22.72   22.90</time>
   <energy>
    <i name="e_fr_energy">   -659.01955331 </i>
    <i name="e_wo_entrp">   -658.92379069 </i>
    <i name="e_0_energy">   -658.97167200 </i>
   </energy>
  </scstep>
  <scstep>
   <time name="diag">    1.35    1.35</time>
   <time name="diis">   20.68   20.83</time>
   <time name="orth">    0.34    0.34</time>
   <time name="total">   22.55   22.70</time>
   <energy>
    <i name="e_fr_energy">   -659.02103013 </i>
    <i name="e_wo_entrp">   -658.92519720 </i>
    <i name="e_0_energy">   -658.97311367 </i>
   </energy>
  </scstep>
  <scstep>
   <time name="diag">    1.35    1.36</time>
   <time name="diis">   20.22   20.46</time>
   <time name="orth">    0.34    0.34</time>
   <time name="total">   22.09   22.35</time>
   <energy>
    <i name="e_fr_energy">   -659.02236077 </i>
    <i name="e_wo_entrp">   -658.92652406 </i>
    <i name="e_0_energy">   -658.97444241 </i>
   </energy>
  </scstep>
  <scstep>
   <time name="diag">    1.42    1.44</time>
   <time name="diis">   20.24   20.52</time>
   <time name="orth">    0.34    0.35</time>
   <time name="total">   22.20   22.48</time>
   <energy>
    <i name="e_fr_energy">   -659.02329207 </i>
    <i name="e_wo_entrp">   -658.92748528 </i>
    <i name="e_0_energy">   -658.97538867 </i>
   </energy>
  </scstep>
  <scstep>
   <time name="diag">    1.39    1.40</time>
   <time name="diis">   19.62   19.78</time>
   <time name="orth">    0.36    0.36</time>
   <time name="total">   21.56   21.73</time>
   <energy>
    <i name="e_fr_energy">   -659.02403522 </i>
    <i name="e_wo_entrp">   -658.92822293 </i>
    <i name="e_0_energy">   -658.97612908 </i>
   </energy>
  </scstep>
  <scstep>
   <time name="diag">    1.33    1.33</time>
   <time name="diis">   19.55   19.65</time>
   <time name="orth">    0.33    0.33</time>
   <time name="total">   21.41   21.51</time>
   <energy>
    <i name="e_fr_energy">   -659.02458992 </i>
    <i name="e_wo_entrp">   -658.92878075 </i>
    <i name="e_0_energy">   -658.97668534 </i>
   </energy>
  </scstep>
  <scstep>
   <time name="diag">    1.40    1.41</time>
   <time name="diis">   19.93   20.12</time>
   <time name="orth">    0.33    0.33</time>
   <time name="total">   21.88   22.08</time>
   <energy>
    <i name="e_fr_energy">   -659.02497831 </i>
    <i name="e_wo_entrp">   -658.92918990 </i>
    <i name="e_0_energy">   -658.97708411 </i>
   </energy>
  </scstep>
  <scstep>
   <time name="diag">    1.34    1.34</time>
   <time name="diis">   19.44   19.67</time>
   <time name="orth">    0.34    0.34</time>
   <time name="total">   21.31   21.53</time>
   <energy>
    <i name="e_fr_energy">   -659.02531837 </i>
    <i name="e_wo_entrp">   -658.92949847 </i>
    <i name="e_0_energy">   -658.97740842 </i>
   </energy>
  </scstep>
  <scstep>
   <time name="diag">    1.35    1.36</time>
   <time name="diis">   19.11   19.19</time>
   <time name="orth">    0.34    0.34</time>
   <time name="total">   20.99   21.07</time>
   <energy>
    <i name="e_fr_energy">   -659.02553279 </i>
    <i name="e_wo_entrp">   -658.92972621 </i>
    <i name="e_0_energy">   -658.97762950 </i>
   </energy>
  </scstep>
  <scstep>
   <time name="diag">    1.37    1.38</time>
   <time name="diis">   19.15   19.31</time>
   <time name="orth">    0.34    0.35</time>
   <time name="total">   21.06   21.24</time>
   <energy>
    <i name="e_fr_energy">   -659.02573154 </i>
    <i name="e_wo_entrp">   -658.92992256 </i>
    <i name="e_0_energy">   -658.97782705 </i>
   </energy>
  </scstep>
  <scstep>
   <time name="diag">    1.36    1.37</time>
   <time name="diis">   18.71   18.80</time>
   <time name="orth">    0.33    0.33</time>
   <time name="total">   20.59   20.68</time>
   <energy>
    <i name="e_fr_energy">   -659.02586089 </i>
    <i name="e_wo_entrp">   -658.93005103 </i>
    <i name="e_0_energy">   -658.97795596 </i>
   </energy>
  </scstep>
  <scstep>
   <time name="diag">    1.43    1.44</time>
   <time name="diis">   18.70   18.92</time>
   <time name="orth">    0.34    0.34</time>
   <time name="total">   20.67   20.90</time>
   <energy>
    <i name="e_fr_energy">   -659.02597999 </i>
    <i name="e_wo_entrp">   -658.93015830 </i>
    <i name="e_0_energy">   -658.97806915 </i>
   </energy>
  </scstep>
  <scstep>
   <time name="diag">    1.42    1.43</time>
   <time name="diis">   18.65   18.83</time>
   <time name="orth">    0.35    0.38</time>
   <time name="total">   20.60   20.83</time>
   <energy>
    <i name="e_fr_energy">   -659.02606461 </i>
    <i name="e_wo_entrp">   -658.93024131 </i>
    <i name="e_0_energy">   -658.97815296 </i>
   </energy>
  </scstep>
  <scstep>
   <time name="diag">    1.43    1.44</time>
   <time name="diis">   18.33   18.48</time>
   <time name="orth">    0.33    0.33</time>
   <time name="total">   20.29   20.44</time>
   <energy>
    <i name="e_fr_energy">   -659.02613274 </i>
    <i name="e_wo_entrp">   -658.93030539 </i>
    <i name="e_0_energy">   -658.97821906 </i>
   </energy>
  </scstep>
  <scstep>
   <time name="diag">    1.42    1.43</time>
   <time name="diis">   17.83   17.96</time>
   <time name="orth">    0.33    0.33</time>
   <time name="total">   19.77   19.92</time>
   <energy>
    <i name="e_fr_energy">   -659.02617451 </i>
    <i name="e_wo_entrp">   -658.93035565 </i>
    <i name="e_0_energy">   -658.97826508 </i>
   </energy>
  </scstep>
  <scstep>
   <time name="diag">    1.39    1.40</time>
   <time name="diis">   17.73   18.02</time>
   <time name="orth">    0.33    0.33</time>
   <time name="total">   19.63   19.94</time>
   <energy>
    <i name="e_fr_energy">   -659.02622396 </i>
    <i name="e_wo_entrp">   -658.93040052 </i>
    <i name="e_0_energy">   -658.97831224 </i>
   </energy>
  </scstep>
  <scstep>
   <time name="diag">    1.34    1.35</time>
   <time name="diis">   17.29   17.39</time>
   <time name="orth">    0.33    0.33</time>
   <time name="total">   19.16   19.26</time>
   <energy>
    <i name="e_fr_energy">   -659.02625650 </i>
    <i name="e_wo_entrp">   -658.93043271 </i>
    <i name="e_0_energy">   -658.97834461 </i>
   </energy>
  </scstep>
  <scstep>
   <time name="diag">    1.36    1.39</time>
   <time name="diis">   16.57   16.69</time>
   <time name="orth">    0.40    0.41</time>
   <time name="total">   18.53   18.70</time>
   <energy>
    <i name="e_fr_energy">   -659.02628279 </i>
    <i name="e_wo_entrp">   -658.93045864 </i>
    <i name="e_0_energy">   -658.97837071 </i>
   </energy>
  </scstep>
  <scstep>
   <time name="diag">    1.42    1.42</time>
   <time name="diis">   15.42   15.51</time>
   <time name="orth">    0.33    0.33</time>
   <time name="total">   17.36   17.45</time>
   <energy>
    <i name="e_fr_energy">   -659.02630272 </i>
    <i name="e_wo_entrp">   -658.93047781 </i>
    <i name="e_0_energy">   -658.97839026 </i>
   </energy>
  </scstep>
  <scstep>
   <time name="diag">    1.35    1.36</time>
   <time name="diis">   14.48   14.66</time>
   <time name="orth">    0.34    0.34</time>
   <time name="total">   16.37   16.56</time>
   <energy>
    <i name="e_fr_energy">   -659.02631990 </i>
    <i name="e_wo_entrp">   -658.93049443 </i>
    <i name="e_0_energy">   -658.97840717 </i>
   </energy>
  </scstep>
  <scstep>
   <time name="diag">    1.40    1.41</time>
   <time name="diis">   13.85   13.91</time>
   <time name="orth">    0.33    0.33</time>
   <time name="total">   15.77   15.84</time>
   <energy>
    <i name="e_fr_energy">   -659.02633365 </i>
    <i name="e_wo_entrp">   -658.93050785 </i>
    <i name="e_0_energy">   -658.97842075 </i>
   </energy>
  </scstep>
  <scstep>
   <time name="diag">    1.45    1.45</time>
   <time name="diis">   13.33   13.37</time>
   <time name="orth">    0.34    0.34</time>
   <time name="total">   15.31   15.35</time>
   <energy>
    <i name="e_fr_energy">   -659.02634514 </i>
    <i name="e_wo_entrp">   -658.93051904 </i>
    <i name="e_0_energy">   -658.97843209 </i>
   </energy>
  </scstep>
  <scstep>
   <time name="diag">    1.45    1.46</time>
   <time name="diis">   12.52   12.65</time>
   <time name="orth">    0.33    0.33</time>
   <time name="total">   14.32   14.46</time>
   <energy>
    <i name="alphaZ">   3919.49510533 </i>
    <i name="ewald"> -37569.07838342 </i>
    <i name="hartreedc">  -7196.73724033 </i>
    <i name="XCdc">   1296.16712392 </i>
    <i name="pawpsdc">  28243.99736739 </i>
    <i name="pawaedc"> -27711.67280395 </i>
    <i name="eentropy">     -0.09582598 </i>
    <i name="bandstr">  -4462.44310777 </i>
    <i name="atom">  42821.34141094 </i>
    <i name="e_fr_energy">   -659.02635387 </i>
    <i name="e_wo_entrp">   -658.93052789 </i>
    <i name="e_0_energy">   -658.97844088 </i>
   </energy>
  </scstep>
  <structure>
   <crystal>
    <varray name="basis" >
     <v>       8.84355593       0.00580454       0.02444992 </v>
     <v>       0.01203431       8.81799532      -0.02684570 </v>
     <v>       0.05644972      -0.04192564       8.85632569 </v>
    </varray>
    <i name="volume">    690.61507720 </i>
    <varray name="rec_basis" >
     <v>       0.11307878      -0.00015652      -0.00072150 </v>
     <v>      -0.00007592       0.11340620       0.00053735 </v>
     <v>      -0.00031241       0.00034419       0.11291726 </v>
    </varray>
   </crystal>
   <varray name="positions" >
    <v>       0.00707229       0.00689083       0.99685133 </v>
    <v>       0.26574806       0.00659720       0.24144976 </v>
    <v>       0.24916438       0.49265201       0.25174948 </v>
    <v>       0.49915202       0.50134422       0.00061730 </v>
    <v>       0.49984973       0.24086203       0.74706301 </v>
    <v>       0.00217109       0.50118372       0.50255788 </v>
    <v>       0.49229603       0.75871043       0.75564036 </v>
    <v>       0.99549332       0.23730715       0.25615246 </v>
    <v>       0.75886976       0.75191591       0.00457258 </v>
    <v>       0.00216169       0.25516861       0.74907176 </v>
    <v>       0.75655329       0.24224004       0.48921362 </v>
    <v>       0.00082287       0.74932639       0.75384787 </v>
    <v>       0.24741633       0.50135918       0.75055871 </v>
    <v>       0.25435326       0.26765790       0.98253870 </v>
    <v>       0.51555657       0.25899178       0.23862152 </v>
    <v>       0.73757875       0.99730551       0.27466417 </v>
    <v>       0.72549989       0.24468507       0.01001102 </v>
    <v>       0.23095035       0.72929637       0.00124494 </v>
    <v>       0.23503124       0.24206046       0.51668679 </v>
    <v>       0.26009731       0.76154942       0.49496059 </v>
    <v>       0.24744736       0.24884479       0.24795827 </v>
    <v>       0.25606605       0.00328336       0.99551098 </v>
    <v>       0.99928383       0.25220665       0.00248800 </v>
    <v>       0.74677209       0.24447865       0.24021629 </v>
    <v>       0.75714041       0.00831017       0.01612805 </v>
    <v>       0.51230717       0.00342504       0.23524195 </v>
    <v>       0.99802047       0.49960259       0.24994300 </v>
    <v>       0.49621527       0.75460841       0.00287934 </v>
    <v>       0.98331763       0.00417116       0.74903362 </v>
    <v>       0.74965933       0.24788108       0.75185581 </v>
    <v>       0.75973618       0.99900262       0.51296922 </v>
    <v>       0.50098804       0.24832732       0.49136974 </v>
    <v>       0.49172608       0.00006350       0.73576995 </v>
    <v>       0.99881336       0.99959816       0.25391810 </v>
    <v>       0.49102368       0.24877406       0.00239787 </v>
    <v>       0.25300134       0.75049135       0.24595109 </v>
    <v>       0.24710192       0.49845002       0.99951297 </v>
    <v>       0.00345488       0.74980418       0.00310693 </v>
    <v>       0.75210928       0.75391436       0.25302893 </v>
    <v>       0.75319449       0.49275375       0.00136470 </v>
    <v>       0.50257381       0.49379890       0.25295155 </v>
    <v>       0.24766842       0.24823267       0.75079150 </v>
    <v>       0.26451205       0.00306919       0.49699014 </v>
    <v>       0.00397942       0.24856152       0.50192811 </v>
    <v>       0.24413561       0.75274831       0.75220171 </v>
    <v>       0.25419077       0.49756945       0.50118522 </v>
    <v>       0.00404110       0.75481658       0.50066343 </v>
    <v>       0.99815229       0.50214390       0.74997375 </v>
    <v>       0.74745713       0.74877601       0.75219778 </v>
    <v>       0.74693133       0.49846930       0.49835808 </v>
    <v>       0.49504833       0.74679883       0.50303017 </v>
    <v>       0.50023810       0.49932754       0.74589168 </v>
    <v>       0.52206930       0.01058839       0.98477588 </v>
    <v>       0.00243973       0.50303596       0.98930189 </v>
    <v>       0.49724020       0.74459016       0.26089227 </v>
    <v>       0.23574610       0.99807687       0.73830607 </v>
    <v>       0.50860097       0.98627190       0.47623611 </v>
    <v>       0.73178947       0.98519938       0.77730379 </v>
    <v>       0.00643419       0.76158621       0.25206394 </v>
    <v>       0.74832348       0.49927186       0.24812398 </v>
    <v>       0.01500412       0.00196933       0.50653822 </v>
    <v>       0.49676924       0.50001609       0.50023817 </v>
    <v>       0.74963881       0.50477713       0.75450042 </v>
    <v>       0.74379932       0.75520879       0.49683761 </v>
   </varray>
  </structure>
  <varray name="forces" >
   <v>      -0.00120470      -0.00110184      -0.00073662 </v>
   <v>      -0.00108165      -0.00071702       0.00051467 </v>
   <v>       0.00000553       0.00121764      -0.00453261 </v>
   <v>      -0.00132469      -0.00312973      -0.00185388 </v>
   <v>      -0.00365123      -0.00094720       0.00189050 </v>
   <v>      -0.00079329      -0.00240362      -0.00095789 </v>
   <v>      -0.00381924       0.00087795      -0.00020785 </v>
   <v>       0.00125294      -0.02749074       0.02355134 </v>
   <v>       0.00941418      -0.00311317      -0.01001215 </v>
   <v>       0.01818330       0.02025790      -0.01621290 </v>
   <v>       0.01720370       0.00305447      -0.01023637 </v>
   <v>       0.01151350      -0.02227776       0.00525165 </v>
   <v>      -0.00559215      -0.00102300       0.00282556 </v>
   <v>       0.00024816       0.01144802       0.00202643 </v>
   <v>      -0.00443335       0.00391263      -0.00643597 </v>
   <v>      -0.00023526      -0.00438185      -0.00037465 </v>
   <v>      -0.00454010       0.00282663       0.01461259 </v>
   <v>      -0.00211102      -0.00524197      -0.00216858 </v>
   <v>      -0.00583043      -0.00254343       0.00111833 </v>
   <v>       0.00520086       0.00285894       0.00135278 </v>
   <v>       0.00830173      -0.00241820      -0.00073937 </v>
   <v>       0.00065861      -0.00268235      -0.00342224 </v>
   <v>      -0.00320264       0.00165971      -0.00174622 </v>
   <v>      -0.00919065       0.00240210      -0.00172967 </v>
   <v>       0.00114982       0.01093216      -0.00154846 </v>
   <v>       0.00805582      -0.00079048       0.00068548 </v>
   <v>       0.00056250       0.00315583      -0.00109714 </v>
   <v>      -0.00570575       0.00659304      -0.00221631 </v>
   <v>      -0.00505914      -0.00090684       0.00158191 </v>
   <v>       0.00004025      -0.00364164      -0.00059487 </v>
   <v>      -0.00336330      -0.00242154      -0.00152514 </v>
   <v>      -0.00386271      -0.00161337      -0.00156092 </v>
   <v>       0.00247409       0.00127000       0.00165380 </v>
   <v>      -0.00108264       0.00128844      -0.00074358 </v>
   <v>      -0.00595182      -0.00760505       0.00241784 </v>
   <v>       0.00165186       0.00046293       0.00005707 </v>
   <v>      -0.00224672       0.00311751      -0.00141410 </v>
   <v>       0.00380237      -0.00023920       0.00132340 </v>
   <v>      -0.00332363       0.00370933       0.00355408 </v>
   <v>       0.00140836      -0.00586866      -0.00030200 </v>
   <v>       0.00111066      -0.00326989       0.00131902 </v>
   <v>       0.00060640      -0.00205552       0.00360807 </v>
   <v>      -0.00078874       0.00182282       0.00259876 </v>
   <v>       0.00214746       0.00025446       0.00101515 </v>
   <v>      -0.00081362       0.00577657       0.00038133 </v>
   <v>       0.00065861       0.00011770      -0.00204896 </v>
   <v>      -0.00590723       0.00016257      -0.00011442 </v>
   <v>      -0.00044725      -0.00043261      -0.00014830 </v>
   <v>       0.00070553      -0.00000285      -0.00161778 </v>
   <v>      -0.00385523       0.00537244       0.00147935 </v>
   <v>      -0.00337575      -0.00373871       0.00049812 </v>
   <v>      -0.00027568       0.00057244      -0.00120993 </v>
   <v>      -0.00075602       0.00062962       0.00065246 </v>
   <v>      -0.00039051       0.00374371      -0.00229435 </v>
   <v>       0.00196568       0.00275273       0.00380540 </v>
   <v>       0.00215871      -0.00041103      -0.00166384 </v>
   <v>       0.00247137      -0.00379161      -0.00117001 </v>
   <v>      -0.00175197      -0.00055459       0.00147239 </v>
   <v>      -0.00211480       0.00167954      -0.00056803 </v>
   <v>      -0.00266245      -0.00009721       0.00268818 </v>
   <v>       0.00114500       0.00302619      -0.00202074 </v>
   <v>      -0.00206437       0.00484131       0.00217517 </v>
   <v>      -0.00096763       0.00361675      -0.00105601 </v>
   <v>      -0.00031962       0.00149858       0.00017104 </v>
  </varray>
  <varray name="stress" >
   <v>      -3.94373519       0.11182517       0.47862911 </v>
   <v>       0.11182706      -7.72511875      -0.54191968 </v>
   <v>       0.47862848      -0.54192197      -3.52311258 </v>
  </varray>
  <energy>
   <i name="e_fr_energy">   -659.02635387 </i>
   <i name="e_wo_entrp">   -658.93052789 </i>
   <i name="e_0_energy">   -658.97844088 </i>
  </energy>
  <time name="totalsc"> 1004.22 1014.56</time>
 </calculation>
 <calculation>
  <scstep>
   <time name="dav">   23.38   23.72</time>
   <time name="total">   23.56   23.91</time>
   <energy>
    <i name="alphaZ">   3938.90872641 </i>
    <i name="ewald"> -37630.37783446 </i>
    <i name="hartreedc">  -7209.11801416 </i>
    <i name="XCdc">   1299.08077223 </i>
    <i name="pawpsdc">  28244.01430952 </i>
    <i name="pawaedc"> -27711.68488453 </i>
    <i name="eentropy">     -0.09150435 </i>
    <i name="bandstr">  -4411.18257194 </i>
    <i name="atom">  42821.34141094 </i>
    <i name="e_fr_energy">   -659.10959033 </i>
    <i name="e_wo_entrp">   -659.01808598 </i>
    <i name="e_0_energy">   -659.06383815 </i>
   </energy>
  </scstep>
  <scstep>
   <time name="diag">    1.34    1.37</time>
   <time name="diis">   13.52   13.73</time>
   <time name="orth">    0.34    0.34</time>
   <time name="total">   15.39   15.62</time>
   <energy>
    <i name="e_fr_energy">   -659.59374161 </i>
    <i name="e_wo_entrp">   -659.48156382 </i>
    <i name="e_0_energy">   -659.53765271 </i>
   </energy>
  </scstep>
  <scstep>
   <time name="diag">    1.34    1.36</time>
   <time name="diis">   12.85   13.10</time>
   <time name="orth">    0.37    0.38</time>
   <time name="total">   14.74   15.02</time>
   <energy>
    <i name="e_fr_energy">   -659.05402244 </i>
    <i name="e_wo_entrp">   -658.96091205 </i>
    <i name="e_0_energy">   -659.00746725 </i>
   </energy>
  </scstep>
  <scstep>
   <time name="diag">    1.32    1.33</time>
   <time name="diis">   15.95   16.32</time>
   <time name="orth">    0.33    0.33</time>
   <time name="total">   17.78   18.17</time>
   <energy>
    <i name="e_fr_energy">   -659.03185653 </i>
    <i name="e_wo_entrp">   -658.93699336 </i>
    <i name="e_0_energy">   -658.98442495 </i>
   </energy>
  </scstep>
  <scstep>
   <time name="diag">    1.31    1.33</time>
   <time name="diis">   15.85   16.23</time>
   <time name="orth">    0.33    0.33</time>
   <time name="total">   17.67   18.07</time>
   <energy>
    <i name="e_fr_energy">   -659.02080107 </i>
    <i name="e_wo_entrp">   -658.92604433 </i>
    <i name="e_0_energy">   -658.97342270 </i>
   </energy>
  </scstep>
  <scstep>
   <time name="diag">    1.33    1.35</time>
   <time name="diis">   16.74   16.97</time>
   <time name="orth">    0.33    0.33</time>
   <time name="total">   18.58   18.83</time>
   <energy>
    <i name="e_fr_energy">   -659.02178892 </i>
    <i name="e_wo_entrp">   -658.92697424 </i>
    <i name="e_0_energy">   -658.97438158 </i>
   </energy>
  </scstep>
  <scstep>
   <time name="diag">    1.42    1.47</time>
   <time name="diis">   16.68   16.94</time>
   <time name="orth">    0.34    0.35</time>
   <time name="total">   18.62   18.95</time>
   <energy>
    <i name="e_fr_energy">   -659.01932435 </i>
    <i name="e_wo_entrp">   -658.92458618 </i>
    <i name="e_0_energy">   -658.97195527 </i>
   </energy>
  </scstep>
  <scstep>
   <time name="diag">    1.32    1.33</time>
   <time name="diis">   19.21   19.51</time>
   <time name="orth">    0.35    0.35</time>
   <time name="total">   21.07   21.39</time>
   <energy>
    <i name="e_fr_energy">   -659.01919271 </i>
    <i name="e_wo_entrp">   -658.92407652 </i>
    <i name="e_0_energy">   -658.97163461 </i>
   </energy>
  </scstep>
  <scstep>
   <time name="diag">    1.40    1.41</time>
   <time name="diis">   18.42   18.71</time>
   <time name="orth">    0.33    0.35</time>
   <time name="total">   20.33   20.66</time>
   <energy>
    <i name="e_fr_energy">   -659.01907559 </i>
    <i name="e_wo_entrp">   -658.92416699 </i>
    <i name="e_0_energy">   -658.97162129 </i>
   </energy>
  </scstep>
  <scstep>
   <time name="diag">    1.44    1.46</time>
   <time name="diis">   18.26   18.48</time>
   <time name="orth">    0.33    0.33</time>
   <time name="total">   20.21   20.46</time>
   <energy>
    <i name="e_fr_energy">   -659.01910122 </i>
    <i name="e_wo_entrp">   -658.92417624 </i>
    <i name="e_0_energy">   -658.97163873 </i>
   </energy>
  </scstep>
  <scstep>
   <time name="diag">    1.43    1.45</time>
   <time name="diis">   16.83   17.13</time>
   <time name="orth">    0.34    0.34</time>
   <time name="total">   18.77   19.10</time>
   <energy>
    <i name="e_fr_energy">   -659.01912423 </i>
    <i name="e_wo_entrp">   -658.92414219 </i>
    <i name="e_0_energy">   -658.97163321 </i>
   </energy>
  </scstep>
  <scstep>
   <time name="diag">    1.31    1.33</time>
   <time name="diis">   16.02   16.23</time>
   <time name="orth">    0.34    0.34</time>
   <time name="total">   17.84   18.08</time>
   <energy>
    <i name="e_fr_energy">   -659.01914800 </i>
    <i name="e_wo_entrp">   -658.92418992 </i>
    <i name="e_0_energy">   -658.97166896 </i>
   </energy>
  </scstep>
  <scstep>
   <time name="diag">    1.32    1.33</time>
   <time name="diis">   14.49   14.69</time>
   <time name="orth">    0.33    0.33</time>
   <time name="total">   16.32   16.53</time>
   <energy>
    <i name="e_fr_energy">   -659.01916816 </i>
    <i name="e_wo_entrp">   -658.92419513 </i>
    <i name="e_0_energy">   -658.97168164 </i>
   </energy>
  </scstep>
  <scstep>
   <time name="diag">    1.35    1.36</time>
   <time name="diis">   11.86   12.04</time>
   <time name="orth">    0.39    0.40</time>
   <time name="total">   13.63   13.83</time>
   <energy>
    <i name="alphaZ">   3938.90872641 </i>
    <i name="ewald"> -37630.37783446 </i>
    <i name="hartreedc">  -7179.39067138 </i>
    <i name="XCdc">   1297.47168269 </i>
    <i name="pawpsdc">  28298.76658660 </i>
    <i name="pawaedc"> -27766.06503331 </i>
    <i name="eentropy">     -0.09497857 </i>
    <i name="bandstr">  -4439.57906145 </i>
    <i name="atom">  42821.34141094 </i>
    <i name="e_fr_energy">   -659.01917252 </i>
    <i name="e_wo_entrp">   -658.92419395 </i>
    <i name="e_0_energy">   -658.97168324 </i>
   </energy>
  </scstep>
  <structure>
   <crystal>
    <varray name="basis" >
     <v>       8.83222782       0.00610699       0.02579623 </v>
     <v>       0.01233511       8.79586690      -0.02836577 </v>
     <v>       0.05775316      -0.04337779       8.84620375 </v>
    </varray>
    <i name="volume">    687.21125640 </i>
    <varray name="rec_basis" >
     <v>       0.11322399      -0.00016117      -0.00073998 </v>
     <v>      -0.00008024       0.11369167       0.00055802 </v>
     <v>      -0.00033043       0.00036503       0.11304679 </v>
    </varray>
   </crystal>
   <varray name="positions" >
    <v>       0.00706575       0.00688478       0.99684732 </v>
    <v>       0.26574215       0.00659330       0.24145257 </v>
    <v>       0.24916456       0.49265856       0.25172481 </v>
    <v>       0.49914488       0.50132706       0.00060716 </v>
    <v>       0.49982976       0.24085691       0.74707335 </v>
    <v>       0.00216681       0.50117055       0.50255263 </v>
    <v>       0.49227520       0.75871525       0.75563930 </v>
    <v>       0.99549954       0.23715735       0.25628028 </v>
    <v>       0.75892149       0.75189859       0.00451785 </v>
    <v>       0.00226129       0.25527895       0.74898351 </v>
    <v>       0.75664747       0.24225642       0.48915765 </v>
    <v>       0.00088566       0.74920460       0.75387593 </v>
    <v>       0.24738573       0.50135368       0.75057417 </v>
    <v>       0.25435446       0.26772058       0.98254993 </v>
    <v>       0.51553258       0.25901304       0.23858659 </v>
    <v>       0.73757752       0.99728153       0.27466206 </v>
    <v>       0.72547459       0.24470093       0.01009073 </v>
    <v>       0.23093895       0.72926764       0.00123307 </v>
    <v>       0.23499942       0.24204660       0.51669292 </v>
    <v>       0.26012561       0.76156508       0.49496793 </v>
    <v>       0.24749270       0.24883151       0.24795407 </v>
    <v>       0.25606979       0.00326859       0.99549228 </v>
    <v>       0.99926641       0.25221569       0.00247856 </v>
    <v>       0.74672199       0.24449178       0.24020704 </v>
    <v>       0.75714666       0.00836993       0.01611978 </v>
    <v>       0.51235110       0.00342070       0.23524555 </v>
    <v>       0.99802355       0.49961982       0.24993706 </v>
    <v>       0.49618417       0.75464445       0.00286746 </v>
    <v>       0.98328998       0.00416625       0.74904229 </v>
    <v>       0.74965960       0.24786114       0.75185251 </v>
    <v>       0.75971790       0.99898934       0.51296093 </v>
    <v>       0.50096703       0.24831847       0.49136127 </v>
    <v>       0.49173951       0.00007048       0.73577894 </v>
    <v>       0.99880747       0.99960519       0.25391409 </v>
    <v>       0.49099118       0.24873254       0.00241100 </v>
    <v>       0.25301034       0.75049387       0.24595138 </v>
    <v>       0.24708969       0.49846705       0.99950535 </v>
    <v>       0.00347558       0.74980289       0.00311408 </v>
    <v>       0.75209099       0.75393476       0.25304841 </v>
    <v>       0.75320222       0.49272163       0.00136293 </v>
    <v>       0.50257985       0.49378104       0.25295867 </v>
    <v>       0.24767161       0.24822152       0.75081111 </v>
    <v>       0.26450765       0.00307924       0.49700434 </v>
    <v>       0.00399110       0.24856293       0.50193361 </v>
    <v>       0.24413112       0.75277993       0.75220389 </v>
    <v>       0.25419443       0.49757004       0.50117405 </v>
    <v>       0.00400888       0.75481748       0.50066290 </v>
    <v>       0.99814986       0.50214153       0.74997295 </v>
    <v>       0.74746103       0.74877595       0.75218895 </v>
    <v>       0.74691021       0.49849874       0.49836628 </v>
    <v>       0.49502992       0.74677840       0.50303287 </v>
    <v>       0.50023664       0.49933064       0.74588510 </v>
    <v>       0.52206515       0.01059185       0.98477946 </v>
    <v>       0.00243765       0.50305638       0.98928946 </v>
    <v>       0.49725077       0.74460532       0.26091302 </v>
    <v>       0.23575794       0.99807457       0.73829696 </v>
    <v>       0.50861452       0.98625112       0.47622964 </v>
    <v>       0.73177987       0.98519639       0.77731183 </v>
    <v>       0.00642266       0.76159539       0.25206091 </v>
    <v>       0.74830886       0.49927141       0.24813867 </v>
    <v>       0.01501041       0.00198583       0.50652725 </v>
    <v>       0.49675787       0.50004264       0.50025013 </v>
    <v>       0.74963354       0.50479689       0.75449474 </v>
    <v>       0.74379756       0.75521700       0.49683857 </v>
   </varray>
  </structure>
  <varray name="forces" >
   <v>       0.00691746      -0.00679046      -0.00194189 </v>
   <v>      -0.00052705      -0.01455884      -0.00204553 </v>
   <v>       0.00087277       0.01131042       0.00283878 </v>
   <v>       0.00267429       0.01217483      -0.00064523 </v>
   <v>       0.00328438       0.02561129      -0.00537229 </v>
   <v>       0.00248109       0.00686906      -0.01136351 </v>
   <v>      -0.00166981      -0.02530299       0.00347141 </v>
   <v>       0.00538781       0.07073893      -0.01966217 </v>
   <v>      -0.01998276       0.00307668       0.00518115 </v>
   <v>      -0.02464614      -0.02326750       0.01871304 </v>
   <v>      -0.02391356       0.00879428       0.01495500 </v>
   <v>      -0.01446338       0.02637392       0.00151873 </v>
   <v>       0.01099123      -0.00148846      -0.00350732 </v>
   <v>      -0.01541517      -0.03006149       0.02126516 </v>
   <v>      -0.02620874      -0.01754848       0.00108716 </v>
   <v>       0.02342860       0.00630624      -0.01276885 </v>
   <v>       0.01951728       0.01812632      -0.00538245 </v>
   <v>       0.02458056       0.04377721      -0.00099105 </v>
   <v>       0.02744473       0.01910757      -0.02218837 </v>
   <v>      -0.01043079      -0.02187516       0.00264422 </v>
   <v>       0.01582259      -0.00017584       0.00126846 </v>
   <v>       0.01715969      -0.00912461      -0.01014167 </v>
   <v>      -0.00831798       0.01640122       0.00217389 </v>
   <v>       0.00251591      -0.01691361      -0.00338630 </v>
   <v>       0.01286870       0.00481859       0.02100527 </v>
   <v>       0.00533852       0.00795542      -0.01166802 </v>
   <v>       0.00141005      -0.00201962      -0.01201882 </v>
   <v>      -0.01585099       0.01463612       0.01130344 </v>
   <v>      -0.00818662      -0.00240870       0.00142129 </v>
   <v>       0.00826975      -0.01504252       0.00010022 </v>
   <v>       0.00216502       0.00879504       0.01533412 </v>
   <v>      -0.01349884      -0.01913181      -0.00934224 </v>
   <v>      -0.01155651      -0.00247503      -0.01549681 </v>
   <v>      -0.00506526      -0.00559609      -0.00381279 </v>
   <v>      -0.01659733       0.00815056       0.00137413 </v>
   <v>       0.00085726      -0.00266866      -0.00216778 </v>
   <v>       0.00686826       0.00126358       0.00508478 </v>
   <v>       0.00208317       0.00677706       0.00209209 </v>
   <v>       0.00054876       0.01478237      -0.00907543 </v>
   <v>      -0.00057529      -0.01536019       0.00077593 </v>
   <v>      -0.00906773      -0.00627390      -0.00313538 </v>
   <v>       0.01045940      -0.00182502       0.00326780 </v>
   <v>       0.00739858       0.00257027      -0.01131782 </v>
   <v>       0.00478794       0.01054249       0.00455260 </v>
   <v>       0.00698025      -0.00303612      -0.00110047 </v>
   <v>      -0.00911282       0.00290993      -0.00267252 </v>
   <v>       0.00481290      -0.00974512       0.00419986 </v>
   <v>       0.00106787       0.00037967      -0.01247412 </v>
   <v>       0.00182266      -0.00155200      -0.00493843 </v>
   <v>       0.00615950      -0.00414980       0.00365722 </v>
   <v>      -0.00696413      -0.00310719       0.01588781 </v>
   <v>      -0.00424233       0.00079703       0.00316816 </v>
   <v>      -0.03316779      -0.03747843       0.01487747 </v>
   <v>      -0.00392853      -0.02202108       0.02150226 </v>
   <v>       0.00834359       0.00650482      -0.01326453 </v>
   <v>       0.00520425       0.00678952       0.01550537 </v>
   <v>       0.00218987       0.04362773       0.01069524 </v>
   <v>       0.02323792       0.04769876      -0.02161023 </v>
   <v>      -0.00535808      -0.04904484      -0.00419297 </v>
   <v>       0.00951141      -0.00516224      -0.00046443 </v>
   <v>      -0.00921921      -0.01403279       0.00031033 </v>
   <v>      -0.00044335      -0.01940149       0.00225313 </v>
   <v>      -0.00460595      -0.03168882      -0.00716578 </v>
   <v>       0.00755213      -0.01733801       0.01182969 </v>
  </varray>
  <varray name="stress" >
   <v>      10.24221962      -0.05542712      -0.00007019 </v>
   <v>      -0.05542352      13.88349725       0.02092834 </v>
   <v>      -0.00007007       0.02092793       9.78776250 </v>
  </varray>
  <energy>
   <i name="e_fr_energy">   -659.01917252 </i>
   <i name="e_wo_entrp">   -658.92419395 </i>
   <i name="e_0_energy">   -658.97168324 </i>
  </energy>
  <time name="totalsc">  288.50  293.08</time>
 </calculation>
 <calculation>
  <scstep>
   <time name="dav">   23.31   23.60</time>
   <time name="total">   23.50   23.80</time>
   <energy>
    <i name="alphaZ">   3925.46106787 </i>
    <i name="ewald"> -37587.94282495 </i>
    <i name="hartreedc">  -7170.86852960 </i>
    <i name="XCdc">   1295.45788946 </i>
    <i name="pawpsdc">  28299.05961389 </i>
    <i name="pawaedc"> -27766.33886582 </i>
    <i name="eentropy">     -0.09888163 </i>
    <i name="bandstr">  -4475.14592434 </i>
    <i name="atom">  42821.34141094 </i>
    <i name="e_fr_energy">   -659.07504420 </i>
    <i name="e_wo_entrp">   -658.97616257 </i>
    <i name="e_0_energy">   -659.02560339 </i>
   </energy>
  </scstep>
  <scstep>
   <time name="diag">    1.61    1.66</time>
   <time name="diis">   13.59   13.85</time>
   <time name="orth">    0.35    0.36</time>
   <time name="total">   15.74   16.05</time>
   <energy>
    <i name="e_fr_energy">   -659.32932887 </i>
    <i name="e_wo_entrp">   -659.23895543 </i>
    <i name="e_0_energy">   -659.28414215 </i>
   </energy>
  </scstep>
  <scstep>
   <time name="diag">    1.34    1.35</time>
   <time name="diis">   13.03   13.24</time>
   <time name="orth">    0.33    0.33</time>
   <time name="total">   14.88   15.11</time>
   <energy>
    <i name="e_fr_energy">   -659.04081797 </i>
    <i name="e_wo_entrp">   -658.94433340 </i>
    <i name="e_0_energy">   -658.99257569 </i>
   </energy>
  </scstep>
  <scstep>
   <time name="diag">    1.35    1.36</time>
   <time name="diis">   16.30   16.54</time>
   <time name="orth">    0.36    0.36</time>
   <time name="total">   18.19   18.45</time>
   <energy>
    <i name="e_fr_energy">   -659.03603086 </i>
    <i name="e_wo_entrp">   -658.94035686 </i>
    <i name="e_0_energy">   -658.98819386 </i>
   </energy>
  </scstep>
  <scstep>
   <time name="diag">    1.34    1.36</time>
   <time name="diis">   16.46   16.74</time>
   <time name="orth">    0.33    0.33</time>
   <time name="total">   18.33   18.63</time>
   <energy>
    <i name="e_fr_energy">   -659.02940192 </i>
    <i name="e_wo_entrp">   -658.93362005 </i>
    <i name="e_0_energy">   -658.98151098 </i>
   </energy>
  </scstep>
  <scstep>
   <time name="diag">    1.40    1.42</time>
   <time name="diis">   17.02   17.24</time>
   <time name="orth">    0.35    0.36</time>
   <time name="total">   18.95   19.20</time>
   <energy>
    <i name="e_fr_energy">   -659.02989966 </i>
    <i name="e_wo_entrp">   -658.93422285 </i>
    <i name="e_0_energy">   -658.98206125 </i>
   </energy>
  </scstep>
  <scstep>
   <time name="diag">    1.32    1.34</time>
   <time name="diis">   16.17   16.44</time>
   <time name="orth">    0.37    0.37</time>
   <time name="total">   18.05   18.34</time>
   <energy>
    <i name="e_fr_energy">   -659.02837204 </i>
    <i name="e_wo_entrp">   -658.93269357 </i>
    <i name="e_0_energy">   -658.98053280 </i>
   </energy>
  </scstep>
  <scstep>
   <time name="diag">    1.34    1.35</time>
   <time name="diis">   19.00   19.29</time>
   <time name="orth">    0.33    0.33</time>
   <time name="total">   20.85   21.15</time>
   <energy>
    <i name="e_fr_energy">   -659.02831234 </i>
    <i name="e_wo_entrp">   -658.93288434 </i>
    <i name="e_0_energy">   -658.98059834 </i>
   </energy>
  </scstep>
  <scstep>
   <time name="diag">    1.32    1.33</time>
   <time name="diis">   16.90   17.18</time>
   <time name="orth">    0.38    0.38</time>
   <time name="total">   18.78   19.08</time>
   <energy>
    <i name="e_fr_energy">   -659.02823099 </i>
    <i name="e_wo_entrp">   -658.93265933 </i>
    <i name="e_0_energy">   -658.98044516 </i>
   </energy>
  </scstep>
  <scstep>
   <time name="diag">    1.39    1.41</time>
   <time name="diis">   16.07   16.30</time>
   <time name="orth">    0.33    0.34</time>
   <time name="total">   17.98   18.23</time>
   <energy>
    <i name="e_fr_energy">   -659.02820123 </i>
    <i name="e_wo_entrp">   -658.93263544 </i>
    <i name="e_0_energy">   -658.98041834 </i>
   </energy>
  </scstep>
  <scstep>
   <time name="diag">    1.33    1.35</time>
   <time name="diis">   13.19   13.35</time>
   <time name="orth">    0.34    0.34</time>
   <time name="total">   14.88   15.07</time>
   <energy>
    <i name="alphaZ">   3925.46106787 </i>
    <i name="ewald"> -37587.94282495 </i>
    <i name="hartreedc">  -7192.08248972 </i>
    <i name="XCdc">   1296.59544269 </i>
    <i name="pawpsdc">  28265.71218580 </i>
    <i name="pawaedc"> -27732.68331453 </i>
    <i name="eentropy">     -0.09550531 </i>
    <i name="bandstr">  -4455.33417341 </i>
[...]
      </set>
     </set>
    </set>
   </array>
  </eigenvalues>
  <separator name="orbital magnetization" >
   <v name="MAGDIPOLOUT">      0.00000000      0.00000000      0.00000000</v>
  </separator>
  <dos>
   <i name="efermi">      8.86067401 </i>
   <total>
    <array>
     <dimension dim="1">gridpoints</dimension>
     <dimension dim="2">spin</dimension>
     <field>energy</field>
     <field>total</field>
     <field>integrated</field>
     <set>
      <set comment="spin 1">
       <r>   -59.5929     0.0000     0.0000 </r>
       <r>   -59.3420     0.0000     0.0000 </r>
       <r>   -59.0911     0.0000     0.0000 </r>
       <r>   -58.8403     0.0000     0.0000 </r>
       <r>   -58.5894     0.0000     0.0000 </r>
       <r>   -58.3385     0.0000     0.0000 </r>
       <r>   -58.0876     0.0000     0.0000 </r>
       <r>   -57.8367     0.0000     0.0000 </r>
       <r>   -57.5858     0.0000     0.0000 </r>
       <r>   -57.3349     0.0000     0.0000 </r>
       <r>   -57.0840     0.0000     0.0000 </r>
       <r>   -56.8331     0.0000     0.0000 </r>
       <r>   -56.5823     0.0000     0.0000 </r>
       <r>   -56.3314     0.1120     0.0281 </r>
       <r>   -56.0805    20.8256     5.2530 </r>
       <r>   -55.8296    33.9771    13.7775 </r>
       <r>   -55.5787     0.8869    14.0000 </r>
       <r>   -55.3278     0.0000    14.0000 </r>
       <r>   -55.0769     0.0000    14.0000 </r>
       <r>   -54.8260     0.0000    14.0000 </r>
       <r>   -54.5751     0.0000    14.0000 </r>
       <r>   -54.3243     0.0000    14.0000 </r>
       <r>   -54.0734     0.0000    14.0000 </r>
       <r>   -53.8225     0.0000    14.0000 </r>
       <r>   -53.5716     0.0000    14.0000 </r>
       <r>   -53.3207     0.0000    14.0000 </r>
       <r>   -53.0698     0.0000    14.0000 </r>
       <r>   -52.8189     0.0000    14.0000 </r>
       <r>   -52.5680     0.0000    14.0000 </r>
       <r>   -52.3172     0.0000    14.0000 </r>
       <r>   -52.0663     0.0000    14.0000 </r>
       <r>   -51.8154     0.0000    14.0000 </r>
       <r>   -51.5645     0.0000    14.0000 </r>
       <r>   -51.3136     0.0000    14.0000 </r>
       <r>   -51.0627     0.0000    14.0000 </r>
       <r>   -50.8118     0.0000    14.0000 </r>
       <r>   -50.5609     0.0000    14.0000 </r>
       <r>   -50.3100     0.0000    14.0000 </r>
       <r>   -50.0592     0.0000    14.0000 </r>
       <r>   -49.8083     0.0000    14.0000 </r>
       <r>   -49.5574     0.0000    14.0000 </r>
       <r>   -49.3065     0.0000    14.0000 </r>
       <r>   -49.0556     0.0000    14.0000 </r>
       <r>   -48.8047     0.0000    14.0000 </r>
       <r>   -48.5538     0.0000    14.0000 </r>
       <r>   -48.3029     0.0000    14.0000 </r>
       <r>   -48.0520     0.0000    14.0000 </r>
       <r>   -47.8012     0.0000    14.0000 </r>
       <r>   -47.5503     0.0000    14.0000 </r>
       <r>   -47.2994     0.0367    14.0092 </r>
       <r>   -47.0485    11.6330    16.9278 </r>
       <r>   -46.7976    22.1229    22.4782 </r>
       <r>   -46.5467    11.9267    25.4705 </r>
       <r>   -46.2958     2.1105    26.0000 </r>
       <r>   -46.0449     0.0001    26.0000 </r>
       <r>   -45.7940     0.0000    26.0000 </r>
       <r>   -45.5432     0.0000    26.0000 </r>
       <r>   -45.2923     0.0000    26.0000 </r>
       <r>   -45.0414     0.0000    26.0000 </r>
       <r>   -44.7905     0.0000    26.0000 </r>
       <r>   -44.5396     0.0000    26.0000 </r>
       <r>   -44.2887     0.0000    26.0000 </r>
       <r>   -44.0378     0.0000    26.0000 </r>
       <r>   -43.7869     0.0000    26.0000 </r>
       <r>   -43.5361     0.0000    26.0000 </r>
       <r>   -43.2852     0.0000    26.0000 </r>
       <r>   -43.0343     0.0000    26.0000 </r>
       <r>   -42.7834     0.0000    26.0000 </r>
       <r>   -42.5325     0.0000    26.0000 </r>
       <r>   -42.2816     0.0000    26.0000 </r>
       <r>   -42.0307     0.0000    26.0000 </r>
       <r>   -41.7798     0.0000    26.0000 </r>
       <r>   -41.5289     0.0000    26.0000 </r>
       <r>   -41.2781     0.0000    26.0000 </r>
       <r>   -41.0272     0.0000    26.0000 </r>
       <r>   -40.7763     0.0000    26.0000 </r>
       <r>   -40.5254     0.0000    26.0000 </r>
       <r>   -40.2745     0.0000    26.0000 </r>
       <r>   -40.0236     0.0000    26.0000 </r>
       <r>   -39.7727     0.0000    26.0000 </r>
       <r>   -39.5218     0.0000    26.0000 </r>
       <r>   -39.2709     0.0000    26.0000 </r>
       <r>   -39.0201     0.0000    26.0000 </r>
       <r>   -38.7692     0.0000    26.0000 </r>
       <r>   -38.5183     0.0000    26.0000 </r>
       <r>   -38.2674     0.0000    26.0000 </r>
       <r>   -38.0165     0.0000    26.0000 </r>
       <r>   -37.7656     0.0000    26.0000 </r>
       <r>   -37.5147     0.0000    26.0000 </r>
       <r>   -37.2638     0.0000    26.0000 </r>
       <r>   -37.0129     0.0000    26.0000 </r>
       <r>   -36.7621     0.0000    26.0000 </r>
       <r>   -36.5112     0.0000    26.0000 </r>
       <r>   -36.2603     0.0000    26.0000 </r>
       <r>   -36.0094     0.0000    26.0000 </r>
       <r>   -35.7585     0.0000    26.0000 </r>
       <r>   -35.5076     0.0000    26.0000 </r>
       <r>   -35.2567     0.0000    26.0000 </r>
       <r>   -35.0058     0.0000    26.0000 </r>
       <r>   -34.7550     0.0000    26.0000 </r>
       <r>   -34.5041     0.0000    26.0000 </r>
       <r>   -34.2532     0.0000    26.0000 </r>
       <r>   -34.0023     0.0000    26.0000 </r>
       <r>   -33.7514     0.0000    26.0000 </r>
       <r>   -33.5005     0.0000    26.0000 </r>
       <r>   -33.2496     0.0000    26.0000 </r>
       <r>   -32.9987     0.0000    26.0000 </r>
       <r>   -32.7478     0.0000    26.0000 </r>
       <r>   -32.4970     0.0000    26.0000 </r>
       <r>   -32.2461     0.0000    26.0000 </r>
       <r>   -31.9952     0.0000    26.0000 </r>
       <r>   -31.7443     0.0000    26.0000 </r>
       <r>   -31.4934     0.0000    26.0000 </r>
       <r>   -31.2425     0.0000    26.0000 </r>
       <r>   -30.9916     0.0000    26.0000 </r>
       <r>   -30.7407     0.0000    26.0000 </r>
       <r>   -30.4898     0.0044    26.0011 </r>
       <r>   -30.2390     7.4782    27.8773 </r>
       <r>   -29.9881    79.1529    47.7358 </r>
       <r>   -29.7372    79.3875    67.6533 </r>
       <r>   -29.4863     1.3820    68.0000 </r>
       <r>   -29.2354     0.0000    68.0000 </r>
       <r>   -28.9845     0.0000    68.0000 </r>
       <r>   -28.7336     0.0000    68.0000 </r>
       <r>   -28.4827     0.0000    68.0000 </r>
       <r>   -28.2318     0.0000    68.0000 </r>
       <r>   -27.9810     0.0000    68.0000 </r>
       <r>   -27.7301     0.0000    68.0000 </r>
       <r>   -27.4792     0.0000    68.0000 </r>
       <r>   -27.2283     0.0000    68.0000 </r>
       <r>   -26.9774     0.0000    68.0000 </r>
       <r>   -26.7265     0.1145    68.0287 </r>
       <r>   -26.4756    22.0609    73.5636 </r>
       <r>   -26.2247    63.6862    89.5417 </r>
       <r>   -25.9739    55.3840   103.4369 </r>
       <r>   -25.7230     2.2443   104.0000 </r>
       <r>   -25.4721     0.0000   104.0000 </r>
       <r>   -25.2212     0.0000   104.0000 </r>
       <r>   -24.9703     0.0000   104.0000 </r>
       <r>   -24.7194     0.0000   104.0000 </r>
       <r>   -24.4685     0.0000   104.0000 </r>
       <r>   -24.2176     0.0000   104.0000 </r>
       <r>   -23.9667     0.0000   104.0000 </r>
       <r>   -23.7159     0.0013   104.0003 </r>
       <r>   -23.4650     4.0670   105.0207 </r>
       <r>   -23.2141    35.2463   113.8636 </r>
       <r>   -22.9632    64.5382   130.0555 </r>
       <r>   -22.7123    30.9413   137.8183 </r>
       <r>   -22.4614     8.6931   139.9993 </r>
       <r>   -22.2105     3.3607   140.8425 </r>
       <r>   -21.9596    23.3416   146.6986 </r>
       <r>   -21.7087    64.4507   162.8686 </r>
       <r>   -21.4579    61.8913   178.3964 </r>
       <r>   -21.2070    14.2665   181.9757 </r>
       <r>   -20.9561     0.0968   182.0000 </r>
       <r>   -20.7052     0.0000   182.0000 </r>
       <r>   -20.4543     0.0000   182.0000 </r>
       <r>   -20.2034     0.0000   182.0000 </r>
       <r>   -19.9525     0.0000   182.0000 </r>
       <r>   -19.7016     0.0000   182.0000 </r>
       <r>   -19.4507     0.0000   182.0000 </r>
       <r>   -19.1999     0.0000   182.0000 </r>
       <r>   -18.9490     0.0000   182.0000 </r>
       <r>   -18.6981     0.0000   182.0000 </r>
       <r>   -18.4472     0.0000   182.0000 </r>
       <r>   -18.1963     0.0000   182.0000 </r>
       <r>   -17.9454     0.0000   182.0000 </r>
       <r>   -17.6945     0.0000   182.0000 </r>
       <r>   -17.4436     0.0000   182.0000 </r>
       <r>   -17.1928     0.0000   182.0000 </r>
       <r>   -16.9419     0.0000   182.0000 </r>
       <r>   -16.6910     0.0000   182.0000 </r>
       <r>   -16.4401     0.0000   182.0000 </r>
       <r>   -16.1892     0.0000   182.0000 </r>
       <r>   -15.9383     0.0000   182.0000 </r>
       <r>   -15.6874     0.0000   182.0000 </r>
       <r>   -15.4365     0.0000   182.0000 </r>
       <r>   -15.1856     0.0000   182.0000 </r>
       <r>   -14.9348     0.0000   182.0000 </r>
       <r>   -14.6839     0.0000   182.0000 </r>
       <r>   -14.4330     0.0000   182.0000 </r>
       <r>   -14.1821     0.0000   182.0000 </r>
       <r>   -13.9312     0.0000   182.0000 </r>
       <r>   -13.6803     0.0000   182.0000 </r>
       <r>   -13.4294     0.0000   182.0000 </r>
       <r>   -13.1785     0.0000   182.0000 </r>
       <r>   -12.9276     0.0000   182.0000 </r>
       <r>   -12.6768     0.0000   182.0000 </r>
       <r>   -12.4259     0.0000   182.0000 </r>
       <r>   -12.1750     0.0000   182.0000 </r>
       <r>   -11.9241     0.0000   182.0000 </r>
       <r>   -11.6732     0.0000   182.0000 </r>
       <r>   -11.4223     0.0000   182.0000 </r>
       <r>   -11.1714     0.0000   182.0000 </r>
       <r>   -10.9205     0.0000   182.0000 </r>
       <r>   -10.6696     0.0000   182.0000 </r>
       <r>   -10.4188     0.0000   182.0000 </r>
       <r>   -10.1679     0.0000   182.0000 </r>
       <r>    -9.9170     0.0000   182.0000 </r>
       <r>    -9.6661     0.0000   182.0000 </r>
       <r>    -9.4152     0.0000   182.0000 </r>
       <r>    -9.1643     0.0000   182.0000 </r>
       <r>    -8.9134     0.0000   182.0000 </r>
       <r>    -8.6625     0.0000   182.0000 </r>
       <r>    -8.4117     0.0000   182.0000 </r>
       <r>    -8.1608     0.0000   182.0000 </r>
       <r>    -7.9099     0.0000   182.0000 </r>
       <r>    -7.6590     0.0455   182.0114 </r>
       <r>    -7.4081     3.6851   182.9360 </r>
       <r>    -7.1572     6.6380   184.6014 </r>
       <r>    -6.9063    10.2419   187.1709 </r>
       <r>    -6.6554    21.4854   192.5614 </r>
       <r>    -6.4045    14.8303   196.2821 </r>
       <r>    -6.1537    20.1328   201.3332 </r>
       <r>    -5.9028    13.7468   204.7821 </r>
       <r>    -5.6519     9.4858   207.1620 </r>
       <r>    -5.4010     3.3384   207.9996 </r>
       <r>    -5.1501     0.0017   208.0000 </r>
       <r>    -4.8992     0.0000   208.0000 </r>
       <r>    -4.6483     0.0000   208.0000 </r>
       <r>    -4.3974     0.0000   208.0000 </r>
       <r>    -4.1465     0.1483   208.0372 </r>
       <r>    -3.8957     3.8299   208.9981 </r>
       <r>    -3.6448     4.0978   210.0262 </r>
       <r>    -3.3939     7.2989   211.8574 </r>
       <r>    -3.1430    10.0160   214.3703 </r>
       <r>    -2.8921    15.3411   218.2192 </r>
       <r>    -2.6412    24.5131   224.3693 </r>
       <r>    -2.3903    25.7161   230.8211 </r>
       <r>    -2.1394    24.1438   236.8785 </r>
       <r>    -1.8885    18.8266   241.6019 </r>
       <r>    -1.6377    12.6490   244.7754 </r>
       <r>    -1.3868     4.3570   245.8685 </r>
       <r>    -1.1359     0.5230   245.9997 </r>
       <r>    -0.8850     0.0011   246.0000 </r>
       <r>    -0.6341     0.0000   246.0000 </r>
       <r>    -0.3832     0.0000   246.0000 </r>
       <r>    -0.1323     0.0000   246.0000 </r>
       <r>     0.1186     0.0000   246.0000 </r>
       <r>     0.3694     0.0000   246.0000 </r>
       <r>     0.6203     0.0714   246.0179 </r>
       <r>     0.8712     0.9783   246.2634 </r>
       <r>     1.1221     4.5514   247.4053 </r>
       <r>     1.3730     9.9761   249.9081 </r>
       <r>     1.6239    14.0617   253.4361 </r>
       <r>     1.8748    18.6462   258.1142 </r>
       <r>     2.1257    26.0474   264.6492 </r>
       <r>     2.3766    28.7889   271.8720 </r>
       <r>     2.6274    26.9416   278.6313 </r>
       <r>     2.8783    33.5115   287.0390 </r>
       <r>     3.1292    31.3857   294.9133 </r>
       <r>     3.3801    34.8876   303.6662 </r>
       <r>     3.6310    48.2513   315.7719 </r>
       <r>     3.8819    55.9891   329.8189 </r>
       <r>     4.1328    64.7961   346.0755 </r>
       <r>     4.3837    64.7834   362.3289 </r>
       <r>     4.6346    62.1054   377.9105 </r>
       <r>     4.8854    58.0008   392.4622 </r>
       <r>     5.1363    43.1707   403.2932 </r>
       <r>     5.3872    34.3653   411.9151 </r>
       <r>     5.6381    29.5192   419.3211 </r>
       <r>     5.8890    28.3316   426.4292 </r>
       <r>     6.1399    19.4541   431.3100 </r>
       <r>     6.3908    16.9462   435.5616 </r>
       <r>     6.6417     7.7836   437.5144 </r>
       <r>     6.8926    10.4166   440.1278 </r>
       <r>     7.1434    14.9109   443.8688 </r>
       <r>     7.3943    18.5831   448.5311 </r>
       <r>     7.6452    21.8726   454.0187 </r>
       <r>     7.8961    20.0156   459.0404 </r>
       <r>     8.1470    20.4460   464.1700 </r>
       <r>     8.3979    25.6589   470.6076 </r>
       <r>     8.6488    25.6438   477.0413 </r>
       <r>     8.8997    22.7219   482.7420 </r>
       <r>     9.1506    25.9911   489.2629 </r>
       <r>     9.4014    33.7649   497.7341 </r>
       <r>     9.6523    39.2147   507.5726 </r>
       <r>     9.9032    48.9113   519.8439 </r>
       <r>    10.1541    47.7424   531.8219 </r>
       <r>    10.4050    45.7816   543.3080 </r>
       <r>    10.6559    45.5648   554.7397 </r>
       <r>    10.9068    43.1692   565.5703 </r>
       <r>    11.1577    41.0749   575.8755 </r>
       <r>    11.4085    43.4458   586.7756 </r>
       <r>    11.6594    41.6671   597.2294 </r>
       <r>    11.9103    40.6349   607.4242 </r>
       <r>    12.1612    29.1773   614.7445 </r>
       <r>    12.4121     4.9863   615.9955 </r>
       <r>    12.6630     0.0180   616.0000 </r>
       <r>    12.9139     0.0000   616.0000 </r>
       <r>    13.1648     0.0000   616.0000 </r>
       <r>    13.4157     0.0000   616.0000 </r>
       <r>    13.6665     0.0000   616.0000 </r>
       <r>    13.9174     0.0000   616.0000 </r>
       <r>    14.1683     0.0000   616.0000 </r>
       <r>    14.4192     0.0000   616.0000 </r>
       <r>    14.6701     0.0000   616.0000 </r>
       <r>    14.9210     0.0000   616.0000 </r>
       <r>    15.1719     0.0000   616.0000 </r>
       <r>    15.4228     0.0000   616.0000 </r>
       <r>    15.6737     0.0000   616.0000 </r>
      </set>
     </set>
    </array>
   </total>
  </dos>
 </calculation>
 <structure name="finalpos" >
  <crystal>
   <varray name="basis" >
    <v>       8.84075511       0.00610640       0.02602834 </v>
    <v>       0.01233715       8.80915550      -0.02855275 </v>
    <v>       0.05801787      -0.04360502       8.85429610 </v>
   </varray>
   <i name="volume">    689.54391793 </i>
   <varray name="rec_basis" >
    <v>       0.11311481      -0.00016082      -0.00074198 </v>
    <v>      -0.00008006       0.11352019       0.00055958 </v>
    <v>      -0.00033277       0.00036655       0.11294351 </v>
   </varray>
  </crystal>
  <varray name="positions" >
   <v>       0.00709205       0.00685922       0.99684804 </v>
   <v>       0.26574393       0.00652924       0.24144881 </v>
   <v>       0.24919680       0.49270664       0.25172477 </v>
   <v>       0.49915622       0.50135333       0.00061171 </v>
   <v>       0.49983189       0.24090856       0.74708471 </v>
   <v>       0.00218258       0.50118030       0.50253415 </v>
   <v>       0.49227428       0.75866099       0.75565000 </v>
   <v>       0.99555314       0.23741864       0.25617298 </v>
   <v>       0.75882459       0.75192971       0.00453903 </v>
   <v>       0.00217610       0.25517975       0.74906677 </v>
   <v>       0.75654486       0.24228446       0.48921045 </v>
   <v>       0.00084246       0.74931430       0.75388821 </v>
   <v>       0.24740105       0.50134298       0.75057842 </v>
   <v>       0.25431269       0.26766715       0.98260232 </v>
   <v>       0.51545117       0.25896412       0.23854438 </v>
   <v>       0.73764527       0.99728115       0.27463725 </v>
   <v>       0.72549053       0.24475969       0.01013116 </v>
   <v>       0.23099232       0.72938699       0.00122172 </v>
   <v>       0.23506412       0.24210140       0.51664519 </v>
   <v>       0.26011769       0.76150023       0.49498263 </v>
   <v>       0.24756280       0.24882623       0.24795542 </v>
   <v>       0.25612238       0.00321994       0.99546810 </v>
   <v>       0.99923383       0.25225482       0.00247979 </v>
   <v>       0.74671271       0.24444868       0.24020718 </v>
   <v>       0.75717337       0.00840573       0.01614623 </v>
   <v>       0.51239006       0.00343851       0.23522327 </v>
   <v>       0.99803878       0.49962717       0.24990414 </v>
   <v>       0.49612594       0.75469919       0.00288602 </v>
   <v>       0.98327011       0.00415225       0.74904403 </v>
   <v>       0.74967890       0.24780312       0.75183822 </v>
   <v>       0.75972571       0.99900442       0.51299233 </v>
   <v>       0.50092763       0.24825462       0.49134240 </v>
   <v>       0.49172873       0.00006355       0.73573678 </v>
   <v>       0.99880550       0.99959804       0.25390341 </v>
   <v>       0.49094514       0.24872644       0.00240701 </v>
   <v>       0.25301583       0.75048357       0.24594858 </v>
   <v>       0.24710851       0.49847967       0.99951327 </v>
   <v>       0.00347765       0.74981682       0.00311821 </v>
   <v>       0.75209649       0.75398445       0.25303627 </v>
   <v>       0.75320247       0.49266326       0.00136386 </v>
   <v>       0.50256625       0.49375968       0.25295652 </v>
   <v>       0.24769080       0.24821161       0.75083308 </v>
   <v>       0.26451324       0.00307972       0.49697467 </v>
   <v>       0.00400367       0.24858013       0.50194833 </v>
   <v>       0.24414477       0.75277698       0.75219895 </v>
   <v>       0.25417753       0.49758050       0.50116188 </v>
   <v>       0.00400855       0.75478953       0.50067393 </v>
   <v>       0.99815554       0.50213905       0.74994297 </v>
   <v>       0.74746722       0.74877637       0.75217727 </v>
   <v>       0.74692502       0.49849652       0.49837772 </v>
   <v>       0.49502072       0.74677355       0.50306673 </v>
   <v>       0.50022689       0.49932707       0.74588715 </v>
   <v>       0.52201850       0.01049161       0.98480563 </v>
   <v>       0.00244024       0.50300497       0.98931421 </v>
   <v>       0.49728522       0.74462746       0.26092877 </v>
   <v>       0.23577063       0.99809116       0.73831070 </v>
   <v>       0.50862916       0.98635683       0.47623330 </v>
   <v>       0.73181741       0.98532377       0.77729329 </v>
   <v>       0.00640904       0.76145737       0.25203293 </v>
   <v>       0.74830850       0.49925259       0.24813669 </v>
   <v>       0.01500652       0.00195168       0.50652060 </v>
   <v>       0.49674443       0.49999333       0.50024627 </v>
   <v>       0.74963027       0.50471404       0.75447903 </v>
   <v>       0.74380396       0.75516496       0.49686232 </v>
  </varray>
 </structure>
</modeling>
