HECN                                    
           1
     8.843556    0.005805    0.024450
     0.012034    8.817995   -0.026846
     0.056450   -0.041926    8.856326
   Hf   Nb   V    N    C    Mo   Ta
     7     6     7    13    19     6     6
Direct configuration=     1
   0.00707229  0.00689083  0.99685133
   0.26574806  0.00659720  0.24144976
   0.24916438  0.49265201  0.25174948
   0.49915202  0.50134422  0.00061730
   0.49984973  0.24086203  0.74706301
   0.00217109  0.50118372  0.50255788
   0.49229603  0.75871043  0.75564036
   0.99549332  0.23730715  0.25615246
   0.75886976  0.75191591  0.00457258
   0.00216169  0.25516861  0.74907176
   0.75655329  0.24224004  0.48921362
   0.00082287  0.74932639  0.75384787
   0.24741633  0.50135918  0.75055871
   0.25435326  0.26765790  0.98253870
   0.51555657  0.25899178  0.23862152
   0.73757875  0.99730551  0.27466417
   0.72549989  0.24468507  0.01001102
   0.23095035  0.72929637  0.00124494
   0.23503124  0.24206046  0.51668679
   0.26009731  0.76154942  0.49496059
   0.24744736  0.24884479  0.24795827
   0.25606605  0.00328336  0.99551098
   0.99928383  0.25220665  0.00248800
   0.74677209  0.24447865  0.24021629
   0.75714041  0.00831017  0.01612805
   0.51230717  0.00342504  0.23524195
   0.99802047  0.49960259  0.24994300
   0.49621527  0.75460841  0.00287934
   0.98331763  0.00417116  0.74903362
   0.74965933  0.24788108  0.75185581
   0.75973618  0.99900262  0.51296922
   0.50098804  0.24832732  0.49136974
   0.49172608  0.00006350  0.73576995
   0.99881336  0.99959816  0.25391810
   0.49102368  0.24877406  0.00239787
   0.25300134  0.75049135  0.24595109
   0.24710192  0.49845002  0.99951297
   0.00345488  0.74980418  0.00310693
   0.75210928  0.75391436  0.25302893
   0.75319449  0.49275375  0.00136470
   0.50257381  0.49379890  0.25295155
   0.24766842  0.24823267  0.75079150
   0.26451205  0.00306919  0.49699014
   0.00397942  0.24856152  0.50192811
   0.24413561  0.75274831  0.75220171
   0.25419077  0.49756945  0.50118522
   0.00404110  0.75481658  0.50066343
   0.99815229  0.50214390  0.74997375
   0.74745713  0.74877601  0.75219778
   0.74693133  0.49846930  0.49835808
   0.49504833  0.74679883  0.50303017
   0.50023810  0.49932754  0.74589168
   0.52206930  0.01058839  0.98477588
   0.00243973  0.50303596  0.98930189
   0.49724020  0.74459016  0.26089227
   0.23574610  0.99807687  0.73830607
   0.50860097  0.98627190  0.47623611
   0.73178947  0.98519938  0.77730379
   0.00643419  0.76158621  0.25206394
   0.74832348  0.49927186  0.24812398
   0.01500412  0.00196933  0.50653822
   0.49676924  0.50001609  0.50023817
   0.74963881  0.50477713  0.75450042
   0.74379932  0.75520879  0.49683761
HECN                                    
           1
     8.832228    0.006107    0.025796
     0.012335    8.795867   -0.028366
     0.057753   -0.043378    8.846204
   Hf   Nb   V    N    C    Mo   Ta
     7     6     7    13    19     6     6
Direct configuration=     2
   0.00706575  0.00688478  0.99684732
   0.26574215  0.00659330  0.24145257
   0.24916456  0.49265856  0.25172481
   0.49914488  0.50132706  0.00060716
   0.49982976  0.24085691  0.74707335
   0.00216681  0.50117055  0.50255263
   0.49227520  0.75871525  0.75563930
   0.99549954  0.23715735  0.25628028
   0.75892149  0.75189859  0.00451785
   0.00226129  0.25527895  0.74898351
   0.75664747  0.24225642  0.48915765
   0.00088566  0.74920460  0.75387593
   0.24738573  0.50135368  0.75057417
   0.25435446  0.26772058  0.98254993
   0.51553258  0.25901304  0.23858659
   0.73757752  0.99728153  0.27466206
   0.72547459  0.24470093  0.01009073
   0.23093895  0.72926764  0.00123307
   0.23499942  0.24204660  0.51669292
   0.26012561  0.76156508  0.49496793
   0.24749270  0.24883151  0.24795407
   0.25606979  0.00326859  0.99549228
   0.99926641  0.25221569  0.00247856
   0.74672199  0.24449178  0.24020704
   0.75714666  0.00836993  0.01611978
   0.51235110  0.00342070  0.23524555
   0.99802355  0.49961982  0.24993706
   0.49618417  0.75464445  0.00286746
   0.98328998  0.00416625  0.74904229
   0.74965960  0.24786114  0.75185251
   0.75971790  0.99898934  0.51296093
   0.50096703  0.24831847  0.49136127
   0.49173951  0.00007048  0.73577894
   0.99880747  0.99960519  0.25391409
   0.49099118  0.24873254  0.00241100
   0.25301034  0.75049387  0.24595138
   0.24708969  0.49846705  0.99950535
   0.00347558  0.74980289  0.00311408
   0.75209099  0.75393476  0.25304841
   0.75320222  0.49272163  0.00136293
   0.50257985  0.49378104  0.25295867
   0.24767161  0.24822152  0.75081111
   0.26450765  0.00307924  0.49700434
   0.00399110  0.24856293  0.50193361
   0.24413112  0.75277993  0.75220389
   0.25419443  0.49757004  0.50117405
   0.00400888  0.75481748  0.50066290
   0.99814986  0.50214153  0.74997295
   0.74746103  0.74877595  0.75218895
   0.74691021  0.49849874  0.49836628
   0.49502992  0.74677840  0.50303287
   0.50023664  0.49933064  0.74588510
   0.52206515  0.01059185  0.98477946
   0.00243765  0.50305638  0.98928946
   0.49725077  0.74460532  0.26091302
   0.23575794  0.99807457  0.73829696
   0.50861452  0.98625112  0.47622964
   0.73177987  0.98519639  0.77731183
   0.00642266  0.76159539  0.25206091
   0.74830886  0.49927141  0.24813867
   0.01501041  0.00198583  0.50652725
   0.49675787  0.50004264  0.50025013
   0.74963354  0.50479689  0.75449474
   0.74379756  0.75521700  0.49683857
HECN                                    
           1
     8.840066    0.005898    0.024865
     0.012127    8.811179   -0.027314
     0.056851   -0.042373    8.853208
   Hf   Nb   V    N    C    Mo   Ta
     7     6     7    13    19     6     6
Direct configuration=     3
   0.00707028  0.00688898  0.99685010
   0.26574624  0.00659601  0.24145063
   0.24916443  0.49265402  0.25174190
   0.49914983  0.50133897  0.00061418
   0.49984360  0.24086046  0.74706619
   0.00216977  0.50117969  0.50255627
   0.49228963  0.75871191  0.75564003
   0.99549524  0.23726125  0.25619175
   0.75888564  0.75191061  0.00455577
   0.00219227  0.25520242  0.74904464
   0.75658221  0.24224507  0.48919643
   0.00084216  0.74928908  0.75385651
   0.24740693  0.50135749  0.75056346
   0.25435363  0.26767710  0.98254214
   0.51554920  0.25899829  0.23861078
   0.73757837  0.99729817  0.27466352
   0.72549212  0.24468992  0.01003550
   0.23094685  0.72928757  0.00124130
   0.23502147  0.24205621  0.51668867
   0.26010600  0.76155422  0.49496285
   0.24746129  0.24884073  0.24795699
   0.25606720  0.00327884  0.99550523
   0.99927848  0.25220942  0.00248510
   0.74675670  0.24448268  0.24021344
   0.75714233  0.00832847  0.01612551
   0.51232067  0.00342371  0.23524306
   0.99802142  0.49960787  0.24994117
   0.49620572  0.75461945  0.00287568
   0.98330914  0.00416965  0.74903628
   0.74965942  0.24787497  0.75185480
   0.75973056  0.99899855  0.51296667
   0.50098158  0.24832461  0.49136714
   0.49173020  0.00006564  0.73577271
   0.99881155  0.99960031  0.25391687
   0.49101370  0.24876134  0.00240191
   0.25300410  0.75049212  0.24595118
   0.24709817  0.49845524  0.99951062
   0.00346124  0.74980379  0.00310913
   0.75210366  0.75392061  0.25303491
   0.75319686  0.49274391  0.00136416
   0.50257567  0.49379343  0.25295374
   0.24766940  0.24822926  0.75079753
   0.26451070  0.00307227  0.49699450
   0.00398301  0.24856195  0.50192980
   0.24413423  0.75275800  0.75220237
   0.25419189  0.49756963  0.50118179
   0.00403120  0.75481685  0.50066327
   0.99815155  0.50214318  0.74997351
   0.74745832  0.74877600  0.75219507
   0.74692485  0.49847831  0.49836059
   0.49504267  0.74679257  0.50303100
   0.50023765  0.49932849  0.74588966
   0.52206802  0.01058945  0.98477698
   0.00243909  0.50304222  0.98929807
   0.49724345  0.74459480  0.26089865
   0.23574973  0.99807617  0.73830327
   0.50860513  0.98626554  0.47623413
   0.73178652  0.98519846  0.77730626
   0.00643065  0.76158902  0.25206301
   0.74831899  0.49927172  0.24812849
   0.01500605  0.00197438  0.50653485
   0.49676575  0.50002422  0.50024184
   0.74963719  0.50478318  0.75449867
   0.74379878  0.75521131  0.49683790
HECN                                    
           1
     8.841368    0.006106    0.025743
     0.012338    8.808904   -0.028257
     0.057734   -0.043304    8.854938
   Hf   Nb   V    N    C    Mo   Ta
     7     6     7    13    19     6     6
Direct configuration=     4
   0.00708211  0.00687292  0.99684463
   0.26574366  0.00656530  0.24144742
   0.24917068  0.49267949  0.25172971
   0.49915054  0.50134383  0.00060416
   0.49983540  0.24089527  0.74706829
   0.00217270  0.50118531  0.50253668
   0.49226964  0.75867405  0.75564661
   0.99552641  0.23733182  0.25617922
   0.75884929  0.75191507  0.00454577
   0.00217591  0.25520135  0.74906259
   0.75655818  0.24226645  0.48920774
   0.00084682  0.74929289  0.75386775
   0.24740969  0.50135364  0.75057053
   0.25433308  0.26767697  0.98258045
   0.51549444  0.25898916  0.23859251
   0.73761647  0.99728688  0.27464252
   0.72550836  0.24472353  0.01008256
   0.23097542  0.72932865  0.00123120
   0.23504996  0.24207737  0.51665434
   0.26011336  0.76153356  0.49497359
   0.24751377  0.24883146  0.24795622
   0.25609640  0.00325429  0.99547911
   0.99925654  0.25223625  0.00248154
   0.74673298  0.24446694  0.24020799
   0.75717244  0.00837188  0.01615252
   0.51236007  0.00343267  0.23522689
   0.99802984  0.49961591  0.24992040
   0.49616548  0.75466220  0.00288514
   0.98328118  0.00416141  0.74904508
   0.74967448  0.24783933  0.75185320
   0.75972539  0.99899987  0.51297997
   0.50095233  0.24828972  0.49134763
   0.49172500  0.00006634  0.73575407
   0.99880155  0.99959887  0.25390830
   0.49096871  0.24874491  0.00240984
   0.25301222  0.75048888  0.24594990
   0.24710344  0.49846570  0.99950971
   0.00347735  0.74981228  0.00311408
   0.75209730  0.75395634  0.25303177
   0.75320276  0.49270089  0.00136445
   0.50256811  0.49376941  0.25295363
   0.24768803  0.24822026  0.75081955
   0.26451887  0.00307382  0.49698527
   0.00399240  0.24857619  0.50194060
   0.24414046  0.75277204  0.75219947
   0.25418197  0.49757582  0.50117334
   0.00402319  0.75480258  0.50067174
   0.99815691  0.50214027  0.74995327
   0.74746785  0.74877120  0.75218406
   0.74692467  0.49848977  0.49837087
   0.49501907  0.74677243  0.50305598
   0.50022974  0.49933033  0.74588877
   0.52201103  0.01053158  0.98479465
   0.00243632  0.50302309  0.98931962
   0.49726082  0.74461265  0.26089771
   0.23576848  0.99807437  0.73831667
   0.50861680  0.98631580  0.47624268
   0.73181686  0.98526298  0.77727522
   0.00642071  0.76152399  0.25205702
   0.74832341  0.49926708  0.24814088
   0.01499881  0.00195210  0.50652509
   0.49675971  0.50001513  0.50025088
   0.74962865  0.50475256  0.75448139
   0.74381614  0.75518462  0.49685565
HECN                                    
           1
     8.841287    0.006093    0.025688
     0.012325    8.809046   -0.028198
     0.057679   -0.043246    8.854831
   Hf   Nb   V    N    C    Mo   Ta
     7     6     7    13    19     6     6
Direct configuration=     5
   0.00708137  0.00687392  0.99684497
   0.26574382  0.00656721  0.24144762
   0.24917029  0.49267791  0.25173046
   0.49915050  0.50134353  0.00060479
   0.49983591  0.24089310  0.74706816
   0.00217251  0.50118496  0.50253789
   0.49227089  0.75867641  0.75564620
   0.99552447  0.23732743  0.25618000
   0.75885155  0.75191480  0.00454639
   0.00217693  0.25520141  0.74906147
   0.75655968  0.24226512  0.48920704
   0.00084653  0.74929265  0.75386705
   0.24740952  0.50135388  0.75057009
   0.25433436  0.26767697  0.98257807
   0.51549784  0.25898973  0.23859365
   0.73761410  0.99728758  0.27464383
   0.72550735  0.24472144  0.01007964
   0.23097364  0.72932609  0.00123183
   0.23504819  0.24207605  0.51665648
   0.26011290  0.76153484  0.49497292
   0.24751050  0.24883203  0.24795627
   0.25609458  0.00325582  0.99548074
   0.99925790  0.25223458  0.00248176
   0.74673446  0.24446792  0.24020833
   0.75717057  0.00836918  0.01615084
   0.51235762  0.00343212  0.23522790
   0.99802931  0.49961541  0.24992169
   0.49616799  0.75465954  0.00288455
   0.98328292  0.00416193  0.74904453
   0.74967354  0.24784155  0.75185330
   0.75972571  0.99899979  0.51297915
   0.50095415  0.24829189  0.49134884
   0.49172532  0.00006629  0.73575523
   0.99880217  0.99959896  0.25390883
   0.49097151  0.24874593  0.00240935
   0.25301172  0.75048908  0.24594998
   0.24710311  0.49846505  0.99950977
   0.00347635  0.74981175  0.00311378
   0.75209770  0.75395411  0.25303196
   0.75320239  0.49270357  0.00136443
   0.50256858  0.49377091  0.25295363
   0.24768687  0.24822082  0.75081818
   0.26451836  0.00307373  0.49698585
   0.00399181  0.24857531  0.50193993
   0.24414007  0.75277117  0.75219965
   0.25418258  0.49757544  0.50117386
   0.00402369  0.75480347  0.50067121
   0.99815657  0.50214046  0.74995453
   0.74746726  0.74877149  0.75218475
   0.74692468  0.49848906  0.49837023
   0.49502054  0.74677368  0.50305443
   0.50023023  0.49933022  0.74588883
   0.52201457  0.01053518  0.98479355
   0.00243650  0.50302428  0.98931828
   0.49725974  0.74461154  0.26089777
   0.23576731  0.99807449  0.73831584
   0.50861608  0.98631267  0.47624215
   0.73181497  0.98525897  0.77727715
   0.00642133  0.76152804  0.25205739
   0.74832314  0.49926737  0.24814011
   0.01499926  0.00195349  0.50652570
   0.49676009  0.50001569  0.50025032
   0.74962918  0.50475447  0.75448247
   0.74381506  0.75518628  0.49685455
HECN                                    
           1
     8.841201    0.006079    0.025630
     0.012311    8.809196   -0.028136
     0.057621   -0.043184    8.854716
   Hf   Nb   V    N    C    Mo   Ta
     7     6     7    13    19     6     6
Direct configuration=     6
   0.00708059  0.00687498  0.99684533
   0.26574399  0.00656924  0.24144783
   0.24916988  0.49267622  0.25173127
   0.49915045  0.50134320  0.00060545
   0.49983645  0.24089080  0.74706802
   0.00217232  0.50118459  0.50253919
   0.49227221  0.75867891  0.75564576
   0.99552241  0.23732277  0.25618083
   0.75885395  0.75191450  0.00454705
   0.00217801  0.25520149  0.74906029
   0.75656126  0.24226371  0.48920629
   0.00084622  0.74929240  0.75386631
   0.24740933  0.50135414  0.75056963
   0.25433572  0.26767698  0.98257554
   0.51550146  0.25899034  0.23859486
   0.73761158  0.99728833  0.27464522
   0.72550627  0.24471922  0.01007653
   0.23097176  0.72932338  0.00123250
   0.23504631  0.24207466  0.51665875
   0.26011241  0.76153621  0.49497221
   0.24750704  0.24883265  0.24795632
   0.25609265  0.00325744  0.99548246
   0.99925935  0.25223281  0.00248199
   0.74673602  0.24446896  0.24020869
   0.75716858  0.00836631  0.01614905
   0.51235502  0.00343152  0.23522897
   0.99802876  0.49961488  0.24992307
   0.49617064  0.75465672  0.00288392
   0.98328477  0.00416247  0.74904395
   0.74967255  0.24784391  0.75185341
   0.75972605  0.99899970  0.51297827
   0.50095608  0.24829420  0.49135013
   0.49172567  0.00006625  0.73575646
   0.99880283  0.99959905  0.25390940
   0.49097448  0.24874702  0.00240882
   0.25301118  0.75048930  0.24595006
   0.24710277  0.49846436  0.99950983
   0.00347529  0.74981119  0.00311345
   0.75209812  0.75395175  0.25303217
   0.75320200  0.49270641  0.00136441
   0.50256908  0.49377249  0.25295364
   0.24768564  0.24822141  0.75081673
   0.26451782  0.00307362  0.49698646
   0.00399119  0.24857436  0.50193922
   0.24413966  0.75277024  0.75219984
   0.25418324  0.49757503  0.50117442
   0.00402422  0.75480441  0.50067065
   0.99815622  0.50214065  0.74995587
   0.74746663  0.74877181  0.75218547
   0.74692469  0.49848830  0.49836955
   0.49502210  0.74677501  0.50305278
   0.50023075  0.49933009  0.74588889
   0.52201834  0.01053900  0.98479238
   0.00243668  0.50302554  0.98931686
   0.49725859  0.74461036  0.26089783
   0.23576608  0.99807461  0.73831495
   0.50861531  0.98630935  0.47624159
   0.73181296  0.98525470  0.77727920
   0.00642199  0.76153234  0.25205779
   0.74832285  0.49926768  0.24813929
   0.01499974  0.00195496  0.50652635
   0.49676049  0.50001630  0.50024972
   0.74962974  0.50475649  0.75448361
   0.74381391  0.75518804  0.49685338
HECN                                    
           1
     8.840755    0.006106    0.026028
     0.012337    8.809156   -0.028553
     0.058018   -0.043605    8.854296
   Hf   Nb   V    N    C    Mo   Ta
     7     6     7    13    19     6     6
Direct configuration=     7
   0.00709205  0.00685922  0.99684804
   0.26574393  0.00652924  0.24144881
   0.24919680  0.49270664  0.25172477
   0.49915622  0.50135333  0.00061171
   0.49983189  0.24090856  0.74708471
   0.00218258  0.50118030  0.50253415
   0.49227428  0.75866099  0.75565000
   0.99555314  0.23741864  0.25617298
   0.75882459  0.75192971  0.00453903
   0.00217610  0.25517975  0.74906677
   0.75654486  0.24228446  0.48921045
   0.00084246  0.74931430  0.75388821
   0.24740105  0.50134298  0.75057842
   0.25431269  0.26766715  0.98260232
   0.51545117  0.25896412  0.23854438
   0.73764527  0.99728115  0.27463725
   0.72549053  0.24475969  0.01013116
   0.23099232  0.72938699  0.00122172
   0.23506412  0.24210140  0.51664519
   0.26011769  0.76150023  0.49498263
   0.24756280  0.24882623  0.24795542
   0.25612238  0.00321994  0.99546810
   0.99923383  0.25225482  0.00247979
   0.74671271  0.24444868  0.24020718
   0.75717337  0.00840573  0.01614623
   0.51239006  0.00343851  0.23522327
   0.99803878  0.49962717  0.24990414
   0.49612594  0.75469919  0.00288602
   0.98327011  0.00415225  0.74904403
   0.74967890  0.24780312  0.75183822
   0.75972571  0.99900442  0.51299233
   0.50092763  0.24825462  0.49134240
   0.49172873  0.00006355  0.73573678
   0.99880550  0.99959804  0.25390341
   0.49094514  0.24872644  0.00240701
   0.25301583  0.75048357  0.24594858
   0.24710851  0.49847967  0.99951327
   0.00347765  0.74981682  0.00311821
   0.75209649  0.75398445  0.25303627
   0.75320247  0.49266326  0.00136386
   0.50256625  0.49375968  0.25295652
   0.24769080  0.24821161  0.75083308
   0.26451324  0.00307972  0.49697467
   0.00400367  0.24858013  0.50194833
   0.24414477  0.75277698  0.75219895
   0.25417753  0.49758050  0.50116188
   0.00400855  0.75478953  0.50067393
   0.99815554  0.50213905  0.74994297
   0.74746722  0.74877637  0.75217727
   0.74692502  0.49849652  0.49837772
   0.49502072  0.74677355  0.50306673
   0.50022689  0.49932707  0.74588715
   0.52201850  0.01049161  0.98480563
   0.00244024  0.50300497  0.98931421
   0.49728522  0.74462746  0.26092877
   0.23577063  0.99809116  0.73831070
   0.50862916  0.98635683  0.47623330
   0.73181741  0.98532377  0.77729329
   0.00640904  0.76145737  0.25203293
   0.74830850  0.49925259  0.24813669
   0.01500652  0.00195168  0.50652060
   0.49674443  0.49999333  0.50024627
   0.74963027  0.50471404  0.75447903
   0.74380396  0.75516496  0.49686232
