   64   64  100    1
  0.1020103E+02  0.8652458E-09  0.8690650E-09  0.8682355E-09  0.5000000E-15
  1.000000000000000E-004
  CAR 
 HECN                                    
    496     14    312
 
  0.0000000E+00  0.0000000E+00  0.0000000E+00  0.3703704E-01
    1      -48.150815   1.000000
    2      -48.105915   1.000000
    3      -48.071890   1.000000
    4      -47.807494   1.000000
    5      -47.799799   1.000000
    6      -47.794684   1.000000
    7      -47.444570   1.000000
    8      -46.402580   1.000000
    9      -46.241411   1.000000
   10      -46.185562   1.000000
   11      -46.129456   1.000000
   12      -46.122125   1.000000
   13      -46.114444   1.000000
   14      -46.055832   1.000000
   15      -34.241896   1.000000
   16      -34.079014   1.000000
   17      -34.047670   1.000000
   18      -34.046860   1.000000
   19      -34.046385   1.000000
   20      -34.031025   1.000000
   21      -33.997156   1.000000
   22      -33.989615   1.000000
   23      -33.986036   1.000000
   24      -33.978906   1.000000
   25      -33.951258   1.000000
   26      -33.939934   1.000000
   27      -33.930850   1.000000
   28      -33.902662   1.000000
   29      -33.880482   1.000000
   30      -33.855205   1.000000
   31      -33.817004   1.000000
   32      -33.805016   1.000000
   33      -30.144436   1.000000
   34      -30.028382   1.000000
   35      -29.963221   1.000000
   36      -29.860544   1.000000
   37      -29.836856   1.000000
   38      -29.783793   1.000000
   39      -29.750881   1.000000
   40      -29.735097   1.000000
   41      -29.715892   1.000000
   42      -29.700237   1.000000
   43      -29.695204   1.000000
   44      -29.682732   1.000000
   45      -29.647366   1.000000
   46      -29.618826   1.000000
   47      -29.577343   1.000000
   48      -29.552566   1.000000
   49      -29.517335   1.000000
   50      -29.444630   1.000000
   51      -24.654138   1.000000
   52      -24.573081   1.000000
   53      -24.553085   1.000000
   54      -24.526888   1.000000
   55      -24.506962   1.000000
   56      -24.475915   1.000000
   57      -24.431636   1.000000
   58      -24.410917   1.000000
   59      -24.398723   1.000000
   60      -24.283173   1.000000
   61      -24.230250   1.000000
   62      -24.212097   1.000000
   63      -24.205199   1.000000
   64      -24.189688   1.000000
   65      -24.185985   1.000000
   66      -24.173174   1.000000
   67      -24.171646   1.000000
   68      -24.133055   1.000000
   69      -23.889151   1.000000
   70      -23.868581   1.000000
   71      -23.843140   1.000000
   72      -22.636853   1.000000
   73      -22.603769   1.000000
   74      -22.567317   1.000000
   75      -22.553680   1.000000
   76      -22.468193   1.000000
   77      -22.437947   1.000000
   78      -22.414466   1.000000
   79      -22.407546   1.000000
   80      -22.386841   1.000000
   81      -22.354675   1.000000
   82      -22.345178   1.000000
   83      -22.333946   1.000000
   84      -22.315111   1.000000
   85      -22.298398   1.000000
   86      -22.293984   1.000000
   87      -22.272714   1.000000
   88      -22.263129   1.000000
   89      -22.242766   1.000000
   90      -22.199854   1.000000
   91      -22.139314   1.000000
   92      -22.063749   1.000000
   93       -7.028616   1.000000
   94       -6.565816   1.000000
   95       -6.344443   1.000000
   96       -6.055453   1.000000
   97       -5.940424   1.000000
   98       -5.824518   1.000000
   99       -5.741458   1.000000
  100       -5.614328   1.000000
  101       -5.515527   1.000000
  102       -5.447962   1.000000
  103       -5.413494   1.000000
  104       -5.200306   1.000000
  105       -5.056474   1.000000
  106       -3.605242   1.000000
  107       -3.078733   1.000000
  108       -2.961329   1.000000
  109       -2.734695   1.000000
  110       -2.589252   1.000000
  111       -2.496062   1.000000
  112       -2.457258   1.000000
  113       -2.398196   1.000000
  114       -2.187160   1.000000
  115       -2.104755   1.000000
  116       -1.947953   1.000000
  117       -1.902075   1.000000
  118       -1.753346   1.000000
  119       -1.644420   1.000000
  120       -1.594817   1.000000
  121       -1.456490   1.000000
  122       -1.376927   1.000000
  123       -1.058986   1.000000
  124       -0.959368   1.000000
  125        1.077570   1.000000
  126        1.289452   1.000000
  127        1.306183   1.000000
  128        1.401854   1.000000
  129        2.066542   1.000000
  130        2.241366   1.000000
  131        2.281360   1.000000
  132        2.396463   1.000000
  133        2.446182   1.000000
  134        2.493674   1.000000
  135        2.572247   1.000000
  136        2.587632   1.000000
  137        2.666640   1.000000
  138        2.712219   1.000000
  139        2.763421   1.000000
  140        2.898793   1.000000
  141        3.081964   1.000000
  142        3.242211   1.000000
  143        3.298355   1.000000
  144        3.361752   1.000000
  145        3.436586   1.000000
  146        3.530363   1.000000
  147        3.558962   1.000000
  148        3.620145   1.000000
  149        3.622444   1.000000
  150        3.667394   1.000000
  151        3.707692   1.000000
  152        3.755685   1.000000
  153        3.804007   1.000000
  154        3.859947   1.000000
  155        3.870871   1.000000
  156        3.920252   1.000000
  157        3.966292   1.000000
  158        4.003418   1.000000
  159        4.032423   1.000000
  160        4.066695   1.000000
  161        4.084456   1.000000
  162        4.091871   1.000000
  163        4.157341   1.000000
  164        4.184999   1.000000
  165        4.231221   1.000000
  166        4.234603   1.000000
  167        4.292927   1.000000
  168        4.349412   1.000000
  169        4.378347   1.000000
  170        4.402489   1.000000
  171        4.439556   1.000000
  172        4.470245   1.000000
  173        4.502037   1.000000
  174        4.520130   1.000000
  175        4.554600   1.000000
  176        4.574513   1.000000
  177        4.596303   1.000000
  178        4.620267   1.000000
  179        4.644971   1.000000
  180        4.662903   1.000000
  181        4.715443   1.000000
  182        4.730813   1.000000
  183        4.778221   1.000000
  184        4.823768   1.000000
  185        4.847231   1.000000
  186        4.868865   1.000000
  187        4.887755   1.000000
  188        4.940182   1.000000
  189        4.962040   1.000000
  190        4.987212   1.000000
  191        5.017081   1.000000
  192        5.063678   1.000000
  193        5.105906   1.000000
  194        5.124944   1.000000
  195        5.145100   1.000000
  196        5.185472   1.000000
  197        5.205549   1.000000
  198        5.291099   1.000000
  199        5.352991   1.000000
  200        5.425366   1.000000
  201        5.527368   1.000000
  202        5.563312   1.000000
  203        6.076522   1.000000
  204        6.118180   1.000000
  205        6.255093   1.000000
  206        6.319560   1.000000
  207        6.353158   1.000000
  208        6.442656   1.000000
  209        6.505814   1.000000
  210        6.544224   1.000000
  211        6.608924   1.000000
  212        6.623810   1.000000
  213        6.758540   1.000000
  214        6.799212   1.000000
  215        6.820066   1.000000
  216        6.901445   1.000000
  217        6.925198   1.000000
  218        6.975297   1.000000
  219        7.022163   1.000000
  220        7.035717   1.000000
  221        7.221333   1.000000
  222        7.248200   1.000000
  223        7.264839   1.000000
  224        7.391448   1.000000
  225        7.572008   1.000000
  226        7.625747   1.000000
  227        7.964562   1.000000
  228        8.078214   1.000000
  229        8.140660   1.000000
  230        8.178084   1.000000
  231        8.303482   1.000000
  232        8.349826   1.000000
  233        8.684938   1.000000
  234        8.855675   1.000000
  235        8.920847   1.000000
  236        9.080304   1.000000
  237        9.097388   1.000000
  238        9.186210   1.000000
  239        9.291379   1.000000
  240        9.319281   0.999998
  241        9.374997   0.999936
  242        9.422713   0.999203
  243        9.500773   0.979961
  244        9.531528   0.947169
  245        9.612482   0.681942
  246        9.695486   0.241740
  247        9.696459   0.237465
  248        9.755166   0.061208
  249        9.817150   0.007733
  250        9.841616   0.002826
  251        9.898421   0.000178
  252        9.933555   0.000024
  253        9.995655   0.000000
  254       10.048423   0.000000
  255       10.120452   0.000000
  256       10.156655   0.000000
  257       10.206936   0.000000
  258       10.240335   0.000000
  259       10.283280   0.000000
  260       10.354132   0.000000
  261       10.377418   0.000000
  262       10.402821   0.000000
  263       10.430163   0.000000
  264       10.439903   0.000000
  265       10.532097   0.000000
  266       10.534619   0.000000
  267       10.577425   0.000000
  268       10.626721   0.000000
  269       10.632752   0.000000
  270       10.648577   0.000000
  271       10.715004   0.000000
  272       10.748561   0.000000
  273       10.769266   0.000000
  274       10.799467   0.000000
  275       10.823190   0.000000
  276       10.850447   0.000000
  277       10.890357   0.000000
  278       10.916480   0.000000
  279       10.956384   0.000000
  280       11.016457   0.000000
  281       11.037751   0.000000
  282       11.060749   0.000000
  283       11.086185   0.000000
  284       11.103696   0.000000
  285       11.178881   0.000000
  286       11.209383   0.000000
  287       11.226633   0.000000
  288       11.291702   0.000000
  289       11.305969   0.000000
  290       11.308877   0.000000
  291       11.345575   0.000000
  292       11.368722   0.000000
  293       11.410348   0.000000
  294       11.435867   0.000000
  295       11.487298   0.000000
  296       11.521443   0.000000
  297       11.535798   0.000000
  298       11.562372   0.000000
  299       11.595095   0.000000
  300       11.644142   0.000000
  301       11.664182   0.000000
  302       11.716951   0.000000
  303       11.728815   0.000000
  304       11.750190   0.000000
  305       11.772423   0.000000
  306       11.827154   0.000000
  307       11.877188   0.000000
  308       11.894592   0.000000
  309       11.904114   0.000000
  310       11.938545   0.000000
  311       11.967091   0.000000
  312       12.032231   0.000000
 
  0.3333333E+00  0.9020901E-19  0.2168404E-18  0.7407407E-01
    1      -48.150857   1.000000
    2      -48.105951   1.000000
    3      -48.071907   1.000000
    4      -47.807524   1.000000
    5      -47.799826   1.000000
    6      -47.794711   1.000000
    7      -47.444599   1.000000
    8      -46.402581   1.000000
    9      -46.241411   1.000000
   10      -46.185564   1.000000
   11      -46.129458   1.000000
   12      -46.122127   1.000000
   13      -46.114446   1.000000
   14      -46.055831   1.000000
   15      -34.241917   1.000000
   16      -34.078951   1.000000
   17      -34.047800   1.000000
   18      -34.046940   1.000000
   19      -34.046405   1.000000
   20      -34.031085   1.000000
   21      -33.997192   1.000000
   22      -33.989638   1.000000
   23      -33.986064   1.000000
   24      -33.978946   1.000000
   25      -33.951290   1.000000
   26      -33.939975   1.000000
   27      -33.930853   1.000000
   28      -33.902691   1.000000
   29      -33.880574   1.000000
   30      -33.855246   1.000000
   31      -33.817014   1.000000
   32      -33.805042   1.000000
   33      -30.144430   1.000000
   34      -30.028381   1.000000
   35      -29.963196   1.000000
   36      -29.860553   1.000000
   37      -29.836855   1.000000
   38      -29.783618   1.000000
   39      -29.751047   1.000000
   40      -29.734992   1.000000
   41      -29.715841   1.000000
   42      -29.700536   1.000000
   43      -29.695096   1.000000
   44      -29.682718   1.000000
   45      -29.647366   1.000000
   46      -29.618869   1.000000
   47      -29.577385   1.000000
   48      -29.552518   1.000000
   49      -29.517363   1.000000
   50      -29.444543   1.000000
   51      -24.654530   1.000000
   52      -24.573034   1.000000
   53      -24.552915   1.000000
   54      -24.526810   1.000000
   55      -24.506772   1.000000
   56      -24.475850   1.000000
   57      -24.431766   1.000000
   58      -24.410386   1.000000
   59      -24.398708   1.000000
   60      -24.283434   1.000000
   61      -24.230269   1.000000
   62      -24.212230   1.000000
   63      -24.205405   1.000000
   64      -24.189811   1.000000
   65      -24.185987   1.000000
   66      -24.173163   1.000000
   67      -24.171618   1.000000
   68      -24.133071   1.000000
   69      -23.889152   1.000000
   70      -23.868581   1.000000
   71      -23.843139   1.000000
   72      -22.636800   1.000000
   73      -22.603437   1.000000
   74      -22.566349   1.000000
   75      -22.555341   1.000000
   76      -22.466743   1.000000
   77      -22.438959   1.000000
   78      -22.413859   1.000000
   79      -22.408373   1.000000
   80      -22.386830   1.000000
   81      -22.354218   1.000000
   82      -22.345161   1.000000
   83      -22.334001   1.000000
   84      -22.314994   1.000000
   85      -22.298639   1.000000
   86      -22.293902   1.000000
   87      -22.272305   1.000000
   88      -22.263080   1.000000
   89      -22.242889   1.000000
   90      -22.200005   1.000000
   91      -22.139451   1.000000
   92      -22.064417   1.000000
   93       -6.941087   1.000000
   94       -6.525630   1.000000
   95       -6.355356   1.000000
   96       -6.174747   1.000000
   97       -5.920852   1.000000
   98       -5.850305   1.000000
   99       -5.711348   1.000000
  100       -5.623516   1.000000
  101       -5.539936   1.000000
  102       -5.441592   1.000000
  103       -5.393065   1.000000
  104       -5.177931   1.000000
  105       -5.053419   1.000000
  106       -3.507470   1.000000
  107       -3.134693   1.000000
  108       -2.961963   1.000000
  109       -2.825043   1.000000
  110       -2.568365   1.000000
  111       -2.491877   1.000000
  112       -2.452146   1.000000
  113       -2.386060   1.000000
  114       -2.212443   1.000000
  115       -2.059405   1.000000
  116       -2.032746   1.000000
  117       -1.874651   1.000000
  118       -1.817778   1.000000
  119       -1.698232   1.000000
  120       -1.651566   1.000000
  121       -1.577467   1.000000
  122       -1.489849   1.000000
  123       -1.254103   1.000000
  124       -1.132749   1.000000
  125        1.316012   1.000000
  126        1.574223   1.000000
  127        1.617206   1.000000
  128        1.704004   1.000000
  129        2.172477   1.000000
  130        2.226706   1.000000
  131        2.323797   1.000000
  132        2.391999   1.000000
  133        2.429296   1.000000
  134        2.487201   1.000000
  135        2.630323   1.000000
  136        2.684929   1.000000
  137        2.719296   1.000000
  138        2.873224   1.000000
  139        2.940016   1.000000
  140        3.016337   1.000000
  141        3.137374   1.000000
  142        3.235710   1.000000
  143        3.288038   1.000000
  144        3.344667   1.000000
  145        3.366366   1.000000
  146        3.469682   1.000000
  147        3.521774   1.000000
  148        3.562675   1.000000
  149        3.609433   1.000000
  150        3.649943   1.000000
  151        3.669095   1.000000
  152        3.691281   1.000000
  153        3.762617   1.000000
  154        3.829045   1.000000
  155        3.876927   1.000000
  156        3.935724   1.000000
  157        4.003640   1.000000
  158        4.029909   1.000000
  159        4.074031   1.000000
  160        4.111602   1.000000
  161        4.133220   1.000000
  162        4.187553   1.000000
  163        4.202238   1.000000
  164        4.218213   1.000000
  165        4.256237   1.000000
  166        4.329273   1.000000
  167        4.358092   1.000000
  168        4.394468   1.000000
  169        4.405662   1.000000
  170        4.444568   1.000000
  171        4.484445   1.000000
  172        4.523016   1.000000
  173        4.541539   1.000000
  174        4.566851   1.000000
  175        4.595503   1.000000
  176        4.630801   1.000000
  177        4.654337   1.000000
  178        4.673561   1.000000
  179        4.700496   1.000000
  180        4.759231   1.000000
  181        4.777908   1.000000
  182        4.798134   1.000000
  183        4.825131   1.000000
  184        4.861286   1.000000
  185        4.902084   1.000000
  186        4.938115   1.000000
  187        4.983186   1.000000
  188        5.001207   1.000000
  189        5.049570   1.000000
  190        5.054360   1.000000
  191        5.089188   1.000000
  192        5.157459   1.000000
  193        5.182836   1.000000
  194        5.214872   1.000000
  195        5.253576   1.000000
  196        5.280243   1.000000
  197        5.318796   1.000000
  198        5.331218   1.000000
  199        5.362442   1.000000
  200        5.455800   1.000000
  201        5.538262   1.000000
  202        5.562832   1.000000
  203        5.635937   1.000000
  204        5.728436   1.000000
  205        5.786387   1.000000
  206        5.821902   1.000000
  207        5.955577   1.000000
  208        5.976797   1.000000
  209        6.073798   1.000000
  210        6.158656   1.000000
  211        6.256686   1.000000
  212        6.386704   1.000000
  213        6.590000   1.000000
  214        6.611690   1.000000
  215        6.673376   1.000000
  216        6.750962   1.000000
  217        6.832496   1.000000
  218        6.907539   1.000000
  219        7.089730   1.000000
  220        7.114027   1.000000
  221        7.203513   1.000000
  222        7.299756   1.000000
  223        7.455168   1.000000
  224        7.503586   1.000000
  225        7.581087   1.000000
  226        7.761549   1.000000
  227        7.836672   1.000000
  228        7.940943   1.000000
  229        8.011347   1.000000
  230        8.148145   1.000000
  231        8.454885   1.000000
  232        8.583024   1.000000
  233        8.725992   1.000000
  234        8.776166   1.000000
  235        8.823770   1.000000
  236        8.958223   1.000000
  237        8.995446   1.000000
  238        9.051689   1.000000
  239        9.124981   1.000000
  240        9.176557   1.000000
  241        9.240049   1.000000
  242        9.380946   0.999911
  243        9.432399   0.998736
  244        9.507804   0.974620
  245        9.584099   0.809085
  246        9.660653   0.417573
  247        9.720020   0.147392
  248        9.760375   0.052790
  249        9.860091   0.001229
  250        9.906465   0.000115
  251        9.940583   0.000015
  252       10.002130   0.000000
  253       10.026749   0.000000
  254       10.074413   0.000000
  255       10.091310   0.000000
  256       10.146049   0.000000
  257       10.190542   0.000000
  258       10.215486   0.000000
  259       10.252120   0.000000
  260       10.269261   0.000000
  261       10.291128   0.000000
  262       10.361794   0.000000
  263       10.376087   0.000000
  264       10.405046   0.000000
  265       10.457443   0.000000
  266       10.505529   0.000000
  267       10.516963   0.000000
  268       10.575243   0.000000
  269       10.598581   0.000000
  270       10.612677   0.000000
  271       10.637722   0.000000
  272       10.676756   0.000000
  273       10.719139   0.000000
  274       10.757814   0.000000
  275       10.777074   0.000000
  276       10.813059   0.000000
  277       10.842800   0.000000
  278       10.866476   0.000000
  279       10.929451   0.000000
  280       10.979402   0.000000
  281       11.011429   0.000000
  282       11.030212   0.000000
  283       11.074529   0.000000
  284       11.104007   0.000000
  285       11.146083   0.000000
  286       11.171153   0.000000
  287       11.208750   0.000000
  288       11.251582   0.000000
  289       11.282785   0.000000
  290       11.326468   0.000000
  291       11.342176   0.000000
  292       11.365127   0.000000
  293       11.408474   0.000000
  294       11.453000   0.000000
  295       11.469364   0.000000
  296       11.507023   0.000000
  297       11.557035   0.000000
  298       11.584383   0.000000
  299       11.611777   0.000000
  300       11.625940   0.000000
  301       11.664907   0.000000
  302       11.704593   0.000000
  303       11.735773   0.000000
  304       11.773684   0.000000
  305       11.802964   0.000000
  306       11.850701   0.000000
  307       11.892335   0.000000
  308       11.906229   0.000000
  309       11.956954   0.000000
  310       11.977036   0.000000
  311       12.017567   0.000000
  312       12.025376   0.000000
 
 -0.4354279E-19  0.3333333E+00  0.2710505E-19  0.7407407E-01
    1      -48.150869   1.000000
    2      -48.105919   1.000000
    3      -48.071899   1.000000
    4      -47.807510   1.000000
    5      -47.799822   1.000000
    6      -47.794702   1.000000
    7      -47.444591   1.000000
    8      -46.402581   1.000000
    9      -46.241412   1.000000
   10      -46.185564   1.000000
   11      -46.129274   1.000000
   12      -46.122350   1.000000
   13      -46.114420   1.000000
   14      -46.055816   1.000000
   15      -34.241919   1.000000
   16      -34.079050   1.000000
   17      -34.047663   1.000000
   18      -34.046911   1.000000
   19      -34.046382   1.000000
   20      -34.031063   1.000000
   21      -33.997181   1.000000
   22      -33.989647   1.000000
   23      -33.986059   1.000000
   24      -33.978929   1.000000
   25      -33.951282   1.000000
   26      -33.939965   1.000000
   27      -33.930872   1.000000
   28      -33.902688   1.000000
   29      -33.880499   1.000000
   30      -33.855241   1.000000
   31      -33.817032   1.000000
   32      -33.805042   1.000000
   33      -30.144433   1.000000
   34      -30.028376   1.000000
   35      -29.963217   1.000000
   36      -29.860540   1.000000
   37      -29.836860   1.000000
   38      -29.783763   1.000000
   39      -29.749673   1.000000
   40      -29.735570   1.000000
   41      -29.716139   1.000000
   42      -29.700921   1.000000
   43      -29.695115   1.000000
   44      -29.682799   1.000000
   45      -29.647676   1.000000
   46      -29.618821   1.000000
   47      -29.577289   1.000000
   48      -29.552010   1.000000
   49      -29.517368   1.000000
   50      -29.444745   1.000000
   51      -24.654150   1.000000
   52      -24.573115   1.000000
   53      -24.553085   1.000000
   54      -24.526824   1.000000
   55      -24.506963   1.000000
   56      -24.475885   1.000000
   57      -24.431558   1.000000
   58      -24.410740   1.000000
   59      -24.398723   1.000000
   60      -24.283429   1.000000
   61      -24.229183   1.000000
   62      -24.212775   1.000000
   63      -24.205115   1.000000
   64      -24.189296   1.000000
   65      -24.186909   1.000000
   66      -24.173360   1.000000
   67      -24.171698   1.000000
   68      -24.132925   1.000000
   69      -23.889122   1.000000
   70      -23.868531   1.000000
   71      -23.843185   1.000000
   72      -22.636625   1.000000
   73      -22.603443   1.000000
   74      -22.564589   1.000000
   75      -22.555599   1.000000
   76      -22.465029   1.000000
   77      -22.436547   1.000000
   78      -22.415956   1.000000
   79      -22.410028   1.000000
   80      -22.387063   1.000000
   81      -22.353457   1.000000
   82      -22.344551   1.000000
   83      -22.338913   1.000000
   84      -22.313618   1.000000
   85      -22.298869   1.000000
   86      -22.294237   1.000000
   87      -22.273010   1.000000
   88      -22.263938   1.000000
   89      -22.242956   1.000000
   90      -22.197154   1.000000
   91      -22.141211   1.000000
   92      -22.062926   1.000000
   93       -6.986839   1.000000
   94       -6.570837   1.000000
   95       -6.337604   1.000000
   96       -6.033484   1.000000
   97       -5.926621   1.000000
   98       -5.828806   1.000000
   99       -5.739223   1.000000
  100       -5.602987   1.000000
  101       -5.509903   1.000000
  102       -5.455904   1.000000
  103       -5.419816   1.000000
  104       -5.192298   1.000000
  105       -5.048150   1.000000
  106       -3.674650   1.000000
  107       -3.043729   1.000000
  108       -2.879327   1.000000
  109       -2.825794   1.000000
  110       -2.656278   1.000000
  111       -2.567195   1.000000
  112       -2.485516   1.000000
  113       -2.399047   1.000000
  114       -2.299936   1.000000
  115       -2.092327   1.000000
  116       -2.021105   1.000000
  117       -1.940926   1.000000
  118       -1.745959   1.000000
  119       -1.653737   1.000000
  120       -1.581656   1.000000
  121       -1.529324   1.000000
  122       -1.494066   1.000000
  123       -1.174109   1.000000
  124       -1.054197   1.000000
  125        1.422309   1.000000
  126        1.575014   1.000000
  127        1.655707   1.000000
  128        1.733020   1.000000
  129        2.046823   1.000000
  130        2.164710   1.000000
  131        2.241892   1.000000
  132        2.294793   1.000000
  133        2.396429   1.000000
  134        2.495313   1.000000
  135        2.637868   1.000000
  136        2.732693   1.000000
  137        2.821670   1.000000
  138        2.919887   1.000000
  139        3.025094   1.000000
  140        3.130357   1.000000
  141        3.187557   1.000000
  142        3.225432   1.000000
  143        3.280155   1.000000
  144        3.302375   1.000000
  145        3.370277   1.000000
  146        3.437617   1.000000
  147        3.517093   1.000000
  148        3.552151   1.000000
  149        3.581853   1.000000
  150        3.662774   1.000000
  151        3.694111   1.000000
  152        3.746410   1.000000
  153        3.793921   1.000000
  154        3.850668   1.000000
  155        3.896120   1.000000
  156        3.941668   1.000000
  157        3.961421   1.000000
  158        4.031614   1.000000
  159        4.042348   1.000000
  160        4.073609   1.000000
  161        4.084502   1.000000
  162        4.127187   1.000000
  163        4.171782   1.000000
  164        4.208673   1.000000
  165        4.253267   1.000000
  166        4.281327   1.000000
  167        4.315680   1.000000
  168        4.348012   1.000000
  169        4.377166   1.000000
  170        4.405597   1.000000
  171        4.438015   1.000000
  172        4.499458   1.000000
  173        4.522775   1.000000
  174        4.551886   1.000000
  175        4.569123   1.000000
  176        4.595838   1.000000
  177        4.642910   1.000000
  178        4.666114   1.000000
  179        4.713919   1.000000
  180        4.742545   1.000000
  181        4.766233   1.000000
  182        4.779591   1.000000
  183        4.812151   1.000000
  184        4.869046   1.000000
  185        4.904380   1.000000
  186        4.933563   1.000000
  187        4.956815   1.000000
  188        5.014607   1.000000
  189        5.045038   1.000000
  190        5.072808   1.000000
  191        5.133409   1.000000
  192        5.146273   1.000000
  193        5.179967   1.000000
  194        5.200930   1.000000
  195        5.253916   1.000000
  196        5.263339   1.000000
  197        5.336351   1.000000
  198        5.358249   1.000000
  199        5.418369   1.000000
  200        5.460287   1.000000
  201        5.554947   1.000000
  202        5.612240   1.000000
  203        5.707293   1.000000
  204        5.750930   1.000000
  205        5.902270   1.000000
  206        5.923145   1.000000
  207        5.983049   1.000000
  208        6.001815   1.000000
  209        6.062027   1.000000
  210        6.148630   1.000000
  211        6.237407   1.000000
  212        6.315294   1.000000
  213        6.367366   1.000000
  214        6.543122   1.000000
  215        6.578695   1.000000
  216        6.820336   1.000000
  217        6.879952   1.000000
  218        6.944779   1.000000
  219        7.054781   1.000000
  220        7.232647   1.000000
  221        7.336187   1.000000
  222        7.468341   1.000000
  223        7.527692   1.000000
  224        7.569898   1.000000
  225        7.613086   1.000000
  226        7.641961   1.000000
  227        7.723609   1.000000
  228        7.858218   1.000000
  229        7.903306   1.000000
  230        7.979537   1.000000
  231        8.530686   1.000000
  232        8.603778   1.000000
  233        8.687964   1.000000
  234        8.739280   1.000000
  235        8.795281   1.000000
  236        8.866831   1.000000
  237        8.929842   1.000000
  238        8.980350   1.000000
  239        9.133318   1.000000
  240        9.175603   1.000000
  241        9.221189   1.000000
  242        9.325500   0.999997
  243        9.402925   0.999706
  244        9.484025   0.988983
  245        9.575451   0.840577
  246        9.604409   0.721499
  247        9.653513   0.457341
  248        9.739348   0.093248
  249        9.788188   0.022125
  250        9.856489   0.001452
  251        9.918864   0.000057
  252        9.997116   0.000000
  253       10.046882   0.000000
  254       10.105006   0.000000
  255       10.135693   0.000000
  256       10.160294   0.000000
  257       10.213917   0.000000
  258       10.260358   0.000000
  259       10.289586   0.000000
  260       10.328069   0.000000
  261       10.368237   0.000000
  262       10.403425   0.000000
  263       10.428282   0.000000
  264       10.472902   0.000000
  265       10.493405   0.000000
  266       10.534155   0.000000
  267       10.562734   0.000000
  268       10.585736   0.000000
  269       10.617024   0.000000
  270       10.659841   0.000000
  271       10.689309   0.000000
  272       10.716122   0.000000
  273       10.765243   0.000000