 vasp.5.4.4.18Apr17-6-g9f103f2a35 (build Oct 18 2021 20:38:43) complex          
  
 executed on             LinuxIFC date 2024.06.19  10:05:29
 running on   24 total cores
 distrk:  each k-point on   24 cores,    1 groups
 distr:  one band on NCORES_PER_BAND=   1 cores,   24 groups


--------------------------------------------------------------------------------------------------------


 INCAR:
 POTCAR:   PAW_PBE Nb_sv 17Jan2003                
 POTCAR:   PAW_PBE W_pv 06Sep2000                 
 POTCAR:   PAW_PBE Ti_sv 07Sep2000                
 POTCAR:   PAW_PBE N 08Apr2002                    
 POTCAR:   PAW_PBE C 08Apr2002                    
 POTCAR:   PAW_PBE Cr_pv 07Sep2000                
 POTCAR:   PAW_PBE Mo 08Apr2002                   

 ----------------------------------------------------------------------------- 
|                                                                             |
|           W    W    AA    RRRRR   N    N  II  N    N   GGGG   !!!           |
|           W    W   A  A   R    R  NN   N  II  NN   N  G    G  !!!           |
|           W    W  A    A  R    R  N N  N  II  N N  N  G       !!!           |
|           W WW W  AAAAAA  RRRRR   N  N N  II  N  N N  G  GGG   !            |
|           WW  WW  A    A  R   R   N   NN  II  N   NN  G    G                |
|           W    W  A    A  R    R  N    N  II  N    N   GGGG   !!!           |
|                                                                             |
|      For optimal performance we recommend to set                            |
|        NCORE= 4 - approx SQRT( number of cores)                             |
|      NCORE specifies how many cores store one orbital (NPAR=cpu/NCORE).     |
|      This setting can  greatly improve the performance of VASP for DFT.     |
|      The default,   NCORE=1            might be grossly inefficient         |
|      on modern multi-core architectures or massively parallel machines.     |
|      Do your own testing !!!!                                               |
|      Unfortunately you need to use the default for GW and RPA calculations. |
|      (for HF NCORE is supported but not extensively tested yet)             |
|                                                                             |
 ----------------------------------------------------------------------------- 

 POTCAR:   PAW_PBE Nb_sv 17Jan2003                
   VRHFIN =Nb: 4p5s4d                                                           
   LEXCH  = PE                                                                  
   EATOM  =  1555.1913 eV,  114.3033 Ry                                         
                                                                                
   TITEL  = PAW_PBE Nb_sv 17Jan2003                                             
   LULTRA =        F    use ultrasoft PP ?                                      
   IUNSCR =        1    unscreen: 0-lin 1-nonlin 2-no                           
   RPACOR =    1.800    partial core radius                                     
   POMASS =   92.910; ZVAL   =   13.000    mass and valenz                      
   RCORE  =    2.200    outmost cutoff radius                                   
   RWIGS  =    2.400; RWIGS  =    1.270    wigner-seitz radius (au A)           
   ENMAX  =  293.235; ENMIN  =  219.927 eV                                      
   RCLOC  =    1.411    cutoff for local pot                                    
   LCOR   =        T    correct aug charges                                     
   LPAW   =        T    paw PP                                                  
   EAUG   =  455.659                                                            
   DEXC   =     .000                                                            
   RMAX   =    2.693    core radius for proj-oper                               
   RAUG   =    1.300    factor for augmentation sphere                          
   RDEP   =    2.299    radius for radial grids                                 
   QCUT   =   -4.642; QGAM   =    9.285    optimization parameters              
                                                                                
   Description                                                                  
     l     E      TYP  RCUT    TYP  RCUT                                        
     0   .000     23  2.200                                                     
     0   .000     23  2.200                                                     
     0   .000     23  2.200                                                     
     0   .000     23  2.200                                                     
     1   .000     23  2.200                                                     
     1  1.000     23  2.200                                                     
     2   .000     23  2.200                                                     
     2   .000     23  2.200                                                     
     3   .000      7   .000                                                     
  local pseudopotential read in
  partial core-charges read in
  atomic valenz-charges read in
  non local Contribution for L=           0  read in
    real space projection operators read in
  non local Contribution for L=           0  read in
    real space projection operators read in
  non local Contribution for L=           1  read in
    real space projection operators read in
  non local Contribution for L=           1  read in
    real space projection operators read in
  non local Contribution for L=           2  read in
    real space projection operators read in
  non local Contribution for L=           2  read in
    real space projection operators read in
    PAW grid and wavefunctions read in
 
   number of l-projection  operators is LMAX  =           6
   number of lm-projection operators is LMMAX =          18
 
 POTCAR:   PAW_PBE W_pv 06Sep2000                 
   VRHFIN =W : 5p6s5d                                                           
   LEXCH  = PE                                                                  
   EATOM  =  1260.0376 eV,   92.6101 Ry                                         
                                                                                
   TITEL  = PAW_PBE W_pv 06Sep2000                                              
   LULTRA =        F    use ultrasoft PP ?                                      
   IUNSCR =        1    unscreen: 0-lin 1-nonlin 2-no                           
   RPACOR =    2.330    partial core radius                                     
   POMASS =  183.850; ZVAL   =   12.000    mass and valenz                      
   RCORE  =    2.500    outmost cutoff radius                                   
   RWIGS  =    2.750; RWIGS  =    1.455    wigner-seitz radius (au A)           
   ENMAX  =  223.065; ENMIN  =  167.299 eV                                      
   RCLOC  =    2.147    cutoff for local pot                                    
   LCOR   =        T    correct aug charges                                     
   LPAW   =        T    paw PP                                                  
   EAUG   =  373.438                                                            
   DEXC   =    -.018                                                            
   RMAX   =    3.087    core radius for proj-oper                               
   RAUG   =    1.300    factor for augmentation sphere                          
   RDEP   =    2.539    radius for radial grids                                 
   QCUT   =   -4.049; QGAM   =    8.098    optimization parameters              
                                                                                
   Description                                                                  
     l     E      TYP  RCUT    TYP  RCUT                                        
     1   .000     23  2.500                                                     
     1  -.200     23  2.500                                                     
     2   .000     23  2.500                                                     
     2   .000     23  2.500                                                     
     0   .000     23  2.500                                                     
     0   .000     23  2.500                                                     
     3   .000      7   .000                                                     
  local pseudopotential read in
  partial core-charges read in
  atomic valenz-charges read in
  non local Contribution for L=           1  read in
    real space projection operators read in
  non local Contribution for L=           1  read in
    real space projection operators read in
  non local Contribution for L=           2  read in
    real space projection operators read in
  non local Contribution for L=           2  read in
    real space projection operators read in
  non local Contribution for L=           0  read in
    real space projection operators read in
  non local Contribution for L=           0  read in
    real space projection operators read in
    PAW grid and wavefunctions read in
 
   number of l-projection  operators is LMAX  =           6
   number of lm-projection operators is LMMAX =          18
 
 POTCAR:   PAW_PBE Ti_sv 07Sep2000                
   VRHFIN =Ti: 3p4s3d                                                           
   LEXCH  = PE                                                                  
   EATOM  =  1587.5048 eV,  116.6783 Ry                                         
                                                                                
   TITEL  = PAW_PBE Ti_sv 07Sep2000                                             
   LULTRA =        F    use ultrasoft PP ?                                      
   IUNSCR =        1    unscreen: 0-lin 1-nonlin 2-no                           
   RPACOR =    2.000    partial core radius                                     
   POMASS =   47.880; ZVAL   =   12.000    mass and valenz                      
   RCORE  =    2.300    outmost cutoff radius                                   
   RWIGS  =    2.300; RWIGS  =    1.217    wigner-seitz radius (au A)           
   ENMAX  =  274.574; ENMIN  =  205.930 eV                                      
   RCLOC  =    1.701    cutoff for local pot                                    
   LCOR   =        T    correct aug charges                                     
   LPAW   =        T    paw PP                                                  
   EAUG   =  482.848                                                            
   DEXC   =     .000                                                            
   RMAX   =    2.783    core radius for proj-oper                               
   RAUG   =    1.300    factor for augmentation sphere                          
   RDEP   =    2.381    radius for radial grids                                 
   QCUT   =   -4.492; QGAM   =    8.985    optimization parameters              
                                                                                
   Description                                                                  
     l     E      TYP  RCUT    TYP  RCUT                                        
     0   .000     23  1.800                                                     
     0   .000     23  2.300                                                     
     0   .000     23  1.800                                                     
     0   .000     23  2.300                                                     
     1   .000     23  2.300                                                     
     1  -.100     23  2.300                                                     
     2   .000     23  2.300                                                     
     2   .000     23  2.300                                                     
     3   .000      7   .000                                                     
  local pseudopotential read in
  partial core-charges read in
  atomic valenz-charges read in
  non local Contribution for L=           0  read in
    real space projection operators read in
  non local Contribution for L=           0  read in
    real space projection operators read in
  non local Contribution for L=           1  read in
    real space projection operators read in
  non local Contribution for L=           1  read in
    real space projection operators read in
  non local Contribution for L=           2  read in
    real space projection operators read in
  non local Contribution for L=           2  read in
    real space projection operators read in
    PAW grid and wavefunctions read in
 
   number of l-projection  operators is LMAX  =           6
   number of lm-projection operators is LMMAX =          18
 
 POTCAR:   PAW_PBE N 08Apr2002                    
   VRHFIN =N: s2p3                                                              
   LEXCH  = PE                                                                  
   EATOM  =   264.5486 eV,   19.4438 Ry                                         
                                                                                
   TITEL  = PAW_PBE N 08Apr2002                                                 
   LULTRA =        F    use ultrasoft PP ?                                      
   IUNSCR =        0    unscreen: 0-lin 1-nonlin 2-no                           
   RPACOR =     .000    partial core radius                                     
   POMASS =   14.001; ZVAL   =    5.000    mass and valenz                      
   RCORE  =    1.500    outmost cutoff radius                                   
   RWIGS  =    1.400; RWIGS  =     .741    wigner-seitz radius (au A)           
   ENMAX  =  400.000; ENMIN  =  300.000 eV                                      
   ICORE  =        2    local potential                                         
   LCOR   =        T    correct aug charges                                     
   LPAW   =        T    paw PP                                                  
   EAUG   =  627.112                                                            
   DEXC   =     .000                                                            
   RMAX   =    2.247    core radius for proj-oper                               
   RAUG   =    1.300    factor for augmentation sphere                          
   RDEP   =    1.514    radius for radial grids                                 
   QCUT   =   -5.562; QGAM   =   11.124    optimization parameters              
                                                                                
   Description                                                                  
     l     E      TYP  RCUT    TYP  RCUT                                        
     0   .000     23  1.200                                                     
     0   .000     23  1.200                                                     
     1   .000     23  1.500                                                     
     1   .700     23  1.500                                                     
     2   .000      7  1.500                                                     
  local pseudopotential read in
  atomic valenz-charges read in
  non local Contribution for L=           0  read in
    real space projection operators read in
  non local Contribution for L=           0  read in
    real space projection operators read in
  non local Contribution for L=           1  read in
    real space projection operators read in
  non local Contribution for L=           1  read in
    real space projection operators read in
    PAW grid and wavefunctions read in
 
   number of l-projection  operators is LMAX  =           4
   number of lm-projection operators is LMMAX =           8
 
 POTCAR:   PAW_PBE C 08Apr2002                    
   VRHFIN =C: s2p2                                                              
   LEXCH  = PE                                                                  
   EATOM  =   147.1560 eV,   10.8157 Ry                                         
                                                                                
   TITEL  = PAW_PBE C 08Apr2002                                                 
   LULTRA =        F    use ultrasoft PP ?                                      
   IUNSCR =        0    unscreen: 0-lin 1-nonlin 2-no                           
   RPACOR =     .000    partial core radius                                     
   POMASS =   12.011; ZVAL   =    4.000    mass and valenz                      
   RCORE  =    1.500    outmost cutoff radius                                   
   RWIGS  =    1.630; RWIGS  =     .863    wigner-seitz radius (au A)           
   ENMAX  =  400.000; ENMIN  =  300.000 eV                                      
   ICORE  =        2    local potential                                         
   LCOR   =        T    correct aug charges                                     
   LPAW   =        T    paw PP                                                  
   EAUG   =  644.873                                                            
   DEXC   =     .000                                                            
   RMAX   =    2.266    core radius for proj-oper                               
   RAUG   =    1.300    factor for augmentation sphere                          
   RDEP   =    1.501    radius for radial grids                                 
   RDEPT  =    1.300    core radius for aug-charge                              
   QCUT   =   -5.516; QGAM   =   11.032    optimization parameters              
                                                                                
   Description                                                                  
     l     E      TYP  RCUT    TYP  RCUT                                        
     0   .000     23  1.200                                                     
     0   .000     23  1.200                                                     
     1   .000     23  1.500                                                     
     1  2.500     23  1.500                                                     
     2   .000      7  1.500                                                     
  local pseudopotential read in
  atomic valenz-charges read in
  non local Contribution for L=           0  read in
    real space projection operators read in
  non local Contribution for L=           0  read in
    real space projection operators read in
  non local Contribution for L=           1  read in
    real space projection operators read in
  non local Contribution for L=           1  read in
    real space projection operators read in
    PAW grid and wavefunctions read in
 
   number of l-projection  operators is LMAX  =           4
   number of lm-projection operators is LMMAX =           8
 
 POTCAR:   PAW_PBE Cr_pv 07Sep2000                
   VRHFIN =Cr : p6d5s1                                                          
   LEXCH  = PE                                                                  
   EATOM  =  1647.5667 eV,  121.0927 Ry                                         
                                                                                
   TITEL  = PAW_PBE Cr_pv 07Sep2000                                             
   LULTRA =        F    use ultrasoft PP ?                                      
   IUNSCR =        1    unscreen: 0-lin 1-nonlin 2-no                           
   RPACOR =    2.080    partial core radius                                     
   POMASS =   51.996; ZVAL   =   12.000    mass and valenz                      
   RCORE  =    2.300    outmost cutoff radius                                   
   RWIGS  =    2.500; RWIGS  =    1.323    wigner-seitz radius (au A)           
   ENMAX  =  265.683; ENMIN  =  199.262 eV                                      
   RCLOC  =    1.721    cutoff for local pot                                    
   LCOR   =        T    correct aug charges                                     
   LPAW   =        T    paw PP                                                  
   EAUG   =  519.424                                                            
   DEXC   =    -.003                                                            
   RMAX   =    2.829    core radius for proj-oper                               
   RAUG   =    1.300    factor for augmentation sphere                          
   RDEP   =    2.447    radius for radial grids                                 
   QCUT   =   -4.419; QGAM   =    8.838    optimization parameters              
                                                                                
   Description                                                                  
     l     E      TYP  RCUT    TYP  RCUT                                        
     1   .000     23  2.000                                                     
     1   .100     23  2.000                                                     
     2   .000     23  2.300                                                     
     2   .000     23  2.300                                                     
     0   .000     23  2.300                                                     
     0   .000     23  2.300                                                     
     3   .000      7   .000                                                     
  local pseudopotential read in
  partial core-charges read in
  atomic valenz-charges read in
  non local Contribution for L=           1  read in
    real space projection operators read in
  non local Contribution for L=           1  read in
    real space projection operators read in
  non local Contribution for L=           2  read in
    real space projection operators read in
  non local Contribution for L=           2  read in
    real space projection operators read in
  non local Contribution for L=           0  read in
    real space projection operators read in
  non local Contribution for L=           0  read in
    real space projection operators read in
    PAW grid and wavefunctions read in
 
   number of l-projection  operators is LMAX  =           6
   number of lm-projection operators is LMMAX =          18
 
 POTCAR:   PAW_PBE Mo 08Apr2002                   
   VRHFIN =Mo: 4p5s4d                                                           
   LEXCH  = PE                                                                  
   EATOM  =   217.5180 eV,   15.9871 Ry                                         
                                                                                
   TITEL  = PAW_PBE Mo 08Apr2002                                                
   LULTRA =        F    use ultrasoft PP ?                                      
   IUNSCR =        1    unscreen: 0-lin 1-nonlin 2-no                           
   RPACOR =    2.200    partial core radius                                     
   POMASS =   95.940; ZVAL   =    6.000    mass and valenz                      
   RCORE  =    2.750    outmost cutoff radius                                   
   RWIGS  =    2.750; RWIGS  =    1.455    wigner-seitz radius (au A)           
   ENMAX  =  224.584; ENMIN  =  168.438 eV                                      
   RCLOC  =    2.111    cutoff for local pot                                    
   LCOR   =        T    correct aug charges                                     
   LPAW   =        T    paw PP                                                  
   EAUG   =  345.278                                                            
   DEXC   =    -.088                                                            
   RMAX   =    3.077    core radius for proj-oper                               
   RAUG   =    1.300    factor for augmentation sphere                          
   RDEP   =    2.815    radius for radial grids                                 
   QCUT   =   -4.063; QGAM   =    8.126    optimization parameters              
                                                                                
   Description                                                                  
     l     E      TYP  RCUT    TYP  RCUT                                        
     2   .000     23  2.500                                                     
     2   .000     23  2.500                                                     
     0   .000     23  2.600                                                     
     0  1.000     23  2.600                                                     
     1   .400     23  2.750                                                     
     1  2.000     23  2.750                                                     
     3   .000      7   .000                                                     
  local pseudopotential read in
  partial core-charges read in
  atomic valenz-charges read in
  non local Contribution for L=           2  read in
    real space projection operators read in
  non local Contribution for L=           2  read in
    real space projection operators read in
  non local Contribution for L=           0  read in
    real space projection operators read in
  non local Contribution for L=           0  read in
    real space projection operators read in
  non local Contribution for L=           1  read in
    real space projection operators read in
  non local Contribution for L=           1  read in
    real space projection operators read in
    PAW grid and wavefunctions read in
 
   number of l-projection  operators is LMAX  =           6
   number of lm-projection operators is LMMAX =          18
 

 ----------------------------------------------------------------------------- 
|                                                                             |
|  ADVICE TO THIS USER RUNNING 'VASP/VAMP'   (HEAR YOUR MASTER'S VOICE ...):  |
|                                                                             |
|      You have a (more or less) 'large supercell' and for larger cells       |
|      it might be more efficient to use real space projection operators      |
|      So try LREAL= Auto  in the INCAR   file.                               |
|      Mind: If you want to do a very accurate calculations keep the          |
|      reciprocal projection scheme          (i.e. LREAL=.FALSE.)             |
|                                                                             |
 ----------------------------------------------------------------------------- 

 PAW_PBE Nb_sv 17Jan2003                :
 energy of atom  1       EATOM=-1555.1913
 kinetic energy error for atom=    0.0212 (will be added to EATOM!!)
 PAW_PBE W_pv 06Sep2000                 :
 energy of atom  2       EATOM=-1260.0376
 kinetic energy error for atom=    0.0051 (will be added to EATOM!!)
 PAW_PBE Ti_sv 07Sep2000                :
 energy of atom  3       EATOM=-1587.5048
 kinetic energy error for atom=    0.0139 (will be added to EATOM!!)
 PAW_PBE N 08Apr2002                    :
 energy of atom  4       EATOM= -264.5486
 kinetic energy error for atom=    0.0736 (will be added to EATOM!!)
 PAW_PBE C 08Apr2002                    :
 energy of atom  5       EATOM= -147.1560
 kinetic energy error for atom=    0.0288 (will be added to EATOM!!)
 PAW_PBE Cr_pv 07Sep2000                :
 energy of atom  6       EATOM=-1647.5667
 kinetic energy error for atom=    0.0284 (will be added to EATOM!!)
 PAW_PBE Mo 08Apr2002                   :
 energy of atom  7       EATOM= -217.5180
 kinetic energy error for atom=    0.0025 (will be added to EATOM!!)
 
 
 POSCAR: 115-TiNbCrMoW                           
  positions in direct lattice
  velocities in cartesian coordinates
 exchange correlation table for  LEXCH =        8
   RHO(1)=    0.500       N(1)  =     2000
   RHO(2)=  100.500       N(2)  =     4000
 


--------------------------------------------------------------------------------------------------------


 ion  position               nearest neighbor table
   1  0.007  0.997  0.989-  29 2.15  38 2.19  22 2.21  23 2.21  34 2.24  25 2.27  56 2.67  10 2.95
                            59 3.02   9 3.03  12 3.04  58 3.08   8 3.13
   2  0.255  0.994  0.253-  36 2.10  26 2.13  21 2.23  22 2.23  34 2.27  43 2.28  57 2.82  61 2.95
                            59 2.96   8 3.08
   3  0.251  0.507  0.245-  41 2.11  36 2.13  37 2.16  27 2.18  46 2.22  21 2.24  55 2.95  62 3.03
                            59 3.14
   4  0.504  0.493  0.998-  35 2.12  41 2.17  52 2.19  40 2.25  37 2.26  28 2.28  63 2.94  60 2.98
                            13 3.04   9 3.15
   5  0.503  0.242  0.750-  33 2.10  42 2.13  35 2.19  30 2.21  32 2.22  52 2.25  53 2.79  58 2.85
                            57 3.08  13 3.13  11 3.22  63 3.23  62 3.24
   6  0.003  0.501  0.507-  46 2.15  48 2.18  44 2.18  47 2.19  50 2.20  27 2.23  12 2.98  11 2.99
                            64 2.99  13 3.05  10 3.11  63 3.13   8 3.18  59 3.21  60 3.22
   7  0.502  0.760  0.740-  33 2.09  51 2.16  45 2.19  49 2.20  28 2.22  52 2.25  58 2.80  63 2.99
                            57 3.00  64 3.01  62 3.04  13 3.09   9 3.19
   8  0.992  0.233  0.259-  34 2.03  44 2.13  24 2.14  23 2.21  27 2.22  21 2.23  11 2.78  61 2.88
                            16 3.06   2 3.08  17 3.12   1 3.13  19 3.14   6 3.18  60 3.26
   9  0.764  0.747  0.997-  38 2.14  39 2.16  25 2.18  40 2.19  49 2.20  28 2.25  54 2.76  63 2.83
                            58 2.87  12 2.94  59 3.01   1 3.03  60 3.08  16 3.13   4 3.15   7 3.19
  10  0.016  0.234  0.746-  42 2.09  44 2.11  29 2.16  48 2.19  30 2.23  23 2.26  56 2.59  19 2.94
                             1 2.95  61 2.96  14 2.97   6 3.11  13 3.13  17 3.16  11 3.18  54 3.22
  11  0.762  0.256  0.483-  50 2.07  24 2.11  44 2.14  31 2.16  32 2.22  30 2.29   8 2.78  60 2.94
                             6 2.99  16 3.02  15 3.04  61 3.11  10 3.18  62 3.20   5 3.22  63 3.36
  12  0.003  0.736  0.756-  45 2.14  49 2.16  38 2.17  48 2.17  29 2.20  47 2.20  54 2.66  63 2.89
                             9 2.94  13 2.96   6 2.98  56 3.04   1 3.04  18 3.08  20 3.08  64 3.14
  13  0.254  0.504  0.753-  37 2.12  52 2.14  46 2.19  48 2.21  45 2.23  42 2.23  12 2.96  54 2.99
                             4 3.04  14 3.04   6 3.05  18 3.06  20 3.07  62 3.08  19 3.08   7 3.09
  14  0.252  0.249  0.994-  42 2.12  22 2.14  35 2.16  23 2.17  37 2.20  21 2.23  56 2.89  53 2.96
                            10 2.97  13 3.04
  15  0.502  0.246  0.249-  24 2.11  26 2.12  32 2.12  35 2.15  21 2.18  41 2.22  53 3.00  60 3.00
                            57 3.01  11 3.04  62 3.14
  16  0.735  0.991  0.260-  31 2.03  26 2.03  39 2.13  24 2.17  25 2.23  34 2.24  59 3.00  55 3.01
                            57 3.02  11 3.02  64 3.03   8 3.06   9 3.13  61 3.20
  17  0.748  0.245  0.995-  35 2.13  24 2.14  25 2.17  40 2.18  30 2.18  23 2.19  53 2.82  58 2.86
                             8 3.12  63 3.12  10 3.16  60 3.20
  18  0.259  0.754  1.000-  28 2.12  38 2.15  22 2.16  45 2.16  36 2.17  37 2.19  13 3.06  12 3.08
                            59 3.14
  19  0.256  0.250  0.506-  42 2.11  44 2.15  32 2.16  43 2.16  46 2.19  21 2.22  57 2.87  10 2.94
                            61 2.99  13 3.08  62 3.10   8 3.14
  20  0.251  0.752  0.500-  47 2.15  51 2.15  43 2.17  36 2.17  46 2.18  45 2.18  57 2.90  55 2.93
                            62 2.97  61 2.97  59 3.07  13 3.07  12 3.08
  21  0.249  0.250  0.251-  15 2.18  19 2.22   2 2.23   8 2.23  14 2.23   3 2.24
  22  0.262  0.003  0.996-  56 2.06  14 2.14  53 2.16  18 2.16   1 2.21   2 2.23
  23  0.001  0.250  0.005-  14 2.17  17 2.19   1 2.21   8 2.21  10 2.26  54 2.39
  24  0.745  0.240  0.242-  11 2.11  15 2.11  17 2.14   8 2.14  16 2.17  60 2.31
  25  0.745  0.996  0.004-  58 1.92  53 2.06  17 2.17   9 2.18  16 2.23   1 2.27
  26  0.501  0.003  0.243-  16 2.03  15 2.12   2 2.13  57 2.18  53 2.24  55 2.37
  27  0.999  0.488  0.251-   3 2.18   8 2.22   6 2.23  60 2.32  54 2.41  59 2.43
  28  0.504  0.755  0.996-  18 2.12   7 2.22   9 2.25   4 2.28  53 2.34  55 2.44
  29  0.986  0.988  0.742-  56 2.01   1 2.15  61 2.15  10 2.16  12 2.20  58 2.35
  30  0.759  0.228  0.745-  58 2.08  17 2.18   5 2.21  10 2.23  11 2.29  63 2.55
  31  0.743  0.008  0.493-  16 2.03  11 2.16  57 2.33  61 2.37  64 2.38
  32  0.505  0.245  0.494-  15 2.12  57 2.14  19 2.16   5 2.22  11 2.22  62 2.33
  33  0.494  0.001  0.748-  58 1.96  53 2.08   7 2.09   5 2.10  57 2.23  56 2.41
  34  0.993  1.000  0.247-  59 2.02   8 2.03  61 2.18  16 2.24   1 2.24   2 2.27
  35  0.502  0.249  0.002-  53 1.96   4 2.12  17 2.13  15 2.15  14 2.16   5 2.19
  36  0.260  0.752  0.250-   2 2.10   3 2.13  55 2.13  20 2.17  18 2.17  59 2.26
  37  0.244  0.502  0.997-  13 2.12   3 2.16  18 2.19  14 2.20  54 2.21   4 2.26
  38  0.011  0.745  0.005-  54 1.95   9 2.14  59 2.15  18 2.15  12 2.17   1 2.19
  39  0.741  0.747  0.246-  55 2.07  60 2.11  16 2.13   9 2.16  64 2.18  59 2.24
  40  0.764  0.495  0.010-  54 2.00  63 2.15  60 2.15  17 2.18   9 2.19   4 2.25
  41  0.495  0.502  0.247-  55 2.02  60 2.05   3 2.11  62 2.14   4 2.17  15 2.22
  42  0.257  0.247  0.750-  56 2.07  10 2.09  19 2.11  14 2.12   5 2.13  13 2.23
  43  0.256  0.001  0.515-  57 1.90  61 2.08  19 2.16  20 2.17  56 2.18   2 2.28
  44  0.008  0.250  0.504-  10 2.11   8 2.13  11 2.14  19 2.15  61 2.15   6 2.18
  45  0.249  0.760  0.751-  12 2.14  18 2.16  20 2.18   7 2.19  56 2.22  13 2.23
  46  0.251  0.501  0.501-  62 2.13   6 2.15  20 2.18  19 2.19  13 2.19   3 2.22
  47  0.002  0.753  0.503-  20 2.15  61 2.17  64 2.19  59 2.19   6 2.19  12 2.20
  48  0.999  0.486  0.758-  54 1.93  12 2.17   6 2.18  63 2.19  10 2.19  13 2.21
  49  0.756  0.770  0.745-  58 2.01  12 2.16  63 2.17  64 2.18   9 2.20   7 2.20
  50  0.748  0.493  0.510-  11 2.07  64 2.11  62 2.19   6 2.20  60 2.22  63 2.22
  51  0.499  0.765  0.491-  55 1.89  57 2.06  20 2.15   7 2.16  64 2.19  62 2.19
  52  0.502  0.502  0.746-  13 2.14  63 2.15   4 2.19  62 2.20   7 2.25   5 2.25
  53  0.510  0.024  0.986-  35 1.96  25 2.06  33 2.08  22 2.16  26 2.24  28 2.34  58 2.52   5 2.79
                            17 2.82  14 2.96  15 3.00   9 3.26
  54  0.991  0.523  0.976-  48 1.93  38 1.95  40 2.00  37 2.21  23 2.39  27 2.41  12 2.66   9 2.76
                            63 2.79  13 2.99  59 3.21  10 3.22  60 3.30
  55  0.504  0.732  0.276-  51 1.89  41 2.02  39 2.07  36 2.13  26 2.37  28 2.44  62 2.67  60 2.79
                            64 2.87  20 2.93   3 2.95  57 3.01  16 3.01   9 3.30
  56  0.216  0.013  0.763-  29 2.01  22 2.06  42 2.07  43 2.18  45 2.22  33 2.41  10 2.59   1 2.67
                            14 2.89  61 2.90  12 3.04
  57  0.474  0.000  0.492-  43 1.90  51 2.06  32 2.14  26 2.18  33 2.23  31 2.33   2 2.82  19 2.87
                            20 2.90   7 3.00  15 3.01  55 3.01  16 3.02   5 3.08  64 3.32
  58  0.717  0.996  0.784-  25 1.92  33 1.96  49 2.01  30 2.08  29 2.35  53 2.52   7 2.80   5 2.85
                            17 2.86   9 2.87   1 3.08  10 3.33
  59  0.999  0.768  0.252-  34 2.02  38 2.15  47 2.19  39 2.24  36 2.26  27 2.43  61 2.96   2 2.96
                            16 3.00   9 3.01   1 3.02  64 3.04  20 3.07  18 3.14   3 3.14   6 3.21
  60  0.731  0.505  0.255-  41 2.05  39 2.11  40 2.15  50 2.22  24 2.31  27 2.32  55 2.79  62 2.89
                            64 2.91  11 2.94   4 2.98  15 3.00   9 3.08  17 3.20   6 3.22  59 3.26
  61  0.016  0.003  0.497-  43 2.08  44 2.15  29 2.15  47 2.17  34 2.18  31 2.37   8 2.88  56 2.90
                             2 2.95  59 2.96  10 2.96  20 2.97  19 2.99  11 3.11  16 3.20  12 3.23
  62  0.497  0.513  0.493-  46 2.13  41 2.14  51 2.19  50 2.19  52 2.20  32 2.33  55 2.67  60 2.89
                            64 2.92  20 2.97   3 3.03   7 3.04  13 3.08  19 3.10  15 3.14  11 3.20
  63  0.749  0.521  0.764-  40 2.15  52 2.15  49 2.17  48 2.19  50 2.22  30 2.55  54 2.79   9 2.83
                            12 2.89   4 2.94  64 2.97   7 2.99  17 3.12   6 3.13  62 3.22   5 3.23
  64  0.750  0.735  0.497-  50 2.11  49 2.18  39 2.18  51 2.19  47 2.19  31 2.38  55 2.87  60 2.91
                            62 2.92  63 2.97   6 2.99   7 3.01  16 3.03  59 3.04  12 3.14  61 3.28
 
  LATTYP: Found a triclinic cell.
 ALAT       =     8.6906500993
 B/A-ratio  =     1.4112898607
 C/A-ratio  =     1.7336431895
 COS(alpha) =     0.0000465415
 COS(beta)  =     0.5795542850
 COS(gamma) =     0.7063209111
  
  Lattice vectors:
  
 A1 = (  -0.0096530320,  -8.6906183742,  -0.0214065733)
 A2 = (   0.0205261138,  -8.6844323790,   8.6608939920)
 A3 = (  -8.6922889211,  -8.7007870381,  -8.7028403051)


Analysis of symmetry for initial positions (statically):
=====================================================================
 Subroutine PRICEL returns:
 Original cell was already a primitive cell.
 

 Routine SETGRP: Setting up the symmetry group for a 
 triclinic supercell.


 Subroutine GETGRP returns: Found  1 space group operations
 (whereof  1 operations were pure point group operations)
 out of a pool of  2 trial point group operations.


The static configuration has the point symmetry C_1 .


Analysis of symmetry for dynamics (positions and initial velocities):
=====================================================================
 Subroutine PRICEL returns:
 Original cell was already a primitive cell.
 

 Routine SETGRP: Setting up the symmetry group for a 
 triclinic supercell.


 Subroutine GETGRP returns: Found  1 space group operations
 (whereof  1 operations were pure point group operations)
 out of a pool of  2 trial point group operations.


The dynamic configuration has the point symmetry C_1 .


 Subroutine INISYM returns: Found  1 space group operations
 (whereof  1 operations are pure point group operations),
 and found     1 'primitive' translations

 
 
 KPOINTS: HECN                                    

Automatic generation of k-mesh.
Space group operators:
 irot       det(A)        alpha          n_x          n_y          n_z        tau_x        tau_y        tau_z
    1     1.000000     0.000001     1.000000     0.000000     0.000000     0.000000     0.000000     0.000000
 
 Subroutine IBZKPT returns following result:
 ===========================================
 
 Found     14 irreducible k-points:
 
 Following reciprocal coordinates:
            Coordinates               Weight
  0.000000  0.000000  0.000000      1.000000
  0.333333  0.000000  0.000000      2.000000
 -0.000000  0.333333  0.000000      2.000000
  0.333333  0.333333  0.000000      2.000000
 -0.333333  0.333333  0.000000      2.000000
 -0.000000  0.000000  0.333333      2.000000
  0.333333  0.000000  0.333333      2.000000
 -0.333333 -0.000000  0.333333      2.000000
 -0.000000  0.333333  0.333333      2.000000
  0.333333  0.333333  0.333333      2.000000
 -0.333333  0.333333  0.333333      2.000000
 -0.000000 -0.333333  0.333333      2.000000
  0.333333 -0.333333  0.333333      2.000000
 -0.333333 -0.333333  0.333333      2.000000
 
 Following cartesian coordinates:
            Coordinates               Weight
  0.000000  0.000000  0.000000      1.000000
  0.038525 -0.000042 -0.000134      2.000000
 -0.000018  0.038356 -0.000027      2.000000
  0.038507  0.038313 -0.000161      2.000000
 -0.038542  0.038398  0.000107      2.000000
  0.000004 -0.000095  0.038392      2.000000
  0.038529 -0.000137  0.038258      2.000000
 -0.038521 -0.000052  0.038526      2.000000
 -0.000014  0.038261  0.038365      2.000000
  0.038511  0.038219  0.038231      2.000000
 -0.038538  0.038304  0.038499      2.000000
  0.000022 -0.038450  0.038420      2.000000
  0.038546 -0.038493  0.038286      2.000000
 -0.038503 -0.038408  0.038553      2.000000
 


--------------------------------------------------------------------------------------------------------




 Dimension of arrays:
   k-points           NKPTS =     14   k-points in BZ     NKDIM =     14   number of bands    NBANDS=    312
   number of dos      NEDOS =    301   number of ions     NIONS =     64
   non local maximal  LDIM  =      6   non local SUM 2l+1 LMDIM =     18
   total plane-waves  NPLWV =  84672
   max r-space proj   IRMAX =      1   max aug-charges    IRDMAX=   8525
   dimension x,y,z NGX =    42 NGY =   48 NGZ =   42
   dimension x,y,z NGXF=    84 NGYF=   96 NGZF=   84
   support grid    NGXF=    84 NGYF=   96 NGZF=   84
   ions per type =               7   6   7  13  19   6   6
   NGX,Y,Z   is equivalent  to a cutoff of   8.07,  9.18,  8.04 a.u.
   NGXF,Y,Z  is equivalent  to a cutoff of  16.14, 18.36, 16.08 a.u.

 SYSTEM =  HECN                                    
 POSCAR =  115-TiNbCrMoW                           

 Startparameter for this run:
   NWRITE =      2    write-flag & timer
   PREC   = normal    normal or accurate (medium, high low for compatibility)
   ISTART =      0    job   : 0-new  1-cont  2-samecut
   ICHARG =      2    charge: 1-file 2-atom 10-const
   ISPIN  =      1    spin polarized calculation?
   LNONCOLLINEAR =      F non collinear calculations
   LSORBIT =      F    spin-orbit coupling
   INIWAV =      1    electr: 0-lowe 1-rand  2-diag
   LASPH  =      F    aspherical Exc in radial PAW
   METAGGA=      F    non-selfconsistent MetaGGA calc.

 Electronic Relaxation 1
   ENCUT  =  400.0 eV  29.40 Ry    5.42 a.u.  14.11 14.17 14.16*2*pi/ulx,y,z
   ENINI  =  400.0     initial cutoff
   ENAUG  =  644.9 eV  augmentation charge cutoff
   NELM   =     60;   NELMIN=  2; NELMDL= -5     # of ELM steps 
   EDIFF  = 0.1E-04   stopping-criterion for ELM
   LREAL  =      F    real-space projection
   NLSPLINE    = F    spline interpolate recip. space projectors
   LCOMPAT=      F    compatible to vasp.4.4
   GGA_COMPAT  = T    GGA compatible to vasp.4.4-vasp.4.6
   LMAXPAW     = -100 max onsite density
   LMAXMIX     =    2 max onsite mixed and CHGCAR
   VOSKOWN=      0    Vosko Wilk Nusair interpolation
   ROPT   =    0.00000   0.00000   0.00000   0.00000
   ROPT   =    0.00000   0.00000   0.00000
 Ionic relaxation
   EDIFFG = -.1E-01   stopping-criterion for IOM
   NSW    =    100    number of steps for IOM
   NBLOCK =      1;   KBLOCK =    100    inner block; outer block 
   IBRION =      2    ionic relax: 0-MD 1-quasi-New 2-CG
   NFREE  =      1    steps in history (QN), initial steepest desc. (CG)
   ISIF   =      3    stress and relaxation
   IWAVPR =     11    prediction:  0-non 1-charg 2-wave 3-comb
   ISYM   =      2    0-nonsym 1-usesym 2-fastsym
   LCORR  =      T    Harris-Foulkes like correction to forces

   POTIM  = 0.5000    time-step for ionic-motion
   TEIN   =    0.0    initial temperature
   TEBEG  =    0.0;   TEEND  =   0.0 temperature during run
   SMASS  =  -3.00    Nose mass-parameter (am)
   estimated Nose-frequenzy (Omega)   =  0.10E-29 period in steps =****** mass=  -0.171E-26a.u.
   SCALEE = 1.0000    scale energy and forces
   NPACO  =    256;   APACO  = 16.0  distance and # of slots for P.C.
   PSTRESS=    0.0 pullay stress

  Mass of Ions in am
   POMASS =  92.91183.85 47.88 14.00 12.01 52.00 95.94
  Ionic Valenz
   ZVAL   =  13.00 12.00 12.00  5.00  4.00 12.00  6.00
  Atomic Wigner-Seitz radii
   RWIGS  =  -1.00 -1.00 -1.00 -1.00 -1.00 -1.00 -1.00
  virtual crystal weights 
   VCA    =   1.00  1.00  1.00  1.00  1.00  1.00  1.00
   NELECT =     496.0000    total number of electrons
   NUPDOWN=      -1.0000    fix difference up-down

 DOS related values:
   EMIN   =  10.00;   EMAX   =-10.00  energy-range for DOS
   EFERMI =   0.00
   ISMEAR =     0;   SIGMA  =   0.10  broadening in eV -4-tet -1-fermi 0-gaus

 Electronic relaxation 2 (details)
   IALGO  =     68    algorithm
   LDIAG  =      T    sub-space diagonalisation (order eigenvalues)
   LSUBROT=      F    optimize rotation matrix (better conditioning)
   TURBO    =      0    0=normal 1=particle mesh
   IRESTART =      0    0=no restart 2=restart with 2 vectors
   NREBOOT  =      0    no. of reboots
   NMIN     =      0    reboot dimension
   EREF     =   0.00    reference energy to select bands
   IMIX   =      4    mixing-type and parameters
     AMIX     =   0.40;   BMIX     =  1.00
     AMIX_MAG =   1.60;   BMIX_MAG =  1.00
     AMIN     =   0.10
     WC   =   100.;   INIMIX=   1;  MIXPRE=   1;  MAXMIX= -45

 Intra band minimization:
   WEIMIN = 0.0010     energy-eigenvalue tresh-hold
   EBREAK =  0.80E-08  absolut break condition
   DEPER  =   0.30     relativ break condition  

   TIME   =   0.40     timestep for ELM

  volume/ion in A,a.u.               =      10.20        68.84
  Fermi-wavevector in a.u.,A,eV,Ry     =   1.493805  2.822883 30.360782  2.231455
  Thomas-Fermi vector in A             =   2.606159
 
 Write flags
   LWAVE        =      F    write WAVECAR
   LDOWNSAMPLE  =      F    k-point downsampling of WAVECAR
   LCHARG       =      F    write CHGCAR
   LVTOT        =      F    write LOCPOT, total local potential
   LVHAR        =      F    write LOCPOT, Hartree potential only
   LELF         =      F    write electronic localiz. function (ELF)
   LORBIT       =      0    0 simple, 1 ext, 2 COOP (PROOUT), +10 PAW based schemes


 Dipole corrections
   LMONO  =      F    monopole corrections only (constant potential shift)
   LDIPOL =      F    correct potential (dipole corrections)
   IDIPOL =      0    1-x, 2-y, 3-z, 4-all directions 
   EPSILON=  1.0000000 bulk dielectric constant

 Exchange correlation treatment:
   GGA     =    --    GGA type
   LEXCH   =     8    internal setting for exchange type
   VOSKOWN=      0    Vosko Wilk Nusair interpolation
   LHFCALC =     F    Hartree Fock is set to
   LHFONE  =     F    Hartree Fock one center treatment
   AEXX    =    0.0000 exact exchange contribution

 Linear response parameters
   LEPSILON=     F    determine dielectric tensor
   LRPA    =     F    only Hartree local field effects (RPA)
   LNABLA  =     F    use nabla operator in PAW spheres
   LVEL    =     F    velocity operator in full k-point grid
   LINTERFAST=   F  fast interpolation
   KINTER  =     0    interpolate to denser k-point grid
   CSHIFT  =0.1000    complex shift for real part using Kramers Kronig
   OMEGAMAX=  -1.0    maximum frequency
   DEG_THRESHOLD= 0.2000000E-02 threshold for treating states as degnerate
   RTIME   =   -0.100 relaxation time in fs
  (WPLASMAI=    0.000 imaginary part of plasma frequency in eV, 0.658/RTIME)
   DFIELD  = 0.0000000 0.0000000 0.0000000 field for delta impulse in time
 
 Orbital magnetization related:
   ORBITALMAG=     F  switch on orbital magnetization
   LCHIMAG   =     F  perturbation theory with respect to B field
   DQ        =  0.001000  dq finite difference perturbation B field
   LLRAUG    =     F  two centre corrections for induced B field



--------------------------------------------------------------------------------------------------------


 conjugate gradient relaxation of ions
 charge density and potential will be updated during run
 non-spin polarized calculation
 RMM-DIIS sequential band-by-band and
  variant of blocked Davidson during initial phase
 perform sub-space diagonalisation
    before iterative eigenvector-optimisation
 modified Broyden-mixing scheme, WC =      100.0
 initial mixing is a Kerker type mixing with AMIX =  0.4000 and BMIX =      1.0000
 Hartree-type preconditioning will be used
 using additional bands           64
 reciprocal scheme for non local part
 use partial core corrections
 calculate Harris-corrections to forces 
   (improved forces if not selfconsistent)
 use gradient corrections 
 use of overlap-Matrix (Vanderbilt PP)
 Gauss-broadening in eV      SIGMA  =   0.10


--------------------------------------------------------------------------------------------------------


  energy-cutoff  :      400.00
  volume of cell :      652.87
      direct lattice vectors                 reciprocal lattice vectors
     8.652456743  0.003982669 -0.000866834     0.115574130 -0.000127384 -0.000401638
     0.009653032  8.690618374  0.021406573    -0.000052973  0.115066871 -0.000081799
     0.030179146  0.006185995  8.682300565     0.000011669 -0.000283715  0.115177008

  length of vectors
     8.652457703  8.690650099  8.682355219     0.115574898  0.115066912  0.115177358


 
 k-points in units of 2pi/SCALE and weight: HECN                                    
   0.00000000  0.00000000  0.00000000       0.037
   0.03852471 -0.00004246 -0.00013388       0.074
  -0.00001766  0.03835562 -0.00002727       0.074
   0.03850705  0.03831316 -0.00016115       0.074
  -0.03854237  0.03839808  0.00010661       0.074
   0.00000389 -0.00009457  0.03839234       0.074
   0.03852860 -0.00013703  0.03825846       0.074
  -0.03852082 -0.00005211  0.03852622       0.074
  -0.00001377  0.03826105  0.03836507       0.074
   0.03851094  0.03821859  0.03823119       0.074
  -0.03853848  0.03830351  0.03849895       0.074
   0.00002155 -0.03845020  0.03841960       0.074
   0.03854626 -0.03849266  0.03828572       0.074
  -0.03850316 -0.03840773  0.03855348       0.074
 
 k-points in reciprocal lattice and weights: HECN                                    
   0.00000000  0.00000000  0.00000000       0.037
   0.33333333  0.00000000  0.00000000       0.074
  -0.00000000  0.33333333  0.00000000       0.074
   0.33333333  0.33333333  0.00000000       0.074
  -0.33333333  0.33333333  0.00000000       0.074
  -0.00000000  0.00000000  0.33333333       0.074
   0.33333333  0.00000000  0.33333333       0.074
  -0.33333333 -0.00000000  0.33333333       0.074
  -0.00000000  0.33333333  0.33333333       0.074
   0.33333333  0.33333333  0.33333333       0.074
  -0.33333333  0.33333333  0.33333333       0.074
  -0.00000000 -0.33333333  0.33333333       0.074
   0.33333333 -0.33333333  0.33333333       0.074
  -0.33333333 -0.33333333  0.33333333       0.074
 
 position of ions in fractional coordinates (direct lattice) 
   0.00678717  0.99665953  0.98903377
   0.25504630  0.99374165  0.25297138
   0.25066892  0.50726421  0.24529854
   0.50441896  0.49291940  0.99761933
   0.50297629  0.24228342  0.74974015
   0.00266548  0.50075338  0.50723983
   0.50153281  0.76033982  0.73987495
   0.99191265  0.23307244  0.25930712
   0.76370834  0.74650388  0.99733712
   0.01604238  0.23422963  0.74629614
   0.76184557  0.25633236  0.48310609
   0.00298523  0.73584359  0.75575237
   0.25435519  0.50410556  0.75288970
   0.25216881  0.24884153  0.99374829
   0.50152436  0.24644020  0.24917359
   0.73467544  0.99134312  0.25982992
   0.74833118  0.24543016  0.99517178
   0.25932461  0.75393279  0.99974841
   0.25625072  0.24976564  0.50618129
   0.25055683  0.75226376  0.49989360
   0.24925564  0.24986019  0.25091461
   0.26175817  0.00259025  0.99609485
   0.00146356  0.25038790  0.00525244
   0.74488767  0.23973934  0.24173164
   0.74510489  0.99627221  0.00376144
   0.50097141  0.00286094  0.24260339
   0.99900449  0.48817817  0.25097624
   0.50405899  0.75482651  0.99602662
   0.98597502  0.98776836  0.74242176
   0.75853913  0.22824583  0.74516861
   0.74281655  0.00839869  0.49260371
   0.50533685  0.24487547  0.49373186
   0.49412983  0.00067332  0.74824868
   0.99263973  0.99995161  0.24666518
   0.50213337  0.24924192  0.00186573
   0.25975378  0.75175481  0.25021408
   0.24381358  0.50188836  0.99684119
   0.01067822  0.74473211  0.00507151
   0.74086675  0.74670813  0.24569475
   0.76360108  0.49485669  0.00966267
   0.49493981  0.50160765  0.24695084
   0.25677422  0.24730764  0.74969372
   0.25554273  0.00103698  0.51548836
   0.00803658  0.25033006  0.50357503
   0.24917013  0.76020977  0.75108100
   0.25124548  0.50118606  0.50113602
   0.00187534  0.75316775  0.50321988
   0.99949088  0.48567118  0.75751500
   0.75560520  0.77041113  0.74540291
   0.74838709  0.49283921  0.50983167
   0.49885040  0.76493899  0.49109785
   0.50178901  0.50167575  0.74556516
   0.50984549  0.02433527  0.98556235
   0.99051174  0.52327424  0.97584132
   0.50422789  0.73217024  0.27577188
   0.21628358  0.01295852  0.76312603
   0.47393480  0.00043704  0.49243276
   0.71726069  0.99566884  0.78390908
   0.99875434  0.76777547  0.25166044
   0.73124792  0.50472187  0.25521744
   0.01636166  0.00288012  0.49665882
   0.49650063  0.51315108  0.49268956
   0.74895897  0.52127281  0.76390398
   0.74983984  0.73509522  0.49690470
 
 position of ions in cartesian coordinates  (Angst):
   0.09819471  8.66773281  8.60841763
   2.22400418  8.63881008  2.21742506
   2.18120156  4.41095544  2.14039719
   4.39932873  4.29195462  8.67174531
   4.37694587  2.11223386  6.51421982
   0.04320476  4.35500489  4.41472578
   4.36915932  6.61439750  6.43965825
   8.59255681  2.03109820  2.25551179
   6.64525819  6.49679149  8.67449875
   0.16358959  2.04028081  6.48456755
   6.60888995  2.23370943  4.19929911
   0.05574066  6.39962283  6.57741852
   2.22838501  4.38665941  6.54738537
   2.21427230  2.16973837  8.63312957
   4.34931658  2.14525653  2.16824069
   6.37415839  8.61991800  2.27650591
   6.50730574  2.14207637  8.64498563
   2.28124427  6.55935940  8.69603055
   2.23488537  2.17476968  4.39994256
   2.19028012  6.54172750  4.35611265
   2.16665794  2.17398441  2.18364866
   2.29493755  0.02971519  8.64822341
   0.01523888  2.17606398  0.05096198
   6.45471780  2.08794515  2.10327305
   6.45671839  8.66121238  0.05333886
   4.34198264  0.02835929  2.10598257
   8.65612974  4.24810140  2.18863542
   4.39869422  6.56807804  8.66352379
   8.56304682  8.59283731  6.46621892
   6.58791882  1.99122805  6.47400628
   6.44213552  0.07899543  4.27646939
   4.38966945  2.13318605  4.29153231
   4.29802495  0.01244819  6.49610599
   8.60586904  8.69567703  2.16216633
   4.34714947  2.16807779  0.02109897
   2.26231633  6.53579652  2.18830119
   2.14451498  4.36885765  8.66540718
   0.09973483  6.47225645  0.05996527
   6.42494040  6.49382590  2.14853791
   6.61209381  4.30371156  0.09382548
   4.29474008  4.36277946  2.15441009
   2.24674020  2.15491653  6.51413760
   2.22663944  0.01321857  4.47542561
   0.08715007  2.17867011  4.37754151
   2.18593910  6.61233150  6.53716845
   2.19385250  4.35971740  4.36152442
   0.03868342  6.54861385  4.38522733
   8.67560094  4.22944947  6.58650305
   6.56777371  6.70296948  6.48764900
   6.49553059  4.28921186  4.43641310
   4.33848640  6.65281751  4.27980146
   4.36905096  4.36648303  6.48352498
   4.44139437  0.21961581  8.55702751
   8.60486123  4.55755815  8.48289051
   4.37820024  6.36672625  2.40957052
   1.89453989  0.11819960  6.62577947
   4.11556574  0.00873182  4.27504780
   6.23933605  8.66068377  6.82682637
   8.65668499  6.67797806  2.20056125
   6.33966533  4.39083621  2.22604503
   0.15658506  0.02816754  4.31218864
   4.31577265  4.46462540  4.28823326
   6.50842090  4.53789142  6.64295343
   6.51004886  6.39449220  4.32936187
 


--------------------------------------------------------------------------------------------------------


 k-point  1 :   0.0000 0.0000 0.0000  plane waves:   11821
 k-point  2 :   0.3333 0.0000 0.0000  plane waves:   11850
 k-point  3 :  -0.0000 0.3333 0.0000  plane waves:   11842
 k-point  4 :   0.3333 0.3333 0.0000  plane waves:   11868
 k-point  5 :  -0.3333 0.3333 0.0000  plane waves:   11877
 k-point  6 :  -0.0000 0.0000 0.3333  plane waves:   11841
 k-point  7 :   0.3333 0.0000 0.3333  plane waves:   11871
 k-point  8 :  -0.3333-0.0000 0.3333  plane waves:   11881
 k-point  9 :  -0.0000 0.3333 0.3333  plane waves:   11865
 k-point 10 :   0.3333 0.3333 0.3333  plane waves:   11859
 k-point 11 :  -0.3333 0.3333 0.3333  plane waves:   11845
 k-point 12 :  -0.0000-0.3333 0.3333  plane waves:   11882
 k-point 13 :   0.3333-0.3333 0.3333  plane waves:   11852
 k-point 14 :  -0.3333-0.3333 0.3333  plane waves:   11851

 maximum and minimum number of plane-waves per node :     11882    11821

 maximum number of plane-waves:     11882
 maximum index in each direction: 
   IXMAX=   14   IYMAX=   14   IZMAX=   14
   IXMIN=  -14   IYMIN=  -14   IZMIN=  -14


 serial   3D FFT for wavefunctions
 parallel 3D FFT for charge:
    minimum data exchange during FFTs selected (reduces bandwidth)


 total amount of memory used by VASP MPI-rank0   256288. kBytes
=======================================================================

   base      :      30000. kBytes
   nonl-proj :     180178. kBytes
   fftplans  :       1428. kBytes
   grid      :       6577. kBytes
   one-center:        995. kBytes
   wavefun   :      37110. kBytes
 
     INWAV:  cpu time    0.0001: real time    0.0003
 Broyden mixing: mesh for mixing (old mesh)
   NGX = 29   NGY = 29   NGZ = 29
  (NGX  = 84   NGY  = 96   NGZ  = 84)
  gives a total of  24389 points

 initial charge density was supplied:
 charge density of overlapping atoms calculated
 number of electron     496.0000000 magnetization 
 keeping initial charge density in first step


--------------------------------------------------------------------------------------------------------


 Maximum index for augmentation-charges          509 (set IRDMAX)


--------------------------------------------------------------------------------------------------------


 First call to EWALD:  gamma=   0.204
 Maximum number of real-space cells 3x 3x 3
 Maximum number of reciprocal cells 3x 3x 3

    FEWALD:  cpu time    0.0030: real time    0.0031


--------------------------------------- Iteration      1(   1)  ---------------------------------------


    POTLOK:  cpu time    0.0231: real time    0.0261
    SETDIJ:  cpu time    0.0070: real time    0.0070
     EDDAV:  cpu time   17.9600: real time   18.0268
       DOS:  cpu time    0.0012: real time    0.0012
    --------------------------------------------
      LOOP:  cpu time   17.9914: real time   18.0611

 eigenvalue-minimisations  :  8784
 total energy-change (2. order) : 0.6974691E+04  (-0.1983829E+05)
 number of electron     496.0000000 magnetization 
 augmentation part      496.0000000 magnetization 

 Free energy of the ion-electron system (eV)
  ---------------------------------------------------
  alpha Z        PSCENC =      3872.67676495
  Ewald energy   TEWEN  =    -40226.97937814
  -Hartree energ DENC   =     -9236.38751318
  -exchange      EXHF   =         0.00000000
  -V(xc)+E(xc)   XCENC  =      1550.02893556
  PAW double counting   =     30061.05897249   -29617.42069458
  entropy T*S    EENTRO =        -0.08787425
  eigenvalues    EBANDS =      3589.06441975
  atomic energy  EATOM  =     46982.73727694
  Solvation  Ediel_sol  =         0.00000000
  ---------------------------------------------------
  free energy    TOTEN  =      6974.69090956 eV

  energy without entropy =     6974.77878381  energy(sigma->0) =     6974.73484668


--------------------------------------------------------------------------------------------------------




--------------------------------------- Iteration      1(   2)  ---------------------------------------


     EDDAV:  cpu time   18.9776: real time   19.0582
       DOS:  cpu time    0.0012: real time    0.0012
    --------------------------------------------
      LOOP:  cpu time   18.9787: real time   19.0594

 eigenvalue-minimisations  :  8736
 total energy-change (2. order) :-0.6489629E+04  (-0.6281750E+04)
 number of electron     496.0000000 magnetization 
 augmentation part      496.0000000 magnetization 

 Free energy of the ion-electron system (eV)
  ---------------------------------------------------
  alpha Z        PSCENC =      3872.67676495
  Ewald energy   TEWEN  =    -40226.97937814
  -Hartree energ DENC   =     -9236.38751318
  -exchange      EXHF   =         0.00000000
  -V(xc)+E(xc)   XCENC  =      1550.02893556
  PAW double counting   =     30061.05897249   -29617.42069458
  entropy T*S    EENTRO =        -0.10517358
  eigenvalues    EBANDS =     -2900.54682649
  atomic energy  EATOM  =     46982.73727694
  Solvation  Ediel_sol  =         0.00000000
  ---------------------------------------------------
  free energy    TOTEN  =       485.06236399 eV

  energy without entropy =      485.16753757  energy(sigma->0) =      485.11495078


--------------------------------------------------------------------------------------------------------




--------------------------------------- Iteration      1(   3)  ---------------------------------------


     EDDAV:  cpu time   27.5138: real time   27.5334
       DOS:  cpu time    0.0011: real time    0.0011
    --------------------------------------------
      LOOP:  cpu time   27.5149: real time   27.5345

 eigenvalue-minimisations  : 13872
 total energy-change (2. order) :-0.1104826E+04  (-0.1032430E+04)
 number of electron     496.0000000 magnetization 
 augmentation part      496.0000000 magnetization 

 Free energy of the ion-electron system (eV)
  ---------------------------------------------------
  alpha Z        PSCENC =      3872.67676495
  Ewald energy   TEWEN  =    -40226.97937814
  -Hartree energ DENC   =     -9236.38751318
  -exchange      EXHF   =         0.00000000
  -V(xc)+E(xc)   XCENC  =      1550.02893556
  PAW double counting   =     30061.05897249   -29617.42069458
  entropy T*S    EENTRO =        -0.12226573
  eigenvalues    EBANDS =     -4005.35574547
  atomic energy  EATOM  =     46982.73727694
  Solvation  Ediel_sol  =         0.00000000
  ---------------------------------------------------
  free energy    TOTEN  =      -619.76364715 eV

  energy without entropy =     -619.64138142  energy(sigma->0) =     -619.70251428


--------------------------------------------------------------------------------------------------------




--------------------------------------- Iteration      1(   4)  ---------------------------------------


     EDDAV:  cpu time   30.2420: real time   31.0493
       DOS:  cpu time    0.0012: real time    0.0012
    --------------------------------------------
      LOOP:  cpu time   30.2432: real time   31.0505

 eigenvalue-minimisations  : 15720
 total energy-change (2. order) :-0.1395499E+03  (-0.1354760E+03)
 number of electron     496.0000000 magnetization 
 augmentation part      496.0000000 magnetization 

 Free energy of the ion-electron system (eV)
  ---------------------------------------------------
  alpha Z        PSCENC =      3872.67676495
  Ewald energy   TEWEN  =    -40226.97937814
  -Hartree energ DENC   =     -9236.38751318
  -exchange      EXHF   =         0.00000000
  -V(xc)+E(xc)   XCENC  =      1550.02893556
  PAW double counting   =     30061.05897249   -29617.42069458
  entropy T*S    EENTRO =        -0.11230436
  eigenvalues    EBANDS =     -4144.91556315
  atomic energy  EATOM  =     46982.73727694
  Solvation  Ediel_sol  =         0.00000000
  ---------------------------------------------------
  free energy    TOTEN  =      -759.31350345 eV

  energy without entropy =     -759.20119909  energy(sigma->0) =     -759.25735127


--------------------------------------------------------------------------------------------------------




--------------------------------------- Iteration      1(   5)  ---------------------------------------


     EDDAV:  cpu time   33.4777: real time   33.5052
       DOS:  cpu time    0.0012: real time    0.0012
    CHARGE:  cpu time    0.1863: real time    0.1864
    MIXING:  cpu time    0.0012: real time    0.0012
    --------------------------------------------
      LOOP:  cpu time   33.6664: real time   33.6940

 eigenvalue-minimisations  : 17304
 total energy-change (2. order) :-0.1891886E+02  (-0.1857820E+02)
 number of electron     495.9999907 magnetization 
 augmentation part       97.7369171 magnetization 

 Broyden mixing:
  rms(total) = 0.72025E+01    rms(broyden)= 0.72011E+01
  rms(prec ) = 0.11261E+02
  weight for this iteration     100.00

 Free energy of the ion-electron system (eV)
  ---------------------------------------------------
  alpha Z        PSCENC =      3872.67676495
  Ewald energy   TEWEN  =    -40226.97937814
  -Hartree energ DENC   =     -9236.38751318
  -exchange      EXHF   =         0.00000000
  -V(xc)+E(xc)   XCENC  =      1550.02893556
  PAW double counting   =     30061.05897249   -29617.42069458
  entropy T*S    EENTRO =        -0.12036745
  eigenvalues    EBANDS =     -4163.82635544
  atomic energy  EATOM  =     46982.73727694
  Solvation  Ediel_sol  =         0.00000000
  ---------------------------------------------------
  free energy    TOTEN  =      -778.23235883 eV

  energy without entropy =     -778.11199139  energy(sigma->0) =     -778.17217511


--------------------------------------------------------------------------------------------------------




--------------------------------------- Iteration      1(   6)  ---------------------------------------


    POTLOK:  cpu time    0.0199: real time    0.0235
    SETDIJ:  cpu time    0.0067: real time    0.0067
    EDDIAG:  cpu time    1.5276: real time    1.5281
  RMM-DIIS:  cpu time   15.9716: real time   15.9983
    ORTHCH:  cpu time    0.4083: real time    0.4083
       DOS:  cpu time    0.0010: real time    0.0010
    CHARGE:  cpu time    0.1726: real time    0.1727
    MIXING:  cpu time    0.0015: real time    0.0040
    --------------------------------------------
      LOOP:  cpu time   18.1092: real time   18.1426

 eigenvalue-minimisations  : 11357
 total energy-change (2. order) :-0.1575782E+02  (-0.1571118E+03)
 number of electron     495.9999773 magnetization 
 augmentation part      127.9018303 magnetization 

 Broyden mixing:
  rms(total) = 0.10175E+02    rms(broyden)= 0.10174E+02
  rms(prec ) = 0.16780E+02
  weight for this iteration     100.00

 eigenvalues of (default mixing * dielectric matrix)
  average eigenvalue GAMMA=   0.3899
  0.3899

 Free energy of the ion-electron system (eV)
  ---------------------------------------------------
  alpha Z        PSCENC =      3872.67676495
  Ewald energy   TEWEN  =    -40226.97937814
  -Hartree energ DENC   =     -8517.57398759
  -exchange      EXHF   =         0.00000000
  -V(xc)+E(xc)   XCENC  =      1537.89733884
  PAW double counting   =     28997.75596144   -28590.24640025
  entropy T*S    EENTRO =        -0.09767430
  eigenvalues    EBANDS =     -4850.16007683
  atomic energy  EATOM  =     46982.73727694
  Solvation  Ediel_sol  =         0.00000000
  ---------------------------------------------------
  free energy    TOTEN  =      -793.99017495 eV

  energy without entropy =     -793.89250064  energy(sigma->0) =     -793.94133779


--------------------------------------------------------------------------------------------------------




--------------------------------------- Iteration      1(   7)  ---------------------------------------


    POTLOK:  cpu time    0.0194: real time    0.0227
    SETDIJ:  cpu time    0.0066: real time    0.0066
    EDDIAG:  cpu time    1.5304: real time    1.5312
  RMM-DIIS:  cpu time   19.6394: real time   19.7203
    ORTHCH:  cpu time    0.4045: real time    0.4046
       DOS:  cpu time    0.0011: real time    0.0011
    CHARGE:  cpu time    0.1776: real time    0.1777
    MIXING:  cpu time    0.0010: real time    0.0018
    --------------------------------------------
      LOOP:  cpu time   21.7800: real time   21.8660

 eigenvalue-minimisations  : 13953
 total energy-change (2. order) : 0.1250238E+03  (-0.3002610E+02)
 number of electron     495.9999884 magnetization 
 augmentation part      103.9885218 magnetization 

 Broyden mixing:
  rms(total) = 0.51337E+01    rms(broyden)= 0.51325E+01
  rms(prec ) = 0.91926E+01
  weight for this iteration     100.00

 eigenvalues of (default mixing * dielectric matrix)
  average eigenvalue GAMMA=   0.5343
  0.8180  0.2506

 Free energy of the ion-electron system (eV)
  ---------------------------------------------------
  alpha Z        PSCENC =      3872.67676495
  Ewald energy   TEWEN  =    -40226.97937814
  -Hartree energ DENC   =     -8836.65579893
  -exchange      EXHF   =         0.00000000
  -V(xc)+E(xc)   XCENC  =      1549.35649994
  PAW double counting   =     29830.79734754   -29478.32255211
  entropy T*S    EENTRO =        -0.15124210
  eigenvalues    EBANDS =     -4362.42533763
  atomic energy  EATOM  =     46982.73727694
  Solvation  Ediel_sol  =         0.00000000
  ---------------------------------------------------
  free energy    TOTEN  =      -668.96641955 eV

  energy without entropy =     -668.81517744  energy(sigma->0) =     -668.89079849


--------------------------------------------------------------------------------------------------------




--------------------------------------- Iteration      1(   8)  ---------------------------------------


    POTLOK:  cpu time    0.0193: real time    0.0222
    SETDIJ:  cpu time    0.0066: real time    0.0066
    EDDIAG:  cpu time    1.5360: real time    1.5366
  RMM-DIIS:  cpu time   17.7111: real time   17.8207
    ORTHCH:  cpu time    0.4071: real time    0.4122
       DOS:  cpu time    0.0010: real time    0.0010
    CHARGE:  cpu time    0.1771: real time    0.1771
    MIXING:  cpu time    0.0010: real time    0.0016
    --------------------------------------------
      LOOP:  cpu time   19.8592: real time   19.9780

 eigenvalue-minimisations  : 12485
 total energy-change (2. order) : 0.2872170E+02  (-0.5402882E+01)
 number of electron     495.9999892 magnetization 
 augmentation part      108.7853406 magnetization 

 Broyden mixing:
  rms(total) = 0.15046E+01    rms(broyden)= 0.15009E+01
  rms(prec ) = 0.25376E+01
  weight for this iteration     100.00

 eigenvalues of (default mixing * dielectric matrix)
  average eigenvalue GAMMA=   0.4912
  0.7459  0.4956  0.2321

 Free energy of the ion-electron system (eV)
  ---------------------------------------------------
  alpha Z        PSCENC =      3872.67676495
  Ewald energy   TEWEN  =    -40226.97937814
  -Hartree energ DENC   =     -8721.88322245
  -exchange      EXHF   =         0.00000000
  -V(xc)+E(xc)   XCENC  =      1544.32836919
  PAW double counting   =     30127.12980067   -29777.12163182
  entropy T*S    EENTRO =        -0.15527708
  eigenvalues    EBANDS =     -4440.97742450
  atomic energy  EATOM  =     46982.73727694
  Solvation  Ediel_sol  =         0.00000000
  ---------------------------------------------------
  free energy    TOTEN  =      -640.24472223 eV

  energy without entropy =     -640.08944515  energy(sigma->0) =     -640.16708369


--------------------------------------------------------------------------------------------------------




--------------------------------------- Iteration      1(   9)  ---------------------------------------


    POTLOK:  cpu time    0.0193: real time    0.0226
    SETDIJ:  cpu time    0.0067: real time    0.0067
    EDDIAG:  cpu time    1.5377: real time    1.5383
  RMM-DIIS:  cpu time   19.2638: real time   19.3266
    ORTHCH:  cpu time    0.4028: real time    0.4029
       DOS:  cpu time    0.0011: real time    0.0011
    CHARGE:  cpu time    0.1730: real time    0.1732
    MIXING:  cpu time    0.0008: real time    0.0008
    --------------------------------------------
      LOOP:  cpu time   21.4053: real time   21.4723

 eigenvalue-minimisations  : 14236
 total energy-change (2. order) :-0.8364500E+00  (-0.2452561E+01)
 number of electron     495.9999896 magnetization 
 augmentation part      108.3145660 magnetization 

 Broyden mixing:
  rms(total) = 0.19973E+01    rms(broyden)= 0.19966E+01
  rms(prec ) = 0.32904E+01
  weight for this iteration     100.00

 eigenvalues of (default mixing * dielectric matrix)
  average eigenvalue GAMMA=   0.4317
  0.6635  0.6635  0.2343  0.1656

 Free energy of the ion-electron system (eV)
  ---------------------------------------------------
  alpha Z        PSCENC =      3872.67676495
  Ewald energy   TEWEN  =    -40226.97937814
  -Hartree energ DENC   =     -8705.06016944
  -exchange      EXHF   =         0.00000000
  -V(xc)+E(xc)   XCENC  =      1542.63834196
  PAW double counting   =     30331.33448802   -29977.55186252
  entropy T*S    EENTRO =        -0.14608648
  eigenvalues    EBANDS =     -4460.73054752
  atomic energy  EATOM  =     46982.73727694
  Solvation  Ediel_sol  =         0.00000000
  ---------------------------------------------------
  free energy    TOTEN  =      -641.08117223 eV

  energy without entropy =     -640.93508575  energy(sigma->0) =     -641.00812899


--------------------------------------------------------------------------------------------------------




--------------------------------------- Iteration      1(  10)  ---------------------------------------


    POTLOK:  cpu time    0.0198: real time    0.0233
    SETDIJ:  cpu time    0.0065: real time    0.0066
    EDDIAG:  cpu time    1.5378: real time    1.5382
  RMM-DIIS:  cpu time   19.3069: real time   19.3820
    ORTHCH:  cpu time    0.4061: real time    0.4062
       DOS:  cpu time    0.0010: real time    0.0010
    CHARGE:  cpu time    0.1768: real time    0.1768
    MIXING:  cpu time    0.0009: real time    0.0009
    --------------------------------------------
      LOOP:  cpu time   21.4558: real time   21.5350

 eigenvalue-minimisations  : 13946
 total energy-change (2. order) : 0.1884977E+01  (-0.8449558E+00)
 number of electron     495.9999894 magnetization 
 augmentation part      107.6776627 magnetization 

 Broyden mixing:
  rms(total) = 0.10199E+01    rms(broyden)= 0.10189E+01
  rms(prec ) = 0.14439E+01
  weight for this iteration     100.00

 eigenvalues of (default mixing * dielectric matrix)
  average eigenvalue GAMMA=   0.5358
  0.8603  0.8603  0.5967  0.2325  0.1290

 Free energy of the ion-electron system (eV)
  ---------------------------------------------------
  alpha Z        PSCENC =      3872.67676495
  Ewald energy   TEWEN  =    -40226.97937814
  -Hartree energ DENC   =     -8701.46447694
  -exchange      EXHF   =         0.00000000
  -V(xc)+E(xc)   XCENC  =      1542.14198508
  PAW double counting   =     30422.40275528   -30066.10831385
  entropy T*S    EENTRO =        -0.15080176
  eigenvalues    EBANDS =     -4464.45200692
  atomic energy  EATOM  =     46982.73727694
  Solvation  Ediel_sol  =         0.00000000
  ---------------------------------------------------
  free energy    TOTEN  =      -639.19619536 eV

  energy without entropy =     -639.04539359  energy(sigma->0) =     -639.12079447


--------------------------------------------------------------------------------------------------------




--------------------------------------- Iteration      1(  11)  ---------------------------------------


    POTLOK:  cpu time    0.0220: real time    0.0223
    SETDIJ:  cpu time    0.0066: real time    0.0066
    EDDIAG:  cpu time    1.5816: real time    1.5904
  RMM-DIIS:  cpu time   20.2313: real time   20.2415
    ORTHCH:  cpu time    0.4039: real time    0.4041
       DOS:  cpu time    0.0011: real time    0.0011
    CHARGE:  cpu time    0.1774: real time    0.1776
    MIXING:  cpu time    0.0010: real time    0.0010
    --------------------------------------------
      LOOP:  cpu time   22.4249: real time   22.4444

 eigenvalue-minimisations  : 14327
 total energy-change (2. order) :-0.5574827E+00  (-0.5239892E+00)
 number of electron     495.9999898 magnetization 
 augmentation part      107.7939046 magnetization 

 Broyden mixing:
  rms(total) = 0.15955E+01    rms(broyden)= 0.15948E+01
  rms(prec ) = 0.26724E+01
  weight for this iteration     100.00

 eigenvalues of (default mixing * dielectric matrix)
  average eigenvalue GAMMA=   0.5675
  1.1461  1.1461  0.6213  0.2332  0.1468  0.1112

 Free energy of the ion-electron system (eV)
  ---------------------------------------------------
  alpha Z        PSCENC =      3872.67676495
  Ewald energy   TEWEN  =    -40226.97937814
  -Hartree energ DENC   =     -8701.68214438
  -exchange      EXHF   =         0.00000000
  -V(xc)+E(xc)   XCENC  =      1541.37984645
  PAW double counting   =     30622.23137780   -30258.42079790
  entropy T*S    EENTRO =        -0.15248986
  eigenvalues    EBANDS =     -4471.54413392
  atomic energy  EATOM  =     46982.73727694
  Solvation  Ediel_sol  =         0.00000000
  ---------------------------------------------------
  free energy    TOTEN  =      -639.75367805 eV

  energy without entropy =     -639.60118819  energy(sigma->0) =     -639.67743312


--------------------------------------------------------------------------------------------------------




--------------------------------------- Iteration      1(  12)  ---------------------------------------


    POTLOK:  cpu time    0.0194: real time    0.0224
    SETDIJ:  cpu time    0.0066: real time    0.0067
    EDDIAG:  cpu time    1.5231: real time    1.5367
  RMM-DIIS:  cpu time   19.4360: real time   19.4455
    ORTHCH:  cpu time    0.4060: real time    0.4060
       DOS:  cpu time    0.0011: real time    0.0011
    CHARGE:  cpu time    0.1765: real time    0.1766
    MIXING:  cpu time    0.0010: real time    0.0010
    --------------------------------------------
      LOOP:  cpu time   21.5698: real time   21.5960

 eigenvalue-minimisations  : 14202
 total energy-change (2. order) : 0.1393834E+01  (-0.2891559E+00)
 number of electron     495.9999897 magnetization 
 augmentation part      107.4215961 magnetization 

 Broyden mixing:
  rms(total) = 0.61448E+00    rms(broyden)= 0.61348E+00
  rms(prec ) = 0.85113E+00
  weight for this iteration     100.00

 eigenvalues of (default mixing * dielectric matrix)
  average eigenvalue GAMMA=   0.6099
  1.3078  1.3078  0.5857  0.5857  0.2340  0.1399  0.1079

 Free energy of the ion-electron system (eV)
  ---------------------------------------------------
  alpha Z        PSCENC =      3872.67676495
  Ewald energy   TEWEN  =    -40226.97937814
  -Hartree energ DENC   =     -8703.35408831
  -exchange      EXHF   =         0.00000000
  -V(xc)+E(xc)   XCENC  =      1540.64817141
  PAW double counting   =     30847.71933793   -30475.28233340
  entropy T*S    EENTRO =        -0.15289192
  eigenvalues    EBANDS =     -4476.37270391
  atomic energy  EATOM  =     46982.73727694
  Solvation  Ediel_sol  =         0.00000000
  ---------------------------------------------------
  free energy    TOTEN  =      -638.35984445 eV

  energy without entropy =     -638.20695252  energy(sigma->0) =     -638.28339849


--------------------------------------------------------------------------------------------------------




--------------------------------------- Iteration      1(  13)  ---------------------------------------


    POTLOK:  cpu time    0.0193: real time    0.0224
    SETDIJ:  cpu time    0.0066: real time    0.0066
    EDDIAG:  cpu time    1.5120: real time    1.5379
  RMM-DIIS:  cpu time   19.6896: real time   19.9226
    ORTHCH:  cpu time    0.4048: real time    0.4049
       DOS:  cpu time    0.0010: real time    0.0010
    CHARGE:  cpu time    0.1775: real time    0.1776
    MIXING:  cpu time    0.0012: real time    0.0012
    --------------------------------------------
      LOOP:  cpu time   21.8120: real time   22.0743

 eigenvalue-minimisations  : 14248
 total energy-change (2. order) :-0.8248069E+00  (-0.3474024E+00)
 number of electron     495.9999899 magnetization 
 augmentation part      107.1335009 magnetization 

 Broyden mixing:
  rms(total) = 0.12012E+01    rms(broyden)= 0.12007E+01
  rms(prec ) = 0.20270E+01
  weight for this iteration     100.00

 eigenvalues of (default mixing * dielectric matrix)
  average eigenvalue GAMMA=   0.6303
  1.8908  0.9347  0.9347  0.6601  0.2340  0.1487  0.1333  0.1058

 Free energy of the ion-electron system (eV)
  ---------------------------------------------------
  alpha Z        PSCENC =      3872.67676495
  Ewald energy   TEWEN  =    -40226.97937814
  -Hartree energ DENC   =     -8704.08189097
  -exchange      EXHF   =         0.00000000
  -V(xc)+E(xc)   XCENC  =      1540.01590343
  PAW double counting   =     31135.47239926   -30752.52746286
  entropy T*S    EENTRO =        -0.14849903
[...]
 -0.015   0.023  -0.006  -0.001   0.003  -0.010   0.004   0.004   0.006  -0.310   0.001  -0.007  -0.007  -0.004   0.237   0.007
  0.022  -0.042  -0.016   0.025   0.009  -0.016   0.032   0.015   0.003   0.001  -0.544  -0.003  -0.029  -0.004   0.007   0.550
 -0.008   0.014   0.003   0.003   0.006   0.003   0.004   0.003   0.007  -0.007  -0.003  -0.274   0.009  -0.003   0.005   0.009
 -0.035   0.055  -0.027   0.007  -0.021  -0.029   0.009  -0.027  -0.006  -0.007  -0.028   0.009  -0.518   0.008   0.004   0.014


------------------------ aborting loop because EDIFF is reached ----------------------------------------


    CHARGE:  cpu time    0.1750: real time    0.1750
    FORLOC:  cpu time    0.0105: real time    0.0105
    FORNL :  cpu time   12.9328: real time   12.9402
    STRESS:  cpu time   24.0251: real time   24.0975
    FORCOR:  cpu time    0.0239: real time    0.0239
    FORHAR:  cpu time    0.0137: real time    0.0137
    MIXING:  cpu time    0.0009: real time    0.0009
    OFIELD:  cpu time    0.0000: real time    0.0000

  FORCE on cell =-STRESS in cart. coord.  units (eV):
  Direction    XX          YY          ZZ          XY          YZ          ZX
  --------------------------------------------------------------------------------------
  Alpha Z  3889.96461  3889.96461  3889.96461
  Ewald  -13302.66914-13505.87397-13483.50872   157.81870   149.15736  -131.96218
  Hartree  2970.05024  2805.46550  2922.77120   161.89311   102.75592  -128.37465
  E(xc)   -2303.29912 -2302.47464 -2303.85571     0.00332     0.13658     0.00247
  Local    1123.83663  1482.09772  1352.88465  -319.12853  -256.54861   262.45711
  n-local -1056.04397 -1068.18837 -1058.13023     2.00183    -2.91798     1.39117
  augment  1112.52869  1117.25001  1112.75956     0.11561     1.70624    -0.55380
  Kinetic  7565.62114  7581.67962  7567.04517    -2.69514     5.67906    -2.93060
  Fock        0.00000     0.00000     0.00000     0.00000     0.00000     0.00000
  -------------------------------------------------------------------------------------
  Total      -0.01093    -0.07953    -0.06947     0.00889    -0.03142     0.02951
  in kB      -0.02694    -0.19604    -0.17124     0.02192    -0.07746     0.07274
  external pressure =       -0.13 kB  Pullay stress =        0.00 kB


 VOLUME and BASIS-vectors are now :
 -----------------------------------------------------------------------------
  energy-cutoff  :      400.00
  volume of cell :      649.96
      direct lattice vectors                 reciprocal lattice vectors
     8.641870369  0.004140354 -0.001141842     0.115715700 -0.000129735 -0.000398416
     0.009806923  8.673994467  0.023820343    -0.000055250  0.115287515 -0.000114357
     0.029864035  0.008615198  8.670897128     0.000015390 -0.000316730  0.115328582

  length of vectors
     8.641871436  8.674032718  8.670952836     0.115716459  0.115287585  0.115329018


 FORCES acting on ions
    electron-ion (+dipol)            ewald-force                    non-local-force                 convergence-correction
 -----------------------------------------------------------------------------------------------
   0.968E+02 0.103E+03 -.180E+03   -.970E+02 -.103E+03 0.180E+03   0.177E+00 0.224E-01 -.218E+00   0.274E-01 0.183E-01 -.474E-01
   0.209E+03 0.101E+03 -.955E+02   -.208E+03 -.101E+03 0.953E+02   -.907E+00 0.727E-01 0.289E+00   0.526E-01 0.260E-01 -.330E-01
   0.951E+02 -.673E+02 -.922E+02   -.955E+02 0.674E+02 0.918E+02   0.325E+00 -.139E+00 0.338E+00   0.901E-01 -.214E-01 0.489E-01
   -.154E+03 -.989E+02 0.423E+01   0.155E+03 0.988E+02 -.413E+01   -.591E-01 0.182E+00 -.102E+00   -.297E-01 -.252E-01 0.609E-02
   -.113E+03 -.309E+03 0.183E+03   0.113E+03 0.308E+03 -.183E+03   -.143E+00 0.725E+00 0.179E+00   -.260E-01 -.101E+00 0.548E-01
   0.223E+03 -.159E+03 0.939E+02   -.223E+03 0.159E+03 -.940E+02   -.845E-01 -.175E+00 0.881E-01   0.307E-01 -.274E-01 0.108E-01
   -.136E+03 0.280E+03 0.164E+03   0.136E+03 -.279E+03 -.164E+03   0.186E+00 -.734E+00 -.681E-01   -.327E-01 0.960E-01 0.386E-01
   0.459E+02 -.817E+02 -.753E+02   -.452E+02 0.825E+02 0.746E+02   -.723E+00 -.753E+00 0.666E+00   0.763E-02 -.754E-01 0.331E-01
   -.185E+02 0.186E+03 -.126E+03   0.176E+02 -.187E+03 0.127E+03   0.988E+00 0.318E+00 -.733E+00   -.110E+00 0.155E+00 -.937E-02
   0.186E+03 -.144E+03 0.122E+03   -.186E+03 0.145E+03 -.122E+03   -.134E+00 -.111E+01 0.304E+00   0.457E-01 -.114E+00 -.400E-01
   -.190E+02 -.161E+03 -.768E+02   0.185E+02 0.160E+03 0.784E+02   0.504E+00 0.723E+00 -.156E+01   -.152E-01 -.517E-01 -.819E-03
   0.153E+03 0.414E+02 0.225E+03   -.152E+03 -.412E+02 -.225E+03   -.674E+00 -.265E+00 0.732E+00   0.422E-01 0.139E+00 -.693E-01
   -.451E+02 -.396E+02 0.113E+03   0.455E+02 0.401E+02 -.113E+03   -.457E+00 -.419E+00 -.660E+00   0.647E-01 -.144E-01 -.521E-01
   0.607E+02 -.156E+03 -.770E+02   -.604E+02 0.157E+03 0.769E+02   -.428E+00 -.699E+00 0.846E-01   0.909E-01 -.124E+00 -.231E-01
   -.649E+02 -.219E+03 -.104E+03   0.645E+02 0.219E+03 0.103E+03   0.405E+00 0.420E+00 0.491E+00   -.100E-01 -.660E-01 -.370E-01
   -.216E+03 0.204E+03 -.148E+03   0.214E+03 -.205E+03 0.149E+03   0.166E+01 0.102E+01 -.108E+01   -.539E-01 0.330E-01 -.435E-01
   -.110E+03 -.258E+03 -.225E+02   0.110E+03 0.259E+03 0.224E+02   0.274E+00 -.110E+01 0.317E-01   -.100E+00 -.141E+00 -.212E-02
   0.499E+02 0.104E+03 -.866E+02   -.487E+02 -.104E+03 0.870E+02   -.131E+01 0.870E-01 -.392E+00   0.926E-01 0.125E+00 -.244E-01
   0.499E+02 -.119E+03 0.535E+02   -.495E+02 0.119E+03 -.532E+02   -.418E+00 0.427E-02 -.240E+00   0.917E-02 -.461E-01 0.188E-01
   0.137E+03 0.871E+02 0.435E+02   -.136E+03 -.870E+02 -.436E+02   -.233E+00 -.215E+00 0.103E-01   0.224E-01 0.459E-01 0.249E-01
   0.444E+02 -.426E+02 -.281E+02   -.424E+02 0.433E+02 0.282E+02   -.205E+01 -.686E+00 -.170E+00   0.251E-01 -.237E-01 0.398E-02
   0.531E+01 0.410E+02 -.573E+02   -.266E+01 -.417E+02 0.571E+02   -.270E+01 0.755E+00 0.271E+00   0.445E-01 0.583E-02 -.360E-01
   0.371E+02 -.884E+02 -.345E+02   -.371E+02 0.926E+02 0.353E+02   -.693E-02 -.420E+01 -.802E+00   0.578E-02 -.854E-01 0.146E-02
   -.409E+02 -.117E+03 -.306E+02   0.376E+02 0.117E+03 0.256E+02   0.328E+01 0.839E+00 0.506E+01   -.262E-01 -.403E-01 -.254E-02
   -.784E+02 0.530E+02 -.101E+03   0.791E+02 -.512E+02 0.105E+03   -.566E+00 -.180E+01 -.429E+01   -.569E-01 0.146E-01 -.135E-01
   -.187E+02 0.676E+02 -.862E+01   0.200E+02 -.698E+02 0.645E+01   -.130E+01 0.218E+01 0.222E+01   0.580E-02 0.107E-01 -.462E-01
   0.116E+03 -.986E+02 -.515E+01   -.116E+03 0.995E+02 0.200E+01   0.400E+00 -.851E+00 0.310E+01   0.130E-01 -.236E-01 0.628E-01
   -.502E+02 0.487E+02 -.455E+02   0.484E+02 -.465E+02 0.491E+02   0.185E+01 -.226E+01 -.357E+01   -.107E-01 0.597E-01 -.235E-04
   0.109E+03 0.536E+02 0.162E+03   -.115E+03 -.559E+02 -.164E+03   0.585E+01 0.224E+01 0.182E+01   0.293E-01 0.825E-02 0.823E-02
   -.463E+02 -.139E+03 0.942E+02   0.469E+02 0.139E+03 -.940E+02   -.595E+00 0.131E+00 -.192E+00   -.196E-01 -.460E-01 0.492E-02
   -.108E+03 0.111E+03 -.614E+02   0.106E+03 -.112E+03 0.651E+02   0.167E+01 0.151E+01 -.374E+01   -.496E-02 0.114E-01 -.292E-03
   -.660E+02 -.141E+03 -.141E+02   0.649E+02 0.140E+03 0.138E+02   0.107E+01 0.105E+01 0.330E+00   -.914E-02 -.128E-01 -.810E-02
   0.458E+02 0.372E+02 0.926E+02   -.502E+02 -.379E+02 -.949E+02   0.442E+01 0.770E+00 0.224E+01   -.116E-01 0.760E-02 0.585E-01
   0.244E+02 0.935E+02 -.818E+02   -.256E+02 -.937E+02 0.810E+02   0.119E+01 0.231E+00 0.809E+00   -.224E-02 0.146E-01 -.242E-02
   -.109E+02 -.793E+02 -.196E+02   0.108E+02 0.798E+02 0.205E+02   0.167E+00 -.421E+00 -.957E+00   -.196E-02 -.567E-01 0.916E-03
   0.848E+02 0.255E+02 -.177E+02   -.840E+02 -.253E+02 0.175E+02   -.814E+00 -.256E+00 0.189E+00   0.258E-01 0.191E-01 0.241E-03
   0.218E+02 -.102E+02 -.181E+02   -.224E+02 0.100E+02 0.195E+02   0.489E+00 0.218E+00 -.142E+01   0.656E-01 -.675E-02 0.180E-02
   0.179E+02 0.411E+01 -.105E+03   -.155E+02 -.453E+01 0.106E+03   -.235E+01 0.329E+00 -.110E+01   0.161E-01 0.944E-01 -.533E-02
   -.101E+03 0.830E+02 -.811E+02   0.996E+02 -.819E+02 0.808E+02   0.984E+00 -.111E+01 0.293E+00   -.279E-01 0.346E-01 -.216E-02
   0.130E+02 -.122E+02 -.370E+02   -.120E+02 0.972E+01 0.376E+02   -.946E+00 0.254E+01 -.680E+00   -.769E-01 -.176E-01 0.541E-02
   -.849E+02 0.707E+01 -.726E+02   0.837E+02 -.775E+01 0.715E+02   0.129E+01 0.681E+00 0.115E+01   -.129E-01 -.678E-02 -.211E-03
   -.405E+01 -.667E+02 0.344E+02   0.591E+01 0.659E+02 -.347E+02   -.188E+01 0.889E+00 0.312E+00   0.103E-01 -.451E-01 -.178E-02
   0.113E+03 0.265E+02 0.109E+02   -.111E+03 -.268E+02 -.987E+01   -.162E+01 0.296E+00 -.108E+01   -.327E-02 0.718E-02 0.262E-01
   0.365E+02 0.243E+02 0.110E+02   -.346E+02 -.235E+02 -.106E+02   -.196E+01 -.808E+00 -.404E+00   0.910E-02 -.141E-01 0.301E-02
   0.625E+01 0.273E+02 0.385E+02   -.479E+01 -.255E+02 -.387E+02   -.147E+01 -.183E+01 0.210E+00   0.119E-01 0.454E-01 -.663E-03
   -.467E+02 -.155E+02 0.855E+01   0.460E+02 0.156E+02 -.958E+01   0.677E+00 -.700E-01 0.102E+01   0.472E-02 -.686E-02 0.941E-03
   0.105E+03 -.378E+02 0.733E+02   -.104E+03 0.378E+02 -.736E+02   -.865E+00 -.682E-01 0.317E+00   0.134E-01 0.145E-01 0.125E-01
   0.845E+02 0.114E+02 0.610E+02   -.854E+02 -.128E+02 -.607E+02   0.860E+00 0.144E+01 -.215E+00   0.130E-01 -.172E-01 -.789E-01
   -.253E+02 0.983E+02 0.124E+03   0.253E+02 -.959E+02 -.125E+03   0.957E-02 -.242E+01 0.134E+01   -.154E-01 0.399E-01 0.493E-02
   0.476E+02 -.839E+02 -.502E+01   -.472E+02 0.833E+02 0.585E+01   -.404E+00 0.594E+00 -.835E+00   -.405E-02 -.122E-01 0.178E-02
   -.104E+03 0.950E+02 -.367E+02   0.103E+03 -.932E+02 0.366E+02   0.772E+00 -.177E+01 0.119E+00   -.117E-01 0.104E-01 -.303E-02
   -.906E+02 -.162E+02 0.949E+02   0.916E+02 0.160E+02 -.945E+02   -.102E+01 0.257E+00 -.403E+00   -.100E-01 -.431E-02 0.360E-03
   0.408E+02 0.130E+03 -.131E+03   -.416E+02 -.129E+03 0.132E+03   0.852E+00 -.109E+01 -.612E+00   -.954E-02 0.416E-02 -.155E-01
   0.973E+02 0.516E+02 -.165E+03   -.972E+02 -.515E+02 0.165E+03   -.120E+00 -.488E-01 -.628E+00   0.208E-01 -.466E-02 -.199E-01
   -.175E+03 0.125E+03 -.381E+02   0.175E+03 -.125E+03 0.380E+02   0.726E+00 0.157E+00 0.652E-01   -.230E-01 0.621E-01 -.245E-01
   -.579E+01 0.117E+03 0.182E+03   0.696E+01 -.117E+03 -.183E+03   -.122E+01 0.542E+00 0.555E+00   0.482E-01 0.258E-02 0.204E-01
   -.164E+03 0.761E+02 -.140E+02   0.163E+03 -.774E+02 0.143E+02   0.139E+01 0.132E+01 -.256E+00   -.259E-01 0.157E-01 0.775E-02
   -.227E+03 0.101E+03 0.326E+03   0.226E+03 -.101E+03 -.327E+03   0.625E+00 0.196E-02 0.642E+00   -.639E-01 0.242E-01 0.627E-01
   0.762E+02 0.662E+02 -.930E+02   -.759E+02 -.651E+02 0.930E+02   -.341E+00 -.116E+01 0.278E-01   0.890E-02 0.449E-01 0.178E-01
   -.683E+02 -.593E+02 -.745E+02   0.676E+02 0.605E+02 0.737E+02   0.743E+00 -.122E+01 0.776E+00   -.360E-01 -.130E-01 0.168E-01
   0.100E+03 0.871E+02 0.445E+02   -.993E+02 -.877E+02 -.443E+02   -.116E+01 0.636E+00 -.234E+00   0.158E-01 0.114E-01 0.173E-01
   -.108E+03 -.232E+01 -.311E+02   0.108E+03 0.331E+01 0.310E+02   0.667E+00 -.979E+00 0.933E-01   -.154E-01 -.555E-02 -.284E-02
   0.250E+02 0.997E+01 0.110E+03   -.254E+02 -.880E+01 -.110E+03   0.457E+00 -.116E+01 -.576E+00   -.403E-01 -.444E-02 -.271E-01
   -.633E+02 0.495E+02 0.211E+02   0.632E+02 -.499E+02 -.209E+02   0.402E-01 0.354E+00 -.211E+00   -.120E-01 0.243E-01 0.407E-02
 -----------------------------------------------------------------------------------------------
   -.607E+01 0.630E+01 0.137E+01   0.632E-12 0.554E-12 -.320E-12   0.603E+01 -.627E+01 -.126E+01   0.537E-01 -.287E-01 -.922E-01
 
 
 POSITION                                       TOTAL-FORCE (eV/Angst)
 -----------------------------------------------------------------------------------
      0.09753      8.65420      8.60057         0.000630      0.005478      0.001722
      2.21988      8.62371      2.21788         0.001432     -0.000041      0.001328
      2.17837      4.40185      2.13880        -0.003623     -0.000029     -0.001027
      4.39260      4.28766      8.66177        -0.001637      0.001336      0.000884
      4.37278      2.11155      6.50708        -0.000476      0.001096     -0.001672
      0.04309      4.34760      4.41091         0.002006     -0.001841     -0.003147
      4.36409      6.60264      6.43130        -0.001133     -0.000702     -0.000066
      8.58230      2.03065      2.25231        -0.000457      0.001147     -0.001865
      6.63612      6.48793      8.66352        -0.001502     -0.002182      0.001590
      0.16278      2.03820      6.47797        -0.001410      0.000769      0.005703
      6.60042      2.23040      4.19556        -0.000120     -0.001543      0.001743
      0.05475      6.38950      6.57117        -0.000338     -0.000281      0.000790
      2.22470      4.37918      6.53980         0.002755      0.001738      0.000246
      2.21287      2.16761      8.62238         0.000642     -0.001277      0.002637
      4.34341      2.14314      2.16560        -0.000255     -0.003087     -0.000456
      6.36626      8.60549      2.27538         0.000375     -0.003558      0.000695
      6.49914      2.14225      8.63524         0.003343      0.005798      0.001672
      2.27762      6.55039      8.68633        -0.000679     -0.001014      0.000565
      2.23219      2.17053      4.39544         0.001568     -0.000280      0.000464
      2.18813      6.53022      4.35163        -0.001611     -0.001322     -0.000259
      2.16484      2.17080      2.18181        -0.000141     -0.001718      0.001405
      2.29541      0.03154      8.63530        -0.003758      0.000637      0.001049
      0.01673      2.17834      0.05341         0.000631     -0.005485     -0.002487
      6.44645      2.08506      2.10048        -0.003404     -0.002717     -0.003943
      6.44896      8.64680      0.05646         0.004292      0.000410      0.000668
      4.33696      0.02628      2.10205         0.000854      0.002862      0.002178
      8.64334      4.24271      2.18110         0.003316      0.001923      0.005756
      4.39408      6.56257      8.65706        -0.001078     -0.001259     -0.003542
      8.54748      8.57830      6.45981        -0.001083     -0.000861     -0.002210
      6.58173      1.99321      6.46536        -0.002161      0.004676      0.004645
      6.43383      0.07870      4.27436        -0.000014      0.004369     -0.000669
      4.38540      2.12964      4.28540        -0.000756     -0.000207      0.001122
      4.29107      0.01392      6.48716         0.003047     -0.000881     -0.005302
      8.58416      0.00569      2.13710        -0.000962      0.001049     -0.000765
      4.34219      2.16355      0.02251         0.001776      0.001588      0.002664
      2.25966      6.52396      2.18684        -0.002281     -0.000998      0.000374
      2.14082      4.36270      8.65544         0.001455      0.001778     -0.000423
      0.10011      6.45884      0.06278         0.001851     -0.001026     -0.000564
      6.41622      6.48313      2.14631         0.000606      0.001266     -0.000936
      6.60424      4.29619      0.09427         0.002098      0.001073      0.001374
      4.28851      4.35564      2.15245         0.002326     -0.003434     -0.001719
      2.24496      2.15077      6.50650         0.000280     -0.002438      0.001050
      2.22413      0.01366      4.47198        -0.001162     -0.002574     -0.001621
      0.08806      2.17525      4.37293         0.004561     -0.000528      0.000873
      2.18300      6.60264      6.53067         0.000468     -0.004663     -0.000121
      2.19119      4.35160      4.35656         0.002672     -0.000606      0.000955
      0.03957      6.53663      4.38232         0.000034      0.001370     -0.001193
      8.66522      4.22204      6.57909        -0.002051      0.001540      0.002950
      6.55957      6.69226      6.47966        -0.001974      0.001351      0.000344
      6.48797      4.28424      4.43090        -0.001135     -0.006585     -0.000615
      4.33298      6.64195      4.27281        -0.001698      0.001060     -0.000399
      4.36335      4.35968      6.47561        -0.000265      0.001484     -0.001440
      4.43540      0.21923      8.54508        -0.002448     -0.000951      0.002966
      8.59648      4.54799      8.47459        -0.002401      0.007213     -0.003441
      4.37115      6.35701      2.40318        -0.004467     -0.002702     -0.006240
      1.89149      0.11729      6.61772        -0.001121     -0.004334      0.000226
      4.11192      0.00866      4.27362         0.001130     -0.002737      0.006692
      6.23258      8.64706      6.81848         0.005192      0.000586     -0.006109
      8.64625      6.66192      2.19984         0.001081      0.006180     -0.000000
      6.33388      4.38059      2.22341        -0.001116      0.004672     -0.000751
      0.15347      0.02826      4.30476        -0.004329     -0.002322      0.003973
      4.31114      4.45559      4.28342         0.001394      0.003903     -0.001748
      6.49982      4.52673      6.63497        -0.001065      0.000311     -0.004160
      6.50266      6.38638      4.32443         0.002296     -0.002481     -0.002413
 -----------------------------------------------------------------------------------
    total drift:                                0.012449     -0.001279      0.018024


--------------------------------------------------------------------------------------------------------



  FREE ENERGIE OF THE ION-ELECTRON SYSTEM (eV)
  ---------------------------------------------------
  free  energy   TOTEN  =      -638.51949304 eV

  energy  without entropy=     -638.36391654  energy(sigma->0) =     -638.44170479
 
 d Force = 0.2413764E-04[ 0.183E-04, 0.299E-04]  d Energy = 0.2978524E-04-0.565E-05
 d Force = 0.8073496E-01[ 0.807E-01, 0.808E-01]  d Ewald  = 0.2758198E+01-0.268E+01


--------------------------------------------------------------------------------------------------------


    POTLOK:  cpu time    0.0268: real time    0.0268


--------------------------------------------------------------------------------------------------------


 Conjugate gradient step on ions:
 trial-energy change:   -0.000030  1 .order   -0.000063   -0.000095   -0.000031
  (g-gl).g = 0.342E-04      g.g   = 0.347E-03  gl.gl    = 0.493E-03
 g(Force)  = 0.118E-03   g(Stress)= 0.228E-03 ortho     =-0.648E-05
 gamma     =   0.06933
 trial     =   0.27326
 opt step  =   0.40412  (harmonic =   0.40412) maximal distance =0.00023042
 next E    =  -638.519533   (d E  =  -0.00007)


--------------------------------------------------------------------------------------------------------


  
 reached required accuracy - stopping structural energy minimisation
     LOOP+:  cpu time  136.6328: real time  137.7168
    4ORBIT:  cpu time    0.0000: real time    0.0000

 total amount of memory used by VASP MPI-rank0   256288. kBytes
=======================================================================

   base      :      30000. kBytes
   nonl-proj :     180178. kBytes
   fftplans  :       1428. kBytes
   grid      :       6577. kBytes
   one-center:        995. kBytes
   wavefun   :      37110. kBytes
 
  
  
 General timing and accounting informations for this job:
 ========================================================
  
                  Total CPU time used (sec):     3130.423
                            User time (sec):     3107.965
                          System time (sec):       22.458
                         Elapsed time (sec):     3159.211
  
                   Maximum memory used (kb):      343628.
                   Average memory used (kb):           0.
  
                          Minor page faults:       618235
                          Major page faults:            0
                 Voluntary context switches:         3505
