HECN                                    
           1
     8.652457    0.003983   -0.000867
     0.009653    8.690618    0.021407
     0.030179    0.006186    8.682301
   Nb   W    Ti   N    C    Cr   Mo
   7   6   7  13  19   6   6
Direct configuration=     1
   0.00678717  0.99665953  0.98903377
   0.25504630  0.99374165  0.25297138
   0.25066892  0.50726421  0.24529854
   0.50441896  0.49291940  0.99761933
   0.50297629  0.24228342  0.74974015
   0.00266548  0.50075338  0.50723983
   0.50153281  0.76033982  0.73987495
   0.99191265  0.23307244  0.25930712
   0.76370834  0.74650388  0.99733712
   0.01604238  0.23422963  0.74629614
   0.76184557  0.25633236  0.48310609
   0.00298523  0.73584359  0.75575237
   0.25435519  0.50410556  0.75288970
   0.25216881  0.24884153  0.99374829
   0.50152436  0.24644020  0.24917359
   0.73467544  0.99134312  0.25982992
   0.74833118  0.24543016  0.99517178
   0.25932461  0.75393279  0.99974841
   0.25625072  0.24976564  0.50618129
   0.25055683  0.75226376  0.49989360
   0.24925564  0.24986019  0.25091461
   0.26175817  0.00259025  0.99609485
   0.00146356  0.25038790  0.00525244
   0.74488767  0.23973934  0.24173164
   0.74510489  0.99627221  0.00376144
   0.50097141  0.00286094  0.24260339
   0.99900449  0.48817817  0.25097624
   0.50405899  0.75482651  0.99602662
   0.98597502  0.98776836  0.74242176
   0.75853913  0.22824583  0.74516861
   0.74281655  0.00839869  0.49260371
   0.50533685  0.24487547  0.49373186
   0.49412983  0.00067332  0.74824868
   0.99263973  0.99995161  0.24666518
   0.50213337  0.24924192  0.00186573
   0.25975378  0.75175481  0.25021408
   0.24381358  0.50188836  0.99684119
   0.01067822  0.74473211  0.00507151
   0.74086675  0.74670813  0.24569475
   0.76360108  0.49485669  0.00966267
   0.49493981  0.50160765  0.24695084
   0.25677422  0.24730764  0.74969372
   0.25554273  0.00103698  0.51548836
   0.00803658  0.25033006  0.50357503
   0.24917013  0.76020977  0.75108100
   0.25124548  0.50118606  0.50113602
   0.00187534  0.75316775  0.50321988
   0.99949088  0.48567118  0.75751500
   0.75560520  0.77041113  0.74540291
   0.74838709  0.49283921  0.50983167
   0.49885040  0.76493899  0.49109785
   0.50178901  0.50167575  0.74556516
   0.50984549  0.02433527  0.98556235
   0.99051174  0.52327424  0.97584132
   0.50422789  0.73217024  0.27577188
   0.21628358  0.01295852  0.76312603
   0.47393480  0.00043704  0.49243276
   0.71726069  0.99566884  0.78390908
   0.99875434  0.76777547  0.25166044
   0.73124792  0.50472187  0.25521744
   0.01636166  0.00288012  0.49665882
   0.49650063  0.51315108  0.49268956
   0.74895897  0.52127281  0.76390398
   0.74983984  0.73509522  0.49690470
HECN                                    
           1
     8.619970    0.004182   -0.000862
     0.009834    8.653486    0.022255
     0.030068    0.007089    8.649370
   Nb   W    Ti   N    C    Cr   Mo
   7   6   7  13  19   6   6
Direct configuration=     2
   0.00677762  0.99664870  0.98903028
   0.25499878  0.99369527  0.25299852
   0.25073702  0.50729775  0.24529010
   0.50438234  0.49288543  0.99762162
   0.50295527  0.24230720  0.74979128
   0.00268763  0.50074289  0.50727465
   0.50152259  0.76030751  0.73981255
   0.99193669  0.23303656  0.25932964
   0.76369061  0.74651359  0.99732357
   0.01606305  0.23423235  0.74628149
   0.76182051  0.25640571  0.48309842
   0.00296568  0.73585157  0.75576065
   0.25435249  0.50408514  0.75289415
   0.25222410  0.24885176  0.99369104
   0.50150827  0.24648796  0.24916059
   0.73464144  0.99135624  0.25991049
   0.74829791  0.24549236  0.99518507
   0.25928629  0.75391297  0.99974868
   0.25622638  0.24974788  0.50622020
   0.25056852  0.75224332  0.49987451
   0.24925189  0.24986850  0.25093220
   0.26187355  0.00259618  0.99601513
   0.00149054  0.25046395  0.00533050
   0.74491650  0.23976384  0.24175704
   0.74502986  0.99627847  0.00377296
   0.50103945  0.00285536  0.24259303
   0.99898957  0.48812143  0.25088707
   0.50407482  0.75490037  0.99605008
   0.98590792  0.98777189  0.74238838
   0.75858560  0.22823359  0.74518036
   0.74281794  0.00844590  0.49251841
   0.50539390  0.24484551  0.49367140
   0.49416384  0.00064384  0.74831591
   0.99256153  0.00000257  0.24669939
   0.50215275  0.24920962  0.00190266
   0.25977096  0.75175583  0.25021285
   0.24375782  0.50189011  0.99681751
   0.01069743  0.74467083  0.00510461
   0.74081847  0.74670130  0.24567117
   0.76366059  0.49490923  0.00964644
   0.49482953  0.50165665  0.24696426
   0.25677264  0.24727299  0.74968822
   0.25559947  0.00101885  0.51553903
   0.00804220  0.25028807  0.50360245
   0.24912552  0.76020360  0.75109783
   0.25127864  0.50117211  0.50114963
   0.00187240  0.75319295  0.50323068
   0.99948775  0.48562899  0.75757985
   0.75562767  0.77043929  0.74539518
   0.74836900  0.49283353  0.50979476
   0.49885331  0.76497367  0.49098479
   0.50180665  0.50166900  0.74554090
   0.50989493  0.02439389  0.98549190
   0.99051301  0.52330684  0.97581532
   0.50423441  0.73214466  0.27580151
   0.21627137  0.01296542  0.76317844
   0.47387210  0.00036471  0.49252099
   0.71725869  0.99564637  0.78390983
   0.99873685  0.76776754  0.25165846
   0.73129984  0.50472746  0.25518510
   0.01636661  0.00285557  0.49663857
   0.49647778  0.51311567  0.49270179
   0.74895936  0.52125448  0.76389489
   0.74985255  0.73507696  0.49687118
HECN                                    
           1
     8.641967    0.004047   -0.000865
     0.009711    8.678629    0.021680
     0.030143    0.006477    8.671668
   Nb   W    Ti   N    C    Cr   Mo
   7   6   7  13  19   6   6
Direct configuration=     3
   0.00678411  0.99665607  0.98903265
   0.25503108  0.99372681  0.25298007
   0.25069074  0.50727494  0.24529584
   0.50440723  0.49290853  0.99762006
   0.50296956  0.24229104  0.74975653
   0.00267257  0.50075002  0.50725098
   0.50152954  0.76032947  0.73985496
   0.99192035  0.23306096  0.25931433
   0.76370266  0.74650699  0.99733278
   0.01604900  0.23423050  0.74629145
   0.76183754  0.25635583  0.48310364
   0.00297897  0.73584615  0.75575502
   0.25435433  0.50409903  0.75289112
   0.25218652  0.24884480  0.99372995
   0.50151921  0.24645548  0.24916943
   0.73466455  0.99134732  0.25985573
   0.74832052  0.24545006  0.99517604
   0.25931234  0.75392645  0.99974850
   0.25624292  0.24975996  0.50619375
   0.25056057  0.75225722  0.49988748
   0.24925444  0.24986285  0.25092025
   0.26179513  0.00259214  0.99606932
   0.00147220  0.25041224  0.00527745
   0.74489691  0.23974719  0.24173978
   0.74508085  0.99627421  0.00376513
   0.50099320  0.00285916  0.24260007
   0.99899971  0.48816001  0.25094768
   0.50406406  0.75485014  0.99603414
   0.98595352  0.98776949  0.74241107
   0.75855401  0.22824192  0.74517237
   0.74281700  0.00841379  0.49257639
   0.50535513  0.24486588  0.49371249
   0.49414072  0.00066389  0.74827021
   0.99261468 -0.00003208  0.24667614
   0.50213957  0.24923159  0.00187755
   0.25975929  0.75175514  0.25021369
   0.24379571  0.50188891  0.99683360
   0.01068437  0.74471250  0.00508211
   0.74085129  0.74670594  0.24568720
   0.76362014  0.49487350  0.00965748
   0.49490448  0.50162333  0.24695514
   0.25677371  0.24729655  0.74969195
   0.25556091  0.00103119  0.51550459
   0.00803838  0.25031662  0.50358381
   0.24915584  0.76020779  0.75108639
   0.25125610  0.50118159  0.50114038
   0.00187440  0.75317581  0.50322334
   0.99948987  0.48565768  0.75753577
   0.75561240  0.77042014  0.74540044
   0.74838129  0.49283739  0.50981985
   0.49885133  0.76495008  0.49106164
   0.50179466  0.50167359  0.74555739
   0.50986133  0.02435403  0.98553979
   0.99051215  0.52328467  0.97583299
   0.50422998  0.73216206  0.27578137
   0.21627967  0.01296073  0.76314282
   0.47391471  0.00041390  0.49246102
   0.71726005  0.99566165  0.78390932
   0.99874874  0.76777293  0.25165980
   0.73126455  0.50472365  0.25520708
   0.01636324  0.00287227  0.49665233
   0.49649331  0.51313975  0.49269347
   0.74895909  0.52126694  0.76390107
   0.74984391  0.73508937  0.49689397
HECN                                    
           1
     8.642211    0.004205   -0.000867
     0.009871    8.676580    0.022450
     0.030142    0.007245    8.671671
   Nb   W    Ti   N    C    Cr   Mo
   7   6   7  13  19   6   6
Direct configuration=     4
   0.00674325  0.99667380  0.98907446
   0.25498558  0.99377171  0.25297804
   0.25066927  0.50722774  0.24530595
   0.50436258  0.49295325  0.99762863
   0.50300855  0.24237186  0.74974762
   0.00268272  0.50074264  0.50724361
   0.50151168  0.76027479  0.73983008
   0.99200031  0.23319451  0.25923036
   0.76360796  0.74657691  0.99734364
   0.01594280  0.23428271  0.74636010
   0.76173636  0.25634587  0.48320885
   0.00297664  0.73592418  0.75572560
   0.25433153  0.50406433  0.75286061
   0.25221747  0.24885688  0.99374374
   0.50147700  0.24651103  0.24916390
   0.73467688  0.99136916  0.25983783
   0.74833371  0.24549506  0.99519182
   0.25929149  0.75392963  0.99975786
   0.25625052  0.24975482  0.50617717
   0.25056733  0.75223793  0.49987491
   0.24927692  0.24988032  0.25092753
   0.26194436  0.00258488  0.99600789
   0.00149075  0.25057355  0.00533461
   0.74487102  0.23976480  0.24166557
   0.74504413  0.99632134  0.00387433
   0.50105035  0.00279328  0.24256264
   0.99893663  0.48817748  0.25079659
   0.50407040  0.75496908  0.99612851
   0.98578268  0.98773461  0.74236626
   0.75860824  0.22828480  0.74517282
   0.74279594  0.00836746  0.49264235
   0.50538109  0.24484401  0.49366045
   0.49403594  0.00063909  0.74826431
   0.99251436 -0.00003011  0.24665372
   0.50213920  0.24921167  0.00194893
   0.25979867  0.75174352  0.25020364
   0.24371057  0.50188406  0.99685302
   0.01077923  0.74468904  0.00514038
   0.74080696  0.74677508  0.24566595
   0.76365758  0.49483418  0.00967576
   0.49480252  0.50161159  0.24692920
   0.25683177  0.24726340  0.74968710
   0.25560234  0.00100896  0.51560726
   0.00811242  0.25031328  0.50360909
   0.24915621  0.76027753  0.75109440
   0.25126190  0.50115898  0.50112570
   0.00190241  0.75319083  0.50323346
   0.99948633  0.48557213  0.75754836
   0.75561224  0.77049591  0.74535772
   0.74837730  0.49286354  0.50982835
   0.49882297  0.76503526  0.49101570
   0.50181725  0.50165571  0.74552812
   0.50984156  0.02427077  0.98555719
   0.99059326  0.52314133  0.97597263
   0.50420220  0.73225167  0.27561678
   0.21639444  0.01288930  0.76315677
   0.47400108  0.00039115  0.49255366
   0.71737445  0.99567651  0.78378318
   0.99875018  0.76758429  0.25166966
   0.73141709  0.50461557  0.25517399
   0.01626381  0.00281826  0.49664858
   0.49648531  0.51300760  0.49275317
   0.74895649  0.52108624  0.76384074
   0.74986615  0.73521901  0.49687930
HECN                                    
           1
     8.642317    0.004274   -0.000868
     0.009941    8.675688    0.022785
     0.030142    0.007579    8.671672
   Nb   W    Ti   N    C    Cr   Mo
   7   6   7  13  19   6   6
Direct configuration=     5
   0.00672546  0.99668152  0.98909267
   0.25496577  0.99379127  0.25297715
   0.25065992  0.50720717  0.24531035
   0.50434314  0.49297273  0.99763237
   0.50302553  0.24240706  0.74974374
   0.00268714  0.50073943  0.50724040
   0.50150391  0.76025098  0.73981924
   0.99203513  0.23325268  0.25919380
   0.76356672  0.74660737  0.99734836
   0.01589656  0.23430545  0.74639000
   0.76169229  0.25634152  0.48325466
   0.00297563  0.73595817  0.75571278
   0.25432160  0.50404922  0.75284733
   0.25223094  0.24886214  0.99374974
   0.50145863  0.24653523  0.24916149
   0.73468225  0.99137868  0.25983003
   0.74833946  0.24551465  0.99519869
   0.25928241  0.75393101  0.99976194
   0.25625382  0.24975258  0.50616995
   0.25057028  0.75222952  0.49986943
   0.24928671  0.24988793  0.25093070
   0.26200934  0.00258171  0.99598115
   0.00149883  0.25064381  0.00535950
   0.74485975  0.23977248  0.24163326
   0.74502814  0.99634186  0.00392188
   0.50107523  0.00276459  0.24254635
   0.99890917  0.48818510  0.25073080
   0.50407316  0.75502087  0.99616960
   0.98570829  0.98771943  0.74234675
   0.75863186  0.22830348  0.74517302
   0.74278676  0.00834728  0.49267107
   0.50539240  0.24483448  0.49363779
   0.49399031  0.00062828  0.74826174
   0.99247068 -0.00002925  0.24664396
   0.50213904  0.24920299  0.00198000
   0.25981583  0.75173846  0.25019926
   0.24367350  0.50188195  0.99686148
   0.01082053  0.74467882  0.00516575
   0.74078766  0.74680519  0.24565670
   0.76367389  0.49481706  0.00968373
   0.49475812  0.50160648  0.24691790
   0.25685705  0.24724896  0.74968499
   0.25562039  0.00099928  0.51565196
   0.00814466  0.25031182  0.50362009
   0.24915636  0.76030790  0.75109788
   0.25126443  0.50114912  0.50111931
   0.00191461  0.75319737  0.50323787
   0.99948479  0.48553487  0.75755384
   0.75561217  0.77052891  0.74533912
   0.74837556  0.49287493  0.50983205
   0.49881063  0.76507237  0.49099569
   0.50182709  0.50164792  0.74551537
   0.50983296  0.02423451  0.98556478
   0.99062859  0.52307890  0.97603345
   0.50419010  0.73229071  0.27554511
   0.21644442  0.01285819  0.76316284
   0.47403869  0.00038124  0.49259401
   0.71742427  0.99568298  0.78372825
   0.99875081  0.76750212  0.25167396
   0.73148351  0.50456850  0.25515959
   0.01622051  0.00279474  0.49664695
   0.49648183  0.51295005  0.49277918
   0.74895536  0.52100753  0.76381447
   0.74987583  0.73527548  0.49687291
HECN                                    
           1
     8.642244    0.004311   -0.001135
     0.009978    8.674298    0.023471
     0.029872    0.008264    8.671640
   Nb   W    Ti   N    C    Cr   Mo
   7   6   7  13  19   6   6
Direct configuration=     6
   0.00671535  0.99667467  0.98910764
   0.25492234  0.99380509  0.25300079
   0.25062498  0.50717259  0.24530622
   0.50434196  0.49300215  0.99764177
   0.50307760  0.24242731  0.74977935
   0.00267528  0.50073837  0.50727211
   0.50153465  0.76025403  0.73978125
   0.99202453  0.23332110  0.25921625
   0.76361100  0.74662092  0.99730009
   0.01595030  0.23429462  0.74640349
   0.76172349  0.25631289  0.48325973
   0.00295606  0.73589480  0.75578046
   0.25427731  0.50401311  0.75285383
   0.25226563  0.24885469  0.99374704
   0.50145817  0.24657209  0.24915864
   0.73467412  0.99142339  0.25980262
   0.74833174  0.24554041  0.99523235
   0.25927497  0.75396646  0.99976286
   0.25626187  0.24971059  0.50619207
   0.25059342  0.75223913  0.49985739
   0.24930920  0.24989309  0.25093789
   0.26210128  0.00256434  0.99595259
   0.00153330  0.25082523  0.00541769
   0.74486000  0.23978371  0.24165306
   0.74502342  0.99640023  0.00392165
   0.50107177  0.00268404  0.24251427
   0.99883567  0.48823966  0.25057423
   0.50409946  0.75513651  0.99626620
   0.98558232  0.98772036  0.74236935
   0.75869550  0.22840277  0.74513760
   0.74277796  0.00829245  0.49279590
   0.50542468  0.24482076  0.49361592
   0.49396032  0.00062516  0.74825609
   0.99245499 -0.00008001  0.24663478
   0.50214230  0.24919011  0.00198111
   0.25982345  0.75175366  0.25019076
   0.24364800  0.50186574  0.99686749
   0.01076686  0.74462570  0.00516410
   0.74077009  0.74683388  0.24563636
   0.76366841  0.49482643  0.00965485
   0.49486622  0.50163349  0.24695239
   0.25683516  0.24720359  0.74969802
   0.25563600  0.00098098  0.51571726
   0.00813611  0.25029704  0.50360124
   0.24915293  0.76034534  0.75110026
   0.25125326  0.50112432  0.50110747
   0.00193636  0.75315624  0.50326546
   0.99950082  0.48554062  0.75759616
   0.75560739  0.77050942  0.74529826
   0.74839686  0.49296360  0.50981966
   0.49881977  0.76506815  0.49089018
   0.50181541  0.50162878  0.74551073
   0.50983541  0.02417907  0.98554366
   0.99070015  0.52303510  0.97601302
   0.50413500  0.73232470  0.27545490
   0.21639706  0.01280292  0.76315993
   0.47405249  0.00035947  0.49267730
   0.71738839  0.99571163  0.78374899
   0.99875497  0.76743409  0.25169362
   0.73142549  0.50448242  0.25513157
   0.01616991  0.00280066  0.49656999
   0.49650531  0.51291932  0.49273246
   0.74895602  0.52092028  0.76385202
   0.74988015  0.73533630  0.49686775
HECN                                    
           1
     8.642213    0.004327   -0.001250
     0.009994    8.673703    0.023765
     0.029757    0.008558    8.671626
   Nb   W    Ti   N    C    Cr   Mo
   7   6   7  13  19   6   6
Direct configuration=     7
   0.00671102  0.99667174  0.98911405
   0.25490373  0.99381101  0.25301091
   0.25061001  0.50715778  0.24530446
   0.50434145  0.49301476  0.99764579
   0.50309991  0.24243598  0.74979461
   0.00267019  0.50073792  0.50728569
   0.50154782  0.76025535  0.73976498
   0.99201998  0.23335041  0.25922587
   0.76362997  0.74662672  0.99727941
   0.01597332  0.23428999  0.74640927
   0.76173686  0.25630062  0.48326191
   0.00294768  0.73586764  0.75580945
   0.25425833  0.50399763  0.75285662
   0.25228049  0.24885149  0.99374589
   0.50145797  0.24658789  0.24915742
   0.73467064  0.99144255  0.25979087
   0.74832844  0.24555144  0.99524677
   0.25927178  0.75398164  0.99976326
   0.25626532  0.24969260  0.50620155
   0.25060334  0.75224324  0.49985223
   0.24931883  0.24989530  0.25094097
   0.26214068  0.00255689  0.99594036
   0.00154807  0.25090298  0.00544263
   0.74486010  0.23978852  0.24166154
   0.74502140  0.99642525  0.00392155
   0.50107028  0.00264952  0.24250053
   0.99880418  0.48826305  0.25050714
   0.50411073  0.75518605  0.99630758
   0.98552835  0.98772075  0.74237904
   0.75872276  0.22844532  0.74512242
   0.74277419  0.00826895  0.49284938
   0.50543851  0.24481487  0.49360655
   0.49394747  0.00062382  0.74825367
   0.99244827 -0.00010176  0.24663084
   0.50214369  0.24918459  0.00198159
   0.25982671  0.75176018  0.25018712
   0.24363708  0.50185879  0.99687007
   0.01074387  0.74460293  0.00516339
   0.74076257  0.74684617  0.24562764
   0.76366607  0.49483045  0.00964247
   0.49491253  0.50164506  0.24696717
   0.25682579  0.24718414  0.74970361
   0.25564269  0.00097313  0.51574524
   0.00813244  0.25029070  0.50359316
   0.24915146  0.76036139  0.75110128
   0.25124847  0.50111369  0.50110239
   0.00194568  0.75313861  0.50327728
   0.99950770  0.48554309  0.75761429
   0.75560535  0.77050107  0.74528076
   0.74840598  0.49300160  0.50981434
   0.49882369  0.76506635  0.49084498
   0.50181040  0.50162058  0.74550874
   0.50983646  0.02415532  0.98553462
   0.99073082  0.52301634  0.97600427
   0.50411138  0.73233927  0.27541625
   0.21637677  0.01277924  0.76315868
   0.47405840  0.00035014  0.49271298
   0.71737302  0.99572391  0.78375787
   0.99875675  0.76740493  0.25170205
   0.73140063  0.50444553  0.25511957
   0.01614823  0.00280320  0.49653702
   0.49651537  0.51290616  0.49271245
   0.74895630  0.52088289  0.76386811
   0.74988200  0.73536237  0.49686553
HECN                                    
           1
     8.642923    0.004247   -0.001310
     0.009915    8.674799    0.024013
     0.029699    0.008805    8.672221
   Nb   W    Ti   N    C    Cr   Mo
   7   6   7  13  19   6   6
Direct configuration=     8
   0.00672185  0.99669985  0.98913142
   0.25487663  0.99382823  0.25305313
   0.25064170  0.50712385  0.24530436
   0.50430685  0.49305522  0.99765244
   0.50312435  0.24244645  0.74983486
   0.00266065  0.50072524  0.50731553
   0.50156983  0.76024074  0.73971674
   0.99197968  0.23336983  0.25923682
   0.76362520  0.74662552  0.99722471
   0.01598712  0.23425641  0.74642377
   0.76178091  0.25629219  0.48326036
   0.00291436  0.73587103  0.75582255
   0.25424887  0.50398607  0.75286568
   0.25231785  0.24882099  0.99374885
   0.50145779  0.24659864  0.24915208
   0.73466113  0.99148298  0.25978083
   0.74832812  0.24558826  0.99528383
   0.25925887  0.75402996  0.99975155
   0.25626460  0.24964015  0.50623745
   0.25061771  0.75224142  0.49984014
   0.24934323  0.24990080  0.25095654
   0.26217669  0.00253298  0.99592515
   0.00159979  0.25106598  0.00547061
   0.74485943  0.23979169  0.24168447
   0.74506159  0.99647974  0.00389451
   0.50103381  0.00257574  0.24248073
   0.99875713  0.48834806  0.25037860
   0.50414641  0.75529942  0.99637963
   0.98543266  0.98774331  0.74240758
   0.75876612  0.22859301  0.74510176
   0.74277744  0.00822969  0.49297620
   0.50546506  0.24480000  0.49361080
   0.49394001  0.00062750  0.74823743
   0.99245947 -0.00007753  0.24661197
   0.50215514  0.24918562  0.00197206
   0.25979460  0.75176078  0.25017768
   0.24366967  0.50185194  0.99687332
   0.01072036  0.74459680  0.00518423
   0.74075683  0.74683352  0.24559716
   0.76364361  0.49488195  0.00961918
   0.49485846  0.50166771  0.24694835
   0.25687201  0.24712848  0.74972495
   0.25560936  0.00095698  0.51577613
   0.00814324  0.25028255  0.50361497
   0.24914775  0.76035957  0.75111014
   0.25124440  0.50108410  0.50109229
   0.00197104  0.75310064  0.50331857
   0.99952859  0.48552565  0.75758469
   0.75560340  0.77045515  0.74526801
   0.74843091  0.49305644  0.50977799
   0.49883075  0.76502951  0.49077010
   0.50178159  0.50162312  0.74551086
   0.50982542  0.02408702  0.98550667
   0.99076379  0.52292516  0.97603990
   0.50406643  0.73236561  0.27529818
   0.21629200  0.01271083  0.76317774
   0.47409315  0.00031381  0.49283659
   0.71736360  0.99575038  0.78374999
   0.99876158  0.76731755  0.25171820
   0.73144814  0.50441392  0.25512564
   0.01608660  0.00278059  0.49647461
   0.49655508  0.51291662  0.49267855
   0.74892633  0.52079640  0.76388469
   0.74989368  0.73540791  0.49683561
HECN                                    
           1
     8.642834    0.004257   -0.001303
     0.009925    8.674662    0.023981
     0.029706    0.008774    8.672147
   Nb   W    Ti   N    C    Cr   Mo
   7   6   7  13  19   6   6
Direct configuration=     9
   0.00672050  0.99669633  0.98912925
   0.25488003  0.99382607  0.25304785
   0.25063773  0.50712810  0.24530437
   0.50431118  0.49305016  0.99765161
   0.50312129  0.24244514  0.74982982
   0.00266184  0.50072683  0.50731180
   0.50156707  0.76024257  0.73972278
   0.99198472  0.23336740  0.25923545
   0.76362579  0.74662567  0.99723155
   0.01598539  0.23426061  0.74642195
   0.76177539  0.25629325  0.48326055
   0.00291853  0.73587061  0.75582091
   0.25425005  0.50398752  0.75286454
   0.25231317  0.24882481  0.99374848
   0.50145781  0.24659729  0.24915275
   0.73466232  0.99147792  0.25978209
   0.74832816  0.24558365  0.99527919
   0.25926049  0.75402391  0.99975302
   0.25626469  0.24964672  0.50623296
   0.25061591  0.75224165  0.49984165
   0.24934018  0.24990011  0.25095459
   0.26217218  0.00253597  0.99592705
   0.00159332  0.25104558  0.00546711
   0.74485951  0.23979129  0.24168160
   0.74505656  0.99647292  0.00389789
   0.50103838  0.00258497  0.24248321
   0.99876302  0.48833742  0.25039468
   0.50414195  0.75528524  0.99637061
   0.98544464  0.98774048  0.74240400
   0.75876070  0.22857453  0.74510435
   0.74277703  0.00823460  0.49296033
   0.50546174  0.24480186  0.49361027
   0.49394094  0.00062704  0.74823946
   0.99245807 -0.00008056  0.24661434
   0.50215371  0.24918550  0.00197325
   0.25979862  0.75176071  0.25017886
   0.24366559  0.50185280  0.99687291
   0.01072330  0.74459757  0.00518162
   0.74075755  0.74683511  0.24560097
   0.76364642  0.49487551  0.00962209
   0.49486523  0.50166487  0.24695071
   0.25686622  0.24713545  0.74972228
   0.25561353  0.00095900  0.51577226
   0.00814189  0.25028357  0.50361224
   0.24914821  0.76035979  0.75110903
   0.25124491  0.50108780  0.50109355
   0.00196787  0.75310539  0.50331340
   0.99952597  0.48552783  0.75758840
   0.75560364  0.77046090  0.74526961
   0.74842779  0.49304958  0.50978254
   0.49882987  0.76503412  0.49077947
   0.50178520  0.50162280  0.74551060
   0.50982680  0.02409556  0.98551017
   0.99075966  0.52293657  0.97603544
   0.50407206  0.73236232  0.27531296
   0.21630261  0.01271939  0.76317535
   0.47408880  0.00031836  0.49282112
   0.71736478  0.99574707  0.78375098
   0.99876098  0.76732848  0.25171617
   0.73144219  0.50441788  0.25512488
   0.01609431  0.00278342  0.49648242
   0.49655011  0.51291531  0.49268279
   0.74893008  0.52080722  0.76388262
   0.74989222  0.73540221  0.49683936
HECN                                    
           1
     8.642511    0.004190   -0.001244
     0.009857    8.674613    0.023938
     0.029764    0.008732    8.671688
   Nb   W    Ti   N    C    Cr   Mo
   7   6   7  13  19   6   6
Direct configuration=    10
   0.00673083  0.99672012  0.98914276
   0.25487091  0.99383272  0.25307542
   0.25065469  0.50711408  0.24530456
   0.50429032  0.49307393  0.99765619
   0.50313060  0.24244974  0.74985043
   0.00266014  0.50071920  0.50732620
   0.50157544  0.76023122  0.73969562
   0.99195968  0.23337273  0.25924163
   0.76361755  0.74662241  0.99720559
   0.01599067  0.23423942  0.74643513
   0.76179967  0.25629289  0.48325965
   0.00289932  0.73587620  0.75582236
   0.25425189  0.50398734  0.75287003
   0.25233489  0.24880415  0.99375099
   0.50145919  0.24659599  0.24914816
   0.73465542  0.99149529  0.25978285
   0.74832989  0.24560943  0.99530161
   0.25925251  0.75404970  0.99974601
   0.25626489  0.24961961  0.50625443
   0.25062241  0.75223809  0.49983434
   0.24935144  0.24990065  0.25096409
   0.26217778  0.00252531  0.99592227
   0.00161928  0.25111051  0.00547345
   0.74485582  0.23978959  0.24168787
   0.74508340  0.99649688  0.00388176
   0.50101969  0.00255632  0.24247912
   0.99874948  0.48838133  0.25034493
   0.50415796  0.75533398  0.99639477
   0.98540573  0.98775431  0.74241521
   0.75877478  0.22864978  0.74510236
   0.74278053  0.00822437  0.49301274
   0.50547301  0.24479419  0.49361615
   0.49394572  0.00062806  0.74822850
   0.99246628 -0.00006495  0.24660399
   0.50216221  0.24918714  0.00197173
   0.25977720  0.75175897  0.25017497
   0.24369234  0.50185326  0.99687268
   0.01071863  0.74460338  0.00519244
   0.74075693  0.74682581  0.24558511
   0.76363134  0.49490570  0.00961365
   0.49483113  0.50167243  0.24693529
   0.25689408  0.24710727  0.74973281
   0.25559460  0.00095002  0.51577876
   0.00815343  0.25027883  0.50362717
   0.24914750  0.76034881  0.75111345
   0.25124773  0.50107368  0.50109063
   0.00198025  0.75309133  0.50333205
   0.99953350  0.48551965  0.75756589
   0.75560020  0.77043704  0.74526950
   0.74843769  0.49306232  0.50976236
   0.49883168  0.76501432  0.49074853
   0.50176980  0.50162883  0.74551115
   0.50981674  0.02405846  0.98549472
   0.99077704  0.52288486  0.97605520
   0.50404351  0.73237257  0.27523955
   0.21624649  0.01267682  0.76319248
   0.47410555  0.00029557  0.49289109
   0.71736168  0.99576695  0.78373839
   0.99876374  0.76729962  0.25172394
   0.73146903  0.50441501  0.25513081
   0.01606111  0.00276829  0.49645870
   0.49657102  0.51293057  0.49266556
   0.74891207  0.52077054  0.76388125
   0.74990034  0.73541713  0.49681911
HECN                                    
           1
     8.642469    0.004181   -0.001236
     0.009848    8.674607    0.023932
     0.029771    0.008726    8.671630
   Nb   W    Ti   N    C    Cr   Mo
   7   6   7  13  19   6   6
Direct configuration=    11
   0.00673215  0.99672317  0.98914450
   0.25486975  0.99383357  0.25307895
   0.25065686  0.50711228  0.24530458
   0.50428765  0.49307697  0.99765677
   0.50313179  0.24245033  0.74985307
   0.00265993  0.50071822  0.50732805
   0.50157651  0.76022976  0.73969214
   0.99195647  0.23337341  0.25924242
   0.76361649  0.74662200  0.99720226
   0.01599135  0.23423671  0.74643682
   0.76180278  0.25629285  0.48325953
   0.00289686  0.73587691  0.75582254
   0.25425213  0.50398731  0.75287073
   0.25233767  0.24880151  0.99375131
   0.50145936  0.24659583  0.24914757
   0.73465454  0.99149751  0.25978295
   0.74833011  0.24561273  0.99530448
   0.25925149  0.75405300  0.99974511
   0.25626491  0.24961613  0.50625718
   0.25062325  0.75223764  0.49983340
   0.24935288  0.24990071  0.25096531
   0.26217850  0.00252394  0.99592166
   0.00162261  0.25111882  0.00547427
   0.74485535  0.23978937  0.24168867
   0.74508683  0.99649994  0.00387970
   0.50101729  0.00255265  0.24247860
   0.99874774  0.48838695  0.25033855
   0.50416001  0.75534023  0.99639787
   0.98540075  0.98775608  0.74241664
   0.75877659  0.22865942  0.74510210
   0.74278097  0.00822306  0.49301945
   0.50547445  0.24479321  0.49361691
   0.49394633  0.00062819  0.74822710
   0.99246733 -0.00006295  0.24660266
   0.50216330  0.24918735  0.00197153
   0.25977446  0.75175875  0.25017447
   0.24369577  0.50185332  0.99687265
   0.01071803  0.74460413  0.00519382
   0.74075685  0.74682462  0.24558308
   0.76362941  0.49490956  0.00961257
   0.49482676  0.50167340  0.24693331
   0.25689765  0.24710366  0.74973416
   0.25559218  0.00094887  0.51577960
   0.00815491  0.25027822  0.50362908
   0.24914741  0.76034740  0.75111402
   0.25124809  0.50107187  0.50109026
   0.00198184  0.75308953  0.50333444
   0.99953447  0.48551861  0.75756301
   0.75559976  0.77043398  0.74526949
   0.74843896  0.49306395  0.50975977
   0.49883191  0.76501179  0.49074457
   0.50176783  0.50162960  0.74551122
   0.50981545  0.02405371  0.98549275
   0.99077926  0.52287823  0.97605773
   0.50403986  0.73237388  0.27523015
   0.21623931  0.01267137  0.76319468
   0.47410769  0.00029265  0.49290005
   0.71736128  0.99576949  0.78373678
   0.99876409  0.76729592  0.25172493
   0.73147247  0.50441465  0.25513157
   0.01605685  0.00276635  0.49645566
   0.49657370  0.51293252  0.49266335
   0.74890977  0.52076585  0.76388107
   0.74990138  0.73541904  0.49681652
HECN                                    
           1
     8.642386    0.004164   -0.001221
     0.009831    8.674594    0.023921
     0.029786    0.008715    8.671512
   Nb   W    Ti   N    C    Cr   Mo
   7   6   7  13  19   6   6
Direct configuration=    12
   0.00673480  0.99672926  0.98914796
   0.25486741  0.99383527  0.25308601
   0.25066120  0.50710869  0.24530463