  64  64   0   0
  0.1129557E+02  0.8932500E-09  0.9055600E-09  0.8937200E-09  0.5000000E-15
  1.000000000000000E-004
  CAR 
 HECN                                    
     14.94444335    -59.77006503  301      8.65057524      1.00000000
    -59.770  0.0000E+00  0.0000E+00
    -59.521  0.0000E+00  0.0000E+00
    -59.272  0.0000E+00  0.0000E+00
    -59.023  0.0000E+00  0.0000E+00
    -58.774  0.0000E+00  0.0000E+00
    -58.525  0.0000E+00  0.0000E+00
    -58.276  0.0000E+00  0.0000E+00
    -58.027  0.0000E+00  0.0000E+00
    -57.778  0.0000E+00  0.0000E+00
    -57.529  0.0000E+00  0.0000E+00
    -57.280  0.0000E+00  0.0000E+00
    -57.031  0.0000E+00  0.0000E+00
    -56.781  0.3490E-09  0.8691E-10
    -56.532  0.1281E-02  0.3189E-03
    -56.283  0.2098E+00  0.5256E-01
    -56.034  0.3379E+00  0.1367E+00
    -55.785  0.1317E-01  0.1400E+00
    -55.536  0.9194E-07  0.1400E+00
    -55.287  0.0000E+00  0.1400E+00
    -55.038  0.0000E+00  0.1400E+00
    -54.789  0.0000E+00  0.1400E+00
    -54.540  0.0000E+00  0.1400E+00
    -54.291  0.0000E+00  0.1400E+00
    -54.042  0.0000E+00  0.1400E+00
    -53.793  0.0000E+00  0.1400E+00
    -53.544  0.0000E+00  0.1400E+00
    -53.295  0.0000E+00  0.1400E+00
    -53.046  0.0000E+00  0.1400E+00
    -52.797  0.0000E+00  0.1400E+00
    -52.548  0.0000E+00  0.1400E+00
    -52.299  0.0000E+00  0.1400E+00
    -52.050  0.0000E+00  0.1400E+00
    -51.801  0.0000E+00  0.1400E+00
    -51.551  0.0000E+00  0.1400E+00
    -51.302  0.0000E+00  0.1400E+00
    -51.053  0.0000E+00  0.1400E+00
    -50.804  0.0000E+00  0.1400E+00
    -50.555  0.0000E+00  0.1400E+00
    -50.306  0.0000E+00  0.1400E+00
    -50.057  0.0000E+00  0.1400E+00
    -49.808  0.0000E+00  0.1400E+00
    -49.559  0.0000E+00  0.1400E+00
    -49.310  0.0000E+00  0.1400E+00
    -49.061  0.0000E+00  0.1400E+00
    -48.812  0.0000E+00  0.1400E+00
    -48.563  0.0000E+00  0.1400E+00
    -48.314  0.0000E+00  0.1400E+00
    -48.065  0.0000E+00  0.1400E+00
    -47.816  0.7243E-13  0.1400E+00
    -47.567  0.1711E-04  0.1400E+00
    -47.318  0.5776E-01  0.1544E+00
    -47.069  0.2470E+00  0.2159E+00
    -46.820  0.1331E+00  0.2491E+00
    -46.571  0.4386E-01  0.2600E+00
    -46.321  0.2307E-04  0.2600E+00
    -46.072  0.1315E-12  0.2600E+00
    -45.823  0.0000E+00  0.2600E+00
    -45.574  0.0000E+00  0.2600E+00
    -45.325  0.0000E+00  0.2600E+00
    -45.076  0.0000E+00  0.2600E+00
    -44.827  0.0000E+00  0.2600E+00
    -44.578  0.0000E+00  0.2600E+00
    -44.329  0.0000E+00  0.2600E+00
    -44.080  0.0000E+00  0.2600E+00
    -43.831  0.0000E+00  0.2600E+00
    -43.582  0.0000E+00  0.2600E+00
    -43.333  0.0000E+00  0.2600E+00
    -43.084  0.0000E+00  0.2600E+00
    -42.835  0.0000E+00  0.2600E+00
    -42.586  0.0000E+00  0.2600E+00
    -42.337  0.0000E+00  0.2600E+00
    -42.088  0.0000E+00  0.2600E+00
    -41.839  0.0000E+00  0.2600E+00
    -41.590  0.0000E+00  0.2600E+00
    -41.340  0.0000E+00  0.2600E+00
    -41.091  0.0000E+00  0.2600E+00
    -40.842  0.3599E-08  0.2600E+00
    -40.593  0.2734E-02  0.2607E+00
    -40.344  0.8742E-01  0.2825E+00
    -40.095  0.1441E+00  0.3183E+00
    -39.846  0.2992E+00  0.3928E+00
    -39.597  0.2874E-01  0.4000E+00
    -39.348  0.6184E-06  0.4000E+00
    -39.099  0.0000E+00  0.4000E+00
    -38.850  0.0000E+00  0.4000E+00
    -38.601  0.0000E+00  0.4000E+00
    -38.352  0.0000E+00  0.4000E+00
    -38.103  0.0000E+00  0.4000E+00
    -37.854  0.0000E+00  0.4000E+00
    -37.605  0.0000E+00  0.4000E+00
    -37.356  0.0000E+00  0.4000E+00
    -37.107  0.0000E+00  0.4000E+00
    -36.858  0.0000E+00  0.4000E+00
    -36.609  0.0000E+00  0.4000E+00
    -36.360  0.0000E+00  0.4000E+00
    -36.110  0.0000E+00  0.4000E+00
    -35.861  0.0000E+00  0.4000E+00
    -35.612  0.0000E+00  0.4000E+00
    -35.363  0.0000E+00  0.4000E+00
    -35.114  0.0000E+00  0.4000E+00
    -34.865  0.0000E+00  0.4000E+00
    -34.616  0.0000E+00  0.4000E+00
    -34.367  0.0000E+00  0.4000E+00
    -34.118  0.0000E+00  0.4000E+00
    -33.869  0.0000E+00  0.4000E+00
    -33.620  0.0000E+00  0.4000E+00
    -33.371  0.0000E+00  0.4000E+00
    -33.122  0.0000E+00  0.4000E+00
    -32.873  0.0000E+00  0.4000E+00
    -32.624  0.0000E+00  0.4000E+00
    -32.375  0.0000E+00  0.4000E+00
    -32.126  0.0000E+00  0.4000E+00
    -31.877  0.0000E+00  0.4000E+00
    -31.628  0.0000E+00  0.4000E+00
    -31.379  0.0000E+00  0.4000E+00
    -31.130  0.0000E+00  0.4000E+00
    -30.880  0.6569E-10  0.4000E+00
    -30.631  0.5008E-03  0.4001E+00
    -30.382  0.1430E+00  0.4357E+00
    -30.133  0.1006E+01  0.6863E+00
    -29.884  0.5337E+00  0.8192E+00
    -29.635  0.3274E-02  0.8200E+00
    -29.386  0.1696E-08  0.8200E+00
    -29.137  0.0000E+00  0.8200E+00
    -28.888  0.0000E+00  0.8200E+00
    -28.639  0.0000E+00  0.8200E+00
    -28.390  0.0000E+00  0.8200E+00
    -28.141  0.0000E+00  0.8200E+00
    -27.892  0.0000E+00  0.8200E+00
    -27.643  0.0000E+00  0.8200E+00
    -27.394  0.0000E+00  0.8200E+00
    -27.145  0.4441E-08  0.8200E+00
    -26.896  0.4048E-02  0.8210E+00
    -26.647  0.2787E+00  0.8904E+00
    -26.398  0.6793E+00  0.1060E+01
    -26.149  0.4755E+00  0.1178E+01
    -25.899  0.7923E-02  0.1180E+01
    -25.650  0.3290E-07  0.1180E+01
    -25.401  0.0000E+00  0.1180E+01
    -25.152  0.0000E+00  0.1180E+01
    -24.903  0.0000E+00  0.1180E+01
    -24.654  0.0000E+00  0.1180E+01
    -24.405  0.0000E+00  0.1180E+01
    -24.156  0.1425E-13  0.1180E+01
    -23.907  0.7111E-05  0.1180E+01
    -23.658  0.3478E-01  0.1189E+01
    -23.409  0.3540E+00  0.1277E+01
    -23.160  0.6521E+00  0.1439E+01
    -22.911  0.3242E+00  0.1520E+01
    -22.662  0.8034E-01  0.1540E+01
    -22.413  0.2659E-04  0.1540E+01
    -22.164  0.1457E-12  0.1540E+01
    -21.915  0.0000E+00  0.1540E+01
    -21.666  0.0000E+00  0.1540E+01
    -21.417  0.0000E+00  0.1540E+01
    -21.168  0.0000E+00  0.1540E+01
    -20.919  0.0000E+00  0.1540E+01
    -20.669  0.0000E+00  0.1540E+01
    -20.420  0.0000E+00  0.1540E+01
    -20.171  0.0000E+00  0.1540E+01
    -19.922  0.0000E+00  0.1540E+01
    -19.673  0.0000E+00  0.1540E+01
    -19.424  0.2016E-14  0.1540E+01
    -19.175  0.2446E-05  0.1540E+01
    -18.926  0.2744E-01  0.1547E+01
    -18.677  0.2383E+00  0.1606E+01
    -18.428  0.6226E+00  0.1761E+01
    -18.179  0.5975E+00  0.1910E+01
    -17.930  0.1904E+00  0.1957E+01
    -17.681  0.1014E-01  0.1960E+01
    -17.432  0.1201E-06  0.1960E+01
    -17.183  0.0000E+00  0.1960E+01
    -16.934  0.0000E+00  0.1960E+01
    -16.685  0.0000E+00  0.1960E+01
    -16.436  0.0000E+00  0.1960E+01
    -16.187  0.0000E+00  0.1960E+01
    -15.938  0.0000E+00  0.1960E+01
    -15.689  0.0000E+00  0.1960E+01
    -15.439  0.0000E+00  0.1960E+01
    -15.190  0.0000E+00  0.1960E+01
    -14.941  0.0000E+00  0.1960E+01
    -14.692  0.0000E+00  0.1960E+01
    -14.443  0.0000E+00  0.1960E+01
    -14.194  0.0000E+00  0.1960E+01
    -13.945  0.0000E+00  0.1960E+01
    -13.696  0.0000E+00  0.1960E+01
    -13.447  0.0000E+00  0.1960E+01
    -13.198  0.0000E+00  0.1960E+01
    -12.949  0.0000E+00  0.1960E+01
    -12.700  0.0000E+00  0.1960E+01
    -12.451  0.0000E+00  0.1960E+01
    -12.202  0.0000E+00  0.1960E+01
    -11.953  0.0000E+00  0.1960E+01
    -11.704  0.0000E+00  0.1960E+01
    -11.455  0.0000E+00  0.1960E+01
    -11.206  0.0000E+00  0.1960E+01
    -10.957  0.0000E+00  0.1960E+01
    -10.708  0.0000E+00  0.1960E+01
    -10.458  0.0000E+00  0.1960E+01
    -10.209  0.0000E+00  0.1960E+01
     -9.960  0.0000E+00  0.1960E+01
     -9.711  0.0000E+00  0.1960E+01
     -9.462  0.0000E+00  0.1960E+01
     -9.213  0.0000E+00  0.1960E+01
     -8.964  0.0000E+00  0.1960E+01
     -8.715  0.0000E+00  0.1960E+01
     -8.466  0.0000E+00  0.1960E+01
     -8.217  0.0000E+00  0.1960E+01
     -7.968  0.4399E-09  0.1960E+01
     -7.719  0.2894E-03  0.1960E+01
     -7.470  0.4024E-01  0.1970E+01
     -7.221  0.7235E-01  0.1988E+01
     -6.972  0.8304E-01  0.2009E+01
     -6.723  0.1930E+00  0.2057E+01
     -6.474  0.1815E+00  0.2102E+01
     -6.225  0.2122E+00  0.2155E+01
     -5.976  0.1044E+00  0.2181E+01
     -5.727  0.1138E+00  0.2209E+01
     -5.478  0.4317E-01  0.2220E+01
     -5.228  0.3241E-04  0.2220E+01
     -4.979  0.5185E-12  0.2220E+01
     -4.730  0.0000E+00  0.2220E+01
     -4.481  0.1689E-08  0.2220E+01
     -4.232  0.4503E-03  0.2220E+01
     -3.983  0.2772E-01  0.2227E+01
     -3.734  0.5040E-01  0.2240E+01
     -3.485  0.6011E-01  0.2255E+01
     -3.236  0.9916E-01  0.2279E+01
     -2.987  0.1630E+00  0.2320E+01
     -2.738  0.2484E+00  0.2382E+01
     -2.489  0.2335E+00  0.2440E+01
     -2.240  0.2555E+00  0.2503E+01
     -1.991  0.1997E+00  0.2553E+01
     -1.742  0.1301E+00  0.2586E+01
     -1.493  0.4999E-01  0.2598E+01
     -1.244  0.7774E-02  0.2600E+01
     -0.995  0.6755E-04  0.2600E+01
     -0.746  0.3791E-10  0.2600E+01
     -0.497  0.0000E+00  0.2600E+01
     -0.248  0.0000E+00  0.2600E+01
      0.002  0.0000E+00  0.2600E+01
      0.251  0.6446E-11  0.2600E+01
      0.500  0.2977E-04  0.2600E+01
      0.749  0.4751E-02  0.2601E+01
      0.998  0.2746E-01  0.2608E+01
      1.247  0.9567E-01  0.2632E+01
      1.496  0.1169E+00  0.2661E+01
      1.745  0.1737E+00  0.2704E+01
      1.994  0.2259E+00  0.2761E+01
      2.243  0.3055E+00  0.2837E+01
      2.492  0.2648E+00  0.2903E+01
      2.741  0.3129E+00  0.2980E+01
      2.990  0.3602E+00  0.3070E+01
      3.239  0.3690E+00  0.3162E+01
      3.488  0.4751E+00  0.3280E+01
      3.737  0.5732E+00  0.3423E+01
      3.986  0.6532E+00  0.3586E+01
      4.235  0.6453E+00  0.3747E+01
      4.484  0.6201E+00  0.3901E+01
      4.733  0.5770E+00  0.4045E+01
      4.983  0.4639E+00  0.4160E+01
      5.232  0.3697E+00  0.4252E+01
      5.481  0.2938E+00  0.4325E+01
      5.730  0.2991E+00  0.4400E+01
      5.979  0.2034E+00  0.4451E+01
      6.228  0.1754E+00  0.4494E+01
      6.477  0.8062E-01  0.4514E+01
      6.726  0.1086E+00  0.4541E+01
      6.975  0.1428E+00  0.4577E+01
      7.224  0.1931E+00  0.4625E+01
      7.473  0.2203E+00  0.4680E+01
      7.722  0.2122E+00  0.4733E+01
      7.971  0.2046E+00  0.4784E+01
      8.220  0.2602E+00  0.4848E+01
      8.469  0.2683E+00  0.4915E+01
      8.718  0.2314E+00  0.4973E+01
      8.967  0.2700E+00  0.5040E+01
      9.216  0.3633E+00  0.5131E+01
      9.465  0.4158E+00  0.5234E+01
      9.714  0.4956E+00  0.5358E+01
      9.963  0.4816E+00  0.5478E+01
     10.213  0.4767E+00  0.5596E+01
     10.462  0.4622E+00  0.5711E+01
     10.711  0.4492E+00  0.5823E+01
     10.960  0.4271E+00  0.5930E+01
     11.209  0.4716E+00  0.6047E+01
     11.458  0.3717E+00  0.6140E+01
     11.707  0.8172E-01  0.6160E+01
     11.956  0.2240E-03  0.6160E+01
     12.205  0.4247E-10  0.6160E+01
     12.454  0.0000E+00  0.6160E+01
     12.703  0.0000E+00  0.6160E+01
     12.952  0.0000E+00  0.6160E+01
     13.201  0.0000E+00  0.6160E+01
     13.450  0.0000E+00  0.6160E+01
     13.699  0.0000E+00  0.6160E+01
     13.948  0.0000E+00  0.6160E+01
     14.197  0.0000E+00  0.6160E+01
     14.446  0.0000E+00  0.6160E+01
     14.695  0.0000E+00  0.6160E+01
     14.944  0.0000E+00  0.6160E+01
