       N       E                     dE             d eps       ncg     rms          rms(c)
DAV:   1     0.510933505347E+04    0.51093E+04   -0.22323E+05  8624   0.141E+03
DAV:   2    -0.251460816591E+02   -0.51345E+04   -0.48968E+04  9128   0.560E+02
DAV:   3    -0.724911028857E+03   -0.69976E+03   -0.67565E+03 14000   0.166E+02
DAV:   4    -0.779919713334E+03   -0.55009E+02   -0.53771E+02 14700   0.492E+01
DAV:   5    -0.785436672775E+03   -0.55170E+01   -0.54689E+01 15988   0.145E+01    0.689E+01
RMM:   6    -0.728356768881E+03    0.57080E+02   -0.13664E+03 11889   0.714E+01    0.760E+01
RMM:   7    -0.650979423706E+03    0.77377E+02   -0.25697E+02 11717   0.397E+01    0.355E+01
RMM:   8    -0.641469980358E+03    0.95094E+01   -0.94821E+01 13559   0.172E+01    0.153E+01
RMM:   9    -0.642228515566E+03   -0.75854E+00   -0.33085E+01 13822   0.968E+00    0.190E+01
RMM:  10    -0.641152926745E+03    0.10756E+01   -0.12502E+01 14300   0.644E+00    0.113E+01
RMM:  11    -0.640196618758E+03    0.95631E+00   -0.66376E+00 13016   0.443E+00    0.926E+00
RMM:  12    -0.640194738511E+03    0.18802E-02   -0.43803E+00 13424   0.377E+00    0.877E+00
RMM:  13    -0.640328515027E+03   -0.13378E+00   -0.36026E+00 13787   0.319E+00    0.656E+00
RMM:  14    -0.640343770068E+03   -0.15255E-01   -0.19873E+00 13821   0.252E+00    0.554E+00
RMM:  15    -0.640154008958E+03    0.18976E+00   -0.12564E+00 13260   0.179E+00    0.356E+00
RMM:  16    -0.640144286107E+03    0.97229E-02   -0.94245E-01 14465   0.133E+00    0.169E+00
RMM:  17    -0.640191140462E+03   -0.46854E-01   -0.96392E-01 14100   0.122E+00    0.114E+00
RMM:  18    -0.640259933276E+03   -0.68793E-01   -0.63535E-01 14581   0.102E+00    0.178E+00
RMM:  19    -0.640288124943E+03   -0.28192E-01   -0.38714E-01 14477   0.862E-01    0.119E+00
RMM:  20    -0.640302050884E+03   -0.13926E-01   -0.26775E-01 13919   0.704E-01    0.867E-01
RMM:  21    -0.640314749606E+03   -0.12699E-01   -0.18886E-01 14488   0.592E-01    0.120E+00
RMM:  22    -0.640315502616E+03   -0.75301E-03   -0.15677E-01 14347   0.516E-01    0.295E-01
RMM:  23    -0.640326541126E+03   -0.11039E-01   -0.12744E-01 14870   0.419E-01    0.195E-01
RMM:  24    -0.640333743965E+03   -0.72028E-02   -0.76145E-02 15134   0.338E-01    0.151E-01
RMM:  25    -0.640338721252E+03   -0.49773E-02   -0.58006E-02 14585   0.279E-01    0.680E-02
RMM:  26    -0.640342795857E+03   -0.40746E-02   -0.43203E-02 14040   0.244E-01    0.105E-01
RMM:  27    -0.640345865976E+03   -0.30701E-02   -0.32461E-02 14368   0.211E-01    0.774E-02
RMM:  28    -0.640348354697E+03   -0.24887E-02   -0.25958E-02 14255   0.187E-01    0.337E-02
RMM:  29    -0.640350213453E+03   -0.18588E-02   -0.19356E-02 13717   0.168E-01    0.539E-02
RMM:  30    -0.640351705909E+03   -0.14925E-02   -0.15382E-02 14149   0.148E-01    0.224E-02
RMM:  31    -0.640352799769E+03   -0.10939E-02   -0.11449E-02 13428   0.130E-01    0.152E-02
RMM:  32    -0.640353692919E+03   -0.89315E-03   -0.93285E-03 13043   0.117E-01    0.356E-02
RMM:  33    -0.640354383256E+03   -0.69034E-03   -0.71805E-03 12973   0.105E-01    0.713E-02
RMM:  34    -0.640354971692E+03   -0.58844E-03   -0.60351E-03 12966   0.952E-02    0.108E-01
RMM:  35    -0.640355399896E+03   -0.42820E-03   -0.45103E-03 12842   0.856E-02    0.118E-01
RMM:  36    -0.640355739013E+03   -0.33912E-03   -0.35853E-03 12752   0.769E-02    0.126E-01
RMM:  37    -0.640356007081E+03   -0.26807E-03   -0.27765E-03 12710   0.707E-02    0.142E-01
RMM:  38    -0.640356232975E+03   -0.22589E-03   -0.23922E-03 12646   0.637E-02    0.152E-01
RMM:  39    -0.640356382757E+03   -0.14978E-03   -0.18722E-03 12570   0.576E-02    0.138E-01
RMM:  40    -0.640356500216E+03   -0.11746E-03   -0.14244E-03 12469   0.530E-02    0.127E-01
RMM:  41    -0.640356605782E+03   -0.10557E-03   -0.12454E-03 12339   0.481E-02    0.118E-01
RMM:  42    -0.640356687420E+03   -0.81637E-04   -0.90708E-04 12211   0.443E-02    0.118E-01
RMM:  43    -0.640356761014E+03   -0.73594E-04   -0.79281E-04 12043   0.396E-02    0.122E-01
RMM:  44    -0.640356807068E+03   -0.46054E-04   -0.59774E-04 11915   0.369E-02    0.117E-01
RMM:  45    -0.640356856545E+03   -0.49477E-04   -0.52992E-04 11769   0.337E-02    0.120E-01
RMM:  46    -0.640356893751E+03   -0.37206E-04   -0.40369E-04 11624   0.308E-02    0.124E-01
RMM:  47    -0.640356925735E+03   -0.31984E-04   -0.35066E-04 11437   0.285E-02    0.127E-01
RMM:  48    -0.640356951747E+03   -0.26012E-04   -0.27881E-04 11211   0.263E-02    0.131E-01
RMM:  49    -0.640356971336E+03   -0.19589E-04   -0.23953E-04 10890   0.247E-02    0.131E-01
RMM:  50    -0.640356989808E+03   -0.18473E-04   -0.21028E-04 10624   0.233E-02    0.137E-01
RMM:  51    -0.640357007931E+03   -0.18123E-04   -0.17576E-04 10363   0.219E-02    0.140E-01
RMM:  52    -0.640357020764E+03   -0.12833E-04   -0.14301E-04  9907   0.203E-02    0.142E-01
RMM:  53    -0.640357031814E+03   -0.11050E-04   -0.12396E-04  9673   0.191E-02    0.144E-01
RMM:  54    -0.640357040586E+03   -0.87716E-05   -0.10362E-04  9212   0.180E-02    0.145E-01
RMM:  55    -0.640357047666E+03   -0.70797E-05   -0.89677E-05  8947   0.172E-02
   1 F= -.64035705E+03 E0= -.64026705E+03  d E =-.640357E+03
       N       E                     dE             d eps       ncg     rms          rms(c)
DAV:   1    -0.641763300013E+03   -0.14063E+01   -0.18859E+03  8624   0.120E+02    0.269E+01
RMM:   2    -0.685057705297E+03   -0.43294E+02   -0.24966E+02  9658   0.521E+01    0.572E+01
RMM:   3    -0.646864230084E+03    0.38193E+02   -0.51547E+01 12156   0.246E+01    0.155E+01
RMM:   4    -0.646428741852E+03    0.43549E+00   -0.13736E+01 13839   0.880E+00    0.144E+01
RMM:   5    -0.645060095372E+03    0.13686E+01   -0.57588E+00 13001   0.595E+00    0.108E+01
RMM:   6    -0.644714405699E+03    0.34569E+00   -0.33568E+00 13600   0.405E+00    0.102E+01
RMM:   7    -0.644188803451E+03    0.52560E+00   -0.19053E+00 13890   0.312E+00    0.491E+00
RMM:   8    -0.644191636333E+03   -0.28329E-02   -0.11217E+00 14504   0.204E+00    0.560E+00
RMM:   9    -0.644065246641E+03    0.12639E+00   -0.54851E-01 14886   0.145E+00    0.257E+00
RMM:  10    -0.644049624848E+03    0.15622E-01   -0.32091E-01 15016   0.882E-01    0.113E+00
RMM:  11    -0.644069664088E+03   -0.20039E-01   -0.21513E-01 15081   0.646E-01    0.111E+00
RMM:  12    -0.644078039926E+03   -0.83758E-02   -0.13706E-01 15230   0.533E-01    0.539E-01
RMM:  13    -0.644093281226E+03   -0.15241E-01   -0.11030E-01 15068   0.445E-01    0.901E-01
RMM:  14    -0.644097129880E+03   -0.38487E-02   -0.68214E-02 15012   0.402E-01    0.331E-01
RMM:  15    -0.644103400524E+03   -0.62706E-02   -0.62425E-02 15502   0.332E-01    0.170E-01
RMM:  16    -0.644107092861E+03   -0.36923E-02   -0.37884E-02 15468   0.284E-01    0.123E-01
RMM:  17    -0.644110279767E+03   -0.31869E-02   -0.30710E-02 15309   0.246E-01    0.191E-01
RMM:  18    -0.644112052795E+03   -0.17730E-02   -0.20009E-02 15168   0.215E-01    0.877E-02
RMM:  19    -0.644113644402E+03   -0.15916E-02   -0.16654E-02 14887   0.187E-01    0.674E-02
RMM:  20    -0.644114686833E+03   -0.10424E-02   -0.10989E-02 14864   0.169E-01    0.318E-02
RMM:  21    -0.644115570745E+03   -0.88391E-03   -0.91098E-03 14783   0.151E-01    0.211E-02
RMM:  22    -0.644116206883E+03   -0.63614E-03   -0.65501E-03 14679   0.135E-01    0.214E-02
RMM:  23    -0.644116731765E+03   -0.52488E-03   -0.54031E-03 14527   0.122E-01    0.153E-02
RMM:  24    -0.644117123436E+03   -0.39167E-03   -0.39902E-03 14474   0.111E-01    0.123E-02
RMM:  25    -0.644117454133E+03   -0.33070E-03   -0.33860E-03 14396   0.103E-01    0.870E-03
RMM:  26    -0.644117714755E+03   -0.26062E-03   -0.26596E-03 14321   0.939E-02    0.968E-03
RMM:  27    -0.644117931718E+03   -0.21696E-03   -0.22198E-03 14237   0.873E-02    0.541E-03
RMM:  28    -0.644118109985E+03   -0.17827E-03   -0.18281E-03 14167   0.809E-02    0.924E-03
RMM:  29    -0.644118266231E+03   -0.15625E-03   -0.16061E-03 13964   0.753E-02    0.806E-03
RMM:  30    -0.644118394324E+03   -0.12809E-03   -0.13174E-03 13942   0.709E-02    0.251E-02
RMM:  31    -0.644118510547E+03   -0.11622E-03   -0.12030E-03 13558   0.658E-02    0.219E-02
RMM:  32    -0.644118606525E+03   -0.95977E-04   -0.98820E-04 13433   0.624E-02    0.226E-02
RMM:  33    -0.644118697473E+03   -0.90948E-04   -0.94279E-04 12862   0.588E-02    0.242E-02
RMM:  34    -0.644118773549E+03   -0.76077E-04   -0.78857E-04 12604   0.560E-02    0.240E-02
RMM:  35    -0.644118847094E+03   -0.73544E-04   -0.76710E-04 11808   0.536E-02    0.247E-02
RMM:  36    -0.644118909651E+03   -0.62557E-04   -0.64957E-04 11563   0.512E-02    0.266E-02
RMM:  37    -0.644118971467E+03   -0.61817E-04   -0.64851E-04 10848   0.495E-02    0.284E-02
RMM:  38    -0.644119024183E+03   -0.52716E-04   -0.55117E-04 10515   0.474E-02    0.297E-02
RMM:  39    -0.644119076776E+03   -0.52592E-04   -0.55496E-04  9688   0.459E-02    0.317E-02
RMM:  40    -0.644119121965E+03   -0.45190E-04   -0.47600E-04  9527   0.443E-02    0.334E-02
RMM:  41    -0.644119167585E+03   -0.45620E-04   -0.48461E-04  8918   0.430E-02    0.349E-02
RMM:  42    -0.644119207066E+03   -0.39480E-04   -0.41848E-04  8689   0.414E-02    0.365E-02
RMM:  43    -0.644119247149E+03   -0.40084E-04   -0.42844E-04  8260   0.404E-02    0.381E-02
RMM:  44    -0.644119282045E+03   -0.34895E-04   -0.37217E-04  8071   0.388E-02    0.395E-02
RMM:  45    -0.644119317513E+03   -0.35468E-04   -0.38134E-04  7729   0.380E-02    0.410E-02
RMM:  46    -0.644119348594E+03   -0.31081E-04   -0.33268E-04  7654   0.362E-02    0.424E-02
RMM:  47    -0.644119380300E+03   -0.31706E-04   -0.34282E-04  7296   0.359E-02    0.431E-02
RMM:  48    -0.644119408202E+03   -0.27902E-04   -0.29978E-04  7189   0.337E-02    0.440E-02
RMM:  49    -0.644119436687E+03   -0.28486E-04   -0.30874E-04  6869   0.336E-02    0.452E-02
RMM:  50    -0.644119461746E+03   -0.25059E-04   -0.27038E-04  6720   0.314E-02    0.464E-02
RMM:  51    -0.644119487393E+03   -0.25647E-04   -0.27925E-04  6411   0.315E-02    0.475E-02
RMM:  52    -0.644119509893E+03   -0.22500E-04   -0.24481E-04  6331   0.294E-02    0.490E-02
RMM:  53    -0.644119533147E+03   -0.23254E-04   -0.25429E-04  6095   0.295E-02    0.500E-02
RMM:  54    -0.644119553573E+03   -0.20426E-04   -0.22277E-04  5861   0.276E-02    0.509E-02
RMM:  55    -0.644119574653E+03   -0.21080E-04   -0.23099E-04  5641   0.276E-02    0.521E-02
RMM:  56    -0.644119593187E+03   -0.18534E-04   -0.20304E-04  5549   0.259E-02    0.531E-02
RMM:  57    -0.644119612455E+03   -0.19268E-04   -0.21085E-04  5435   0.260E-02    0.545E-02
RMM:  58    -0.644119629284E+03   -0.16829E-04   -0.18569E-04  5387   0.244E-02    0.554E-02
RMM:  59    -0.644119646685E+03   -0.17402E-04   -0.19274E-04  5226   0.244E-02    0.566E-02
RMM:  60    -0.644119662012E+03   -0.15327E-04   -0.16988E-04  5166   0.231E-02
   2 F= -.64411966E+03 E0= -.64404110E+03  d E =-.376261E+01
       N       E                     dE             d eps       ncg     rms          rms(c)
DAV:   1    -0.644215940963E+03   -0.96294E-01   -0.70928E+01  9464   0.234E+01    0.686E+00
RMM:   2    -0.648155585123E+03   -0.39396E+01   -0.10257E+01 10547   0.991E+00    0.177E+01
RMM:   3    -0.644401329936E+03    0.37543E+01   -0.27524E+00 11307   0.539E+00    0.301E+00
RMM:   4    -0.644524039734E+03   -0.12271E+00   -0.70704E-01 13441   0.223E+00    0.505E+00
RMM:   5    -0.644369074928E+03    0.15496E+00   -0.25535E-01 13202   0.127E+00    0.224E+00
RMM:   6    -0.644352565427E+03    0.16510E-01   -0.11765E-01 14062   0.747E-01    0.183E+00
RMM:   7    -0.644341298078E+03    0.11267E-01   -0.74565E-02 14085   0.574E-01    0.107E+00
RMM:   8    -0.644345119651E+03   -0.38216E-02   -0.47630E-02 14177   0.451E-01    0.136E+00
RMM:   9    -0.644334710436E+03    0.10409E-01   -0.25080E-02 14727   0.325E-01    0.331E-01
RMM:  10    -0.644336869685E+03   -0.21592E-02   -0.15993E-02 14776   0.185E-01    0.544E-01
RMM:  11    -0.644335765950E+03    0.11037E-02   -0.75732E-03 14964   0.144E-01    0.139E-01
RMM:  12    -0.644336426466E+03   -0.66052E-03   -0.75316E-03 14990   0.102E-01    0.121E-01
RMM:  13    -0.644336880798E+03   -0.45433E-03   -0.35717E-03 14875   0.893E-02    0.186E-01
RMM:  14    -0.644336987441E+03   -0.10664E-03   -0.29852E-03 14852   0.759E-02    0.540E-02
RMM:  15    -0.644337167011E+03   -0.17957E-03   -0.21048E-03 14767   0.633E-02    0.331E-02
RMM:  16    -0.644337320752E+03   -0.15374E-03   -0.15555E-03 14228   0.562E-02    0.425E-02
RMM:  17    -0.644337414592E+03   -0.93841E-04   -0.10136E-03 13724   0.486E-02    0.345E-02
RMM:  18    -0.644337482309E+03   -0.67716E-04   -0.76946E-04 13285   0.412E-02    0.185E-02
RMM:  19    -0.644337530240E+03   -0.47932E-04   -0.53872E-04 13345   0.363E-02    0.131E-02
RMM:  20    -0.644337567032E+03   -0.36792E-04   -0.41163E-04 13001   0.316E-02    0.547E-03
RMM:  21    -0.644337595301E+03   -0.28269E-04   -0.29483E-04 12558   0.286E-02    0.284E-03
RMM:  22    -0.644337615839E+03   -0.20539E-04   -0.21354E-04 12004   0.255E-02    0.327E-03
RMM:  23    -0.644337631716E+03   -0.15877E-04   -0.16592E-04 10949   0.237E-02    0.265E-03
RMM:  24    -0.644337642688E+03   -0.10972E-04   -0.12248E-04 10257   0.231E-02    0.195E-03
RMM:  25    -0.644337652127E+03   -0.94391E-05   -0.99655E-05  9656   0.212E-02
   3 F= -.64433765E+03 E0= -.64425777E+03  d E =-.398060E+01
       N       E                     dE             d eps       ncg     rms          rms(c)
DAV:   1    -0.644305425153E+03    0.32218E-01   -0.57345E+02  9044   0.809E+01    0.238E+01
RMM:   2    -0.685121051888E+03   -0.40816E+02   -0.85398E+01 10244   0.302E+01    0.408E+01
RMM:   3    -0.647729350887E+03    0.37392E+02   -0.25035E+01 11795   0.160E+01    0.145E+01
RMM:   4    -0.646414726862E+03    0.13146E+01   -0.68810E+00 13526   0.677E+00    0.941E+00
RMM:   5    -0.645585638442E+03    0.82909E+00   -0.27956E+00 12989   0.414E+00    0.507E+00
RMM:   6    -0.645545717037E+03    0.39921E-01   -0.12161E+00 13927   0.232E+00    0.626E+00
RMM:   7    -0.645449465947E+03    0.96251E-01   -0.56631E-01 14577   0.176E+00    0.507E+00
RMM:   8    -0.645381920377E+03    0.67546E-01   -0.41277E-01 14024   0.143E+00    0.370E+00
RMM:   9    -0.645346488116E+03    0.35432E-01   -0.20666E-01 14774   0.966E-01    0.297E+00
RMM:  10    -0.645289202177E+03    0.57286E-01   -0.11037E-01 14849   0.690E-01    0.112E+00
RMM:  11    -0.645286327337E+03    0.28748E-02   -0.78741E-02 14933   0.472E-01    0.653E-01
RMM:  12    -0.645290341977E+03   -0.40146E-02   -0.46898E-02 15054   0.371E-01    0.631E-01
RMM:  13    -0.645291600046E+03   -0.12581E-02   -0.33827E-02 15241   0.301E-01    0.275E-01
RMM:  14    -0.645294475538E+03   -0.28755E-02   -0.24081E-02 15245   0.255E-01    0.373E-01
RMM:  15    -0.645295763065E+03   -0.12875E-02   -0.16852E-02 15129   0.228E-01    0.260E-01
RMM:  16    -0.645296832625E+03   -0.10696E-02   -0.14109E-02 15334   0.197E-01    0.168E-01
RMM:  17    -0.645297735641E+03   -0.90302E-03   -0.99665E-03 15061   0.175E-01    0.146E-01
RMM:  18    -0.645298401783E+03   -0.66614E-03   -0.79577E-03 15150   0.157E-01    0.582E-02
RMM:  19    -0.645298968088E+03   -0.56630E-03   -0.61439E-03 14673   0.139E-01    0.405E-02
RMM:  20    -0.645299405424E+03   -0.43734E-03   -0.47098E-03 14526   0.127E-01    0.216E-02
RMM:  21    -0.645299761770E+03   -0.35635E-03   -0.37360E-03 14411   0.115E-01    0.177E-02
RMM:  22    -0.645300050081E+03   -0.28831E-03   -0.30212E-03 14253   0.106E-01    0.940E-03
RMM:  23    -0.645300283812E+03   -0.23373E-03   -0.24414E-03 14139   0.974E-02    0.121E-02
RMM:  24    -0.645300475722E+03   -0.19191E-03   -0.20074E-03 14016   0.908E-02    0.774E-03
RMM:  25    -0.645300639618E+03   -0.16390E-03   -0.17253E-03 13894   0.842E-02    0.574E-03
RMM:  26    -0.645300777120E+03   -0.13750E-03   -0.14340E-03 13801   0.792E-02    0.715E-03
RMM:  27    -0.645300897782E+03   -0.12066E-03   -0.12687E-03 13609   0.737E-02    0.282E-03
RMM:  28    -0.645301000393E+03   -0.10261E-03   -0.10798E-03 13415   0.697E-02    0.367E-03
RMM:  29    -0.645301095326E+03   -0.94933E-04   -0.98300E-04 13188   0.657E-02    0.945E-03
RMM:  30    -0.645301179815E+03   -0.84489E-04   -0.87185E-04 12960   0.624E-02    0.203E-02
RMM:  31    -0.645301252651E+03   -0.72836E-04   -0.78438E-04 12682   0.592E-02    0.144E-02
RMM:  32    -0.645301320157E+03   -0.67506E-04   -0.71082E-04 12542   0.564E-02    0.171E-02
RMM:  33    -0.645301382354E+03   -0.62197E-04   -0.65606E-04 12230   0.538E-02    0.198E-02
RMM:  34    -0.645301438320E+03   -0.55965E-04   -0.59952E-04 12041   0.513E-02    0.194E-02
RMM:  35    -0.645301491352E+03   -0.53033E-04   -0.56322E-04 11616   0.495E-02    0.210E-02
RMM:  36    -0.645301540000E+03   -0.48648E-04   -0.51771E-04 11327   0.475E-02    0.230E-02
RMM:  37    -0.645301585841E+03   -0.45841E-04   -0.49189E-04 10711   0.461E-02    0.240E-02
RMM:  38    -0.645301628226E+03   -0.42385E-04   -0.45370E-04 10336   0.445E-02    0.258E-02
RMM:  39    -0.645301668556E+03   -0.40331E-04   -0.43389E-04  9899   0.436E-02    0.275E-02
RMM:  40    -0.645301705587E+03   -0.37030E-04   -0.40070E-04  9580   0.418E-02    0.286E-02
RMM:  41    -0.645301741295E+03   -0.35708E-04   -0.38658E-04  9105   0.409E-02    0.301E-02
RMM:  42    -0.645301774390E+03   -0.33095E-04   -0.35891E-04  8776   0.395E-02    0.315E-02
RMM:  43    -0.645301806176E+03   -0.31786E-04   -0.34691E-04  8357   0.392E-02    0.327E-02
RMM:  44    -0.645301835890E+03   -0.29714E-04   -0.32399E-04  8185   0.374E-02    0.342E-02
RMM:  45    -0.645301864562E+03   -0.28672E-04   -0.31466E-04  7696   0.375E-02    0.355E-02
RMM:  46    -0.645301891390E+03   -0.26827E-04   -0.29419E-04  7514   0.354E-02    0.368E-02
RMM:  47    -0.645301917095E+03   -0.25705E-04   -0.28621E-04  7235   0.360E-02    0.373E-02
RMM:  48    -0.645301941267E+03   -0.24172E-04   -0.26615E-04  7072   0.333E-02    0.385E-02
RMM:  49    -0.645301964741E+03   -0.23474E-04   -0.26052E-04  6729   0.342E-02    0.397E-02
RMM:  50    -0.645301986576E+03   -0.21835E-04   -0.24151E-04  6593   0.315E-02    0.408E-02
RMM:  51    -0.645302007953E+03   -0.21377E-04   -0.23824E-04  6387   0.324E-02    0.419E-02
RMM:  52    -0.645302027621E+03   -0.19668E-04   -0.22020E-04  6334   0.297E-02    0.425E-02
RMM:  53    -0.645302047146E+03   -0.19524E-04   -0.21844E-04  6149   0.306E-02    0.435E-02
RMM:  54    -0.645302065164E+03   -0.18018E-04   -0.20102E-04  6005   0.280E-02    0.445E-02
RMM:  55    -0.645302083028E+03   -0.17864E-04   -0.20027E-04  5816   0.289E-02    0.455E-02
RMM:  56    -0.645302099439E+03   -0.16411E-04   -0.18408E-04  5721   0.265E-02    0.464E-02
RMM:  57    -0.645302115791E+03   -0.16352E-04   -0.18423E-04  5646   0.273E-02    0.474E-02
RMM:  58    -0.645302130794E+03   -0.15003E-04   -0.16898E-04  5562   0.250E-02    0.482E-02
RMM:  59    -0.645302145737E+03   -0.14943E-04   -0.16911E-04  5466   0.257E-02    0.491E-02
RMM:  60    -0.645302159470E+03   -0.13733E-04   -0.15567E-04  5380   0.239E-02
   4 F= -.64530216E+03 E0= -.64523145E+03  d E =-.964507E+00
       N       E                     dE             d eps       ncg     rms          rms(c)
DAV:   1    -0.645333225876E+03   -0.31080E-01   -0.25249E+01 10052   0.170E+01    0.419E+00
RMM:   2    -0.647303849465E+03   -0.19706E+01   -0.46277E+00  9620   0.677E+00    0.155E+01
RMM:   3    -0.645500851971E+03    0.18030E+01   -0.10136E+00 11305   0.341E+00    0.422E+00
RMM:   4    -0.645399199213E+03    0.10165E+00   -0.29178E-01 13460   0.147E+00    0.163E+00
RMM:   5    -0.645379692708E+03    0.19507E-01   -0.87163E-02 12915   0.710E-01    0.136E+00
RMM:   6    -0.645374980601E+03    0.47121E-02   -0.38350E-02 13882   0.462E-01    0.112E+00
RMM:   7    -0.645368931992E+03    0.60486E-02   -0.28082E-02 13475   0.394E-01    0.588E-01
RMM:   8    -0.645368895301E+03    0.36691E-04   -0.13198E-02 14527   0.243E-01    0.572E-01
RMM:   9    -0.645367366407E+03    0.15289E-02   -0.60690E-03 14804   0.153E-01    0.194E-01
RMM:  10    -0.645367847985E+03   -0.48158E-03   -0.42240E-03 14587   0.985E-02    0.266E-01
RMM:  11    -0.645367640023E+03    0.20796E-03   -0.21863E-03 14237   0.790E-02    0.809E-02
RMM:  12    -0.645367866235E+03   -0.22621E-03   -0.21254E-03 14256   0.583E-02    0.691E-02
RMM:  13    -0.645368028641E+03   -0.16241E-03   -0.10815E-03 13633   0.520E-02    0.108E-01
RMM:  14    -0.645368074327E+03   -0.45686E-04   -0.88343E-04 13193   0.450E-02    0.343E-02
RMM:  15    -0.645368147571E+03   -0.73243E-04   -0.66052E-04 12782   0.379E-02    0.348E-02
RMM:  16    -0.645368189711E+03   -0.42141E-04   -0.45554E-04 12378   0.339E-02    0.279E-02
RMM:  17    -0.645368220453E+03   -0.30742E-04   -0.34009E-04 11995   0.281E-02    0.131E-02
RMM:  18    -0.645368244492E+03   -0.24039E-04   -0.24440E-04 11896   0.247E-02    0.104E-02
RMM:  19    -0.645368263143E+03   -0.18651E-04   -0.18824E-04 11400   0.210E-02    0.487E-03
RMM:  20    -0.645368276133E+03   -0.12990E-04   -0.13537E-04 10900   0.193E-02    0.333E-03
RMM:  21    -0.645368285738E+03   -0.96053E-05   -0.10434E-04 10246   0.173E-02    0.190E-03
RMM:  22    -0.645368292886E+03   -0.71476E-05   -0.74858E-05  9745   0.160E-02
   5 F= -.64536829E+03 E0= -.64529573E+03  d E =-.103064E+01
       N       E                     dE             d eps       ncg     rms          rms(c)
DAV:   1    -0.643228946368E+03    0.21393E+01   -0.30409E+02  9268   0.676E+01    0.963E+00
RMM:   2    -0.652710132680E+03   -0.94812E+01   -0.47790E+01 10306   0.211E+01    0.275E+01
RMM:   3    -0.646174691227E+03    0.65354E+01   -0.10290E+01 11636   0.101E+01    0.678E+00
RMM:   4    -0.646162398803E+03    0.12292E-01   -0.23824E+00 14074   0.379E+00    0.528E+00
RMM:   5    -0.645894100910E+03    0.26830E+00   -0.68102E-01 12832   0.208E+00    0.237E+00
RMM:   6    -0.645927402924E+03   -0.33302E-01   -0.37895E-01 13531   0.131E+00    0.344E+00
RMM:   7    -0.645875333032E+03    0.52070E-01   -0.24623E-01 13731   0.117E+00    0.201E+00
RMM:   8    -0.645850767818E+03    0.24565E-01   -0.12489E-01 14434   0.718E-01    0.126E+00
RMM:   9    -0.645844696323E+03    0.60715E-02   -0.57010E-02 14852   0.457E-01    0.633E-01
RMM:  10    -0.645845067201E+03   -0.37088E-03   -0.34208E-02 15222   0.283E-01    0.310E-01
RMM:  11    -0.645847746841E+03   -0.26796E-02   -0.23522E-02 14994   0.216E-01    0.439E-01
RMM:  12    -0.645848142760E+03   -0.39592E-03   -0.14462E-02 15170   0.181E-01    0.174E-01
RMM:  13    -0.645849507117E+03   -0.13644E-02   -0.12288E-02 15435   0.148E-01    0.129E-01
RMM:  14    -0.645850250493E+03   -0.74338E-03   -0.72107E-03 15281   0.128E-01    0.154E-01
RMM:  15    -0.645850691476E+03   -0.44098E-03   -0.55071E-03 15035   0.108E-01    0.796E-02
RMM:  16    -0.645851092451E+03   -0.40097E-03   -0.40601E-03 15201   0.926E-02    0.502E-02
RMM:  17    -0.645851403313E+03   -0.31086E-03   -0.30412E-03 14712   0.801E-02    0.603E-02
RMM:  18    -0.645851601938E+03   -0.19862E-03   -0.21985E-03 14506   0.709E-02    0.241E-02
RMM:  19    -0.645851760315E+03   -0.15838E-03   -0.16734E-03 14363   0.620E-02    0.189E-02
RMM:  20    -0.645851874915E+03   -0.11460E-03   -0.12243E-03 14194   0.545E-02    0.903E-03
RMM:  21    -0.645851962915E+03   -0.88001E-04   -0.93407E-04 14009   0.483E-02    0.529E-03
RMM:  22    -0.645852027887E+03   -0.64971E-04   -0.68058E-04 13908   0.431E-02    0.547E-03
RMM:  23    -0.645852079220E+03   -0.51333E-04   -0.53389E-04 13747   0.387E-02    0.387E-03
RMM:  24    -0.645852118299E+03   -0.39079E-04   -0.40034E-04 13602   0.351E-02    0.337E-03
RMM:  25    -0.645852148387E+03   -0.30088E-04   -0.31779E-04 13422   0.321E-02    0.539E-03
RMM:  26    -0.645852171756E+03   -0.23369E-04   -0.24396E-04 13093   0.289E-02    0.282E-03
RMM:  27    -0.645852190684E+03   -0.18928E-04   -0.19804E-04 12748   0.270E-02    0.267E-03
RMM:  28    -0.645852205076E+03   -0.14392E-04   -0.15237E-04 12298   0.246E-02    0.246E-03
RMM:  29    -0.645852216927E+03   -0.11851E-04   -0.12506E-04 11943   0.231E-02    0.194E-03
RMM:  30    -0.645852226335E+03   -0.94081E-05   -0.98575E-05 11259   0.215E-02
   6 F= -.64585223E+03 E0= -.64579247E+03  d E =-.483933E+00
       N       E                     dE             d eps       ncg     rms          rms(c)
DAV:   1    -0.645830990308E+03    0.21227E-01   -0.31390E+00  9800   0.689E+00    0.104E+00
RMM:   2    -0.645935763546E+03   -0.10477E+00   -0.44384E-01 10622   0.207E+00    0.282E+00
RMM:   3    -0.645862057597E+03    0.73706E-01   -0.12076E-01 11448   0.103E+00    0.672E-01
RMM:   4    -0.645862789346E+03   -0.73175E-03   -0.24979E-02 13676   0.389E-01    0.639E-01
RMM:   5    -0.645859665128E+03    0.31242E-02   -0.73545E-03 12723   0.217E-01    0.286E-01
RMM:   6    -0.645859830056E+03   -0.16493E-03   -0.35219E-03 13820   0.128E-01    0.343E-01
RMM:   7    -0.645859294470E+03    0.53559E-03   -0.24435E-03 13260   0.113E-01    0.184E-01
RMM:   8    -0.645859179280E+03    0.11519E-03   -0.12620E-03 13587   0.743E-02    0.174E-01
RMM:   9    -0.645859000689E+03    0.17859E-03   -0.58428E-04 13109   0.514E-02    0.520E-02
RMM:  10    -0.645859014312E+03   -0.13623E-04   -0.33714E-04 12056   0.291E-02    0.554E-02
RMM:  11    -0.645859008316E+03    0.59961E-05   -0.18686E-04 11097   0.242E-02    0.282E-02
RMM:  12    -0.645859010810E+03   -0.24946E-05   -0.14667E-04 10353   0.189E-02    0.155E-02
RMM:  13    -0.645859014752E+03   -0.39414E-05   -0.92450E-05  9025   0.178E-02
   7 F= -.64585901E+03 E0= -.64579843E+03  d E =-.490722E+00
       N       E                     dE             d eps       ncg     rms          rms(c)
DAV:   1    -0.643711847690E+03    0.21472E+01   -0.17191E+02  9016   0.525E+01    0.428E+00
RMM:   2    -0.646550507015E+03   -0.28387E+01   -0.23209E+01 11350   0.137E+01    0.895E+00
RMM:   3    -0.646213408562E+03    0.33710E+00   -0.55676E+00 12784   0.550E+00    0.269E+00
RMM:   4    -0.646294072476E+03   -0.80664E-01   -0.65940E-01 13910   0.188E+00    0.356E+00
RMM:   5    -0.646205714255E+03    0.88358E-01   -0.21642E-01 13969   0.108E+00    0.972E-01
RMM:   6    -0.646221742589E+03   -0.16028E-01   -0.11678E-01 13815   0.618E-01    0.185E+00
RMM:   7    -0.646204569981E+03    0.17173E-01   -0.65476E-02 13751   0.538E-01    0.869E-01
RMM:   8    -0.646201661600E+03    0.29084E-02   -0.43733E-02 14434   0.345E-01    0.368E-01
RMM:   9    -0.646202905276E+03   -0.12437E-02   -0.20586E-02 14817   0.230E-01    0.407E-01
RMM:  10    -0.646202965164E+03   -0.59888E-04   -0.12972E-02 14978   0.168E-01    0.187E-01
RMM:  11    -0.646203860818E+03   -0.89565E-03   -0.10737E-02 14894   0.133E-01    0.177E-01
RMM:  12    -0.646204321725E+03   -0.46091E-03   -0.62610E-03 14563   0.110E-01    0.126E-01
RMM:  13    -0.646204691857E+03   -0.37013E-03   -0.48632E-03 14370   0.875E-02    0.613E-02
RMM:  14    -0.646205027809E+03   -0.33595E-03   -0.33936E-03 14073   0.751E-02    0.775E-02
RMM:  15    -0.646205234952E+03   -0.20714E-03   -0.24188E-03 13882   0.656E-02    0.460E-02
RMM:  16    -0.646205392023E+03   -0.15707E-03   -0.18163E-03 13837   0.569E-02    0.171E-02
RMM:  17    -0.646205514527E+03   -0.12250E-03   -0.13110E-03 13558   0.494E-02    0.199E-02
RMM:  18    -0.646205610632E+03   -0.96105E-04   -0.10187E-03 13175   0.432E-02    0.133E-02
RMM:  19    -0.646205679331E+03   -0.68699E-04   -0.73112E-04 12988   0.384E-02    0.777E-03
RMM:  20    -0.646205730364E+03   -0.51033E-04   -0.54297E-04 12673   0.336E-02    0.449E-03
RMM:  21    -0.646205770634E+03   -0.40270E-04   -0.42509E-04 12238   0.307E-02    0.329E-03
RMM:  22    -0.646205800589E+03   -0.29955E-04   -0.31933E-04 11895   0.273E-02    0.233E-03
RMM:  23    -0.646205823622E+03   -0.23033E-04   -0.24751E-04 11722   0.250E-02    0.153E-03
RMM:  24    -0.646205840859E+03   -0.17237E-04   -0.18520E-04 11319   0.225E-02    0.161E-03
RMM:  25    -0.646205854315E+03   -0.13456E-04   -0.14556E-04 11064   0.207E-02    0.794E-04
RMM:  26    -0.646205864882E+03   -0.10567E-04   -0.11577E-04 10518   0.190E-02    0.116E-03
RMM:  27    -0.646205873513E+03   -0.86314E-05   -0.94789E-05 10167   0.181E-02
   8 F= -.64620587E+03 E0= -.64614704E+03  d E =-.346859E+00
       N       E                     dE             d eps       ncg     rms          rms(c)
DAV:   1    -0.645934244608E+03    0.27162E+00   -0.20703E+01  9072   0.184E+01    0.153E+00
RMM:   2    -0.646301917420E+03   -0.36767E+00   -0.28834E+00 11343   0.482E+00    0.351E+00
RMM:   3    -0.646236515117E+03    0.65402E-01   -0.65815E-01 12560   0.191E+00    0.107E+00
RMM:   4    -0.646244803943E+03   -0.82888E-02   -0.83565E-02 13983   0.672E-01    0.124E+00
RMM:   5    -0.646233648981E+03    0.11155E-01   -0.26978E-02 13861   0.391E-01    0.376E-01
RMM:   6    -0.646235941970E+03   -0.22930E-02   -0.14124E-02 14163   0.218E-01    0.669E-01
RMM:   7    -0.646233322005E+03    0.26200E-02   -0.92898E-03 13661   0.202E-01    0.268E-01
RMM:   8    -0.646233175308E+03    0.14670E-03   -0.58785E-03 14395   0.127E-01    0.180E-01
RMM:   9    -0.646233281937E+03   -0.10663E-03   -0.27348E-03 14203   0.902E-02    0.150E-01
RMM:  10    -0.646233256423E+03    0.25514E-04   -0.18402E-03 13794   0.636E-02    0.570E-02
RMM:  11    -0.646233405824E+03   -0.14940E-03   -0.14653E-03 12987   0.499E-02    0.856E-02
RMM:  12    -0.646233437820E+03   -0.31996E-04   -0.88932E-04 12643   0.450E-02    0.350E-02
RMM:  13    -0.646233502283E+03   -0.64463E-04   -0.75458E-04 12097   0.353E-02    0.274E-02
RMM:  14    -0.646233546397E+03   -0.44114E-04   -0.48228E-04 11776   0.323E-02    0.287E-02
RMM:  15    -0.646233575617E+03   -0.29220E-04   -0.37000E-04 11161   0.276E-02    0.139E-02
RMM:  16    -0.646233598787E+03   -0.23170E-04   -0.26289E-04 10763   0.249E-02    0.148E-02
RMM:  17    -0.646233615047E+03   -0.16260E-04   -0.19143E-04 10167   0.217E-02    0.829E-03
RMM:  18    -0.646233627951E+03   -0.12904E-04   -0.14915E-04  9823   0.188E-02    0.372E-03
RMM:  19    -0.646233637929E+03   -0.99780E-05   -0.10788E-04  8968   0.178E-02    0.289E-03
RMM:  20    -0.646233645187E+03   -0.72576E-05   -0.79795E-05  8601   0.160E-02
   9 F= -.64623365E+03 E0= -.64617498E+03  d E =-.374630E+00
       N       E                     dE             d eps       ncg     rms          rms(c)
DAV:   1    -0.645693861508E+03    0.53978E+00   -0.75618E+01  9016   0.313E+01    0.267E+00
RMM:   2    -0.646661803847E+03   -0.96794E+00   -0.79599E+00 11506   0.843E+00    0.618E+00
RMM:   3    -0.646463354268E+03    0.19845E+00   -0.17022E+00 13173   0.321E+00    0.223E+00
RMM:   4    -0.646479102866E+03   -0.15749E-01   -0.27183E-01 13935   0.119E+00    0.231E+00
RMM:   5    -0.646437561426E+03    0.41541E-01   -0.99236E-02 13663   0.745E-01    0.870E-01
RMM:   6    -0.646442483003E+03   -0.49216E-02   -0.54722E-02 13920   0.446E-01    0.118E+00
RMM:   7    -0.646437678462E+03    0.48045E-02   -0.36988E-02 13781   0.405E-01    0.747E-01
RMM:   8    -0.646434292487E+03    0.33860E-02   -0.22084E-02 14139   0.279E-01    0.360E-01
RMM:   9    -0.646434453027E+03   -0.16054E-03   -0.12718E-02 14987   0.175E-01    0.167E-01
RMM:  10    -0.646435103808E+03   -0.65078E-03   -0.85570E-03 14795   0.123E-01    0.920E-02
RMM:  11    -0.646435670930E+03   -0.56712E-03   -0.60608E-03 14423   0.963E-02    0.101E-01
RMM:  12    -0.646436000077E+03   -0.32915E-03   -0.38087E-03 13831   0.810E-02    0.693E-02
RMM:  13    -0.646436273670E+03   -0.27359E-03   -0.29479E-03 13381   0.670E-02    0.392E-02
RMM:  14    -0.646436468793E+03   -0.19512E-03   -0.19639E-03 13346   0.579E-02    0.493E-02
RMM:  15    -0.646436592516E+03   -0.12372E-03   -0.14262E-03 13064   0.492E-02    0.211E-02
RMM:  16    -0.646436693686E+03   -0.10117E-03   -0.10719E-03 12783   0.427E-02    0.108E-02
RMM:  17    -0.646436768913E+03   -0.75227E-04   -0.78489E-04 12556   0.373E-02    0.952E-03
RMM:  18    -0.646436825256E+03   -0.56344E-04   -0.59058E-04 12159   0.326E-02    0.102E-02
RMM:  19    -0.646436866658E+03   -0.41402E-04   -0.44096E-04 11855   0.291E-02    0.493E-03
RMM:  20    -0.646436898205E+03   -0.31547E-04   -0.33385E-04 11540   0.260E-02    0.352E-03
RMM:  21    -0.646436922530E+03   -0.24325E-04   -0.25557E-04 11327   0.235E-02    0.186E-03
RMM:  22    -0.646436940679E+03   -0.18149E-04   -0.19281E-04 10968   0.208E-02    0.192E-03
RMM:  23    -0.646436954898E+03   -0.14219E-04   -0.15005E-04 10762   0.191E-02    0.134E-03
RMM:  24    -0.646436965586E+03   -0.10688E-04   -0.11340E-04 10346   0.174E-02    0.113E-03
RMM:  25    -0.646436973935E+03   -0.83494E-05   -0.89196E-05 10122   0.162E-02
  10 F= -.64643697E+03 E0= -.64638033E+03  d E =-.203329E+00
       N       E                     dE             d eps       ncg     rms          rms(c)
DAV:   1    -0.646372445095E+03    0.64520E-01   -0.79417E+00  9800   0.102E+01    0.863E-01
RMM:   2    -0.646467912594E+03   -0.95467E-01   -0.81752E-01 11556   0.271E+00    0.178E+00
RMM:   3    -0.646453077254E+03    0.14835E-01   -0.18069E-01 13313   0.105E+00    0.683E-01
RMM:   4    -0.646455433072E+03   -0.23558E-02   -0.28443E-02 13909   0.392E-01    0.769E-01
RMM:   5    -0.646451039822E+03    0.43932E-02   -0.10753E-02 13874   0.242E-01    0.274E-01
RMM:   6    -0.646451486215E+03   -0.44639E-03   -0.60007E-03 13887   0.145E-01    0.360E-01
RMM:   7    -0.646451172812E+03    0.31340E-03   -0.39923E-03 13732   0.131E-01    0.258E-01
RMM:   8    -0.646450809957E+03    0.36285E-03   -0.24739E-03 13875   0.942E-02    0.131E-01
RMM:   9    -0.646450809636E+03    0.32057E-06   -0.14863E-03 13663   0.609E-02    0.500E-02
RMM:  10    -0.646450895995E+03   -0.86358E-04   -0.10432E-03 12421   0.448E-02    0.286E-02
RMM:  11    -0.646450965694E+03   -0.69699E-04   -0.73378E-04 11836   0.355E-02    0.300E-02
RMM:  12    -0.646451010780E+03   -0.45086E-04   -0.49296E-04 11325   0.323E-02    0.225E-02
RMM:  13    -0.646451045287E+03   -0.34507E-04   -0.36400E-04 10803   0.265E-02    0.114E-02
RMM:  14    -0.646451070262E+03   -0.24974E-04   -0.25098E-04 10406   0.235E-02    0.140E-02
RMM:  15    -0.646451086638E+03   -0.16377E-04   -0.17980E-04  9921   0.198E-02    0.770E-03
RMM:  16    -0.646451099564E+03   -0.12926E-04   -0.13639E-04  9635   0.181E-02    0.394E-03
RMM:  17    -0.646451108942E+03   -0.93779E-05   -0.99097E-05  9152   0.163E-02
  11 F= -.64645111E+03 E0= -.64639499E+03  d E =-.217464E+00
       N       E                     dE             d eps       ncg     rms          rms(c)
DAV:   1    -0.646245418695E+03    0.20568E+00   -0.44253E+01  8624   0.219E+01    0.320E+00
RMM:   2    -0.647047934985E+03   -0.80252E+00   -0.44276E+00 10687   0.669E+00    0.706E+00
RMM:   3    -0.646554434602E+03    0.49350E+00   -0.11778E+00 11848   0.323E+00    0.172E+00
RMM:   4    -0.646585045177E+03   -0.30611E-01   -0.24652E-01 14079   0.122E+00    0.232E+00
RMM:   5    -0.646541010678E+03    0.44034E-01   -0.82632E-02 13662   0.727E-01    0.579E-01
RMM:   6    -0.646541853611E+03   -0.84293E-03   -0.45723E-02 14021   0.399E-01    0.584E-01
RMM:   7    -0.646542961887E+03   -0.11083E-02   -0.23149E-02 14264   0.323E-01    0.753E-01
RMM:   8    -0.646539749809E+03    0.32121E-02   -0.12936E-02 14786   0.226E-01    0.222E-01
RMM:   9    -0.646540687057E+03   -0.93725E-03   -0.86181E-03 14806   0.143E-01    0.284E-01
RMM:  10    -0.646540463848E+03    0.22321E-03   -0.46350E-03 14748   0.115E-01    0.754E-02
RMM:  11    -0.646540888145E+03   -0.42430E-03   -0.43984E-03 14605   0.830E-02    0.899E-02
RMM:  12    -0.646547589525E+03   -0.67014E-02   -0.67539E-02 14034   0.731E-02    0.592E-02
RMM:  13    -0.646540870689E+03    0.67188E-02   -0.15214E-01 13881   0.108E-01    0.270E-02
RMM:  14    -0.646541164935E+03   -0.29425E-03   -0.19321E-03 13577   0.560E-02    0.336E-02
RMM:  15    -0.646541286245E+03   -0.12131E-03   -0.13354E-03 13398   0.487E-02    0.190E-02
RMM:  16    -0.646541373218E+03   -0.86973E-04   -0.93772E-04 13087   0.422E-02    0.121E-02
RMM:  17    -0.646541439153E+03   -0.65934E-04   -0.69271E-04 12803   0.381E-02    0.124E-02
RMM:  18    -0.646541489123E+03   -0.49970E-04   -0.53426E-04 12274   0.345E-02    0.716E-03
RMM:  19    -0.646541527132E+03   -0.38009E-04   -0.40445E-04 11864   0.316E-02    0.454E-03
RMM:  20    -0.646541557423E+03   -0.30291E-04   -0.31989E-04 11244   0.295E-02    0.270E-03
RMM:  21    -0.646541581210E+03   -0.23786E-04   -0.25010E-04 10920   0.274E-02    0.180E-03
RMM:  22    -0.646541599979E+03   -0.18770E-04   -0.19984E-04 10322   0.256E-02    0.181E-03
RMM:  23    -0.646541615290E+03   -0.15311E-04   -0.16370E-04  9938   0.240E-02    0.164E-03
RMM:  24    -0.646541627470E+03   -0.12180E-04   -0.13191E-04  9406   0.229E-02    0.207E-03
RMM:  25    -0.646541637531E+03   -0.10061E-04   -0.10907E-04  8861   0.220E-02    0.462E-03
RMM:  26    -0.646541645910E+03   -0.83784E-05   -0.92102E-05  8327   0.208E-02
  12 F= -.64654165E+03 E0= -.64648793E+03  d E =-.905370E-01
       N       E                     dE             d eps       ncg     rms          rms(c)
DAV:   1    -0.646540287853E+03    0.13497E-02   -0.33381E-01  9912   0.190E+00    0.273E-01
RMM:   2    -0.646546371539E+03   -0.60837E-02   -0.34436E-02 10741   0.589E-01    0.633E-01
RMM:   3    -0.646542715863E+03    0.36557E-02   -0.86650E-03 12024   0.278E-01    0.167E-01
RMM:   4    -0.646542884631E+03   -0.16877E-03   -0.19392E-03 14146   0.108E-01    0.194E-01
RMM:   5    -0.646542583667E+03    0.30096E-03   -0.71499E-04 13155   0.684E-02    0.529E-02
RMM:   6    -0.646542611391E+03   -0.27724E-04   -0.42183E-04 12814   0.411E-02    0.734E-02
RMM:   7    -0.646542605752E+03    0.56398E-05   -0.22240E-04 12166   0.363E-02    0.655E-02
RMM:   8    -0.646542579762E+03    0.25990E-04   -0.15095E-04 11443   0.275E-02    0.186E-02
RMM:   9    -0.646542590022E+03   -0.10260E-04   -0.10953E-04  9511   0.215E-02    0.251E-02
RMM:  10    -0.646542589208E+03    0.81350E-06   -0.67105E-05  8634   0.185E-02
  13 F= -.64654259E+03 E0= -.64648904E+03  d E =-.914803E-01
       N       E                     dE             d eps       ncg     rms          rms(c)
DAV:   1    -0.646432950245E+03    0.10964E+00   -0.40281E+01  9016   0.218E+01    0.443E+00
RMM:   2    -0.648082529435E+03   -0.16496E+01   -0.57595E+00  9769   0.782E+00    0.129E+01
RMM:   3    -0.646665882606E+03    0.14166E+01   -0.14441E+00 11706   0.398E+00    0.348E+00
RMM:   4    -0.646609220922E+03    0.56662E-01   -0.39839E-01 13909   0.162E+00    0.193E+00
RMM:   5    -0.646572244196E+03    0.36977E-01   -0.11428E-01 13068   0.843E-01    0.858E-01
RMM:   6    -0.646580980001E+03   -0.87358E-02   -0.60371E-02 13741   0.531E-01    0.145E+00
RMM:   7    -0.646569521645E+03    0.11458E-01   -0.38174E-02 13955   0.466E-01    0.567E-01
RMM:   8    -0.646567631795E+03    0.18899E-02   -0.18288E-02 14848   0.250E-01    0.241E-01
RMM:   9    -0.646568355992E+03   -0.72420E-03   -0.86164E-03 14832   0.159E-01    0.259E-01
RMM:  10    -0.646568374530E+03   -0.18538E-04   -0.50780E-03 15019   0.115E-01    0.940E-02
RMM:  11    -0.646568801811E+03   -0.42728E-03   -0.39928E-03 14793   0.869E-02    0.100E-01
RMM:  12    -0.646569046441E+03   -0.24463E-03   -0.22840E-03 14718   0.769E-02    0.848E-02
RMM:  13    -0.646569238049E+03   -0.19161E-03   -0.18844E-03 14674   0.662E-02    0.375E-02
RMM:  14    -0.646569367210E+03   -0.12916E-03   -0.12264E-03 13993   0.571E-02    0.481E-02
RMM:  15    -0.646569443105E+03   -0.75895E-04   -0.91984E-04 13657   0.511E-02    0.246E-02
RMM:  16    -0.646569508631E+03   -0.65527E-04   -0.69012E-04 13206   0.444E-02    0.169E-02
RMM:  17    -0.646569560426E+03   -0.51795E-04   -0.51288E-04 13134   0.394E-02    0.156E-02
RMM:  18    -0.646569595995E+03   -0.35569E-04   -0.37371E-04 12719   0.345E-02    0.973E-03
RMM:  19    -0.646569624640E+03   -0.28644E-04   -0.29934E-04 12486   0.315E-02    0.523E-03
RMM:  20    -0.646569646255E+03   -0.21615E-04   -0.22666E-04 11666   0.288E-02    0.304E-03
RMM:  21    -0.646569663180E+03   -0.16926E-04   -0.18327E-04 11106   0.271E-02    0.199E-03
RMM:  22    -0.646569677384E+03   -0.14204E-04   -0.14891E-04 10282   0.252E-02    0.184E-03
RMM:  23    -0.646569688985E+03   -0.11601E-04   -0.12370E-04  9846   0.239E-02    0.216E-03
RMM:  24    -0.646569698134E+03   -0.91492E-05   -0.98501E-05  9228   0.232E-02
  14 F= -.64656970E+03 E0= -.64651915E+03  d E =-.271089E-01
       N       E                     dE             d eps       ncg     rms          rms(c)
DAV:   1    -0.646564526728E+03    0.51623E-02   -0.46308E+00  8736   0.739E+00    0.157E+00
RMM:   2    -0.646765395760E+03   -0.20087E+00   -0.62330E-01  9946   0.263E+00    0.414E+00
RMM:   3    -0.646586989303E+03    0.17841E+00   -0.17519E-01 11624   0.137E+00    0.950E-01
RMM:   4    -0.646585826598E+03    0.11627E-02   -0.45359E-02 13576   0.552E-01    0.741E-01
RMM:   5    -0.646580762654E+03    0.50639E-02   -0.12596E-02 13012   0.281E-01    0.272E-01
RMM:   6    -0.646581670824E+03   -0.90817E-03   -0.65799E-03 13660   0.176E-01    0.477E-01
RMM:   7    -0.646580425086E+03    0.12457E-02   -0.40223E-03 13445   0.152E-01    0.198E-01
RMM:   8    -0.646580237961E+03    0.18713E-03   -0.20255E-03 14033   0.854E-02    0.128E-01
RMM:   9    -0.646580216558E+03    0.21403E-04   -0.93167E-04 13466   0.573E-02    0.832E-02
RMM:  10    -0.646580201397E+03    0.15161E-04   -0.54845E-04 12741   0.363E-02    0.360E-02
RMM:  11    -0.646580230433E+03   -0.29036E-04   -0.36549E-04 11827   0.277E-02    0.419E-02
RMM:  12    -0.646580234309E+03   -0.38755E-05   -0.22899E-04 11599   0.245E-02    0.190E-02
RMM:  13    -0.646580243123E+03   -0.88148E-05   -0.19184E-04 10468   0.209E-02    0.100E-02
RMM:  14    -0.646580251608E+03   -0.84845E-05   -0.11404E-04  9456   0.190E-02    0.106E-02
RMM:  15    -0.646580258412E+03   -0.68043E-05   -0.81284E-05  7995   0.176E-02
  15 F= -.64658026E+03 E0= -.64652878E+03  d E =-.376692E-01
       N       E                     dE             d eps       ncg     rms          rms(c)
DAV:   1    -0.646503223903E+03    0.77028E-01   -0.14927E+01  9016   0.132E+01    0.165E+00
RMM:   2    -0.646748235236E+03   -0.24501E+00   -0.14395E+00 11116   0.374E+00    0.385E+00
RMM:   3    -0.646610786707E+03    0.13745E+00   -0.32403E-01 11769   0.161E+00    0.102E+00
RMM:   4    -0.646615299449E+03   -0.45127E-02   -0.67349E-02 14001   0.616E-01    0.114E+00
RMM:   5    -0.646603868613E+03    0.11431E-01   -0.24606E-02 12950   0.392E-01    0.330E-01
RMM:   6    -0.646606565358E+03   -0.26967E-02   -0.14206E-02 13647   0.238E-01    0.669E-01
RMM:   7    -0.646603805489E+03    0.27599E-02   -0.80431E-03 13982   0.200E-01    0.235E-01
RMM:   8    -0.646603656341E+03    0.14915E-03   -0.43494E-03 14709   0.111E-01    0.139E-01
RMM:   9    -0.646603796061E+03   -0.13972E-03   -0.24137E-03 14036   0.759E-02    0.112E-01
RMM:  10    -0.646603841098E+03   -0.45037E-04   -0.15501E-03 13315   0.562E-02    0.515E-02
RMM:  11    -0.646603949075E+03   -0.10798E-03   -0.11494E-03 12688   0.444E-02    0.595E-02
RMM:  12    -0.646603987907E+03   -0.38833E-04   -0.69687E-04 12275   0.396E-02    0.265E-02
RMM:  13    -0.646604038536E+03   -0.50628E-04   -0.54915E-04 11721   0.327E-02    0.308E-02
RMM:  14    -0.646604064946E+03   -0.26410E-04   -0.34093E-04 11595   0.300E-02    0.187E-02
RMM:  15    -0.646604088185E+03   -0.23240E-04   -0.27198E-04 11069   0.242E-02    0.959E-03
RMM:  16    -0.646604104598E+03   -0.16413E-04   -0.18308E-04 10609   0.214E-02    0.850E-03
RMM:  17    -0.646604116756E+03   -0.12157E-04   -0.13573E-04  9866   0.187E-02    0.697E-03
RMM:  18    -0.646604125274E+03   -0.85178E-05   -0.98382E-05  9343   0.169E-02
  16 F= -.64660413E+03 E0= -.64655345E+03  d E =-.238669E-01
       N       E                     dE             d eps       ncg     rms          rms(c)
DAV:   1    -0.646604129491E+03   -0.12736E-04   -0.16028E-03 10696   0.132E-01    0.169E-02
RMM:   2    -0.646604159008E+03   -0.29517E-04   -0.19156E-04 10251   0.407E-02    0.400E-02
RMM:   3    -0.646604143539E+03    0.15469E-04   -0.41373E-05  7322   0.210E-02    0.116E-02
RMM:   4    -0.646604144787E+03   -0.12479E-05   -0.19161E-05  6304   0.149E-02
  17 F= -.64660414E+03 E0= -.64655346E+03  d E =-.238864E-01
       N       E                     dE             d eps       ncg     rms          rms(c)
DAV:   1    -0.646579201560E+03    0.24942E-01   -0.41586E+00  8904   0.715E+00    0.593E-01
RMM:   2    -0.646617743616E+03   -0.38542E-01   -0.38360E-01 11373   0.189E+00    0.921E-01
RMM:   3    -0.646616713944E+03    0.10297E-02   -0.79542E-02 13489   0.706E-01    0.501E-01
RMM:   4    -0.646617543322E+03   -0.82938E-03   -0.12869E-02 13752   0.276E-01    0.543E-01
RMM:   5    -0.646615208813E+03    0.23345E-02   -0.49288E-03 13884   0.164E-01    0.173E-01
RMM:   6    -0.646615713770E+03   -0.50496E-03   -0.30765E-03 13672   0.106E-01    0.303E-01
RMM:   7    -0.646615202048E+03    0.51172E-03   -0.18170E-03 13567   0.945E-02    0.134E-01
RMM:   8    -0.646615124270E+03    0.77777E-04   -0.10829E-03 13654   0.592E-02    0.714E-02
RMM:   9    -0.646615152780E+03   -0.28510E-04   -0.61089E-04 12726   0.419E-02    0.468E-02
RMM:  10    -0.646615178613E+03   -0.25833E-04   -0.43057E-04 11542   0.310E-02    0.212E-02
RMM:  11    -0.646615210231E+03   -0.31619E-04   -0.31641E-04 10391   0.256E-02    0.272E-02
RMM:  12    -0.646615225825E+03   -0.15594E-04   -0.20240E-04 10078   0.247E-02    0.120E-02
RMM:  13    -0.646615241566E+03   -0.15741E-04   -0.15720E-04  9314   0.198E-02    0.972E-03
RMM:  14    -0.646615251120E+03   -0.95538E-05   -0.99965E-05  8988   0.186E-02
  18 F= -.64661525E+03 E0= -.64656491E+03  d E =-.111063E-01
       N       E                     dE             d eps       ncg     rms          rms(c)
DAV:   1    -0.646611737432E+03    0.35041E-02   -0.53293E-01  9716   0.256E+00    0.210E-01
RMM:   2    -0.646616667998E+03   -0.49306E-02   -0.48816E-02 11537   0.667E-01    0.327E-01
RMM:   3    -0.646616522646E+03    0.14535E-03   -0.98702E-03 13643   0.247E-01    0.177E-01
RMM:   4    -0.646616638694E+03   -0.11605E-03   -0.16985E-03 13510   0.983E-02    0.194E-01
RMM:   5    -0.646616352583E+03    0.28611E-03   -0.71640E-04 12551   0.604E-02    0.615E-02
RMM:   6    -0.646616426837E+03   -0.74253E-04   -0.46863E-04 12032   0.408E-02    0.108E-01
RMM:   7    -0.646616367187E+03    0.59649E-04   -0.28053E-04 11765   0.372E-02    0.471E-02
RMM:   8    -0.646616364470E+03    0.27173E-05   -0.19092E-04 11008   0.253E-02    0.264E-02
RMM:   9    -0.646616372908E+03   -0.84384E-05   -0.13119E-04  9045   0.198E-02    0.159E-02
RMM:  10    -0.646616379348E+03   -0.64401E-05   -0.88127E-05  8471   0.165E-02
  19 F= -.64661638E+03 E0= -.64656615E+03  d E =-.122346E-01
       N       E                     dE             d eps       ncg     rms          rms(c)
DAV:   1    -0.646596959290E+03    0.19414E-01   -0.23204E+00  9016   0.572E+00    0.640E-01
RMM:   2    -0.646642266000E+03   -0.45307E-01   -0.29088E-01 11273   0.157E+00    0.153E+00
RMM:   3    -0.646622079301E+03    0.20187E-01   -0.64300E-02 11867   0.649E-01    0.416E-01
RMM:   4    -0.646622766039E+03   -0.68674E-03   -0.11827E-02 14055   0.254E-01    0.426E-01
RMM:   5    -0.646621153482E+03    0.16126E-02   -0.36066E-03 13162   0.149E-01    0.125E-01
RMM:   6    -0.646621605697E+03   -0.45221E-03   -0.22712E-03 13305   0.961E-02    0.278E-01
RMM:   7    -0.646621079896E+03    0.52580E-03   -0.12888E-03 13582   0.829E-02    0.662E-02
RMM:   8    -0.646621094195E+03   -0.14298E-04   -0.71799E-04 13318   0.432E-02    0.425E-02
RMM:   9    -0.646621114494E+03   -0.20299E-04   -0.33031E-04 11720   0.302E-02    0.382E-02
RMM:  10    -0.646621123249E+03   -0.87554E-05   -0.25969E-04 10260   0.228E-02    0.178E-02
RMM:  11    -0.646621137775E+03   -0.14526E-04   -0.17326E-04  9336   0.203E-02    0.255E-02
RMM:  12    -0.646621142348E+03   -0.45732E-05   -0.11736E-04  8861   0.190E-02    0.119E-02
RMM:  13    -0.646621148382E+03   -0.60341E-05   -0.85034E-05  8008   0.167E-02
  20 F= -.64662115E+03 E0= -.64657098E+03  d E =-.476903E-02
       N       E                     dE             d eps       ncg     rms          rms(c)
DAV:   1    -0.646620780653E+03    0.36170E-03   -0.49042E-02 10248   0.828E-01    0.932E-02
RMM:   2    -0.646621745723E+03   -0.96507E-03   -0.61738E-03 11388   0.228E-01    0.227E-01
RMM:   3    -0.646621322617E+03    0.42311E-03   -0.14557E-03 12503   0.963E-02    0.623E-02
RMM:   4    -0.646621336541E+03   -0.13924E-04   -0.28339E-04 11571   0.390E-02    0.602E-02
RMM:   5    -0.646621305424E+03    0.31116E-04   -0.10103E-04 10004   0.250E-02    0.183E-02
RMM:   6    -0.646621317735E+03   -0.12311E-04   -0.73528E-05  9424   0.176E-02    0.417E-02
RMM:   7    -0.646621306391E+03    0.11345E-04   -0.43625E-05  8722   0.166E-02    0.918E-03
RMM:   8    -0.646621308768E+03   -0.23779E-05   -0.40470E-05  6938   0.124E-02
  21 F= -.64662131E+03 E0= -.64657115E+03  d E =-.492942E-02
       N       E                     dE             d eps       ncg     rms          rms(c)
DAV:   1    -0.646606832336E+03    0.14474E-01   -0.20055E+00  8876   0.535E+00    0.923E-01
RMM:   2    -0.646681195241E+03   -0.74363E-01   -0.31226E-01  9922   0.172E+00    0.248E+00
RMM:   3    -0.646626941685E+03    0.54254E-01   -0.85727E-02 11791   0.873E-01    0.651E-01
RMM:   4    -0.646625808461E+03    0.11332E-02   -0.17932E-02 13780   0.335E-01    0.458E-01
RMM:   5    -0.646624153212E+03    0.16552E-02   -0.49809E-03 13111   0.182E-01    0.241E-01
RMM:   6    -0.646624188719E+03   -0.35507E-04   -0.23981E-03 13794   0.107E-01    0.261E-01
RMM:   7    -0.646623837470E+03    0.35125E-03   -0.17739E-03 13581   0.979E-02    0.117E-01
RMM:   8    -0.646623813493E+03    0.23977E-04   -0.90546E-04 13759   0.603E-02    0.109E-01
RMM:   9    -0.646623765760E+03    0.47733E-04   -0.40359E-04 12957   0.421E-02    0.432E-02
RMM:  10    -0.646623783770E+03   -0.18010E-04   -0.27267E-04 11957   0.256E-02    0.234E-02
RMM:  11    -0.646623804283E+03   -0.20514E-04   -0.17453E-04  9950   0.218E-02    0.266E-02
RMM:  12    -0.646623818658E+03   -0.14374E-04   -0.12191E-04  9677   0.206E-02    0.134E-02
RMM:  13    -0.646623831152E+03   -0.12494E-04   -0.91800E-05  8767   0.191E-02    0.136E-02
RMM:  14    -0.646623837118E+03   -0.59661E-05   -0.60068E-05  7654   0.170E-02
  22 F= -.64662384E+03 E0= -.64657405E+03  d E =-.252835E-02
       N       E                     dE             d eps       ncg     rms          rms(c)
DAV:   1    -0.646623767851E+03    0.63301E-04   -0.11987E-02 10276   0.414E-01    0.723E-02
RMM:   2    -0.646624215136E+03   -0.44728E-03   -0.19143E-03 10627   0.136E-01    0.190E-01
RMM:   3    -0.646623892947E+03    0.32219E-03   -0.53536E-04 11424   0.671E-02    0.489E-02
RMM:   4    -0.646623888989E+03    0.39584E-05   -0.11773E-04 11222   0.296E-02    0.375E-02
RMM:   5    -0.646623876746E+03    0.12243E-04   -0.37560E-05  7352   0.179E-02    0.192E-02
RMM:   6    -0.646623876920E+03   -0.17376E-06   -0.17051E-05  6011   0.136E-02
  23 F= -.64662388E+03 E0= -.64657406E+03  d E =-.256815E-02
       N       E                     dE             d eps       ncg     rms          rms(c)
DAV:   1    -0.646604210509E+03    0.19666E-01   -0.16667E+00  9016   0.476E+00    0.379E-01
RMM:   2    -0.646626392545E+03   -0.22182E-01   -0.20310E-01 11363   0.122E+00    0.674E-01
RMM:   3    -0.646626227797E+03    0.16475E-03   -0.51875E-02 13178   0.461E-01    0.263E-01
RMM:   4    -0.646626711337E+03   -0.48354E-03   -0.49036E-03 13602   0.165E-01    0.317E-01
RMM:   5    -0.646625963353E+03    0.74798E-03   -0.16420E-03 13043   0.951E-02    0.997E-02
RMM:   6    -0.646626093378E+03   -0.13003E-03   -0.95525E-04 12703   0.588E-02    0.164E-01
RMM:   7    -0.646625961570E+03    0.13181E-03   -0.61096E-04 12533   0.527E-02    0.902E-02
RMM:   8    -0.646625908475E+03    0.53095E-04   -0.36099E-04 12192   0.373E-02    0.417E-02
RMM:   9    -0.646625914607E+03   -0.61322E-05   -0.20056E-04 11055   0.258E-02    0.260E-02
RMM:  10    -0.646625919526E+03   -0.49188E-05   -0.14826E-04  9098   0.195E-02    0.106E-02
RMM:  11    -0.646625927207E+03   -0.76813E-05   -0.10548E-04  8585   0.167E-02    0.142E-02
RMM:  12    -0.646625931380E+03   -0.41736E-05   -0.66210E-05  8143   0.160E-02
  24 F= -.64662593E+03 E0= -.64657630E+03  d E =-.205446E-02
       N       E                     dE             d eps       ncg     rms          rms(c)
DAV:   1    -0.646625073065E+03    0.85414E-03   -0.75363E-02  9828   0.101E+00    0.800E-02
RMM:   2    -0.646626086657E+03   -0.10136E-02   -0.92230E-03 11544   0.261E-01    0.147E-01
RMM:   3    -0.646626083680E+03    0.29769E-05   -0.23931E-03 12903   0.983E-02    0.582E-02
RMM:   4    -0.646626107798E+03   -0.24118E-04   -0.26074E-04 10941   0.397E-02    0.697E-02
RMM:   5    -0.646626073397E+03    0.34401E-04   -0.10128E-04  9705   0.237E-02    0.218E-02
RMM:   6    -0.646626082777E+03   -0.93803E-05   -0.67277E-05  9100   0.163E-02
  25 F= -.64662608E+03 E0= -.64657647E+03  d E =-.220586E-02
       N       E                     dE             d eps       ncg     rms          rms(c)
DAV:   1    -0.646625072104E+03    0.10013E-02   -0.23510E-01  9520   0.174E+00    0.258E-01
RMM:   2    -0.646631083942E+03   -0.60118E-02   -0.30628E-02 10707   0.521E-01    0.646E-01
RMM:   3    -0.646627170249E+03    0.39137E-02   -0.71409E-03 11626   0.240E-01    0.158E-01
RMM:   4    -0.646627196893E+03   -0.26644E-04   -0.13997E-03 13374   0.902E-02    0.149E-01
RMM:   5    -0.646626992850E+03    0.20404E-03   -0.49008E-04 12126   0.542E-02    0.456E-02
RMM:   6    -0.646627032523E+03   -0.39674E-04   -0.28944E-04 11785   0.354E-02    0.858E-02
RMM:   7    -0.646626990402E+03    0.42121E-04   -0.15354E-04 10922   0.316E-02    0.407E-02
RMM:   8    -0.646626980734E+03    0.96686E-05   -0.85584E-05  9800   0.199E-02
  26 F= -.64662698E+03 E0= -.64657737E+03  d E =-.897956E-03
       N       E                     dE             d eps       ncg     rms          rms(c)
DAV:   1    -0.646626929580E+03    0.60822E-04   -0.15150E-02 10584   0.440E-01    0.672E-02
RMM:   2    -0.646627382313E+03   -0.45273E-03   -0.20688E-03 10975   0.134E-01    0.188E-01
RMM:   3    -0.646627079505E+03    0.30281E-03   -0.53506E-04 10980   0.623E-02    0.493E-02
RMM:   4    -0.646627074796E+03    0.47095E-05   -0.12507E-04  9295   0.281E-02    0.348E-02
RMM:   5    -0.646627067273E+03    0.75226E-05   -0.47611E-05  8025   0.176E-02
  27 F= -.64662707E+03 E0= -.64657746E+03  d E =-.984496E-03
       N       E                     dE             d eps       ncg     rms          rms(c)
DAV:   1    -0.646626568579E+03    0.50622E-03   -0.60185E-02  9800   0.879E-01    0.135E-01
RMM:   2    -0.646628280565E+03   -0.17120E-02   -0.80626E-03 10794   0.264E-01    0.360E-01
RMM:   3    -0.646627105772E+03    0.11748E-02   -0.18170E-03 11731   0.121E-01    0.861E-02
RMM:   4    -0.646627103259E+03    0.25131E-05   -0.40895E-04 12056   0.484E-02    0.751E-02
RMM:   5    -0.646627050093E+03    0.53166E-04   -0.15679E-04 10554   0.324E-02    0.257E-02
RMM:   6    -0.646627066476E+03   -0.16383E-04   -0.95422E-05  9341   0.213E-02    0.520E-02
RMM:   7    -0.646627048652E+03    0.17824E-04   -0.53704E-05  8525   0.193E-02    0.165E-02
RMM:   8    -0.646627049176E+03   -0.52455E-06   -0.37877E-05  6855   0.150E-02
  28 F= -.64662705E+03 E0= -.64657744E+03  d E =-.966399E-03
       N       E                     dE             d eps       ncg     rms          rms(c)
DAV:   1    -0.646626892152E+03    0.15650E-03   -0.25008E-02  9800   0.569E-01    0.838E-02
RMM:   2    -0.646627535246E+03   -0.64309E-03   -0.31765E-03 10722   0.170E-01    0.217E-01
RMM:   3    -0.646627112120E+03    0.42313E-03   -0.75939E-04 10898   0.790E-02    0.557E-02
RMM:   4    -0.646627109825E+03    0.22958E-05   -0.15556E-04 10915   0.327E-02    0.474E-02
RMM:   5    -0.646627087961E+03    0.21864E-04   -0.44974E-05  7195   0.209E-02    0.211E-02
RMM:   6    -0.646627091245E+03   -0.32842E-05   -0.22223E-05  5720   0.147E-02
  29 F= -.64662709E+03 E0= -.64657749E+03  d E =-.100847E-02
       N       E                     dE             d eps       ncg     rms          rms(c)
DAV:   1    -0.646626534880E+03    0.55308E-03   -0.10041E-01  9520   0.122E+00    0.199E-01
RMM:   2    -0.646629975622E+03   -0.34407E-02   -0.15292E-02  9904   0.381E-01    0.515E-01
RMM:   3    -0.646627606076E+03    0.23695E-02   -0.44567E-03 11822   0.195E-01    0.134E-01
RMM:   4    -0.646627580880E+03    0.25196E-04   -0.83228E-04 12846   0.721E-02    0.105E-01
RMM:   5    -0.646627491718E+03    0.89161E-04   -0.23070E-04 11262   0.400E-02    0.487E-02
RMM:   6    -0.646627499154E+03   -0.74355E-05   -0.11832E-04 10103   0.250E-02    0.588E-02
RMM:   7    -0.646627481040E+03    0.18114E-04   -0.82661E-05  8474   0.232E-02    0.236E-02
RMM:   8    -0.646627482513E+03   -0.14727E-05   -0.44059E-05  6502   0.181E-02
  30 F= -.64662748E+03 E0= -.64657795E+03  d E =-.391268E-03
       N       E                     dE             d eps       ncg     rms          rms(c)
DAV:   1    -0.646627221186E+03    0.25985E-03   -0.33608E-02  9800   0.699E-01    0.114E-01
RMM:   2    -0.646628395156E+03   -0.11740E-02   -0.51087E-03  9825   0.216E-01    0.298E-01
RMM:   3    -0.646627582737E+03    0.81242E-03   -0.14194E-03 11473   0.108E-01    0.752E-02
RMM:   4    -0.646627575626E+03    0.71117E-05   -0.28974E-04 11354   0.410E-02    0.565E-02
RMM:   5    -0.646627553959E+03    0.21667E-04   -0.93684E-05  8580   0.248E-02    0.285E-02
RMM:   6    -0.646627556188E+03   -0.22291E-05   -0.42623E-05  6911   0.169E-02
  31 F= -.64662756E+03 E0= -.64657806E+03  d E =-.464943E-03
       N       E                     dE             d eps       ncg     rms          rms(c)
DAV:   1    -0.646627525040E+03    0.28919E-04   -0.28984E-03 10780   0.204E-01    0.391E-02
RMM:   2    -0.646627666364E+03   -0.14132E-03   -0.49864E-04  9229   0.661E-02    0.110E-01
RMM:   3    -0.646627558738E+03    0.10763E-03   -0.13535E-04  7784   0.349E-02    0.337E-02
RMM:   4    -0.646627553581E+03    0.51570E-05   -0.32361E-05  6307   0.180E-02
  32 F= -.64662755E+03 E0= -.64657807E+03  d E =-.462336E-03
       N       E                     dE             d eps       ncg     rms          rms(c)
DAV:   1    -0.646627535422E+03    0.23316E-04   -0.23133E-02  9408   0.557E-01    0.530E-02
RMM:   2    -0.646627860119E+03   -0.32470E-03   -0.27777E-03 11310   0.153E-01    0.112E-01
RMM:   3    -0.646627814915E+03    0.45205E-04   -0.66224E-04 12439   0.600E-02    0.472E-02
RMM:   4    -0.646627818814E+03   -0.38990E-05   -0.10608E-04  8589   0.254E-02    0.439E-02
RMM:   5    -0.646627803020E+03    0.15794E-04   -0.37791E-05  6208   0.180E-02    0.159E-02
RMM:   6    -0.646627806647E+03   -0.36270E-05   -0.19250E-05  5744   0.132E-02
  33 F= -.64662781E+03 E0= -.64657836E+03  d E =-.253066E-03
       N       E                     dE             d eps       ncg     rms          rms(c)
DAV:   1    -0.646626310105E+03    0.14929E-02   -0.15264E-01  8792   0.143E+00    0.136E-01
RMM:   2    -0.646628469440E+03   -0.21593E-02   -0.18065E-02 11417   0.390E-01    0.294E-01
RMM:   3    -0.646628105910E+03    0.36353E-03   -0.43778E-03 13164   0.154E-01    0.113E-01
RMM:   4    -0.646628130390E+03   -0.24479E-04   -0.60400E-04 12509   0.601E-02    0.113E-01
RMM:   5    -0.646628030641E+03    0.99749E-04   -0.24352E-04 10462   0.401E-02    0.463E-02
RMM:   6    -0.646628043098E+03   -0.12458E-04   -0.14633E-04  9932   0.256E-02    0.584E-02
RMM:   7    -0.646628025935E+03    0.17164E-04   -0.10108E-04  9556   0.234E-02    0.243E-02
RMM:   8    -0.646628022621E+03    0.33141E-05   -0.49621E-05  7775   0.178E-02
  34 F= -.64662802E+03 E0= -.64657865E+03  d E =-.469040E-03
       N       E                     dE             d eps       ncg     rms          rms(c)
DAV:   1    -0.646627948140E+03    0.77795E-04   -0.24630E-02  9408   0.609E-01    0.104E-01
RMM:   2    -0.646628875030E+03   -0.92689E-03   -0.41105E-03 10380   0.194E-01    0.263E-01
RMM:   3    -0.646628229310E+03    0.64572E-03   -0.13049E-03 11734   0.992E-02    0.636E-02
RMM:   4    -0.646628232354E+03   -0.30439E-05   -0.24234E-04 11678   0.380E-02    0.547E-02
RMM:   5    -0.646628204964E+03    0.27390E-04   -0.85640E-05  9359   0.235E-02    0.174E-02
RMM:   6    -0.646628212337E+03   -0.73727E-05   -0.48156E-05  7240   0.173E-02
  35 F= -.64662821E+03 E0= -.64657883E+03  d E =-.189716E-03
       N       E                     dE             d eps       ncg     rms          rms(c)
DAV:   1    -0.646626789958E+03    0.14150E-02   -0.14978E-01  8848   0.150E+00    0.258E-01
RMM:   2    -0.646632507847E+03   -0.57179E-02   -0.24803E-02 10055   0.478E-01    0.650E-01
RMM:   3    -0.646628452590E+03    0.40553E-02   -0.76790E-03 11455   0.247E-01    0.150E-01
RMM:   4    -0.646628488950E+03   -0.36360E-04   -0.14141E-03 13349   0.948E-02    0.134E-01
RMM:   5    -0.646628321721E+03    0.16723E-03   -0.39404E-04 12238   0.488E-02    0.455E-02
RMM:   6    -0.646628365943E+03   -0.44222E-04   -0.21182E-04 11724   0.322E-02    0.918E-02
RMM:   7    -0.646628305848E+03    0.60095E-04   -0.15788E-04 10676   0.309E-02    0.221E-02
RMM:   8    -0.646628308393E+03   -0.25455E-05   -0.64733E-05  7832   0.189E-02
  36 F= -.64662831E+03 E0= -.64657892E+03  d E =-.285772E-03
       N       E                     dE             d eps       ncg     rms          rms(c)
DAV:   1    -0.646628136610E+03    0.16924E-03   -0.19325E-02  9408   0.540E-01    0.918E-02
RMM:   2    -0.646628837076E+03   -0.70047E-03   -0.31481E-03 10380   0.169E-01    0.229E-01
RMM:   3    -0.646628342140E+03    0.49494E-03   -0.97982E-04 11174   0.874E-02    0.563E-02
RMM:   4    -0.646628344107E+03   -0.19666E-05   -0.17494E-04 10862   0.354E-02    0.504E-02
RMM:   5    -0.646628317500E+03    0.26607E-04   -0.47620E-05  7681   0.205E-02    0.150E-02
RMM:   6    -0.646628324057E+03   -0.65572E-05   -0.25482E-05  5720   0.159E-02
  37 F= -.64662832E+03 E0= -.64657894E+03  d E =-.301437E-03
       N       E                     dE             d eps       ncg     rms          rms(c)
DAV:   1    -0.646627908896E+03    0.40860E-03   -0.42654E-02  9128   0.768E-01    0.586E-02
RMM:   2    -0.646628432592E+03   -0.52370E-03   -0.57214E-03 11279   0.192E-01    0.583E-02
RMM:   3    -0.646628568237E+03   -0.13565E-03   -0.14157E-03 12468   0.685E-02    0.723E-02
RMM:   4    -0.646628544478E+03    0.23759E-04   -0.13503E-04  8305   0.309E-02    0.380E-02
RMM:   5    -0.646628533514E+03    0.10964E-04   -0.38012E-05  6574   0.175E-02    0.183E-02
RMM:   6    -0.646628533485E+03    0.29431E-07   -0.19105E-05  5934   0.134E-02
  38 F= -.64662853E+03 E0= -.64657918E+03  d E =-.209427E-03
       N       E                     dE             d eps       ncg     rms          rms(c)
DAV:   1    -0.646625629764E+03    0.29037E-02   -0.21868E-01  8736   0.174E+00    0.134E-01
RMM:   2    -0.646628438779E+03   -0.28090E-02   -0.29379E-02 11393   0.427E-01    0.195E-01
RMM:   3    -0.646628928856E+03   -0.49008E-03   -0.70419E-03 13442   0.152E-01    0.147E-01
RMM:   4    -0.646628858922E+03    0.69934E-04   -0.61957E-04 12056   0.598E-02    0.936E-02
RMM:   5    -0.646628786425E+03    0.72497E-04   -0.20852E-04 10686   0.356E-02    0.365E-02
RMM:   6    -0.646628800436E+03   -0.14011E-04   -0.14028E-04 10525   0.247E-02    0.579E-02
RMM:   7    -0.646628779938E+03    0.20499E-04   -0.73981E-05  9638   0.223E-02    0.266E-02
RMM:   8    -0.646628777005E+03    0.29329E-05   -0.43938E-05  8554   0.154E-02
  39 F= -.64662878E+03 E0= -.64657946E+03  d E =-.452947E-03
       N       E                     dE             d eps       ncg     rms          rms(c)
DAV:   1    -0.646628612645E+03    0.16729E-03   -0.12205E-02  9856   0.411E-01    0.323E-02
RMM:   2    -0.646628776122E+03   -0.16348E-03   -0.16282E-03 11570   0.102E-01    0.556E-02
RMM:   3    -0.646628798337E+03   -0.22215E-04   -0.46231E-04 10256   0.413E-02    0.282E-02
RMM:   4    -0.646628797156E+03    0.11809E-05   -0.42642E-05  7677   0.211E-02
  40 F= -.64662880E+03 E0= -.64657949E+03  d E =-.473099E-03
       N       E                     dE             d eps       ncg     rms          rms(c)
DAV:   1    -0.646628442738E+03    0.35560E-03   -0.42434E-02  9352   0.727E-01    0.846E-02
RMM:   2    -0.646629274852E+03   -0.83211E-03   -0.59830E-03 11076   0.205E-01    0.201E-01
RMM:   3    -0.646629013681E+03    0.26117E-03   -0.14294E-03 12077   0.843E-02    0.668E-02
RMM:   4    -0.646629014465E+03   -0.78389E-06   -0.20639E-04 11029   0.340E-02    0.597E-02
RMM:   5    -0.646628986587E+03    0.27879E-04   -0.71962E-05  7670   0.241E-02    0.248E-02
RMM:   6    -0.646628990707E+03   -0.41205E-05   -0.38196E-05  6913   0.156E-02
  41 F= -.64662899E+03 E0= -.64657971E+03  d E =-.193551E-03
       N       E                     dE             d eps       ncg     rms          rms(c)
DAV:   1    -0.646625681998E+03    0.33046E-02   -0.27021E-01  8960   0.183E+00    0.217E-01
RMM:   2    -0.646630620025E+03   -0.49380E-02   -0.37677E-02 11046   0.512E-01    0.468E-01
RMM:   3    -0.646629195876E+03    0.14241E-02   -0.91297E-03 12223   0.214E-01    0.157E-01
RMM:   4    -0.646629264495E+03   -0.68619E-04   -0.11845E-03 13504   0.807E-02    0.168E-01
RMM:   5    -0.646629027874E+03    0.23662E-03   -0.42937E-04 11330   0.523E-02    0.563E-02
RMM:   6    -0.646629079932E+03   -0.52057E-04   -0.24928E-04 11337   0.336E-02    0.998E-02
RMM:   7    -0.646629013782E+03    0.66150E-04   -0.18065E-04 11135   0.319E-02    0.246E-02
RMM:   8    -0.646629018757E+03   -0.49758E-05   -0.78549E-05  8684   0.210E-02
  42 F= -.64662902E+03 E0= -.64657978E+03  d E =-.221601E-03
       N       E                     dE             d eps       ncg     rms          rms(c)
DAV:   1    -0.646628397916E+03    0.61587E-03   -0.58422E-02  9156   0.850E-01    0.101E-01
RMM:   2    -0.646629441330E+03   -0.10434E-02   -0.79585E-03 11123   0.239E-01    0.220E-01
RMM:   3    -0.646629147850E+03    0.29348E-03   -0.20049E-03 11619   0.986E-02    0.731E-02
RMM:   4    -0.646629158463E+03   -0.10613E-04   -0.24964E-04 11478   0.395E-02    0.773E-02
RMM:   5    -0.646629101249E+03    0.57214E-04   -0.73712E-05  8156   0.263E-02    0.230E-02
RMM:   6    -0.646629114514E+03   -0.13264E-04   -0.46885E-05  7263   0.174E-02    0.509E-02
RMM:   7    -0.646629094212E+03    0.20302E-04   -0.22523E-05  5494   0.175E-02    0.108E-02
RMM:   8    -0.646629093888E+03    0.32363E-06   -0.85440E-06  5122   0.127E-02
  43 F= -.64662909E+03 E0= -.64657982E+03  d E =-.296732E-03
       N       E                     dE             d eps       ncg     rms          rms(c)
DAV:   1    -0.646628884293E+03    0.20992E-03   -0.32599E-02  9128   0.653E-01    0.110E-01
RMM:   2    -0.646629992841E+03   -0.11085E-02   -0.53450E-03 10114   0.203E-01    0.281E-01
RMM:   3    -0.646629268798E+03    0.72404E-03   -0.13776E-03 10967   0.101E-01    0.674E-02
RMM:   4    -0.646629268593E+03    0.20453E-06   -0.23992E-04 11255   0.396E-02    0.587E-02
RMM:   5    -0.646629232648E+03    0.35945E-04   -0.70308E-05  7999   0.243E-02    0.209E-02
RMM:   6    -0.646629239103E+03   -0.64548E-05   -0.32363E-05  6351   0.161E-02
  44 F= -.64662924E+03 E0= -.64657997E+03  d E =-.145215E-03
       N       E                     dE             d eps       ncg     rms          rms(c)
DAV:   1    -0.646628501027E+03    0.73162E-03   -0.71791E-02  8904   0.971E-01    0.164E-01
RMM:   2    -0.646630929505E+03   -0.24285E-02   -0.11926E-02 10117   0.303E-01    0.412E-01
RMM:   3    -0.646629354114E+03    0.15754E-02   -0.30741E-03 11344   0.150E-01    0.101E-01
RMM:   4    -0.646629357902E+03   -0.37874E-05   -0.52560E-04 12638   0.562E-02    0.902E-02
RMM:   5    -0.646629282207E+03    0.75694E-04   -0.16970E-04 10564   0.341E-02    0.371E-02
RMM:   6    -0.646629292380E+03   -0.10172E-04   -0.87944E-05  8469   0.218E-02    0.530E-02
RMM:   7    -0.646629268456E+03    0.23923E-04   -0.58799E-05  7157   0.207E-02    0.140E-02
RMM:   8    -0.646629269010E+03   -0.55390E-06   -0.24016E-05  6025   0.172E-02
  45 F= -.64662927E+03 E0= -.64657997E+03  d E =-.175122E-03
       N       E                     dE             d eps       ncg     rms          rms(c)
DAV:   1    -0.646629204972E+03    0.63485E-04   -0.68171E-03  9408   0.301E-01    0.509E-02
RMM:   2    -0.646629428071E+03   -0.22310E-03   -0.11158E-03 10446   0.937E-02    0.126E-01
RMM:   3    -0.646629280718E+03    0.14735E-03   -0.28704E-04  9590   0.465E-02    0.317E-02
RMM:   4    -0.646629280932E+03   -0.21332E-06   -0.55202E-05  7251   0.229E-02
  46 F= -.64662928E+03 E0= -.64657999E+03  d E =-.187044E-03
       N       E                     dE             d eps       ncg     rms          rms(c)
DAV:   1    -0.646628847253E+03    0.43347E-03   -0.29733E-02  9464   0.627E-01    0.434E-02
RMM:   2    -0.646629262177E+03   -0.41492E-03   -0.39850E-03 11053   0.157E-01    0.766E-02
RMM:   3    -0.646629333149E+03   -0.70973E-04   -0.12275E-03 10586   0.576E-02    0.375E-02
RMM:   4    -0.646629338254E+03   -0.51049E-05   -0.84536E-05  7424   0.246E-02
  47 F= -.64662934E+03 E0= -.64658005E+03  d E =-.573224E-04
       N       E                     dE             d eps       ncg     rms          rms(c)
DAV:   1    -0.646629329985E+03    0.31644E-05   -0.66983E-05  9324   0.279E-02    0.118E-02
RMM:   2    -0.646629343023E+03   -0.13039E-04   -0.20291E-05  5600   0.135E-02    0.431E-02
RMM:   3    -0.646629329176E+03    0.13847E-04   -0.79905E-06  5133   0.111E-02    0.736E-03
RMM:   4    -0.646629329250E+03   -0.74018E-07   -0.25220E-06  4808   0.662E-03
  48 F= -.64662933E+03 E0= -.64658006E+03  d E =-.483183E-04
       N       E                     dE             d eps       ncg     rms          rms(c)
DAV:   1    -0.646629330169E+03   -0.99313E-06   -0.53996E-05  9100   0.278E-02    0.672E-03
RMM:   2    -0.646629337650E+03   -0.74814E-05   -0.15881E-05  5326   0.125E-02
  49 F= -.64662934E+03 E0= -.64658007E+03  d E =-.567188E-04
       N       E                     dE             d eps       ncg     rms          rms(c)
DAV:   1    -0.646629374824E+03   -0.44655E-04   -0.22528E-03  9520   0.169E-01    0.481E-02
RMM:   2    -0.646629525173E+03   -0.15035E-03   -0.43306E-04  9530   0.686E-02    0.123E-01
RMM:   3    -0.646629371334E+03    0.15384E-03   -0.10935E-04  8306   0.372E-02    0.317E-02
RMM:   4    -0.646629368393E+03    0.29410E-05   -0.29855E-05  5943   0.202E-02
  50 F= -.64662937E+03 E0= -.64658010E+03  d E =-.307421E-04
       N       E                     dE             d eps       ncg     rms          rms(c)
DAV:   1    -0.646629444075E+03   -0.72741E-04   -0.16538E-02  9352   0.454E-01    0.135E-01
RMM:   2    -0.646630576965E+03   -0.11329E-02   -0.33513E-03  9597   0.191E-01    0.343E-01
RMM:   3    -0.646629419493E+03    0.11575E-02   -0.84253E-04 11146   0.995E-02    0.920E-02
RMM:   4    -0.646629396193E+03    0.23300E-04   -0.25233E-04 11787   0.437E-02    0.718E-02
RMM:   5    -0.646629353974E+03    0.42218E-04   -0.11308E-04 10189   0.283E-02    0.425E-02
RMM:   6    -0.646629348520E+03    0.54543E-05   -0.50294E-05  7267   0.201E-02
  51 F= -.64662935E+03 E0= -.64658012E+03  d E =-.108696E-04
       N       E                     dE             d eps       ncg     rms          rms(c)
DAV:   1    -0.646629373904E+03   -0.19930E-04   -0.13993E-03 10332   0.132E-01    0.357E-02
RMM:   2    -0.646629459655E+03   -0.85751E-04   -0.25476E-04 10105   0.513E-02    0.943E-02
RMM:   3    -0.646629374788E+03    0.84867E-04   -0.63256E-05  7252   0.284E-02    0.248E-02
RMM:   4    -0.646629372001E+03    0.27874E-05   -0.15757E-05  5254   0.170E-02
  52 F= -.64662937E+03 E0= -.64658012E+03  d E =-.343504E-04
       N       E                     dE             d eps       ncg     rms          rms(c)
DAV:   1    -0.646629399699E+03   -0.24910E-04   -0.21937E-03  9520   0.166E-01    0.501E-02
RMM:   2    -0.646629542899E+03   -0.14320E-03   -0.44163E-04  9772   0.686E-02    0.124E-01
RMM:   3    -0.646629394017E+03    0.14888E-03   -0.11746E-04  8805   0.375E-02    0.336E-02
RMM:   4    -0.646629389933E+03    0.40831E-05   -0.32394E-05  6104   0.201E-02
  53 F= -.64662939E+03 E0= -.64658013E+03  d E =-.522829E-04
       N       E                     dE             d eps       ncg     rms          rms(c)
DAV:   1    -0.646629384922E+03    0.90944E-05   -0.55518E-04 10808   0.831E-02    0.297E-02
RMM:   2    -0.646629445410E+03   -0.60488E-04   -0.13866E-04  9044   0.340E-02    0.870E-02
RMM:   3    -0.646629380975E+03    0.64435E-04   -0.36843E-05  5992   0.216E-02    0.254E-02
RMM:   4    -0.646629376724E+03    0.42510E-05   -0.10326E-05  5008   0.136E-02
  54 F= -.64662938E+03 E0= -.64658011E+03  d E =-.390739E-04
       N       E                     dE             d eps       ncg     rms          rms(c)
DAV:   1    -0.646629393011E+03   -0.12035E-04   -0.21971E-03  9408   0.168E-01    0.282E-02
RMM:   2    -0.646629438659E+03   -0.45649E-04   -0.28080E-04  9836   0.548E-02    0.603E-02
RMM:   3    -0.646629408900E+03    0.29759E-04   -0.77295E-05  7149   0.291E-02    0.237E-02
RMM:   4    -0.646629407979E+03    0.92099E-06   -0.16798E-05  5412   0.170E-02
  55 F= -.64662941E+03 E0= -.64658014E+03  d E =-.312550E-04
       N       E                     dE             d eps       ncg     rms          rms(c)
DAV:   1    -0.646629403804E+03    0.50962E-05   -0.20214E-03  9352   0.160E-01    0.290E-02
RMM:   2    -0.646629446799E+03   -0.42995E-04   -0.27045E-04 10087   0.536E-02    0.590E-02
RMM:   3    -0.646629416898E+03    0.29901E-04   -0.73747E-05  7056   0.278E-02    0.221E-02
RMM:   4    -0.646629416431E+03    0.46728E-06   -0.18852E-05  5528   0.165E-02
  56 F= -.64662942E+03 E0= -.64658016E+03  d E =-.397063E-04
       N       E                     dE             d eps       ncg     rms          rms(c)
DAV:   1    -0.646629412337E+03    0.45614E-05   -0.31369E-04 10948   0.628E-02    0.140E-02
RMM:   2    -0.646629425631E+03   -0.13295E-04   -0.52745E-05  6797   0.216E-02    0.403E-02
RMM:   3    -0.646629412932E+03    0.12700E-04   -0.12694E-05  5334   0.154E-02    0.130E-02
RMM:   4    -0.646629411736E+03    0.11955E-05   -0.41647E-06  4505   0.887E-03
  57 F= -.64662941E+03 E0= -.64658015E+03  d E =-.350116E-04
       N       E                     dE             d eps       ncg     rms          rms(c)
DAV:   1    -0.646629412029E+03    0.90234E-06   -0.41289E-04  9800   0.792E-02    0.725E-03
RMM:   2    -0.646629419834E+03   -0.78048E-05   -0.61347E-05  6106   0.215E-02
  58 F= -.64662942E+03 E0= -.64658016E+03  d E =-.809800E-05
       N       E                     dE             d eps       ncg     rms          rms(c)
DAV:   1    -0.646629416296E+03   -0.42671E-05   -0.31311E-05  6972   0.257E-02    0.659E-03
RMM:   2    -0.646629422750E+03   -0.64540E-05   -0.91691E-06  5137   0.100E-02
  59 F= -.64662942E+03 E0= -.64658016E+03  d E =-.110143E-04
       N       E                     dE             d eps       ncg     rms          rms(c)
DAV:   1    -0.646629417144E+03   -0.84722E-06   -0.23058E-05  6720   0.209E-02    0.356E-03
RMM:   2    -0.646629418382E+03   -0.12382E-05   -0.44162E-06  4332   0.647E-03
  60 F= -.64662942E+03 E0= -.64658016E+03  d E =-.664575E-05
