 vasp.5.4.4.18Apr17-6-g9f103f2a35 (build Apr 17 2020 20:39:25) complex          
  
 executed on             LinuxIFC date 2025.11.13  10:40:37
 running on   24 total cores
 distrk:  each k-point on   24 cores,    1 groups
 distr:  one band on NCORES_PER_BAND=   1 cores,   24 groups


--------------------------------------------------------------------------------------------------------


 INCAR:
 POTCAR:   PAW_PBE Nb_sv 17Jan2003                
 POTCAR:   PAW_PBE W_pv 06Sep2000                 
 POTCAR:   PAW_PBE V_sv 07Sep2000                 
 POTCAR:   PAW_PBE N 08Apr2002                    
 POTCAR:   PAW_PBE C 08Apr2002                    
 POTCAR:   PAW_PBE Cr_pv 07Sep2000                
 POTCAR:   PAW_PBE Mo 08Apr2002                   

 ----------------------------------------------------------------------------- 
|                                                                             |
|           W    W    AA    RRRRR   N    N  II  N    N   GGGG   !!!           |
|           W    W   A  A   R    R  NN   N  II  NN   N  G    G  !!!           |
|           W    W  A    A  R    R  N N  N  II  N N  N  G       !!!           |
|           W WW W  AAAAAA  RRRRR   N  N N  II  N  N N  G  GGG   !            |
|           WW  WW  A    A  R   R   N   NN  II  N   NN  G    G                |
|           W    W  A    A  R    R  N    N  II  N    N   GGGG   !!!           |
|                                                                             |
|      For optimal performance we recommend to set                            |
|        NCORE= 4 - approx SQRT( number of cores)                             |
|      NCORE specifies how many cores store one orbital (NPAR=cpu/NCORE).     |
|      This setting can  greatly improve the performance of VASP for DFT.     |
|      The default,   NCORE=1            might be grossly inefficient         |
|      on modern multi-core architectures or massively parallel machines.     |
|      Do your own testing !!!!                                               |
|      Unfortunately you need to use the default for GW and RPA calculations. |
|      (for HF NCORE is supported but not extensively tested yet)             |
|                                                                             |
 ----------------------------------------------------------------------------- 

 POTCAR:   PAW_PBE Nb_sv 17Jan2003                
   VRHFIN =Nb: 4p5s4d                                                           
   LEXCH  = PE                                                                  
   EATOM  =  1555.1913 eV,  114.3033 Ry                                         
                                                                                
   TITEL  = PAW_PBE Nb_sv 17Jan2003                                             
   LULTRA =        F    use ultrasoft PP ?                                      
   IUNSCR =        1    unscreen: 0-lin 1-nonlin 2-no                           
   RPACOR =    1.800    partial core radius                                     
   POMASS =   92.910; ZVAL   =   13.000    mass and valenz                      
   RCORE  =    2.200    outmost cutoff radius                                   
   RWIGS  =    2.400; RWIGS  =    1.270    wigner-seitz radius (au A)           
   ENMAX  =  293.235; ENMIN  =  219.927 eV                                      
   RCLOC  =    1.411    cutoff for local pot                                    
   LCOR   =        T    correct aug charges                                     
   LPAW   =        T    paw PP                                                  
   EAUG   =  455.659                                                            
   DEXC   =     .000                                                            
   RMAX   =    2.693    core radius for proj-oper                               
   RAUG   =    1.300    factor for augmentation sphere                          
   RDEP   =    2.299    radius for radial grids                                 
   QCUT   =   -4.642; QGAM   =    9.285    optimization parameters              
                                                                                
   Description                                                                  
     l     E      TYP  RCUT    TYP  RCUT                                        
     0   .000     23  2.200                                                     
     0   .000     23  2.200                                                     
     0   .000     23  2.200                                                     
     0   .000     23  2.200                                                     
     1   .000     23  2.200                                                     
     1  1.000     23  2.200                                                     
     2   .000     23  2.200                                                     
     2   .000     23  2.200                                                     
     3   .000      7   .000                                                     
  local pseudopotential read in
  partial core-charges read in
  atomic valenz-charges read in
  non local Contribution for L=           0  read in
    real space projection operators read in
  non local Contribution for L=           0  read in
    real space projection operators read in
  non local Contribution for L=           1  read in
    real space projection operators read in
  non local Contribution for L=           1  read in
    real space projection operators read in
  non local Contribution for L=           2  read in
    real space projection operators read in
  non local Contribution for L=           2  read in
    real space projection operators read in
    PAW grid and wavefunctions read in
 
   number of l-projection  operators is LMAX  =           6
   number of lm-projection operators is LMMAX =          18
 
 POTCAR:   PAW_PBE W_pv 06Sep2000                 
   VRHFIN =W : 5p6s5d                                                           
   LEXCH  = PE                                                                  
   EATOM  =  1260.0376 eV,   92.6101 Ry                                         
                                                                                
   TITEL  = PAW_PBE W_pv 06Sep2000                                              
   LULTRA =        F    use ultrasoft PP ?                                      
   IUNSCR =        1    unscreen: 0-lin 1-nonlin 2-no                           
   RPACOR =    2.330    partial core radius                                     
   POMASS =  183.850; ZVAL   =   12.000    mass and valenz                      
   RCORE  =    2.500    outmost cutoff radius                                   
   RWIGS  =    2.750; RWIGS  =    1.455    wigner-seitz radius (au A)           
   ENMAX  =  223.065; ENMIN  =  167.299 eV                                      
   RCLOC  =    2.147    cutoff for local pot                                    
   LCOR   =        T    correct aug charges                                     
   LPAW   =        T    paw PP                                                  
   EAUG   =  373.438                                                            
   DEXC   =    -.018                                                            
   RMAX   =    3.087    core radius for proj-oper                               
   RAUG   =    1.300    factor for augmentation sphere                          
   RDEP   =    2.539    radius for radial grids                                 
   QCUT   =   -4.049; QGAM   =    8.098    optimization parameters              
                                                                                
   Description                                                                  
     l     E      TYP  RCUT    TYP  RCUT                                        
     1   .000     23  2.500                                                     
     1  -.200     23  2.500                                                     
     2   .000     23  2.500                                                     
     2   .000     23  2.500                                                     
     0   .000     23  2.500                                                     
     0   .000     23  2.500                                                     
     3   .000      7   .000                                                     
  local pseudopotential read in
  partial core-charges read in
  atomic valenz-charges read in
  non local Contribution for L=           1  read in
    real space projection operators read in
  non local Contribution for L=           1  read in
    real space projection operators read in
  non local Contribution for L=           2  read in
    real space projection operators read in
  non local Contribution for L=           2  read in
    real space projection operators read in
  non local Contribution for L=           0  read in
    real space projection operators read in
  non local Contribution for L=           0  read in
    real space projection operators read in
    PAW grid and wavefunctions read in
 
   number of l-projection  operators is LMAX  =           6
   number of lm-projection operators is LMMAX =          18
 
 POTCAR:   PAW_PBE V_sv 07Sep2000                 
   VRHFIN =V: p6 d4 s1                                                          
   LEXCH  = PE                                                                  
   EATOM  =  1951.3925 eV,  143.4233 Ry                                         
                                                                                
   TITEL  = PAW_PBE V_sv 07Sep2000                                              
   LULTRA =        F    use ultrasoft PP ?                                      
   IUNSCR =        1    unscreen: 0-lin 1-nonlin 2-no                           
   RPACOR =    2.000    partial core radius                                     
   POMASS =   50.941; ZVAL   =   13.000    mass and valenz                      
   RCORE  =    2.300    outmost cutoff radius                                   
   RWIGS  =    2.300; RWIGS  =    1.217    wigner-seitz radius (au A)           
   ENMAX  =  263.675; ENMIN  =  197.756 eV                                      
   RCLOC  =    1.779    cutoff for local pot                                    
   LCOR   =        T    correct aug charges                                     
   LPAW   =        T    paw PP                                                  
   EAUG   =  526.568                                                            
   DEXC   =     .000                                                            
   RMAX   =    2.839    core radius for proj-oper                               
   RAUG   =    1.300    factor for augmentation sphere                          
   RDEP   =    2.430    radius for radial grids                                 
   QCUT   =   -4.402; QGAM   =    8.804    optimization parameters              
                                                                                
   Description                                                                  
     l     E      TYP  RCUT    TYP  RCUT                                        
     0   .000     23  1.800                                                     
     0   .000     23  2.300                                                     
     0   .000     23  1.800                                                     
     0   .000     23  2.300                                                     
     1   .000     23  2.000                                                     
     1   .400     23  2.000                                                     
     2   .000     23  2.300                                                     
     2   .000     23  2.300                                                     
     3   .000      7   .000                                                     
  local pseudopotential read in
  partial core-charges read in
  atomic valenz-charges read in
  non local Contribution for L=           0  read in
    real space projection operators read in
  non local Contribution for L=           0  read in
    real space projection operators read in
  non local Contribution for L=           1  read in
    real space projection operators read in
  non local Contribution for L=           1  read in
    real space projection operators read in
  non local Contribution for L=           2  read in
    real space projection operators read in
  non local Contribution for L=           2  read in
    real space projection operators read in
    PAW grid and wavefunctions read in
 
   number of l-projection  operators is LMAX  =           6
   number of lm-projection operators is LMMAX =          18
 
 POTCAR:   PAW_PBE N 08Apr2002                    
   VRHFIN =N: s2p3                                                              
   LEXCH  = PE                                                                  
   EATOM  =   264.5486 eV,   19.4438 Ry                                         
                                                                                
   TITEL  = PAW_PBE N 08Apr2002                                                 
   LULTRA =        F    use ultrasoft PP ?                                      
   IUNSCR =        0    unscreen: 0-lin 1-nonlin 2-no                           
   RPACOR =     .000    partial core radius                                     
   POMASS =   14.001; ZVAL   =    5.000    mass and valenz                      
   RCORE  =    1.500    outmost cutoff radius                                   
   RWIGS  =    1.400; RWIGS  =     .741    wigner-seitz radius (au A)           
   ENMAX  =  400.000; ENMIN  =  300.000 eV                                      
   ICORE  =        2    local potential                                         
   LCOR   =        T    correct aug charges                                     
   LPAW   =        T    paw PP                                                  
   EAUG   =  627.112                                                            
   DEXC   =     .000                                                            
   RMAX   =    2.247    core radius for proj-oper                               
   RAUG   =    1.300    factor for augmentation sphere                          
   RDEP   =    1.514    radius for radial grids                                 
   QCUT   =   -5.562; QGAM   =   11.124    optimization parameters              
                                                                                
   Description                                                                  
     l     E      TYP  RCUT    TYP  RCUT                                        
     0   .000     23  1.200                                                     
     0   .000     23  1.200                                                     
     1   .000     23  1.500                                                     
     1   .700     23  1.500                                                     
     2   .000      7  1.500                                                     
  local pseudopotential read in
  atomic valenz-charges read in
  non local Contribution for L=           0  read in
    real space projection operators read in
  non local Contribution for L=           0  read in
    real space projection operators read in
  non local Contribution for L=           1  read in
    real space projection operators read in
  non local Contribution for L=           1  read in
    real space projection operators read in
    PAW grid and wavefunctions read in
 
   number of l-projection  operators is LMAX  =           4
   number of lm-projection operators is LMMAX =           8
 
 POTCAR:   PAW_PBE C 08Apr2002                    
   VRHFIN =C: s2p2                                                              
   LEXCH  = PE                                                                  
   EATOM  =   147.1560 eV,   10.8157 Ry                                         
                                                                                
   TITEL  = PAW_PBE C 08Apr2002                                                 
   LULTRA =        F    use ultrasoft PP ?                                      
   IUNSCR =        0    unscreen: 0-lin 1-nonlin 2-no                           
   RPACOR =     .000    partial core radius                                     
   POMASS =   12.011; ZVAL   =    4.000    mass and valenz                      
   RCORE  =    1.500    outmost cutoff radius                                   
   RWIGS  =    1.630; RWIGS  =     .863    wigner-seitz radius (au A)           
   ENMAX  =  400.000; ENMIN  =  300.000 eV                                      
   ICORE  =        2    local potential                                         
   LCOR   =        T    correct aug charges                                     
   LPAW   =        T    paw PP                                                  
   EAUG   =  644.873                                                            
   DEXC   =     .000                                                            
   RMAX   =    2.266    core radius for proj-oper                               
   RAUG   =    1.300    factor for augmentation sphere                          
   RDEP   =    1.501    radius for radial grids                                 
   RDEPT  =    1.300    core radius for aug-charge                              
   QCUT   =   -5.516; QGAM   =   11.032    optimization parameters              
                                                                                
   Description                                                                  
     l     E      TYP  RCUT    TYP  RCUT                                        
     0   .000     23  1.200                                                     
     0   .000     23  1.200                                                     
     1   .000     23  1.500                                                     
     1  2.500     23  1.500                                                     
     2   .000      7  1.500                                                     
  local pseudopotential read in
  atomic valenz-charges read in
  non local Contribution for L=           0  read in
    real space projection operators read in
  non local Contribution for L=           0  read in
    real space projection operators read in
  non local Contribution for L=           1  read in
    real space projection operators read in
  non local Contribution for L=           1  read in
    real space projection operators read in
    PAW grid and wavefunctions read in
 
   number of l-projection  operators is LMAX  =           4
   number of lm-projection operators is LMMAX =           8
 
 POTCAR:   PAW_PBE Cr_pv 07Sep2000                
   VRHFIN =Cr : p6d5s1                                                          
   LEXCH  = PE                                                                  
   EATOM  =  1647.5667 eV,  121.0927 Ry                                         
                                                                                
   TITEL  = PAW_PBE Cr_pv 07Sep2000                                             
   LULTRA =        F    use ultrasoft PP ?                                      
   IUNSCR =        1    unscreen: 0-lin 1-nonlin 2-no                           
   RPACOR =    2.080    partial core radius                                     
   POMASS =   51.996; ZVAL   =   12.000    mass and valenz                      
   RCORE  =    2.300    outmost cutoff radius                                   
   RWIGS  =    2.500; RWIGS  =    1.323    wigner-seitz radius (au A)           
   ENMAX  =  265.683; ENMIN  =  199.262 eV                                      
   RCLOC  =    1.721    cutoff for local pot                                    
   LCOR   =        T    correct aug charges                                     
   LPAW   =        T    paw PP                                                  
   EAUG   =  519.424                                                            
   DEXC   =    -.003                                                            
   RMAX   =    2.829    core radius for proj-oper                               
   RAUG   =    1.300    factor for augmentation sphere                          
   RDEP   =    2.447    radius for radial grids                                 
   QCUT   =   -4.419; QGAM   =    8.838    optimization parameters              
                                                                                
   Description                                                                  
     l     E      TYP  RCUT    TYP  RCUT                                        
     1   .000     23  2.000                                                     
     1   .100     23  2.000                                                     
     2   .000     23  2.300                                                     
     2   .000     23  2.300                                                     
     0   .000     23  2.300                                                     
     0   .000     23  2.300                                                     
     3   .000      7   .000                                                     
  local pseudopotential read in
  partial core-charges read in
  atomic valenz-charges read in
  non local Contribution for L=           1  read in
    real space projection operators read in
  non local Contribution for L=           1  read in
    real space projection operators read in
  non local Contribution for L=           2  read in
    real space projection operators read in
  non local Contribution for L=           2  read in
    real space projection operators read in
  non local Contribution for L=           0  read in
    real space projection operators read in
  non local Contribution for L=           0  read in
    real space projection operators read in
    PAW grid and wavefunctions read in
 
   number of l-projection  operators is LMAX  =           6
   number of lm-projection operators is LMMAX =          18
 
 POTCAR:   PAW_PBE Mo 08Apr2002                   
   VRHFIN =Mo: 4p5s4d                                                           
   LEXCH  = PE                                                                  
   EATOM  =   217.5180 eV,   15.9871 Ry                                         
                                                                                
   TITEL  = PAW_PBE Mo 08Apr2002                                                
   LULTRA =        F    use ultrasoft PP ?                                      
   IUNSCR =        1    unscreen: 0-lin 1-nonlin 2-no                           
   RPACOR =    2.200    partial core radius                                     
   POMASS =   95.940; ZVAL   =    6.000    mass and valenz                      
   RCORE  =    2.750    outmost cutoff radius                                   
   RWIGS  =    2.750; RWIGS  =    1.455    wigner-seitz radius (au A)           
   ENMAX  =  224.584; ENMIN  =  168.438 eV                                      
   RCLOC  =    2.111    cutoff for local pot                                    
   LCOR   =        T    correct aug charges                                     
   LPAW   =        T    paw PP                                                  
   EAUG   =  345.278                                                            
   DEXC   =    -.088                                                            
   RMAX   =    3.077    core radius for proj-oper                               
   RAUG   =    1.300    factor for augmentation sphere                          
   RDEP   =    2.815    radius for radial grids                                 
   QCUT   =   -4.063; QGAM   =    8.126    optimization parameters              
                                                                                
   Description                                                                  
     l     E      TYP  RCUT    TYP  RCUT                                        
     2   .000     23  2.500                                                     
     2   .000     23  2.500                                                     
     0   .000     23  2.600                                                     
     0  1.000     23  2.600                                                     
     1   .400     23  2.750                                                     
     1  2.000     23  2.750                                                     
     3   .000      7   .000                                                     
  local pseudopotential read in
  partial core-charges read in
  atomic valenz-charges read in
  non local Contribution for L=           2  read in
    real space projection operators read in
  non local Contribution for L=           2  read in
    real space projection operators read in
  non local Contribution for L=           0  read in
    real space projection operators read in
  non local Contribution for L=           0  read in
    real space projection operators read in
  non local Contribution for L=           1  read in
    real space projection operators read in
  non local Contribution for L=           1  read in
    real space projection operators read in
    PAW grid and wavefunctions read in
 
   number of l-projection  operators is LMAX  =           6
   number of lm-projection operators is LMMAX =          18
 

 ----------------------------------------------------------------------------- 
|                                                                             |
|  ADVICE TO THIS USER RUNNING 'VASP/VAMP'   (HEAR YOUR MASTER'S VOICE ...):  |
|                                                                             |
|      You have a (more or less) 'large supercell' and for larger cells       |
|      it might be more efficient to use real space projection operators      |
|      So try LREAL= Auto  in the INCAR   file.                               |
|      Mind: If you want to do a very accurate calculations keep the          |
|      reciprocal projection scheme          (i.e. LREAL=.FALSE.)             |
|                                                                             |
 ----------------------------------------------------------------------------- 

 PAW_PBE Nb_sv 17Jan2003                :
 energy of atom  1       EATOM=-1555.1913
 kinetic energy error for atom=    0.0212 (will be added to EATOM!!)
 PAW_PBE W_pv 06Sep2000                 :
 energy of atom  2       EATOM=-1260.0376
 kinetic energy error for atom=    0.0051 (will be added to EATOM!!)
 PAW_PBE V_sv 07Sep2000                 :
 energy of atom  3       EATOM=-1951.3925
 kinetic energy error for atom=    0.0321 (will be added to EATOM!!)
 PAW_PBE N 08Apr2002                    :
 energy of atom  4       EATOM= -264.5486
 kinetic energy error for atom=    0.0736 (will be added to EATOM!!)
 PAW_PBE C 08Apr2002                    :
 energy of atom  5       EATOM= -147.1560
 kinetic energy error for atom=    0.0288 (will be added to EATOM!!)
 PAW_PBE Cr_pv 07Sep2000                :
 energy of atom  6       EATOM=-1647.5667
 kinetic energy error for atom=    0.0284 (will be added to EATOM!!)
 PAW_PBE Mo 08Apr2002                   :
 energy of atom  7       EATOM= -217.5180
 kinetic energy error for atom=    0.0025 (will be added to EATOM!!)
 
 
 POSCAR: 124-VNbCrMoW                            
  positions in direct lattice
  velocities in cartesian coordinates
 exchange correlation table for  LEXCH =        8
   RHO(1)=    0.500       N(1)  =     2000
   RHO(2)=  100.500       N(2)  =     4000
 


--------------------------------------------------------------------------------------------------------


 ion  position               nearest neighbor table
   1  0.008  0.009  0.988-  23 2.15  29 2.16  22 2.21  34 2.22  25 2.23  38 2.25  56 2.59  10 2.82
                             8 3.02   9 3.08  12 3.08  58 3.09  59 3.15
   2  0.260  0.997  0.245-  26 2.12  36 2.14  21 2.15  22 2.15  43 2.29  34 2.31  57 2.77  61 2.95
                            59 2.99  55 3.06   8 3.11
   3  0.252  0.499  0.249-  41 2.11  36 2.14  21 2.18  37 2.18  27 2.19  46 2.19  55 2.96  18 2.98
                            62 3.01   4 3.03  59 3.11   8 3.25
   4  0.503  0.499  0.001-  41 2.14  35 2.18  52 2.20  28 2.22  40 2.23  37 2.25  63 2.94  17 2.96
                            60 2.96  14 2.98   3 3.03  13 3.05   9 3.09
   5  0.507  0.243  0.751-  33 2.07  42 2.15  30 2.18  35 2.22  32 2.23  52 2.24  58 2.77  53 2.78
                            17 2.80  14 2.89  57 3.05  13 3.11  63 3.13  11 3.17  62 3.25
   6  0.997  0.500  0.507-  50 2.15  48 2.15  47 2.16  44 2.18  46 2.19  27 2.21  12 2.96  64 2.98
                            11 3.04  13 3.06  63 3.07  10 3.11  59 3.11  60 3.15   8 3.18
   7  0.497  0.761  0.745-  33 2.08  45 2.14  51 2.18  28 2.19  49 2.20  52 2.22  58 2.81  63 3.00
                            53 3.01  62 3.03  64 3.04  13 3.05   9 3.20
   8  0.985  0.232  0.255-  34 2.02  24 2.06  44 2.14  23 2.15  27 2.23  21 2.25  11 2.75  16 2.87
                            61 2.89   1 3.02   2 3.11   6 3.18  19 3.20  17 3.20   3 3.25  60 3.27
   9  0.765  0.747  0.001-  38 2.08  39 2.13  25 2.19  49 2.19  40 2.20  28 2.27  54 2.77  63 2.87
                            58 2.93  60 2.94  12 2.95  59 3.04   1 3.08   4 3.09  53 3.16   7 3.20
  10  0.013  0.236  0.752-  42 2.09  29 2.14  48 2.17  44 2.17  30 2.17  23 2.22  56 2.64   1 2.82
                            19 2.89  14 2.95  61 3.05  13 3.09  17 3.10  54 3.11   6 3.11  11 3.19
  11  0.760  0.240  0.484-  31 2.09  44 2.14  50 2.16  24 2.18  32 2.22  30 2.23  16 2.64   8 2.75
                            15 2.83   6 3.04  61 3.06  60 3.13  57 3.14   5 3.17  10 3.19  62 3.27
  12  0.004  0.738  0.754-  45 2.10  48 2.16  29 2.16  47 2.16  49 2.17  38 2.18  54 2.67  63 2.93
                            13 2.95   9 2.95  18 2.96   6 2.96  56 3.00   1 3.08  20 3.09  64 3.15
  13  0.254  0.503  0.751-  52 2.10  37 2.13  46 2.16  48 2.19  45 2.22  42 2.22  12 2.95  54 2.96
                            19 2.97  14 2.97  18 3.01  20 3.03   7 3.05   4 3.05   6 3.06  62 3.06
  14  0.264  0.250  0.984-  35 2.04  42 2.04  37 2.14  22 2.15  23 2.23  21 2.29  56 2.78   5 2.89
                            53 2.94  10 2.95  13 2.97   4 2.98
  15  0.519  0.230  0.262-  24 1.98  32 2.01  26 2.04  35 2.21  41 2.29  21 2.35  16 2.64  57 2.70
                            11 2.83  60 3.11  62 3.18
  16  0.736  0.012  0.281-  31 1.95  26 1.99  24 2.08  39 2.15  34 2.22  11 2.64  15 2.64  57 2.85
                             8 2.87  64 2.97  61 3.06  59 3.15
  17  0.735  0.244  0.982-  35 2.02  30 2.09  25 2.11  40 2.15  24 2.17  23 2.34  53 2.72  58 2.75
                             5 2.80   4 2.96  63 3.02  10 3.10   8 3.20
  18  0.239  0.743  0.003-  38 1.99  37 2.11  36 2.12  45 2.19  22 2.23  28 2.25  54 2.87  12 2.96
                             3 2.98  59 2.99  13 3.01  56 3.04
  19  0.250  0.254  0.514-  42 2.03  44 2.07  46 2.10  32 2.17  43 2.18  21 2.29  57 2.82  10 2.89
                            61 2.96  13 2.97  62 3.13   8 3.20
  20  0.253  0.743  0.495-  51 2.09  46 2.11  47 2.12  36 2.14  45 2.22  43 2.22  55 2.85  62 2.87
                            61 2.95  59 2.97  57 3.00  13 3.03  12 3.09
  21  0.247  0.246  0.249-   2 2.15   3 2.18   8 2.25  14 2.29  19 2.29  15 2.35
  22  0.265  1.000  0.996-  56 1.96   2 2.15  14 2.15  53 2.15   1 2.21  18 2.23
  23  0.006  0.258  0.008-   1 2.15   8 2.15  10 2.22  14 2.23  54 2.28  17 2.34
  24  0.747  0.248  0.232-  15 1.98   8 2.06  16 2.08  17 2.17  11 2.18  60 2.34
  25  0.748  0.000  1.000-  58 1.93  53 2.01  17 2.11   9 2.19   1 2.23
  26  0.507  0.994  0.245-  16 1.99  15 2.04  57 2.10   2 2.12  55 2.23  53 2.29
  27  0.998  0.490  0.252-   3 2.19   6 2.21   8 2.23  60 2.27  59 2.34  54 2.41
  28  0.501  0.757  0.998-   7 2.19   4 2.22  53 2.24  18 2.25   9 2.27  55 2.40
  29  0.990  0.989  0.739-  56 2.01  10 2.14   1 2.16  61 2.16  12 2.16  58 2.37
  30  0.761  0.232  0.742-  58 2.06  17 2.09  10 2.17   5 2.18  11 2.23  63 2.46
  31  0.740  0.999  0.507-  16 1.95  11 2.09  64 2.21  57 2.31  58 2.36  61 2.42
  32  0.502  0.248  0.493-  15 2.01  57 2.03  19 2.17  11 2.22   5 2.23  62 2.31
  33  0.490  0.003  0.744-  58 1.98  53 2.07   5 2.07   7 2.08  57 2.25  56 2.32
  34  0.992  0.998  0.244-   8 2.02  59 2.03  61 2.15   1 2.22  16 2.22   2 2.31
  35  0.501  0.246  0.008-  53 1.99  17 2.02  14 2.04   4 2.18  15 2.21   5 2.22
  36  0.260  0.748  0.247-  55 2.09  18 2.12  20 2.14   3 2.14   2 2.14  59 2.20
  37  0.241  0.498  0.997-  18 2.11  13 2.13  14 2.14  54 2.15   3 2.18   4 2.25
  38  0.007  0.747  0.006-  54 1.98  18 1.99   9 2.08  12 2.18  59 2.18   1 2.25
  39  0.740  0.764  0.245-  55 2.08  60 2.10   9 2.13  16 2.15  64 2.18  59 2.27
  40  0.763  0.491  0.008-  54 2.01  60 2.14  17 2.15  63 2.16   9 2.20   4 2.23
  41  0.498  0.495  0.249-  60 2.05  55 2.09   3 2.11  62 2.12   4 2.14  15 2.29
  42  0.257  0.244  0.748-  19 2.03  14 2.04  56 2.05  10 2.09   5 2.15  13 2.22
  43  0.256  0.001  0.510-  57 1.87  61 2.02  19 2.18  20 2.22   2 2.29  56 2.30
  44  0.009  0.247  0.502-  19 2.07  11 2.14   8 2.14  61 2.15  10 2.17   6 2.18
  45  0.247  0.760  0.750-  12 2.10   7 2.14  56 2.17  18 2.19  20 2.22  13 2.22
  46  0.251  0.498  0.502-  19 2.10  20 2.11  62 2.14  13 2.16   3 2.19   6 2.19
  47  0.006  0.751  0.504-  20 2.12  61 2.13  59 2.13   6 2.16  12 2.16  64 2.22
  48  0.999  0.488  0.756-  54 1.91   6 2.15  12 2.16  10 2.17  63 2.19  13 2.19
  49  0.753  0.767  0.748-  58 2.04  63 2.16  12 2.17   9 2.19  64 2.20   7 2.20
  50  0.747  0.489  0.505-  62 2.13   6 2.15  11 2.16  64 2.18  60 2.20  63 2.22
  51  0.495  0.769  0.493-  55 1.91  20 2.09  57 2.12  62 2.16  64 2.18   7 2.18
  52  0.500  0.503  0.748-  13 2.10  63 2.12   4 2.20  62 2.20   7 2.22   5 2.24
  53  0.515  0.017  0.981-  35 1.99  25 2.01  33 2.07  22 2.15  28 2.24  26 2.29  58 2.46  17 2.72
                             5 2.78  14 2.94   7 3.01  56 3.10   9 3.16
  54  0.993  0.520  0.974-  48 1.91  38 1.98  40 2.01  37 2.15  23 2.28  27 2.41  12 2.67   9 2.77
                            63 2.82  18 2.87  13 2.96  10 3.11  59 3.23  60 3.27
  55  0.501  0.736  0.275-  51 1.91  39 2.08  36 2.09  41 2.09  26 2.23  28 2.40  62 2.66  60 2.75
                            20 2.85  64 2.86   3 2.96  57 3.01   2 3.06   9 3.27
  56  0.221  0.010  0.774-  22 1.96  29 2.01  42 2.05  45 2.17  43 2.30  33 2.32   1 2.59  10 2.64
                            14 2.78  61 2.99  12 3.00  18 3.04  53 3.10
  57  0.473  0.014  0.484-  43 1.87  32 2.03  26 2.10  51 2.12  33 2.25  31 2.31  15 2.70   2 2.77
                            19 2.82  16 2.85  20 3.00  55 3.01   5 3.05  11 3.14  64 3.32
  58  0.717  0.999  0.778-  25 1.93  33 1.98  49 2.04  30 2.06  31 2.36  29 2.37  53 2.46  17 2.75
                             5 2.77   7 2.81   9 2.93   1 3.09  10 3.26  11 3.30  64 3.31
  59  0.004  0.762  0.258-  34 2.03  47 2.13  38 2.18  36 2.20  39 2.27  27 2.34  61 2.87  20 2.97
                            18 2.99   2 2.99  64 3.01   9 3.04   3 3.11  60 3.11   6 3.11  16 3.15
  60  0.735  0.520  0.253-  41 2.05  39 2.10  40 2.14  50 2.20  27 2.27  24 2.34  55 2.75  64 2.84
                            62 2.89   9 2.94   4 2.96  15 3.11  59 3.11  11 3.13   6 3.15  54 3.27
  61  0.022  0.997  0.491-  43 2.02  47 2.13  34 2.15  44 2.15  29 2.16  31 2.42  59 2.87   8 2.89
                             2 2.95  20 2.95  19 2.96  56 2.99  10 3.05  11 3.06  16 3.06  12 3.18
  62  0.500  0.517  0.493-  41 2.12  50 2.13  46 2.14  51 2.16  52 2.20  32 2.31  55 2.66  20 2.87
                            64 2.88  60 2.89   3 3.01   7 3.03  13 3.06  19 3.13  63 3.14  15 3.18
  63  0.746  0.516  0.761-  52 2.12  49 2.16  40 2.16  48 2.19  50 2.22  30 2.46  54 2.82   9 2.87
                            12 2.93   4 2.94   7 3.00  64 3.00  17 3.02   6 3.07   5 3.13  62 3.14
  64  0.747  0.742  0.496-  51 2.18  39 2.18  50 2.18  49 2.20  31 2.21  47 2.22  60 2.84  55 2.86
                            62 2.88  16 2.97   6 2.98  63 3.00  59 3.01   7 3.04  12 3.15  61 3.22
 
  LATTYP: Found a triclinic cell.
 ALAT       =    12.1871156490
 B/A-ratio  =     0.7058056618
 C/A-ratio  =     0.9973161620
 COS(alpha) =     0.0002223483
 COS(beta)  =     0.5024676548
 COS(gamma) =     0.7047241191
  
  Lattice vectors:
  
 A1 = (  -0.0253110740,   8.6026675567,  -8.6324537705)
 A2 = (   0.0108252812,   8.6017169996,   0.0140130913)
 A3 = (   8.5476000641,   0.0060225464,  -8.6410714746)


Analysis of symmetry for initial positions (statically):
=====================================================================
 Subroutine PRICEL returns:
 Original cell was already a primitive cell.
 

 Routine SETGRP: Setting up the symmetry group for a 
 triclinic supercell.


 Subroutine GETGRP returns: Found  1 space group operations
 (whereof  1 operations were pure point group operations)
 out of a pool of  2 trial point group operations.


The static configuration has the point symmetry C_1 .


Analysis of symmetry for dynamics (positions and initial velocities):
=====================================================================
 Subroutine PRICEL returns:
 Original cell was already a primitive cell.
 

 Routine SETGRP: Setting up the symmetry group for a 
 triclinic supercell.


 Subroutine GETGRP returns: Found  1 space group operations
 (whereof  1 operations were pure point group operations)
 out of a pool of  2 trial point group operations.


The dynamic configuration has the point symmetry C_1 .


 Subroutine INISYM returns: Found  1 space group operations
 (whereof  1 operations are pure point group operations),
 and found     1 'primitive' translations

 
 
 KPOINTS: HECN                                    

Automatic generation of k-mesh.
Space group operators:
 irot       det(A)        alpha          n_x          n_y          n_z        tau_x        tau_y        tau_z
    1     1.000000     0.000000     1.000000     0.000000     0.000000     0.000000     0.000000     0.000000
 
 Subroutine IBZKPT returns following result:
 ===========================================
 
 Found    112 irreducible k-points:
 
 Following reciprocal coordinates:
            Coordinates               Weight
  0.000000  0.000000  0.000000      1.000000
  0.166667  0.000000  0.000000      2.000000
  0.333333  0.000000  0.000000      2.000000
  0.500000  0.000000 -0.000000      1.000000
 -0.000000  0.166667  0.000000      2.000000
  0.166667  0.166667  0.000000      2.000000
  0.333333  0.166667 -0.000000      2.000000
  0.500000  0.166667 -0.000000      2.000000
 -0.333333  0.166667 -0.000000      2.000000
 -0.166667  0.166667  0.000000      2.000000
 -0.000000  0.333333  0.000000      2.000000
  0.166667  0.333333 -0.000000      2.000000
  0.333333  0.333333 -0.000000      2.000000
  0.500000  0.333333 -0.000000      2.000000
 -0.333333  0.333333  0.000000      2.000000
 -0.166667  0.333333  0.000000      2.000000
 -0.000000  0.500000  0.000000      1.000000
  0.166667  0.500000 -0.000000      2.000000
  0.333333  0.500000  0.000000      2.000000
  0.500000  0.500000 -0.000000      1.000000
  0.000000  0.000000  0.166667      2.000000
  0.166667  0.000000  0.166667      2.000000
  0.333333  0.000000  0.166667      2.000000
  0.500000  0.000000  0.166667      2.000000
 -0.333333  0.000000  0.166667      2.000000
 -0.166667 -0.000000  0.166667      2.000000
 -0.000000  0.166667  0.166667      2.000000
  0.166667  0.166667  0.166667      2.000000
  0.333333  0.166667  0.166667      2.000000
  0.500000  0.166667  0.166667      2.000000
 -0.333333  0.166667  0.166667      2.000000
 -0.166667  0.166667  0.166667      2.000000
 -0.000000  0.333333  0.166667      2.000000
  0.166667  0.333333  0.166667      2.000000
  0.333333  0.333333  0.166667      2.000000
  0.500000  0.333333  0.166667      2.000000
 -0.333333  0.333333  0.166667      2.000000
 -0.166667  0.333333  0.166667      2.000000
 -0.000000  0.500000  0.166667      2.000000
  0.166667  0.500000  0.166667      2.000000
  0.333333  0.500000  0.166667      2.000000
  0.500000  0.500000  0.166667      2.000000
 -0.333333  0.500000  0.166667      2.000000
 -0.166667  0.500000  0.166667      2.000000
  0.000000 -0.333333  0.166667      2.000000
  0.166667 -0.333333  0.166667      2.000000
  0.333333 -0.333333  0.166667      2.000000
  0.500000 -0.333333  0.166667      2.000000
 -0.333333 -0.333333  0.166667      2.000000
 -0.166667 -0.333333  0.166667      2.000000
  0.000000 -0.166667  0.166667      2.000000
  0.166667 -0.166667  0.166667      2.000000
  0.333333 -0.166667  0.166667      2.000000
  0.500000 -0.166667  0.166667      2.000000
 -0.333333 -0.166667  0.166667      2.000000
 -0.166667 -0.166667  0.166667      2.000000
 -0.000000  0.000000  0.333333      2.000000
  0.166667  0.000000  0.333333      2.000000
  0.333333  0.000000  0.333333      2.000000
  0.500000  0.000000  0.333333      2.000000
 -0.333333 -0.000000  0.333333      2.000000
 -0.166667  0.000000  0.333333      2.000000
  0.000000  0.166667  0.333333      2.000000
  0.166667  0.166667  0.333333      2.000000
  0.333333  0.166667  0.333333      2.000000
  0.500000  0.166667  0.333333      2.000000
 -0.333333  0.166667  0.333333      2.000000
 -0.166667  0.166667  0.333333      2.000000
  0.000000  0.333333  0.333333      2.000000
  0.166667  0.333333  0.333333      2.000000
  0.333333  0.333333  0.333333      2.000000
  0.500000  0.333333  0.333333      2.000000
 -0.333333  0.333333  0.333333      2.000000
 -0.166667  0.333333  0.333333      2.000000
  0.000000  0.500000  0.333333      2.000000
  0.166667  0.500000  0.333333      2.000000
  0.333333  0.500000  0.333333      2.000000
  0.500000  0.500000  0.333333      2.000000
 -0.333333  0.500000  0.333333      2.000000
 -0.166667  0.500000  0.333333      2.000000
  0.000000 -0.333333  0.333333      2.000000
  0.166667 -0.333333  0.333333      2.000000
  0.333333 -0.333333  0.333333      2.000000
  0.500000 -0.333333  0.333333      2.000000
 -0.333333 -0.333333  0.333333      2.000000
 -0.166667 -0.333333  0.333333      2.000000
  0.000000 -0.166667  0.333333      2.000000
  0.166667 -0.166667  0.333333      2.000000
  0.333333 -0.166667  0.333333      2.000000
  0.500000 -0.166667  0.333333      2.000000
 -0.333333 -0.166667  0.333333      2.000000
 -0.166667 -0.166667  0.333333      2.000000
 -0.000000 -0.000000  0.500000      1.000000
  0.166667  0.000000  0.500000      2.000000
  0.333333  0.000000  0.500000      2.000000
  0.500000  0.000000  0.500000      1.000000
 -0.000000  0.166667  0.500000      2.000000
  0.166667  0.166667  0.500000      2.000000
  0.333333  0.166667  0.500000      2.000000
  0.500000  0.166667  0.500000      2.000000
 -0.333333  0.166667  0.500000      2.000000
 -0.166667  0.166667  0.500000      2.000000
 -0.000000  0.333333  0.500000      2.000000
  0.166667  0.333333  0.500000      2.000000
  0.333333  0.333333  0.500000      2.000000
  0.500000  0.333333  0.500000      2.000000
 -0.333333  0.333333  0.500000      2.000000
 -0.166667  0.333333  0.500000      2.000000
 -0.000000  0.500000  0.500000      1.000000
  0.166667  0.500000  0.500000      2.000000
  0.333333  0.500000  0.500000      2.000000
  0.500000  0.500000  0.500000      1.000000
 
 Following cartesian coordinates:
            Coordinates               Weight
  0.000000  0.000000  0.000000      1.000000
  0.019417 -0.000024 -0.000081      2.000000
  0.038833 -0.000049 -0.000162      2.000000
  0.058250 -0.000073 -0.000243      1.000000
 -0.000011  0.019376  0.000002      2.000000
  0.019405  0.019352 -0.000079      2.000000
  0.038822  0.019327 -0.000160      2.000000
  0.058238  0.019303 -0.000241      2.000000
 -0.038845  0.019425  0.000164      2.000000
 -0.019428  0.019400  0.000083      2.000000
 -0.000023  0.038752  0.000004      2.000000
  0.019394  0.038728 -0.000077      2.000000
  0.038810  0.038703 -0.000158      2.000000
  0.058227  0.038679 -0.000239      2.000000
 -0.038856  0.038801  0.000167      2.000000
 -0.019440  0.038776  0.000086      2.000000
 -0.000034  0.058128  0.000007      1.000000
  0.019382  0.058104 -0.000075      2.000000
  0.038799  0.058079 -0.000156      2.000000
  0.058216  0.058055 -0.000237      1.000000
 -0.000012 -0.000031  0.019276      2.000000
  0.019405 -0.000056  0.019195      2.000000
  0.038821 -0.000080  0.019113      2.000000
  0.058238 -0.000104  0.019032      2.000000
 -0.038845  0.000017  0.019438      2.000000
 -0.019429 -0.000007  0.019357      2.000000
 -0.000024  0.019345  0.019278      2.000000
  0.019393  0.019320  0.019197      2.000000
  0.038810  0.019296  0.019116      2.000000
  0.058226  0.019272  0.019034      2.000000
 -0.038857  0.019393  0.019440      2.000000
 -0.019440  0.019369  0.019359      2.000000
 -0.000035  0.038721  0.019280      2.000000
  0.019382  0.038696  0.019199      2.000000
  0.038798  0.038672  0.019118      2.000000
  0.058215  0.038648  0.019037      2.000000
 -0.038868  0.038769  0.019442      2.000000
 -0.019452  0.038745  0.019361      2.000000
 -0.000046  0.058097  0.019282      2.000000
  0.019370  0.058072  0.019201      2.000000
  0.038787  0.058048  0.019120      2.000000
  0.058203  0.058024  0.019039      2.000000
 -0.038880  0.058145  0.019445      2.000000
 -0.019463  0.058121  0.019363      2.000000
  0.000011 -0.038783  0.019271      2.000000
  0.019427 -0.038808  0.019190      2.000000
  0.038844 -0.038832  0.019109      2.000000
  0.058261 -0.038856  0.019028      2.000000
 -0.038822 -0.038735  0.019434      2.000000
 -0.019406 -0.038759  0.019353      2.000000
 -0.000001 -0.019407  0.019274      2.000000
  0.019416 -0.019432  0.019192      2.000000
  0.038833 -0.019456  0.019111      2.000000
  0.058249 -0.019480  0.019030      2.000000
 -0.038834 -0.019359  0.019436      2.000000
 -0.019417 -0.019383  0.019355      2.000000
 -0.000024 -0.000063  0.038551      2.000000
  0.019392 -0.000087  0.038470      2.000000
  0.038809 -0.000111  0.038389      2.000000
  0.058226 -0.000136  0.038308      2.000000
 -0.038857 -0.000014  0.038714      2.000000
 -0.019441 -0.000038  0.038633      2.000000
 -0.000036  0.019313  0.038554      2.000000
  0.019381  0.019289  0.038473      2.000000
  0.038798  0.019265  0.038391      2.000000
  0.058214  0.019240  0.038310      2.000000
 -0.038869  0.019362  0.038716      2.000000
 -0.019452  0.019338  0.038635      2.000000
 -0.000047  0.038689  0.038556      2.000000
  0.019370  0.038665  0.038475      2.000000
  0.038786  0.038641  0.038394      2.000000
  0.058203  0.038616  0.038312      2.000000
 -0.038880  0.038738  0.038718      2.000000
 -0.019464  0.038714  0.038637      2.000000
 -0.000059  0.058065  0.038558      2.000000
  0.019358  0.058041  0.038477      2.000000
  0.038775  0.058017  0.038396      2.000000
  0.058191  0.057992  0.038315      2.000000
 -0.038892  0.058114  0.038720      2.000000
 -0.019475  0.058089  0.038639      2.000000
 -0.000001 -0.038815  0.038547      2.000000
  0.019415 -0.038839  0.038466      2.000000
  0.038832 -0.038863  0.038385      2.000000
  0.058249 -0.038888  0.038304      2.000000
 -0.038835 -0.038766  0.038709      2.000000
 -0.019418 -0.038790  0.038628      2.000000
 -0.000013 -0.019439  0.038549      2.000000
  0.019404 -0.019463  0.038468      2.000000
  0.038821 -0.019487  0.038387      2.000000
  0.058237 -0.019512  0.038306      2.000000
 -0.038846 -0.019390  0.038712      2.000000
 -0.019429 -0.019414  0.038630      2.000000
 -0.000036 -0.000094  0.057827      1.000000
  0.019380 -0.000118  0.057746      2.000000
  0.038797 -0.000143  0.057665      2.000000
  0.058214 -0.000167  0.057584      1.000000
 -0.000048  0.019282  0.057829      2.000000
  0.019369  0.019258  0.057748      2.000000
  0.038786  0.019233  0.057667      2.000000
  0.058202  0.019209  0.057586      2.000000
 -0.038881  0.019330  0.057992      2.000000
 -0.019464  0.019306  0.057911      2.000000
 -0.000059  0.038658  0.057832      2.000000
  0.019357  0.038634  0.057750      2.000000
  0.038774  0.038609  0.057669      2.000000
  0.058191  0.038585  0.057588      2.000000
 -0.038892  0.038706  0.057994      2.000000
 -0.019476  0.038682  0.057913      2.000000
 -0.000071  0.058034  0.057834      1.000000
  0.019346  0.058009  0.057753      2.000000
  0.038763  0.057985  0.057671      2.000000
  0.058179  0.057961  0.057590      1.000000
 


--------------------------------------------------------------------------------------------------------




 Dimension of arrays:
   k-points           NKPTS =    112   k-points in BZ     NKDIM =    112   number of bands    NBANDS=    312
   number of dos      NEDOS =   1000   number of ions     NIONS =     64
   non local maximal  LDIM  =      6   non local SUM 2l+1 LMDIM =     18
   total plane-waves  NPLWV =  74088
   max r-space proj   IRMAX =      1   max aug-charges    IRDMAX=   7650
   dimension x,y,z NGX =    42 NGY =   42 NGZ =   42
   dimension x,y,z NGXF=    84 NGYF=   84 NGZF=   84
   support grid    NGXF=    84 NGYF=   84 NGZF=   84
   ions per type =               7   6   7  13  19   6   6
   NGX,Y,Z   is equivalent  to a cutoff of   8.13,  8.12,  8.08 a.u.
   NGXF,Y,Z  is equivalent  to a cutoff of  16.27, 16.23, 16.15 a.u.

 SYSTEM =  HEBCN                                   
 POSCAR =  124-VNbCrMoW                            

 Startparameter for this run:
   NWRITE =      2    write-flag & timer
   PREC   = normal    normal or accurate (medium, high low for compatibility)
   ISTART =      1    job   : 0-new  1-cont  2-samecut
   ICHARG =     11    charge: 1-file 2-atom 10-const
   ISPIN  =      1    spin polarized calculation?
   LNONCOLLINEAR =      F non collinear calculations
   LSORBIT =      F    spin-orbit coupling
   INIWAV =      1    electr: 0-lowe 1-rand  2-diag
   LASPH  =      F    aspherical Exc in radial PAW
   METAGGA=      F    non-selfconsistent MetaGGA calc.

 Electronic Relaxation 1
   ENCUT  =  400.0 eV  29.40 Ry    5.42 a.u.  14.00 14.03 14.10*2*pi/ulx,y,z
   ENINI  =  400.0     initial cutoff
   ENAUG  =  644.9 eV  augmentation charge cutoff
   NELM   =     60;   NELMIN=  2; NELMDL=  0     # of ELM steps 
   EDIFF  = 0.1E-04   stopping-criterion for ELM
   LREAL  =      F    real-space projection
   NLSPLINE    = F    spline interpolate recip. space projectors
   LCOMPAT=      F    compatible to vasp.4.4
   GGA_COMPAT  = T    GGA compatible to vasp.4.4-vasp.4.6
   LMAXPAW     = -100 max onsite density
   LMAXMIX     =    2 max onsite mixed and CHGCAR
   VOSKOWN=      0    Vosko Wilk Nusair interpolation
   ROPT   =    0.00000   0.00000   0.00000   0.00000
   ROPT   =    0.00000   0.00000   0.00000
 Ionic relaxation
   EDIFFG = -.1E-01   stopping-criterion for IOM
   NSW    =      0    number of steps for IOM
   NBLOCK =      1;   KBLOCK =      1    inner block; outer block 
   IBRION =     -1    ionic relax: 0-MD 1-quasi-New 2-CG
   NFREE  =      0    steps in history (QN), initial steepest desc. (CG)
   ISIF   =      2    stress and relaxation
   IWAVPR =     10    prediction:  0-non 1-charg 2-wave 3-comb
   ISYM   =      2    0-nonsym 1-usesym 2-fastsym
   LCORR  =      T    Harris-Foulkes like correction to forces

   POTIM  = 0.5000    time-step for ionic-motion
   TEIN   =    0.0    initial temperature
   TEBEG  =    0.0;   TEEND  =   0.0 temperature during run
   SMASS  =  -3.00    Nose mass-parameter (am)
   estimated Nose-frequenzy (Omega)   =  0.10E-29 period in steps =****** mass=  -0.168E-26a.u.
   SCALEE = 1.0000    scale energy and forces
   NPACO  =    256;   APACO  = 16.0  distance and # of slots for P.C.
   PSTRESS=    0.0 pullay stress

  Mass of Ions in am
   POMASS =  92.91183.85 50.94 14.00 12.01 52.00 95.94
  Ionic Valenz
   ZVAL   =  13.00 12.00 13.00  5.00  4.00 12.00  6.00
  Atomic Wigner-Seitz radii
   RWIGS  =  -1.00 -1.00 -1.00 -1.00 -1.00 -1.00 -1.00
  virtual crystal weights 
   VCA    =   1.00  1.00  1.00  1.00  1.00  1.00  1.00
   NELECT =     503.0000    total number of electrons
   NUPDOWN=      -1.0000    fix difference up-down

 DOS related values:
   EMIN   = -56.00;   EMAX   = 13.00  energy-range for DOS
   EFERMI =   0.00
   ISMEAR =     0;   SIGMA  =   0.10  broadening in eV -4-tet -1-fermi 0-gaus

 Electronic relaxation 2 (details)
   IALGO  =     68    algorithm
   LDIAG  =      T    sub-space diagonalisation (order eigenvalues)
   LSUBROT=      F    optimize rotation matrix (better conditioning)
   TURBO    =      0    0=normal 1=particle mesh
   IRESTART =      0    0=no restart 2=restart with 2 vectors
   NREBOOT  =      0    no. of reboots
   NMIN     =      0    reboot dimension
   EREF     =   0.00    reference energy to select bands
   IMIX   =      4    mixing-type and parameters
     AMIX     =   0.40;   BMIX     =  1.00
     AMIX_MAG =   1.60;   BMIX_MAG =  1.00
     AMIN     =   0.10
     WC   =   100.;   INIMIX=   1;  MIXPRE=   1;  MAXMIX= -45

 Intra band minimization:
   WEIMIN = 0.0000     energy-eigenvalue tresh-hold
   EBREAK =  0.80E-08  absolut break condition
   DEPER  =   0.30     relativ break condition  

   TIME   =   0.40     timestep for ELM

  volume/ion in A,a.u.               =       9.98        67.32
  Fermi-wavevector in a.u.,A,eV,Ry     =   1.512044  2.857350 31.106706  2.286278
  Thomas-Fermi vector in A             =   2.622021
 
 Write flags
   LWAVE        =      F    write WAVECAR
   LDOWNSAMPLE  =      F    k-point downsampling of WAVECAR
   LCHARG       =      T    write CHGCAR
   LVTOT        =      F    write LOCPOT, total local potential
   LVHAR        =      F    write LOCPOT, Hartree potential only
   LELF         =      F    write electronic localiz. function (ELF)
   LORBIT       =     10    0 simple, 1 ext, 2 COOP (PROOUT), +10 PAW based schemes


 Dipole corrections
   LMONO  =      F    monopole corrections only (constant potential shift)
   LDIPOL =      F    correct potential (dipole corrections)
   IDIPOL =      0    1-x, 2-y, 3-z, 4-all directions 
   EPSILON=  1.0000000 bulk dielectric constant

 Exchange correlation treatment:
   GGA     =    --    GGA type
   LEXCH   =     8    internal setting for exchange type
   VOSKOWN=      0    Vosko Wilk Nusair interpolation
   LHFCALC =     F    Hartree Fock is set to
   LHFONE  =     F    Hartree Fock one center treatment
   AEXX    =    0.0000 exact exchange contribution

 Linear response parameters
   LEPSILON=     F    determine dielectric tensor
   LRPA    =     F    only Hartree local field effects (RPA)
   LNABLA  =     F    use nabla operator in PAW spheres
   LVEL    =     F    velocity operator in full k-point grid
   LINTERFAST=   F  fast interpolation
   KINTER  =     0    interpolate to denser k-point grid
   CSHIFT  =0.1000    complex shift for real part using Kramers Kronig
   OMEGAMAX=  -1.0    maximum frequency
   DEG_THRESHOLD= 0.2000000E-02 threshold for treating states as degnerate
   RTIME   =   -0.100 relaxation time in fs
  (WPLASMAI=    0.000 imaginary part of plasma frequency in eV, 0.658/RTIME)
   DFIELD  = 0.0000000 0.0000000 0.0000000 field for delta impulse in time
 
 Orbital magnetization related:
   ORBITALMAG=     F  switch on orbital magnetization
   LCHIMAG   =     F  perturbation theory with respect to B field
   DQ        =  0.001000  dq finite difference perturbation B field
   LLRAUG    =     F  two centre corrections for induced B field



--------------------------------------------------------------------------------------------------------


 Static calculation
 charge density and potential remain constant during run
 non-spin polarized calculation
 RMM-DIIS sequential band-by-band and
  variant of blocked Davidson during initial phase
 perform sub-space diagonalisation
    before iterative eigenvector-optimisation
 no mixing
 using additional bands           60
 reciprocal scheme for non local part
 use partial core corrections
 calculate Harris-corrections to forces 
   (improved forces if not selfconsistent)
 use gradient corrections 
 WARNING: stress and forces are not correct
  (second derivative of E(xc) not defined)
 use of overlap-Matrix (Vanderbilt PP)
 Gauss-broadening in eV      SIGMA  =   0.10


--------------------------------------------------------------------------------------------------------


  energy-cutoff  :      400.00
  volume of cell :      638.41
      direct lattice vectors                 reciprocal lattice vectors
     8.583736419  0.005071989  0.005395387     0.116499776 -0.000145822 -0.000486906
     0.010825281  8.601717000  0.014013091    -0.000068702  0.116255924  0.000013068
     0.036136355 -0.000950557  8.646466862    -0.000072584 -0.000188322  0.115654459

  length of vectors
     8.583739613  8.601735226  8.646542426     0.116500884  0.116255945  0.115654635


 
 old parameters found on file WAVECAR:
  energy-cutoff  :      400.00
  volume of cell :      638.41
      direct lattice vectors                 reciprocal lattice vectors
     8.583736419  0.005071989  0.005395387     0.116499776 -0.000145822 -0.000486906
     0.010825281  8.601717000  0.014013091    -0.000068702  0.116255924  0.000013068
     0.036136355 -0.000950557  8.646466862    -0.000072584 -0.000188322  0.115654459

  length of vectors

 
 k-points in units of 2pi/SCALE and weight: HECN                                    
   0.00000000  0.00000000  0.00000000       0.005
   0.01941663 -0.00002430 -0.00008115       0.009
   0.03883326 -0.00004861 -0.00016230       0.009
   0.05824989 -0.00007291 -0.00024345       0.005
  -0.00001145  0.01937599  0.00000218       0.009
   0.01940518  0.01935168 -0.00007897       0.009
   0.03882181  0.01932738 -0.00016012       0.009
   0.05823844  0.01930308 -0.00024127       0.009
  -0.03884471  0.01942459  0.00016448       0.009
  -0.01942808  0.01940029  0.00008333       0.009
  -0.00002290  0.03875197  0.00000436       0.009
   0.01939373  0.03872767 -0.00007680       0.009
   0.03881036  0.03870337 -0.00015795       0.009
   0.05822699  0.03867906 -0.00023910       0.009
  -0.03885616  0.03880058  0.00016666       0.009
  -0.01943953  0.03877628  0.00008551       0.009
  -0.00003435  0.05812796  0.00000653       0.005
   0.01938228  0.05810366 -0.00007462       0.009
   0.03879891  0.05807935 -0.00015577       0.009
   0.05821554  0.05805505 -0.00023692       0.005
  -0.00001210 -0.00003139  0.01927574       0.009
   0.01940453 -0.00005569  0.01919459       0.009
   0.03882116 -0.00007999  0.01911344       0.009
   0.05823779 -0.00010430  0.01903229       0.009
  -0.03884536  0.00001722  0.01943805       0.009
  -0.01942873 -0.00000708  0.01935689       0.009
  -0.00002355  0.01934460  0.01927792       0.009
   0.01939308  0.01932030  0.01919677       0.009
   0.03880971  0.01929599  0.01911562       0.009
   0.05822634  0.01927169  0.01903447       0.009
  -0.03885681  0.01939321  0.01944022       0.009
  -0.01944018  0.01936890  0.01935907       0.009
  -0.00003500  0.03872059  0.01928010       0.009
   0.01938163  0.03869628  0.01919895       0.009
   0.03879826  0.03867198  0.01911780       0.009
   0.05821489  0.03864768  0.01903665       0.009
  -0.03886826  0.03876920  0.01944240       0.009
  -0.01945163  0.03874489  0.01936125       0.009
  -0.00004645  0.05809658  0.01928228       0.009
   0.01937018  0.05807227  0.01920113       0.009
   0.03878681  0.05804797  0.01911998       0.009
   0.05820344  0.05802366  0.01903882       0.009
  -0.03887971  0.05814518  0.01944458       0.009
  -0.01946308  0.05812088  0.01936343       0.009
   0.00001080 -0.03878336  0.01927139       0.009
   0.01942743 -0.03880767  0.01919024       0.009
   0.03884406 -0.03883197  0.01910909       0.009
   0.05826069 -0.03885627  0.01902793       0.009
  -0.03882246 -0.03873475  0.01943369       0.009
  -0.01940583 -0.03875906  0.01935254       0.009
  -0.00000065 -0.01940737  0.01927357       0.009
   0.01941598 -0.01943168  0.01919241       0.009
   0.03883261 -0.01945598  0.01911126       0.009
   0.05824924 -0.01948029  0.01903011       0.009
  -0.03883391 -0.01935877  0.01943587       0.009
  -0.01941728 -0.01938307  0.01935472       0.009
  -0.00002419 -0.00006277  0.03855149       0.009
   0.01939243 -0.00008708  0.03847034       0.009
   0.03880906 -0.00011138  0.03838918       0.009
   0.05822569 -0.00013568  0.03830803       0.009
  -0.03885745 -0.00001417  0.03871379       0.009
  -0.01944082 -0.00003847  0.03863264       0.009
  -0.00003565  0.01931321  0.03855366       0.009
   0.01938098  0.01928891  0.03847251       0.009
   0.03879761  0.01926461  0.03839136       0.009
   0.05821424  0.01924030  0.03831021       0.009
  -0.03886890  0.01936182  0.03871597       0.009
  -0.01945227  0.01933752  0.03863482       0.009
  -0.00004710  0.03868920  0.03855584       0.009
   0.01936953  0.03866490  0.03847469       0.009
   0.03878616  0.03864059  0.03839354       0.009
   0.05820279  0.03861629  0.03831239       0.009
  -0.03888035  0.03873781  0.03871814       0.009
  -0.01946372  0.03871350  0.03863699       0.009
  -0.00005855  0.05806519  0.03855802       0.009
   0.01935808  0.05804088  0.03847687       0.009
   0.03877471  0.05801658  0.03839572       0.009
   0.05819134  0.05799228  0.03831457       0.009
  -0.03889180  0.05811380  0.03872032       0.009
  -0.01947518  0.05808949  0.03863917       0.009
  -0.00000129 -0.03881475  0.03854713       0.009
   0.01941534 -0.03883905  0.03846598       0.009
   0.03883196 -0.03886336  0.03838483       0.009
   0.05824859 -0.03888766  0.03830368       0.009
  -0.03883455 -0.03876614  0.03870943       0.009
  -0.01941792 -0.03879045  0.03862828       0.009
  -0.00001274 -0.01943876  0.03854931       0.009
   0.01940388 -0.01946306  0.03846816       0.009
   0.03882051 -0.01948737  0.03838701       0.009
   0.05823714 -0.01951167  0.03830586       0.009
  -0.03884600 -0.01939015  0.03871161       0.009
  -0.01942937 -0.01941446  0.03863046       0.009
  -0.00003629 -0.00009416  0.05782723       0.005
   0.01938034 -0.00011846  0.05774608       0.009
   0.03879697 -0.00014277  0.05766493       0.009
   0.05821360 -0.00016707  0.05758378       0.005
  -0.00004774  0.01928183  0.05782941       0.009
   0.01936889  0.01925752  0.05774826       0.009
   0.03878552  0.01923322  0.05766711       0.009
   0.05820215  0.01920892  0.05758595       0.009
  -0.03888100  0.01933043  0.05799171       0.009
  -0.01946437  0.01930613  0.05791056       0.009
  -0.00005919  0.03865781  0.05783159       0.009
   0.01935744  0.03863351  0.05775043       0.009
   0.03877407  0.03860921  0.05766928       0.009
   0.05819069  0.03858490  0.05758813       0.009
  -0.03889245  0.03870642  0.05799389       0.009
  -0.01947582  0.03868212  0.05791274       0.009
  -0.00007064  0.05803380  0.05783376       0.005
   0.01934599  0.05800950  0.05775261       0.009
   0.03876262  0.05798519  0.05767146       0.009
   0.05817924  0.05796089  0.05759031       0.005
 
 k-points in reciprocal lattice and weights: HECN                                    
   0.00000000  0.00000000  0.00000000       0.005
   0.16666667  0.00000000  0.00000000       0.009
   0.33333333  0.00000000  0.00000000       0.009
   0.50000000  0.00000000 -0.00000000       0.005
  -0.00000000  0.16666667  0.00000000       0.009
   0.16666667  0.16666667  0.00000000       0.009
   0.33333333  0.16666667 -0.00000000       0.009
   0.50000000  0.16666667 -0.00000000       0.009
  -0.33333333  0.16666667 -0.00000000       0.009
  -0.16666667  0.16666667  0.00000000       0.009
  -0.00000000  0.33333333  0.00000000       0.009
   0.16666667  0.33333333 -0.00000000       0.009
   0.33333333  0.33333333 -0.00000000       0.009
   0.50000000  0.33333333 -0.00000000       0.009
  -0.33333333  0.33333333  0.00000000       0.009
  -0.16666667  0.33333333  0.00000000       0.009
  -0.00000000  0.50000000  0.00000000       0.005
   0.16666667  0.50000000 -0.00000000       0.009
   0.33333333  0.50000000  0.00000000       0.009
   0.50000000  0.50000000 -0.00000000       0.005
   0.00000000  0.00000000  0.16666667       0.009
   0.16666667  0.00000000  0.16666667       0.009
   0.33333333  0.00000000  0.16666667       0.009
   0.50000000  0.00000000  0.16666667       0.009
  -0.33333333  0.00000000  0.16666667       0.009
  -0.16666667 -0.00000000  0.16666667       0.009
  -0.00000000  0.16666667  0.16666667       0.009
   0.16666667  0.16666667  0.16666667       0.009
   0.33333333  0.16666667  0.16666667       0.009
   0.50000000  0.16666667  0.16666667       0.009
  -0.33333333  0.16666667  0.16666667       0.009
  -0.16666667  0.16666667  0.16666667       0.009
  -0.00000000  0.33333333  0.16666667       0.009
   0.16666667  0.33333333  0.16666667       0.009
   0.33333333  0.33333333  0.16666667       0.009
   0.50000000  0.33333333  0.16666667       0.009
  -0.33333333  0.33333333  0.16666667       0.009
  -0.16666667  0.33333333  0.16666667       0.009
  -0.00000000  0.50000000  0.16666667       0.009
   0.16666667  0.50000000  0.16666667       0.009
   0.33333333  0.50000000  0.16666667       0.009
   0.50000000  0.50000000  0.16666667       0.009
  -0.33333333  0.50000000  0.16666667       0.009
  -0.16666667  0.50000000  0.16666667       0.009
   0.00000000 -0.33333333  0.16666667       0.009
   0.16666667 -0.33333333  0.16666667       0.009
   0.33333333 -0.33333333  0.16666667       0.009
   0.50000000 -0.33333333  0.16666667       0.009
  -0.33333333 -0.33333333  0.16666667       0.009
  -0.16666667 -0.33333333  0.16666667       0.009
   0.00000000 -0.16666667  0.16666667       0.009
   0.16666667 -0.16666667  0.16666667       0.009
   0.33333333 -0.16666667  0.16666667       0.009
   0.50000000 -0.16666667  0.16666667       0.009
  -0.33333333 -0.16666667  0.16666667       0.009
  -0.16666667 -0.16666667  0.16666667       0.009
  -0.00000000  0.00000000  0.33333333       0.009
   0.16666667  0.00000000  0.33333333       0.009
   0.33333333  0.00000000  0.33333333       0.009
   0.50000000  0.00000000  0.33333333       0.009
  -0.33333333 -0.00000000  0.33333333       0.009
  -0.16666667  0.00000000  0.33333333       0.009
   0.00000000  0.16666667  0.33333333       0.009
   0.16666667  0.16666667  0.33333333       0.009
   0.33333333  0.16666667  0.33333333       0.009
   0.50000000  0.16666667  0.33333333       0.009
  -0.33333333  0.16666667  0.33333333       0.009
  -0.16666667  0.16666667  0.33333333       0.009
   0.00000000  0.33333333  0.33333333       0.009
   0.16666667  0.33333333  0.33333333       0.009
   0.33333333  0.33333333  0.33333333       0.009
   0.50000000  0.33333333  0.33333333       0.009
  -0.33333333  0.33333333  0.33333333       0.009
  -0.16666667  0.33333333  0.33333333       0.009
   0.00000000  0.50000000  0.33333333       0.009
   0.16666667  0.50000000  0.33333333       0.009
   0.33333333  0.50000000  0.33333333       0.009
   0.50000000  0.50000000  0.33333333       0.009
  -0.33333333  0.50000000  0.33333333       0.009
  -0.16666667  0.50000000  0.33333333       0.009
   0.00000000 -0.33333333  0.33333333       0.009
   0.16666667 -0.33333333  0.33333333       0.009
   0.33333333 -0.33333333  0.33333333       0.009
   0.50000000 -0.33333333  0.33333333       0.009
  -0.33333333 -0.33333333  0.33333333       0.009
  -0.16666667 -0.33333333  0.33333333       0.009
   0.00000000 -0.16666667  0.33333333       0.009
   0.16666667 -0.16666667  0.33333333       0.009
   0.33333333 -0.16666667  0.33333333       0.009
   0.50000000 -0.16666667  0.33333333       0.009
  -0.33333333 -0.16666667  0.33333333       0.009
  -0.16666667 -0.16666667  0.33333333       0.009
  -0.00000000 -0.00000000  0.50000000       0.005
   0.16666667  0.00000000  0.50000000       0.009
   0.33333333  0.00000000  0.50000000       0.009
   0.50000000  0.00000000  0.50000000       0.005
  -0.00000000  0.16666667  0.50000000       0.009
   0.16666667  0.16666667  0.50000000       0.009
   0.33333333  0.16666667  0.50000000       0.009
   0.50000000  0.16666667  0.50000000       0.009
  -0.33333333  0.16666667  0.50000000       0.009
  -0.16666667  0.16666667  0.50000000       0.009
  -0.00000000  0.33333333  0.50000000       0.009
   0.16666667  0.33333333  0.50000000       0.009
   0.33333333  0.33333333  0.50000000       0.009
   0.50000000  0.33333333  0.50000000       0.009
  -0.33333333  0.33333333  0.50000000       0.009
  -0.16666667  0.33333333  0.50000000       0.009
  -0.00000000  0.50000000  0.50000000       0.005
   0.16666667  0.50000000  0.50000000       0.009
   0.33333333  0.50000000  0.50000000       0.009
   0.50000000  0.50000000  0.50000000       0.005
 
 position of ions in fractional coordinates (direct lattice) 
   0.00831991  0.00864620  0.98783184
   0.26047687  0.99713207  0.24512501
   0.25240122  0.49927178  0.24864728
   0.50340679  0.49949316  0.00146452
   0.50690342  0.24257322  0.75133746
   0.99659473  0.50044815  0.50733207
   0.49665146  0.76111560  0.74486279
   0.98485663  0.23211516  0.25547889
   0.76452642  0.74651352  0.00054544
   0.01333618  0.23583216  0.75236263
   0.76016942  0.23962593  0.48372596
   0.00403380  0.73839387  0.75431033
   0.25439193  0.50265990  0.75066822
   0.26426943  0.24977399  0.98440844
   0.51924092  0.23002546  0.26234607
   0.73553742  0.01194202  0.28117832
   0.73461219  0.24426346  0.98208379
   0.23879865  0.74255303  0.00313628
   0.25006734  0.25375046  0.51366339
   0.25293715  0.74316480  0.49470399
   0.24689224  0.24616982  0.24871568
   0.26548765  0.99975608  0.99624943
   0.00566063  0.25759608  0.00840262
   0.74692099  0.24833034  0.23213011
   0.74837677  0.00046389  0.99972548
   0.50715288  0.99395197  0.24451645
   0.99787323  0.49049611  0.25162832
   0.50050726  0.75740778  0.99821364
   0.99045131  0.98903082  0.73947897
   0.76051350  0.23157037  0.74179561
   0.74026811  0.99906976  0.50651449
   0.50210528  0.24829095  0.49347779
   0.48998810  0.00284865  0.74401616
   0.99187327  0.99769359  0.24432629
   0.50090287  0.24578159  0.00771405
   0.25984136  0.74805972  0.24742531
   0.24120602  0.49759951  0.99705272
   0.00701495  0.74748144  0.00586999
   0.73959829  0.76421841  0.24460107
   0.76286169  0.49058569  0.00848519
   0.49829108  0.49535846  0.24943049
   0.25683972  0.24437379  0.74822198
   0.25642282  0.00066017  0.51001073
   0.00889759  0.24733066  0.50175211
   0.24716581  0.76021044  0.75033143
   0.25128109  0.49816993  0.50150860
   0.00596596  0.75083950  0.50446926
   0.99934563  0.48761662  0.75573082
   0.75269354  0.76666988  0.74847074
   0.74687542  0.48928674  0.50532469
   0.49520443  0.76867596  0.49300186
   0.49959491  0.50269884  0.74752010
   0.51549608  0.01674083  0.98095319
   0.99280099  0.51959554  0.97395086
   0.50078836  0.73646867  0.27492970
   0.22112160  0.01034318  0.77392263
   0.47254266  0.01430237  0.48441276
   0.71734801  0.99940744  0.77839049
   0.00385411  0.76214206  0.25808554
   0.73525563  0.51972095  0.25338014
   0.02160614  0.99747282  0.49144741
   0.50007650  0.51733517  0.49301759
   0.74605735  0.51641333  0.76065431
   0.74744667  0.74246990  0.49553064
 
 position of ions in cartesian coordinates  (Angst):
   0.10720618  0.07347537  8.54142128
   2.25551693  8.57813603  2.13484359
   2.18093554  4.29563834  2.15827858
   4.32657128  4.29905068  0.02237845
   4.38090191  2.08840299  6.50254859
   8.57825708  4.30928585  4.39901980
   4.29828113  6.54871198  6.45377664
   8.46549451  2.00134127  2.21755608
   6.57059419  6.42517518  0.01930202
   0.14421481  2.02791399  6.50865524
   6.54516803  2.06459017  4.18997982
   0.06987639  6.35075851  6.53248821
   2.21620111  4.32431492  6.49904425
   2.30669591  2.14888981  8.51658087
   4.46899756  1.98099815  2.27439150
   6.32394938  0.10618524  2.43533490
   6.34385055  2.10387754  8.49894135
   2.05793634  6.38843925  0.03881164
   2.16782096  2.18346972  4.44627850
   2.19706760  6.39330597  4.28922037
   2.13091042  2.11849892  2.15529359
   2.32569945  8.60001841  8.62947977
   0.05168151  2.21578929  0.07629328
   6.42244945  2.13963500  2.01461510
   6.46000041  0.00683572  8.64813748
   4.37286241  8.55203339  2.13086799
   8.57988350  4.22393073  2.18795321
   4.34049334  6.51659711  8.64433522
   8.53920161  8.51168386  6.41308362
   6.55736000  1.99505500  6.42125940
   6.38338510  8.59698850  4.39755480
   4.33045969  2.13780609  4.27302772
   4.23284557  0.02628127  6.43579470
   8.53360805  8.58667644  2.13189144
   4.30255762  2.11667695  0.07284602
   2.24744875  6.43568072  2.15123934
   2.11186542  4.28048581  8.62925761
   0.06851830  6.42965385  0.06126702
   6.36562861  6.57710919  2.12963456
   6.55382102  4.22374043  0.08435747
   4.29157524  4.26322355  2.16632241
   2.23432791  2.10262561  6.47428672
   2.21950300  0.00649435  4.41118360
   0.09718349  2.12703657  4.34189685
   2.15694991  6.53965544  6.49970230
   2.18044620  4.28591450  4.34461419
   0.07756795  6.45805966  4.37243052
   8.61070741  4.19869049  6.54662635
   6.49626938  6.59778352  6.48643191
   6.43453902  4.21201391  4.38015925
   4.27684070  6.61397616  4.27616761
   4.32084557  4.32589657  6.47314768
   4.46051177  0.14568203  8.48479514
   8.56276180  4.47352343  8.43387154
   4.31654273  6.33717371  2.39019267
   1.92612825  0.08935496  6.69303433
   4.07384141  0.12496117  4.19120888
   6.19647333  8.59951843  6.74820274
   0.05065933  6.55550452  2.24222883
   6.32602289  4.47398084  2.20209285
   0.21401849  8.57962138  4.26337802
   4.31594103  4.45203846  4.27280780
   6.43703728  4.44510226  6.58823406
   6.44182930  6.38983594  4.29902629
 


--------------------------------------------------------------------------------------------------------


 k-point  1 :   0.0000 0.0000 0.0000  plane waves:   11597
 k-point  2 :   0.1667 0.0000 0.0000  plane waves:   11570
 k-point  3 :   0.3333 0.0000 0.0000  plane waves:   11569
 k-point  4 :   0.5000 0.0000-0.0000  plane waves:   11560
 k-point  5 :  -0.0000 0.1667 0.0000  plane waves:   11565
 k-point  6 :   0.1667 0.1667 0.0000  plane waves:   11569
 k-point  7 :   0.3333 0.1667-0.0000  plane waves:   11600
 k-point  8 :   0.5000 0.1667-0.0000  plane waves:   11603
 k-point  9 :  -0.3333 0.1667-0.0000  plane waves:   11597
 k-point 10 :  -0.1667 0.1667 0.0000  plane waves:   11570
 k-point 11 :  -0.0000 0.3333 0.0000  plane waves:   11576
 k-point 12 :   0.1667 0.3333-0.0000  plane waves:   11596
 k-point 13 :   0.3333 0.3333-0.0000  plane waves:   11609
 k-point 14 :   0.5000 0.3333-0.0000  plane waves:   11608
 k-point 15 :  -0.3333 0.3333 0.0000  plane waves:   11601
 k-point 16 :  -0.1667 0.3333 0.0000  plane waves:   11601
 k-point 17 :  -0.0000 0.5000 0.0000  plane waves:   11572
 k-point 18 :   0.1667 0.5000-0.0000  plane waves:   11595
 k-point 19 :   0.3333 0.5000 0.0000  plane waves:   11611
 k-point 20 :   0.5000 0.5000-0.0000  plane waves:   11604
 k-point 21 :   0.0000 0.0000 0.1667  plane waves:   11569
 k-point 22 :   0.1667 0.0000 0.1667  plane waves:   11557
 k-point 23 :   0.3333 0.0000 0.1667  plane waves:   11584
 k-point 24 :   0.5000 0.0000 0.1667  plane waves:   11591
 k-point 25 :  -0.3333 0.0000 0.1667  plane waves:   11585
 k-point 26 :  -0.1667-0.0000 0.1667  plane waves:   11572
 k-point 27 :  -0.0000 0.1667 0.1667  plane waves:   11553
 k-point 28 :   0.1667 0.1667 0.1667  plane waves:   11590
 k-point 29 :   0.3333 0.1667 0.1667  plane waves:   11596
 k-point 30 :   0.5000 0.1667 0.1667  plane waves:   11604
 k-point 31 :  -0.3333 0.1667 0.1667  plane waves:   11595
 k-point 32 :  -0.1667 0.1667 0.1667  plane waves:   11589
 k-point 33 :  -0.0000 0.3333 0.1667  plane waves:   11588
 k-point 34 :   0.1667 0.3333 0.1667  plane waves:   11592
 k-point 35 :   0.3333 0.3333 0.1667  plane waves:   11605
 k-point 36 :   0.5000 0.3333 0.1667  plane waves:   11618
 k-point 37 :  -0.3333 0.3333 0.1667  plane waves:   11595
 k-point 38 :  -0.1667 0.3333 0.1667  plane waves:   11595
 k-point 39 :  -0.0000 0.5000 0.1667  plane waves:   11588
 k-point 40 :   0.1667 0.5000 0.1667  plane waves:   11614
 k-point 41 :   0.3333 0.5000 0.1667  plane waves:   11627
 k-point 42 :   0.5000 0.5000 0.1667  plane waves:   11622
 k-point 43 :  -0.3333 0.5000 0.1667  plane waves:   11612
 k-point 44 :  -0.1667 0.5000 0.1667  plane waves:   11597
 k-point 45 :   0.0000-0.3333 0.1667  plane waves:   11588
 k-point 46 :   0.1667-0.3333 0.1667  plane waves:   11596
 k-point 47 :   0.3333-0.3333 0.1667  plane waves:   11602
 k-point 48 :   0.5000-0.3333 0.1667  plane waves:   11611
 k-point 49 :  -0.3333-0.3333 0.1667  plane waves:   11597
 k-point 50 :  -0.1667-0.3333 0.1667  plane waves:   11600
 k-point 51 :   0.0000-0.1667 0.1667  plane waves:   11558
 k-point 52 :   0.1667-0.1667 0.1667  plane waves:   11585
 k-point 53 :   0.3333-0.1667 0.1667  plane waves:   11595
 k-point 54 :   0.5000-0.1667 0.1667  plane waves:   11599
 k-point 55 :  -0.3333-0.1667 0.1667  plane waves:   11595
 k-point 56 :  -0.1667-0.1667 0.1667  plane waves:   11589
 k-point 57 :  -0.0000 0.0000 0.3333  plane waves:   11580
 k-point 58 :   0.1667 0.0000 0.3333  plane waves:   11581
 k-point 59 :   0.3333 0.0000 0.3333  plane waves:   11594
 k-point 60 :   0.5000 0.0000 0.3333  plane waves:   11615
 k-point 61 :  -0.3333-0.0000 0.3333  plane waves:   11588
 k-point 62 :  -0.1667 0.0000 0.3333  plane waves:   11590
 k-point 63 :   0.0000 0.1667 0.3333  plane waves:   11581
 k-point 64 :   0.1667 0.1667 0.3333  plane waves:   11594
 k-point 65 :   0.3333 0.1667 0.3333  plane waves:   11599
 k-point 66 :   0.5000 0.1667 0.3333  plane waves:   11612
 k-point 67 :  -0.3333 0.1667 0.3333  plane waves:   11604
 k-point 68 :  -0.1667 0.1667 0.3333  plane waves:   11598
 k-point 69 :   0.0000 0.3333 0.3333  plane waves:   11596
 k-point 70 :   0.1667 0.3333 0.3333  plane waves:   11605
 k-point 71 :   0.3333 0.3333 0.3333  plane waves:   11612
 k-point 72 :   0.5000 0.3333 0.3333  plane waves:   11598
 k-point 73 :  -0.3333 0.3333 0.3333  plane waves:   11609
 k-point 74 :  -0.1667 0.3333 0.3333  plane waves:   11599
 k-point 75 :   0.0000 0.5000 0.3333  plane waves:   11598
 k-point 76 :   0.1667 0.5000 0.3333  plane waves:   11610
 k-point 77 :   0.3333 0.5000 0.3333  plane waves:   11612
 k-point 78 :   0.5000 0.5000 0.3333  plane waves:   11608
 k-point 79 :  -0.3333 0.5000 0.3333  plane waves:   11607
 k-point 80 :  -0.1667 0.5000 0.3333  plane waves:   11607
 k-point 81 :   0.0000-0.3333 0.3333  plane waves:   11589
 k-point 82 :   0.1667-0.3333 0.3333  plane waves:   11604
 k-point 83 :   0.3333-0.3333 0.3333  plane waves:   11615
 k-point 84 :   0.5000-0.3333 0.3333  plane waves:   11594
 k-point 85 :  -0.3333-0.3333 0.3333  plane waves:   11610
 k-point 86 :  -0.1667-0.3333 0.3333  plane waves:   11603
 k-point 87 :   0.0000-0.1667 0.3333  plane waves:   11582
 k-point 88 :   0.1667-0.1667 0.3333  plane waves:   11600
 k-point 89 :   0.3333-0.1667 0.3333  plane waves:   11595
 k-point 90 :   0.5000-0.1667 0.3333  plane waves:   11613
 k-point 91 :  -0.3333-0.1667 0.3333  plane waves:   11600
 k-point 92 :  -0.1667-0.1667 0.3333  plane waves:   11601
 k-point 93 :  -0.0000-0.0000 0.5000  plane waves:   11582
 k-point 94 :   0.1667 0.0000 0.5000  plane waves:   11590
 k-point 95 :   0.3333 0.0000 0.5000  plane waves:   11612
 k-point 96 :   0.5000 0.0000 0.5000  plane waves:   11602
 k-point 97 :  -0.0000 0.1667 0.5000  plane waves:   11588
 k-point 98 :   0.1667 0.1667 0.5000  plane waves:   11607
[...]
  in kB      10.12239     7.57771    11.32976    -0.20271     0.63901    -0.07152
  external pressure =        9.68 kB  Pullay stress =        0.00 kB


 VOLUME and BASIS-vectors are now :
 -----------------------------------------------------------------------------
  energy-cutoff  :      400.00
  volume of cell :      638.41
      direct lattice vectors                 reciprocal lattice vectors
     8.583736419  0.005071989  0.005395387     0.116499776 -0.000145822 -0.000486906
     0.010825281  8.601717000  0.014013091    -0.000068702  0.116255924  0.000013068
     0.036136355 -0.000950557  8.646466862    -0.000072584 -0.000188322  0.115654459

  length of vectors
     8.583739613  8.601735226  8.646542426     0.116500884  0.116255945  0.115654635


 FORCES acting on ions
    electron-ion (+dipol)            ewald-force                    non-local-force                 convergence-correction
 -----------------------------------------------------------------------------------------------
   0.129E+03 0.144E+03 -.186E+03   -.130E+03 -.144E+03 0.187E+03   0.481E+00 -.102E+00 -.518E+00   0.101E+01 -.490E+00 -.349E+00
   0.252E+03 0.121E+03 -.109E+03   -.250E+03 -.120E+03 0.109E+03   -.889E+00 -.328E+00 0.579E+00   -.107E+01 -.634E+00 -.658E+00
   0.821E+02 -.610E+02 -.853E+02   -.823E+02 0.598E+02 0.857E+02   0.285E+00 0.483E+00 0.147E+00   -.145E+00 0.689E+00 -.512E+00
   -.167E+03 -.117E+03 -.121E+02   0.168E+03 0.117E+03 0.134E+02   -.792E-01 -.390E-02 -.327E+00   -.923E+00 0.522E+00 -.898E+00
   -.954E+02 -.343E+03 0.204E+03   0.964E+02 0.340E+03 -.205E+03   0.113E-02 0.657E+00 0.272E+00   -.989E+00 0.208E+01 0.354E+00
   0.256E+03 -.162E+03 0.945E+02   -.257E+03 0.162E+03 -.953E+02   0.111E+00 -.126E+00 0.113E+00   0.903E+00 0.662E+00 0.724E+00
   -.161E+03 0.286E+03 0.176E+03   0.162E+03 -.283E+03 -.176E+03   0.294E+00 -.850E+00 -.198E+00   -.118E+01 -.202E+01 0.296E+00
   -.130E+02 -.114E+03 -.866E+02   0.130E+02 0.114E+03 0.858E+02   -.787E+00 -.929E+00 0.116E+01   0.750E+00 0.518E+00 -.406E+00
   -.272E+02 0.183E+03 -.122E+03   0.258E+02 -.182E+03 0.123E+03   0.658E+00 -.111E+00 -.126E+01   0.696E+00 -.112E+01 -.350E+00
   0.181E+03 -.144E+03 0.151E+03   -.182E+03 0.144E+03 -.151E+03   0.225E+00 -.784E+00 0.297E+00   0.849E+00 0.874E+00 0.441E+00
   -.984E+02 -.254E+03 -.122E+03   0.978E+02 0.254E+03 0.123E+03   -.772E-01 -.166E+00 -.159E+01   0.652E+00 0.872E+00 0.646E+00
   0.199E+03 0.401E+02 0.225E+03   -.200E+03 -.387E+02 -.226E+03   -.283E+00 -.512E+00 0.679E+00   0.103E+01 -.871E+00 0.370E+00
   -.463E+02 -.665E+02 0.115E+03   0.469E+02 0.664E+02 -.115E+03   -.589E+00 -.351E+00 -.496E+00   -.643E-01 0.431E+00 0.540E+00
   0.866E+02 -.180E+03 -.128E+03   -.848E+02 0.180E+03 0.129E+03   -.119E+01 -.156E+01 -.476E+00   -.643E+00 0.123E+01 -.820E+00
   0.372E+02 -.358E+03 -.307E+02   -.370E+02 0.357E+03 0.303E+02   0.561E+00 -.559E+00 0.115E+01   -.729E+00 0.152E+01 -.601E+00
   -.313E+03 0.339E+03 -.503E+02   0.310E+03 -.341E+03 0.506E+02   0.142E+01 0.296E+01 0.548E-01   0.105E+01 -.665E+00 -.308E+00
   -.188E+03 -.320E+03 -.413E+02   0.186E+03 0.320E+03 0.427E+02   0.119E+01 -.138E+01 -.862E+00   0.543E+00 0.141E+01 -.523E+00
   0.171E+02 0.780E+02 -.101E+03   -.153E+02 -.774E+02 0.102E+03   -.122E+01 0.588E+00 -.846E+00   -.597E+00 -.114E+01 -.665E+00
   0.797E+02 -.109E+03 0.936E+02   -.788E+02 0.107E+03 -.944E+02   -.352E+00 -.682E-01 -.106E+00   -.564E+00 0.132E+01 0.883E+00
   0.142E+03 0.515E+02 0.224E+02   -.141E+03 -.500E+02 -.230E+02   -.472E+00 -.257E+00 0.174E-01   -.708E+00 -.119E+01 0.623E+00
   0.475E+02 -.505E+02 -.282E+02   -.453E+02 0.508E+02 0.283E+02   -.192E+01 -.726E+00 0.149E+00   -.256E+00 0.411E+00 -.327E+00
   0.458E+01 0.625E+02 -.706E+02   -.712E+00 -.640E+02 0.711E+02   -.314E+01 0.167E+01 -.235E+00   -.702E+00 -.184E+00 -.205E+00
   0.434E+02 -.960E+02 -.454E+02   -.435E+02 0.100E+03 0.476E+02   -.331E+00 -.449E+01 -.199E+01   0.436E+00 0.330E+00 -.276E+00
   -.805E+02 -.188E+03 -.102E+02   0.783E+02 0.190E+03 0.434E+01   0.192E+01 -.193E+01 0.601E+01   0.317E+00 0.304E+00 -.168E+00
   -.100E+03 0.966E+02 -.114E+03   0.101E+03 -.949E+02 0.120E+03   -.127E+01 -.146E+01 -.570E+01   0.710E+00 -.273E+00 0.142E+00
   0.142E+01 0.121E+03 0.360E+02   0.121E+00 -.124E+03 -.396E+02   -.131E+01 0.391E+01 0.385E+01   -.261E+00 -.460E+00 -.251E+00
   0.118E+03 -.992E+02 -.412E+01   -.118E+03 0.994E+02 0.852E+00   -.772E-01 -.436E+00 0.348E+01   0.344E+00 0.204E+00 -.212E+00
   -.485E+02 0.557E+02 -.464E+02   0.464E+02 -.524E+02 0.502E+02   0.252E+01 -.245E+01 -.368E+01   -.446E+00 -.906E+00 -.105E+00
   0.107E+03 0.658E+02 0.168E+03   -.113E+03 -.674E+02 -.170E+03   0.548E+01 0.181E+01 0.200E+01   0.519E+00 -.248E+00 0.181E+00
   -.614E+02 -.152E+03 0.115E+03   0.617E+02 0.152E+03 -.116E+03   -.532E+00 -.243E+00 0.470E+00   0.179E+00 0.691E+00 0.155E-01
   -.125E+03 0.155E+03 -.869E+02   0.123E+03 -.157E+03 0.921E+02   0.100E+01 0.271E+01 -.530E+01   0.539E+00 -.194E+00 0.806E-01
   -.533E+02 -.192E+03 -.538E+02   0.518E+02 0.193E+03 0.538E+02   0.173E+01 -.139E+01 -.545E+00   -.244E+00 0.926E+00 0.495E+00
   0.446E+02 0.610E+02 0.105E+03   -.481E+02 -.615E+02 -.109E+03   0.413E+01 0.504E+00 0.365E+01   -.633E+00 -.898E-01 0.465E-01
   0.882E+01 0.112E+03 -.737E+02   -.101E+02 -.112E+03 0.726E+02   0.101E+01 0.848E+00 0.126E+01   0.240E+00 -.132E+00 -.173E+00
   0.196E+01 -.916E+02 -.391E+02   -.196E+01 0.911E+02 0.408E+02   0.400E+00 -.322E+00 -.137E+01   -.404E+00 0.789E+00 -.288E+00
   0.852E+02 0.196E+02 -.204E+02   -.837E+02 -.191E+02 0.200E+02   -.132E+01 -.927E-01 0.446E+00   -.103E+00 -.344E+00 -.116E+00
   0.157E+02 -.702E+01 -.257E+02   -.164E+02 0.640E+01 0.274E+02   0.732E+00 0.410E+00 -.142E+01   -.338E-01 0.202E+00 -.295E+00
   0.602E+02 -.346E+01 -.104E+03   -.590E+02 0.385E+01 0.105E+03   -.164E+01 -.733E-01 -.121E+01   0.371E+00 -.297E+00 -.244E+00
   -.104E+03 0.929E+02 -.735E+02   0.103E+03 -.904E+02 0.728E+02   0.117E+01 -.222E+01 0.721E+00   0.952E-01 -.230E+00 -.100E+00
   0.416E+01 -.377E+02 -.375E+02   -.328E+01 0.347E+02 0.390E+02   -.989E+00 0.271E+01 -.107E+01   0.976E-01 0.250E+00 -.304E+00
   -.884E+02 -.503E+01 -.735E+02   0.875E+02 0.358E+01 0.726E+02   0.124E+01 0.108E+01 0.114E+01   -.320E+00 0.316E+00 -.185E+00
   0.212E+01 -.616E+02 0.433E+02   -.266E+00 0.601E+02 -.440E+02   -.175E+01 0.114E+01 0.408E+00   -.103E+00 0.371E+00 0.289E+00
   0.127E+03 0.446E+02 -.539E+01   -.125E+03 -.445E+02 0.627E+01   -.158E+01 0.293E+00 -.117E+01   -.576E+00 -.317E+00 0.258E+00
   0.460E+02 0.213E+02 0.917E+01   -.445E+02 -.208E+02 -.921E+01   -.160E+01 -.770E+00 -.166E+00   0.193E+00 0.243E+00 0.211E+00
   0.338E+01 0.240E+02 0.470E+02   -.185E+01 -.216E+02 -.475E+02   -.132E+01 -.202E+01 0.378E+00   -.209E+00 -.389E+00 0.121E+00
   -.413E+02 -.201E+02 0.114E+02   0.409E+02 0.198E+02 -.127E+02   0.450E+00 0.369E-01 0.109E+01   -.700E-01 0.303E+00 0.265E+00
   0.118E+03 -.395E+02 0.687E+02   -.118E+03 0.396E+02 -.691E+02   -.594E+00 0.103E+00 0.150E+00   0.353E+00 -.252E+00 0.229E+00
   0.936E+02 -.655E+00 0.664E+02   -.946E+02 -.807E+00 -.666E+02   0.676E+00 0.124E+01 -.538E-01   0.303E+00 0.212E+00 0.208E+00
   -.261E+02 0.106E+03 0.115E+03   0.258E+02 -.103E+03 -.117E+03   0.123E+00 -.208E+01 0.110E+01   0.234E+00 -.574E+00 0.100E+00
   0.467E+02 -.872E+02 -.392E+01   -.466E+02 0.861E+02 0.406E+01   -.233E+00 0.832E+00 -.413E+00   0.730E-01 0.181E+00 0.284E+00
   -.116E+03 0.906E+02 -.465E+02   0.116E+03 -.877E+02 0.465E+02   0.436E+00 -.205E+01 -.116E+00   -.352E+00 -.736E+00 0.106E+00
   -.989E+02 -.266E+02 0.950E+02   0.100E+03 0.262E+02 -.946E+02   -.805E+00 0.320E+00 -.513E+00   -.305E+00 0.648E-01 0.186E+00
   0.469E+02 0.188E+03 -.140E+03   -.465E+02 -.188E+03 0.141E+03   0.574E+00 -.907E-01 -.938E+00   -.952E+00 -.238E+00 -.227E+00
   0.146E+03 0.214E+02 -.166E+03   -.147E+03 -.227E+02 0.167E+03   -.139E-03 0.705E+00 -.955E+00   0.891E+00 0.494E+00 -.653E+00
   -.200E+03 0.179E+03 -.311E+02   0.201E+03 -.178E+03 0.311E+02   0.466E+00 -.326E+00 0.245E+00   -.828E+00 -.128E+01 -.307E+00
   0.149E+02 0.147E+03 0.238E+03   -.127E+02 -.147E+03 -.239E+03   -.138E+01 0.977E+00 0.228E+00   -.715E+00 -.371E+00 0.384E+00
   -.908E+02 0.166E+03 -.105E+03   0.901E+02 -.166E+03 0.105E+03   0.150E+01 0.133E+01 -.270E+00   -.874E+00 -.504E+00 0.452E+00
   -.251E+03 0.187E+03 0.317E+03   0.250E+03 -.187E+03 -.318E+03   0.404E+00 0.838E+00 0.798E+00   0.830E+00 -.340E+00 0.243E-01
   0.102E+03 0.531E+02 -.779E+02   -.102E+03 -.516E+02 0.781E+02   -.380E+00 -.105E+01 -.119E+00   0.363E+00 -.325E+00 -.158E+00
   -.696E+02 -.598E+02 -.816E+02   0.688E+02 0.608E+02 0.812E+02   0.694E+00 -.107E+01 0.619E+00   0.452E-01 0.220E+00 -.198E+00
   0.882E+02 0.909E+02 0.313E+02   -.870E+02 -.911E+02 -.314E+02   -.150E+01 0.560E+00 -.924E-01   0.277E+00 -.300E+00 0.205E+00
   -.124E+03 -.111E+02 -.316E+02   0.125E+03 0.117E+02 0.308E+02   0.102E+00 -.869E+00 0.392E+00   -.423E+00 0.230E+00 0.363E+00
   0.179E+02 -.251E+02 0.114E+03   -.185E+02 0.261E+02 -.113E+03   0.625E+00 -.105E+01 -.278E+00   0.209E-01 0.914E-01 0.186E+00
   -.705E+02 0.876E+02 0.100E+02   0.698E+02 -.870E+02 -.102E+02   0.424E+00 -.253E+00 -.855E-02   0.273E+00 -.449E+00 0.166E+00
 -----------------------------------------------------------------------------------------------
   -.212E+01 0.536E+01 0.229E+01   -.711E-13 0.398E-12 0.711E-14   0.342E+01 -.684E+01 -.125E+01   -.123E+01 0.139E+01 -.101E+01
 
 
 POSITION                                       TOTAL-FORCE (eV/Angst)
 -----------------------------------------------------------------------------------
      0.10721      0.07348      8.54142        -0.036134      0.022101     -0.001806
      2.25552      8.57814      2.13484        -0.002401     -0.054219      0.036665
      2.18094      4.29564      2.15828        -0.012264      0.012977      0.007711
      4.32657      4.29905      0.02238        -0.004194     -0.032596      0.074449
      4.38090      2.08840      6.50255         0.024951     -0.129325      0.020900
      8.57826      4.30929      4.39902        -0.055861     -0.047687      0.005076
      4.29828      6.54871      6.45378         0.059484      0.116337      0.010054
      8.46549      2.00134      2.21756         0.005249     -0.039221     -0.001856
      6.57059      6.42518      0.01930        -0.013291      0.010525      0.040475
      0.14421      2.02791      6.50866        -0.015296     -0.059752     -0.011004
      6.54517      2.06459      4.18998         0.022754      0.034878     -0.085987
      0.06988      6.35076      6.53249        -0.074482     -0.016424      0.003284
      2.21620      4.32431      6.49904        -0.073744     -0.007400     -0.039838
      2.30670      2.14889      8.51658         0.002151     -0.009769      0.077181
      4.46900      1.98100      2.27439         0.060158     -0.079003      0.083169
      6.32395      0.10619      2.43533        -0.033532      0.079512      0.010886
      6.34385      2.10388      8.49894         0.000247     -0.002109     -0.022466
      2.05794      6.38844      0.03881         0.024109      0.030145      0.063702
      2.16782      2.18347      4.44628        -0.048568     -0.048301     -0.001509
      2.19707      6.39331      4.28922         0.115779      0.040705     -0.004328
      2.13091      2.11850      2.15529        -0.001824     -0.006746      0.010639
      2.32570      8.60002      8.62948         0.018081     -0.011650      0.002369
      0.05168      2.21579      0.07629        -0.017867      0.029015     -0.010566
      6.42245      2.13964      2.01462         0.004317      0.016475     -0.019461
      6.46000      0.00684      8.64814        -0.020042     -0.012070      0.009973
      4.37286      8.55203      2.13087        -0.034487     -0.021479     -0.017912
      8.57988      4.22393      2.18795        -0.000031     -0.026967      0.000548
      4.34049      6.51660      8.64434         0.002191      0.012415      0.002645
      8.53920      8.51168      6.41308        -0.023358     -0.019328      0.006882
      6.55736      1.99505      6.42126         0.013758      0.015861      0.000632
      6.38339      8.59699      4.39755        -0.022400     -0.014060     -0.004110
      4.33046      2.13781      4.27303         0.020958      0.011428     -0.035967
      4.23285      0.02628      6.43579        -0.003533     -0.013300     -0.008075
      8.53361      8.58668      2.13189        -0.016542     -0.000912      0.014310
      4.30256      2.11668      0.07285        -0.000144     -0.040004      0.012868
      2.24745      6.43568      2.15124        -0.005526      0.026211     -0.021117
      2.11187      4.28049      8.62926         0.007303     -0.008756      0.013343
      0.06852      6.42965      0.06127        -0.013197      0.018718      0.000151
      6.36563      6.57711      2.12963         0.009071     -0.036804     -0.038299
      6.55382      4.22374      0.08436        -0.018008     -0.054817      0.048356
      4.29158      4.26322      2.16632         0.009422     -0.055956      0.002148
      2.23433      2.10263      6.47429        -0.003592      0.047805     -0.032228
      2.21950      0.00649      4.41118         0.006862      0.022788     -0.028864
      0.09718      2.12704      4.34190         0.024466      0.000056      0.002853
      2.15695      6.53966      6.49970         0.004873     -0.021803     -0.027397
      2.18045      4.28591      4.34461         0.017241     -0.011773      0.011676
      0.07757      6.45806      4.37243        -0.007009     -0.030917      0.000314
      8.61071      4.19869      6.54663        -0.004718     -0.005950     -0.031307
      6.49627      6.59778      6.48643         0.031115      0.027078     -0.037505
      6.43454      4.21201      4.38016        -0.009908     -0.049923      0.004949
      4.27684      6.61398      4.27617         0.008502      0.066999      0.012876
      4.32085      4.32590      6.47315        -0.005184     -0.000868      0.001740
      4.46051      0.14568      8.48480         0.009976      0.010453      0.006589
      8.56276      4.47352      8.43387         0.002728     -0.047350      0.013753
      4.31654      6.33717      2.39019         0.037804      0.036862     -0.001336
      1.92613      0.08935      6.69303         0.013306      0.040489      0.001715
      4.07384      0.12496      4.19121        -0.044226      0.054064     -0.037986
      6.19647      8.59952      6.74820         0.002629      0.046158      0.004618
      0.05066      6.55550      2.24223         0.035900      0.053203     -0.044079
      6.32602      4.47398      2.20209        -0.053248      0.088735      0.010210
      0.21402      8.57962      4.26338         0.032452      0.038499     -0.014737
      4.31594      4.45204      4.27281         0.018894      0.020831     -0.046065
      6.43704      4.44510      6.58823         0.119196      0.038439      0.017117
      6.44183      6.38984      4.29903        -0.091315     -0.052524     -0.021023
 -----------------------------------------------------------------------------------
    total drift:                                0.067123     -0.079594      0.031453


--------------------------------------------------------------------------------------------------------



  FREE ENERGIE OF THE ION-ELECTRON SYSTEM (eV)
  ---------------------------------------------------
  free  energy   TOTEN  =      -637.08632551 eV

  energy  without entropy=     -636.90748763  energy(sigma->0) =     -636.99690657
 


--------------------------------------------------------------------------------------------------------


    POTLOK:  cpu time    0.0188: real time    0.0414


--------------------------------------------------------------------------------------------------------


     LOOP+:  cpu time 2781.8070: real time 2784.2941
    4ORBIT:  cpu time    0.0000: real time    0.0000
 


 total charge     
 
# of ion       s       p       d       tot
------------------------------------------
    1        2.111   5.958   2.232  10.301
    2        2.118   5.971   2.165  10.254
    3        2.127   5.982   2.160  10.269
    4        2.119   5.972   2.189  10.281
    5        2.119   5.973   2.202  10.294
    6        2.124   5.981   2.219  10.323
    7        2.125   5.981   2.167  10.274
    8        0.385   6.394   3.421  10.200
    9        0.373   6.385   3.433  10.191
   10        0.368   6.378   3.458  10.205
   11        0.365   6.364   3.473  10.202
   12        0.381   6.412   3.479  10.273
   13        0.377   6.410   3.446  10.233
   14        2.243   6.279   3.076  11.599
   15        2.239   6.274   3.122  11.636
   16        2.251   6.287   3.171  11.710
   17        2.237   6.267   3.107  11.611
   18        2.243   6.285   3.066  11.594
   19        2.241   6.284   3.105  11.631
   20        2.242   6.297   3.100  11.639
   21        1.258   2.398   0.000   3.656
   22        1.258   2.417   0.000   3.675
   23        1.254   2.398   0.000   3.651
   24        1.260   2.447   0.000   3.707
   25        1.259   2.426   0.000   3.685
   26        1.261   2.410   0.000   3.671
   27        1.260   2.398   0.000   3.658
   28        1.261   2.369   0.000   3.630
   29        1.256   2.442   0.000   3.697
   30        1.251   2.428   0.000   3.679
   31        1.266   2.395   0.000   3.661
   32        1.253   2.427   0.000   3.680
   33        1.265   2.437   0.000   3.702
   34        0.891   1.590   0.000   2.481
   35        0.894   1.560   0.000   2.453
   36        0.890   1.547   0.000   2.437
   37        0.883   1.542   0.000   2.425
   38        0.889   1.593   0.000   2.482
   39        0.879   1.545   0.000   2.424
   40        0.883   1.545   0.000   2.429
   41        0.896   1.577   0.000   2.473
   42        0.889   1.594   0.000   2.482
   43        0.898   1.524   0.000   2.422
   44        0.880   1.600   0.000   2.480
   45        0.879   1.546   0.000   2.425
   46        0.888   1.567   0.000   2.456
   47        0.884   1.569   0.000   2.453
   48        0.885   1.606   0.000   2.491
   49        0.883   1.561   0.000   2.444
   50        0.882   1.570   0.000   2.453
   51        0.893   1.556   0.000   2.449
   52        0.885   1.581   0.000   2.467
   53        0.314   6.367   4.256  10.937
   54        0.348   6.419   4.309  11.075
   55        0.337   6.405   4.275  11.016
   56        0.323   6.382   4.299  11.003
   57        0.330   6.384   4.326  11.040
   58        0.334   6.386   4.334  11.054
   59        0.439   0.676   4.493   5.608
   60        0.449   0.687   4.531   5.667
   61        0.457   0.704   4.542   5.702
   62        0.447   0.708   4.529   5.684
   63        0.433   0.669   4.516   5.618
   64        0.431   0.676   4.468   5.576
--------------------------------------------------
tot         70.646 227.763 110.670 409.079
 

 total amount of memory used by VASP MPI-rank0  1654764. kBytes
=======================================================================

   base      :      30000. kBytes
   nonl-proj :    1326028. kBytes
   fftplans  :       1252. kBytes
   grid      :       5755. kBytes
   one-center:        995. kBytes
   wavefun   :     290734. kBytes
 
  
  
 General timing and accounting informations for this job:
 ========================================================
  
                  Total CPU time used (sec):     2827.851
                            User time (sec):     2814.728
                          System time (sec):       13.123
                         Elapsed time (sec):     2835.768
  
                   Maximum memory used (kb):     1760944.
                   Average memory used (kb):           0.
  
                          Minor page faults:       380094
                          Major page faults:            0
                 Voluntary context switches:         4294
