       N       E                     dE             d eps       ncg     rms          rms(c)
DAV:   1     0.130722376306E+02    0.13072E+02   -0.11700E+04   336   0.646E+02
DAV:   2    -0.179925761480E+02   -0.31065E+02   -0.31031E+02   336   0.814E+01
DAV:   3    -0.181134359560E+02   -0.12086E+00   -0.12074E+00   420   0.711E+00
DAV:   4    -0.181136853979E+02   -0.24944E-03   -0.24943E-03   532   0.195E-01
DAV:   5    -0.181136854395E+02   -0.41575E-07   -0.41536E-07   448   0.298E-03    0.852E+00
RMM:   6    -0.159391724955E+02    0.21745E+01   -0.16788E+00   336   0.868E+00    0.191E+00
RMM:   7    -0.158326717498E+02    0.10650E+00   -0.20247E-01   336   0.288E+00    0.761E-01
RMM:   8    -0.158213563500E+02    0.11315E-01   -0.19938E-02   336   0.867E-01    0.131E-01
RMM:   9    -0.158212068235E+02    0.14953E-03   -0.58928E-03   341   0.457E-01    0.685E-02
RMM:  10    -0.158212382329E+02   -0.31409E-04   -0.98245E-04   342   0.192E-01    0.146E-02
RMM:  11    -0.158212748350E+02   -0.36602E-04   -0.22654E-04   338   0.108E-01    0.275E-02
RMM:  12    -0.158212560890E+02    0.18746E-04   -0.64308E-05   330   0.571E-02    0.173E-03
RMM:  13    -0.158212585476E+02   -0.24586E-05   -0.25392E-05   264   0.285E-02
   1 F= -.15821259E+02 E0= -.15812322E+02  d E =-.158213E+02
       N       E                     dE             d eps       ncg     rms          rms(c)
DAV:   1    -0.161481714583E+02   -0.32692E+00   -0.89521E+00   336   0.189E+01    0.367E+00
RMM:   2    -0.158489390706E+02    0.29923E+00   -0.24085E-01   336   0.341E+00    0.110E+00
RMM:   3    -0.158338980118E+02    0.15041E-01   -0.29692E-02   336   0.112E+00    0.435E-01
RMM:   4    -0.158327901949E+02    0.11078E-02   -0.66161E-03   336   0.455E-01    0.650E-02
RMM:   5    -0.158330039182E+02   -0.21372E-03   -0.14322E-03   353   0.187E-01    0.216E-02
RMM:   6    -0.158330135955E+02   -0.96773E-05   -0.18444E-04   303   0.617E-02    0.516E-03
RMM:   7    -0.158330191362E+02   -0.55408E-05   -0.51971E-05   260   0.270E-02
   2 F= -.15833019E+02 E0= -.15826194E+02  d E =-.117606E-01
       N       E                     dE             d eps       ncg     rms          rms(c)
DAV:   1    -0.158585331630E+02   -0.25520E-01   -0.66226E-01   560   0.521E+00    0.101E+00
RMM:   2    -0.158360578543E+02    0.22475E-01   -0.16952E-02   336   0.892E-01    0.283E-01
RMM:   3    -0.158350861746E+02    0.97168E-03   -0.18035E-03   336   0.288E-01    0.118E-01
RMM:   4    -0.158350006487E+02    0.85526E-04   -0.46224E-04   336   0.133E-01    0.182E-02
RMM:   5    -0.158350170502E+02   -0.16402E-04   -0.70479E-05   326   0.509E-02    0.405E-03
RMM:   6    -0.158350182840E+02   -0.12338E-05   -0.14762E-05   239   0.251E-02
   3 F= -.15835018E+02 E0= -.15827875E+02  d E =-.137597E-01
       N       E                     dE             d eps       ncg     rms          rms(c)
DAV:   1    -0.158660440008E+02   -0.31027E-01   -0.10569E+00   420   0.563E+00    0.111E+00
RMM:   2    -0.158418412004E+02    0.24203E-01   -0.14533E-02   336   0.820E-01    0.445E-01
RMM:   3    -0.158386135156E+02    0.32277E-02   -0.26634E-03   336   0.304E-01    0.161E-01
RMM:   4    -0.158383171208E+02    0.29639E-03   -0.67928E-04   336   0.149E-01    0.231E-02
RMM:   5    -0.158383374626E+02   -0.20342E-04   -0.89509E-05   325   0.611E-02    0.372E-03
RMM:   6    -0.158383395935E+02   -0.21309E-05   -0.21101E-05   235   0.279E-02
   4 F= -.15838340E+02 E0= -.15831615E+02  d E =-.332131E-02
       N       E                     dE             d eps       ncg     rms          rms(c)
DAV:   1    -0.158386820049E+02   -0.34454E-03   -0.11867E-02   476   0.593E-01    0.118E-01
RMM:   2    -0.158384047578E+02    0.27725E-03   -0.14521E-04   336   0.814E-02    0.480E-02
RMM:   3    -0.158383679458E+02    0.36812E-04   -0.31889E-05   334   0.330E-02    0.168E-02
RMM:   4    -0.158383661009E+02    0.18450E-05   -0.89836E-06   210   0.168E-02
   5 F= -.15838366E+02 E0= -.15831657E+02  d E =-.334782E-02
       N       E                     dE             d eps       ncg     rms          rms(c)
DAV:   1    -0.158411899550E+02   -0.28220E-02   -0.74442E-02   336   0.182E+00    0.348E-01
RMM:   2    -0.158384535987E+02    0.27364E-02   -0.24213E-03   336   0.336E-01    0.866E-02
RMM:   3    -0.158383831462E+02    0.70452E-04   -0.20719E-04   336   0.973E-02    0.383E-02
RMM:   4    -0.158383796889E+02    0.34573E-05   -0.39430E-05   333   0.397E-02
   6 F= -.15838380E+02 E0= -.15831647E+02  d E =-.135880E-04
       N       E                     dE             d eps       ncg     rms          rms(c)
DAV:   1    -0.158389979976E+02   -0.61485E-03   -0.15092E-02   392   0.818E-01    0.157E-01
RMM:   2    -0.158384476828E+02    0.55031E-03   -0.46058E-04   336   0.145E-01    0.405E-02
RMM:   3    -0.158384312376E+02    0.16445E-04   -0.40491E-05   331   0.428E-02    0.176E-02
RMM:   4    -0.158384294295E+02    0.18081E-05   -0.88012E-06   213   0.184E-02
   7 F= -.15838429E+02 E0= -.15831709E+02  d E =-.633286E-04
