 vasp.6.4.3 19Mar24 (build Sep 18 2024 11:30:23) complex                        
  
 executed on             LinuxIFC date 2026.07.07  16:47:12
 running   28 mpi-ranks, on    1 nodes
 distrk:  each k-point on   28 cores,    1 groups
 distr:  one band on NCORE=   1 cores,   28 groups


--------------------------------------------------------------------------------------------------------


 INCAR:
   SYSTEM = HECN
   ISTART = 0
   ICHARG = 2
   PREC = Normal
   LREAL = .F.
   IBRION = 2
   ISIF = 3
   NSW = 100
   POTIM = 0.5
   EDIFFG = -0.01
   ENCUT = 400
   NELM = 60
   EDIFF = 1E-5
   LCHARG = .F.
   LWAVE = .F.
   ISMEAR = 0
   SIGMA = 0.1
   ALGO = Fast

 POTCAR:   PAW_PBE Ti_pv 07Sep2000                
 -----------------------------------------------------------------------------
|                                                                             |
|           W    W    AA    RRRRR   N    N  II  N    N   GGGG   !!!           |
|           W    W   A  A   R    R  NN   N  II  NN   N  G    G  !!!           |
|           W    W  A    A  R    R  N N  N  II  N N  N  G       !!!           |
|           W WW W  AAAAAA  RRRRR   N  N N  II  N  N N  G  GGG   !            |
|           WW  WW  A    A  R   R   N   NN  II  N   NN  G    G                |
|           W    W  A    A  R    R  N    N  II  N    N   GGGG   !!!           |
|                                                                             |
|     For optimal performance we recommend to set                             |
|       NCORE = 2 up to number-of-cores-per-socket                            |
|     NCORE specifies how many cores store one orbital (NPAR=cpu/NCORE).      |
|     This setting can greatly improve the performance of VASP for DFT.       |
|     The default, NCORE=1 might be grossly inefficient on modern             |
|     multi-core architectures or massively parallel machines. Do your        |
|     own testing! More info at https://www.vasp.at/wiki/index.php/NCORE      |
|     Unfortunately you need to use the default for GW and RPA                |
|     calculations (for HF NCORE is supported but not extensively tested      |
|     yet).                                                                   |
|                                                                             |
 -----------------------------------------------------------------------------

 POTCAR:   PAW_PBE Ti_pv 07Sep2000                
   VRHFIN =Ti: d3 s1                                                                                
   LEXCH  = PE                                                                                      
   EATOM  =  1042.3781 eV,   76.6126 Ry                                                             
                                                                                                    
   TITEL  = PAW_PBE Ti_pv 07Sep2000                                                                 
   LULTRA =        F    use ultrasoft PP ?                                                          
   IUNSCR =        1    unscreen: 0-lin 1-nonlin 2-no                                               
   RPACOR =    2.200    partial core radius                                                         
   POMASS =   47.880; ZVAL   =   10.000    mass and valenz                                          
   RCORE  =    2.500    outmost cutoff radius                                                       
   RWIGS  =    2.500; RWIGS  =    1.323    wigner-seitz radius (au A)                               
   ENMAX  =  222.338; ENMIN  =  166.753 eV                                                          
   RCLOC  =    1.701    cutoff for local pot                                                        
   LCOR   =        T    correct aug charges                                                         
   LPAW   =        T    paw PP                                                                      
   EAUG   =  482.848                                                                                
   DEXC   =    -.008                                                                                
   RMAX   =    3.092    core radius for proj-oper                                                   
   RAUG   =    1.300    factor for augmentation sphere                                              
   RDEP   =    2.538    radius for radial grids                                                     
   QCUT   =   -4.042; QGAM   =    8.085    optimization parameters                                  
                                                                                                    
   Description                                                                                      
     l     E      TYP  RCUT    TYP  RCUT                                                            
     1   .000     23  2.300                                                                         
     1  -.100     23  2.300                                                                         
     2   .000     23  2.500                                                                         
     2   .000     23  2.500                                                                         
     0   .000     23  2.500                                                                         
     0  1.500     23  2.500                                                                         
     3   .000      7   .000                                                                         
  local pseudopotential read in
  partial core-charges read in
  atomic valenz-charges read in
  non local Contribution for L=           1  read in
    real space projection operators read in
  non local Contribution for L=           1  read in
    real space projection operators read in
  non local Contribution for L=           2  read in
    real space projection operators read in
  non local Contribution for L=           2  read in
    real space projection operators read in
  non local Contribution for L=           0  read in
    real space projection operators read in
  non local Contribution for L=           0  read in
    real space projection operators read in
    PAW grid and wavefunctions read in
 
   number of l-projection  operators is LMAX  =           6
   number of lm-projection operators is LMMAX =          18
 
 PAW_PBE Ti_pv 07Sep2000                :
 energy of atom  1       EATOM=-1042.3781
 kinetic energy error for atom=    0.0037 (will be added to EATOM!!)
 
 
 POSCAR: Ti
  positions in direct lattice
  No initial velocities read in


 exchange-correlation table for PE
   RHO(1)=    0.500       N(1)  =     2000
   RHO(2)=  100.500       N(2)  =     4000
 


--------------------------------------------------------------------------------------------------------


 ion  position               nearest neighbor table
   1  0.333  0.667  0.250-   2 2.89   2 2.89   2 2.89   2 2.89   2 2.89   2 2.89
   2  0.667  0.333  0.750-   1 2.89   1 2.89   1 2.89   1 2.89   1 2.89   1 2.89
 
  LATTYP: Found a hexagonal cell.
 ALAT       =     2.9505999088
 C/A-ratio  =     1.5857114657
  
  Lattice vectors:
  
 A1 = (   2.9505999088,   0.0000000000,   0.0000000000)
 A2 = (  -1.4752999544,   2.5552944774,   0.0000000000)
 A3 = (   0.0000000000,   0.0000000000,   4.6788001060)


Analysis of symmetry for initial positions (statically):
=====================================================================
 Subroutine PRICEL returns:
 Original cell was already a primitive cell.
 

 Routine SETGRP: Setting up the symmetry group for a 
 hexagonal supercell.


 Subroutine GETGRP returns: Found 24 space group operations
 (whereof 12 operations were pure point group operations)
 out of a pool of 24 trial point group operations.


The static configuration has the point symmetry D_3d.
 The point group associated with its full space group is D_6h.


Analysis of symmetry for dynamics (positions and initial velocities):
=====================================================================
 Subroutine PRICEL returns:
 Original cell was already a primitive cell.
 

 Routine SETGRP: Setting up the symmetry group for a 
 hexagonal supercell.


 Subroutine GETGRP returns: Found 24 space group operations
 (whereof 12 operations were pure point group operations)
 out of a pool of 24 trial point group operations.


The dynamic configuration has the point symmetry D_3d.
 The point group associated with its full space group is D_6h.


 Subroutine INISYM returns: Found 24 space group operations
 (whereof 12 operations are pure point group operations),
 and found     1 'primitive' translations


----------------------------------------------------------------------------------------

                                     Primitive cell                                     

  volume of cell :      35.2765

  direct lattice vectors                    reciprocal lattice vectors
     2.950599909  0.000000000  0.000000000     0.338914130  0.195672164  0.000000000
    -1.475299954  2.555294477  0.000000000     0.000000000  0.391344328  0.000000000
     0.000000000  0.000000000  4.678800106     0.000000000  0.000000000  0.213730011

  length of vectors
     2.950599909  2.950599909  4.678800106     0.391344328  0.391344328  0.213730011

  position of ions in fractional coordinates (direct lattice)
     0.333333343  0.666666687  0.250000000
     0.666666657  0.333333313  0.750000000

  ion indices of the primitive-cell ions
   primitive index   ion index
                 1           1
                 2           2

----------------------------------------------------------------------------------------

 
 
 KPOINTS: HECN                                    

Automatic generation of k-mesh.
 Grid dimensions read from file:
 generate k-points for:    3    3    3

 Generating k-lattice:

  Cartesian coordinates                     Fractional coordinates (reciprocal lattice)
     0.112971377  0.065224055  0.000000000     0.333333333 -0.000000000  0.000000000
     0.000000000  0.130448109  0.000000000     0.000000000  0.333333333  0.000000000
     0.000000000  0.000000000  0.071243337     0.000000000  0.000000000  0.333333333

  Length of vectors
     0.130448109  0.130448109  0.071243337

  Shift w.r.t. Gamma in fractional coordinates (k-lattice)
     0.000000000  0.000000000  0.000000000

 
 Subroutine IBZKPT returns following result:
 ===========================================
 
 Found      6 irreducible k-points:
 
 Following reciprocal coordinates:
            Coordinates               Weight
  0.000000  0.000000  0.000000      1.000000
  0.333333 -0.000000  0.000000      6.000000
  0.333333  0.333333  0.000000      2.000000
  0.000000  0.000000  0.333333      2.000000
  0.333333 -0.000000  0.333333     12.000000
  0.333333  0.333333  0.333333      4.000000
 
 Following cartesian coordinates:
            Coordinates               Weight
  0.000000  0.000000  0.000000      1.000000
  0.112971  0.065224  0.000000      6.000000
  0.112971  0.195672  0.000000      2.000000
  0.000000  0.000000  0.071243      2.000000
  0.112971  0.065224  0.071243     12.000000
  0.112971  0.195672  0.071243      4.000000
 


--------------------------------------------------------------------------------------------------------




 Dimension of arrays:
   k-points           NKPTS =      6   k-points in BZ     NKDIM =      6   number of bands    NBANDS=     28
   number of dos      NEDOS =    301   number of ions     NIONS =      2
   non local maximal  LDIM  =      6   non local SUM 2l+1 LMDIM =     18
   total plane-waves  NPLWV =   4704
   max r-space proj   IRMAX =      1   max aug-charges    IRDMAX=   5376
   dimension x,y,z NGX =    14 NGY =   14 NGZ =   24
   dimension x,y,z NGXF=    28 NGYF=   28 NGZF=   48
   support grid    NGXF=    28 NGYF=   28 NGZF=   48
   ions per type =               2
   NGX,Y,Z   is equivalent  to a cutoff of   7.89,  7.89,  8.53 a.u.
   NGXF,Y,Z  is equivalent  to a cutoff of  15.78, 15.78, 17.06 a.u.

 SYSTEM =  HECN                                    
 POSCAR =  Ti                                      

 Startparameter for this run:
   NWRITE =      2    write-flag & timer
   PREC   = normal    normal or accurate (medium, high low for compatibility)
   ISTART =      0    job   : 0-new  1-cont  2-samecut
   ICHARG =      2    charge: 1-file 2-atom 10-const
   ISPIN  =      1    spin polarized calculation?
   LNONCOLLINEAR =      F non collinear calculations
   LSORBIT =      F    spin-orbit coupling
   INIWAV =      1    electr: 0-lowe 1-rand  2-diag
   LASPH  =      F    aspherical Exc in radial PAW
 Electronic Relaxation 1
   ENCUT  =  400.0 eV  29.40 Ry    5.42 a.u.   4.81  4.81  7.63*2*pi/ulx,y,z
   ENINI  =  400.0     initial cutoff
   ENAUG  =  482.8 eV  augmentation charge cutoff
   NELM   =     60;   NELMIN=  2; NELMDL= -5     # of ELM steps 
   EDIFF  = 0.1E-04   stopping-criterion for ELM
   LREAL  =      F    real-space projection
   NLSPLINE    = F    spline interpolate recip. space projectors
   LCOMPAT=      F    compatible to vasp.4.4
   GGA_COMPAT  = T    GGA compatible to vasp.4.4-vasp.4.6
   LMAXPAW     = -100 max onsite density
   LMAXMIX     =    2 max onsite mixed and CHGCAR
   VOSKOWN=      0    Vosko Wilk Nusair interpolation
   ROPT   =    0.00000
 Ionic relaxation
   EDIFFG = -.1E-01   stopping-criterion for IOM
   NSW    =    100    number of steps for IOM
   NBLOCK =      1;   KBLOCK =    100    inner block; outer block 
   IBRION =      2    ionic relax: 0-MD 1-quasi-New 2-CG
   NFREE  =      1    steps in history (QN), initial steepest desc. (CG)
   ISIF   =      3    stress and relaxation
   IWAVPR =     11    prediction:  0-non 1-charg 2-wave 3-comb
   ISYM   =      2    0-nonsym 1-usesym 2-fastsym
   LCORR  =      T    Harris-Foulkes like correction to forces

   POTIM  = 0.5000    time-step for ionic-motion
   TEIN   =    0.0    initial temperature
   TEBEG  =    0.0;   TEEND  =   0.0 temperature during run
   SMASS  =  -3.00    Nose mass-parameter (am)
   estimated Nose-frequenzy (Omega)   =  0.10E-29 period in steps = 0.13E+47 mass=  -0.199E-27a.u.
   SCALEE = 1.0000    scale energy and forces
   NPACO  =    256;   APACO  = 10.0  distance and # of slots for P.C.
   PSTRESS=    0.0 pullay stress

  Mass of Ions in am
   POMASS =  47.88
  Ionic Valenz
   ZVAL   =  10.00
  Atomic Wigner-Seitz radii
   RWIGS  =  -1.00
  virtual crystal weights 
   VCA    =   1.00
   NELECT =      20.0000    total number of electrons
   NUPDOWN=      -1.0000    fix difference up-down

 DOS related values:
   EMIN   =  10.00;   EMAX   =-10.00  energy-range for DOS
   EFERMI =   0.00;   METHOD = LEGACY      
   ISMEAR =     0;   SIGMA  =   0.10  broadening in eV -4-tet -1-fermi 0-gaus

 Electronic relaxation 2 (details)
   IALGO  =     68    algorithm
   LDIAG  =      T    sub-space diagonalisation (order eigenvalues)
   LSUBROT=      F    optimize rotation matrix (better conditioning)
   TURBO    =      0    0=normal 1=particle mesh
   IRESTART =      0    0=no restart 2=restart with 2 vectors
   NREBOOT  =      0    no. of reboots
   NMIN     =      0    reboot dimension
   EREF     =   0.00    reference energy to select bands
   IMIX   =      4    mixing-type and parameters
     AMIX     =   0.40;   BMIX     =  1.00
     AMIX_MAG =   1.60;   BMIX_MAG =  1.00
     AMIN     =   0.10
     WC   =   100.;   INIMIX=   1;  MIXPRE=   1;  MAXMIX= -45

 Intra band minimization:
   WEIMIN = 0.0010     energy-eigenvalue tresh-hold
   EBREAK =  0.89E-07  absolut break condition
   DEPER  =   0.30     relativ break condition  

   TIME   =   0.40     timestep for ELM

  volume/ion in A,a.u.               =      17.64       119.03
  Fermi-wavevector in a.u.,A,eV,Ry     =   1.354949  2.560482 24.978751  1.835886
  Thomas-Fermi vector in A             =   2.482078
 
 Write flags
   LWAVE        =      F    write WAVECAR
   LDOWNSAMPLE  =      F    k-point downsampling of WAVECAR
   LCHARG       =      F    write CHGCAR
   LVTOT        =      F    write LOCPOT, total local potential
   LVHAR        =      F    write LOCPOT, Hartree potential only
   WRT_POTENTIAL= false  ! write potential to hdf5 file
   LELF         =      F    write electronic localiz. function (ELF)
   LORBIT       =      0    0 simple, 1 ext, 2 COOP (PROOUT), +10 PAW based schemes


 Dipole corrections
   LMONO      =      F    monopole corrections only (constant potential shift)
   LDIPOL     =      F    correct potential (dipole corrections)
   IDIPOL     =      0    1-x, 2-y, 3-z, 4-all directions 
   EPSILON    =  1.0000000 bulk dielectric constant
   LVACPOTAV  =      F  vacuum potentials using an averaging scheme for the charge density
   VACPOTFLAT =  0.1000000 required flatness to determine vacuum potential
 Exchange correlation treatment:
   GGA     = PE    functional components
   XC_C    = 1    coefficients multiplying the functional components
   LIBXC   =     F    Libxc                    
   VOSKOWN =     0    Vosko Wilk Nusair interpolation
   LHFCALC =     F    Hartree Fock is set to
   LHFONE  =     F    Hartree Fock one center treatment
   AEXX    =    0.0000 exact exchange contribution

 Parameters of functionals:
   PE:
     No parameter
 
 Van der Waals corrections
   IVDW    =     0    specifies the selected vdW correction

 Linear response parameters
   LEPSILON=     F    determine dielectric tensor
   LRPA    =     F    only Hartree local field effects (RPA)
   LNABLA  =     F    use nabla operator in PAW spheres
   LVEL    =     F    velocity operator in full k-point grid
   CSHIFT  =0.1000    complex shift for real part using Kramers Kronig
   OMEGAMAX=  -1.0    maximum frequency
   DEG_THRESHOLD= 0.2000000E-02 threshold for treating states as degnerate
   RTIME   =   -0.100 relaxation time in fs
  (WPLASMAI=    0.000 imaginary part of plasma frequency in eV, 0.658/RTIME)
   DFIELD  = 0.0000000 0.0000000 0.0000000 field for delta impulse in time
 
  Optional k-point grid parameters
   LKPOINTS_OPT  =     F    use optional k-point grid
   KPOINTS_OPT_MODE=     1    mode for optional k-point grid
 
 Orbital magnetization related:
   ORBITALMAG=     F  switch on orbital magnetization
   LCHIMAG   =     F  perturbation theory with respect to B field
   DQ        =  0.001000  dq finite difference perturbation B field
   LLRAUG    =     F  two centre corrections for induced B field
   LBONE     =     F  B-component reconstruction in AE one-centre
   LVGVCALC  =     T  calculate vGv susceptibility
   LVGVAPPL  =     F  apply vGv susceptibility instead of pGv for G=0

 Random number generation:
   RANDOM_GENERATOR = DEFAULT
   PCG_SEED         = not used


--------------------------------------------------------------------------------------------------------


 conjugate gradient relaxation of ions
 charge density and potential will be updated during run
 non-spin polarized calculation
 RMM-DIIS sequential band-by-band and
  variant of blocked Davidson during initial phase
 perform sub-space diagonalisation
    before iterative eigenvector-optimisation
 modified Broyden-mixing scheme, WC =      100.0
 initial mixing is a Kerker type mixing with AMIX =  0.4000 and BMIX =      1.0000
 Hartree-type preconditioning will be used
 using additional bands           18
 reciprocal scheme for non local part
 use partial core corrections
 calculate Harris-corrections to forces 
   (improved forces if not selfconsistent)
 use gradient corrections 
 use of overlap-Matrix (Vanderbilt PP)
 Gauss-broadening in eV      SIGMA  =   0.10


--------------------------------------------------------------------------------------------------------


  energy-cutoff  :      400.00
  volume of cell :       35.28
      direct lattice vectors                 reciprocal lattice vectors
     2.950599909  0.000000000  0.000000000     0.338914130  0.195672164  0.000000000
    -1.475299954  2.555294477  0.000000000     0.000000000  0.391344328  0.000000000
     0.000000000  0.000000000  4.678800106     0.000000000  0.000000000  0.213730011

  length of vectors
     2.950599909  2.950599909  4.678800106     0.391344328  0.391344328  0.213730011


 
 k-points in units of 2pi/SCALE and weight: HECN                                    
   0.00000000  0.00000000  0.00000000       0.037
   0.11297138  0.06522405  0.00000000       0.222
   0.11297138  0.19567216  0.00000000       0.074
   0.00000000  0.00000000  0.07124334       0.074
   0.11297138  0.06522405  0.07124334       0.444
   0.11297138  0.19567216  0.07124334       0.148
 
 k-points in reciprocal lattice and weights: HECN                                    
   0.00000000  0.00000000  0.00000000       0.037
   0.33333333 -0.00000000  0.00000000       0.222
   0.33333333  0.33333333  0.00000000       0.074
   0.00000000  0.00000000  0.33333333       0.074
   0.33333333 -0.00000000  0.33333333       0.444
   0.33333333  0.33333333  0.33333333       0.148
 
 position of ions in fractional coordinates (direct lattice) 
   0.33333334  0.66666669  0.25000000
   0.66666666  0.33333331  0.75000000
 
 position of ions in cartesian coordinates  (Angst):
  -0.00000000  1.70352970  1.16970003
   1.47529996  0.85176477  3.50910008
 


--------------------------------------------------------------------------------------------------------


 k-point     1 :   0.0000 0.0000 0.0000  plane waves:     627
 k-point     2 :   0.3333-0.0000 0.0000  plane waves:     632
 k-point     3 :   0.3333 0.3333 0.0000  plane waves:     657
 k-point     4 :   0.0000 0.0000 0.3333  plane waves:     645
 k-point     5 :   0.3333-0.0000 0.3333  plane waves:     638
 k-point     6 :   0.3333 0.3333 0.3333  plane waves:     633

 maximum and minimum number of plane-waves per node :       657      627

 maximum number of plane-waves:       657
 maximum index in each direction: 
   IXMAX=    4   IYMAX=    4   IZMAX=    7
   IXMIN=   -5   IYMIN=   -5   IZMIN=   -7


 serial   3D FFT for wavefunctions
 parallel 3D FFT for charge:
    minimum data exchange during FFTs selected (reduces bandwidth)


 total amount of memory used by VASP MPI-rank0    31034. kBytes
=======================================================================

   base      :      30000. kBytes
   nonl-proj :        602. kBytes
   fftplans  :         75. kBytes
   grid      :        257. kBytes
   one-center:         31. kBytes
   wavefun   :         69. kBytes
 
     INWAV:  cpu time      0.0000: real time      0.0000
 Broyden mixing: mesh for mixing (old mesh)
   NGX =  9   NGY =  9   NGZ = 15
  (NGX  = 28   NGY  = 28   NGZ  = 48)
  gives a total of   1215 points

 initial charge density was supplied:
 charge density of overlapping atoms calculated
 number of electron      20.0000000 magnetization 
 keeping initial charge density in first step


--------------------------------------------------------------------------------------------------------


 Maximum index for augmentation-charges          111 (set IRDMAX)


--------------------------------------------------------------------------------------------------------


 First call to EWALD:  gamma=   0.540
 Maximum number of real-space cells 3x 3x 2
 Maximum number of reciprocal cells 3x 3x 4

    FEWALD:  cpu time      0.0031: real time      0.0031


--------------------------------------- Ionic step        1  -------------------------------------------




--------------------------------------- Iteration      1(   1)  ---------------------------------------


    POTLOK:  cpu time      0.0152: real time      0.0270
    SETDIJ:  cpu time      0.0061: real time      0.0084
     EDDAV:  cpu time      0.0546: real time      0.0668
       DOS:  cpu time      0.0013: real time      0.0039
    --------------------------------------------
      LOOP:  cpu time      0.0771: real time      0.1061

 eigenvalue-minimisations  :   336
 total energy-change (2. order) : 0.1307224E+02  (-0.1169997E+04)
 number of electron      20.0000000 magnetization 
 augmentation part       20.0000000 magnetization 

 Free energy of the ion-electron system (eV)
  ---------------------------------------------------
  alpha Z        PSCENC =       123.64294538
  Ewald energy   TEWEN  =     -1597.48447671
  -Hartree energ DENC   =      -447.71307064
  -exchange      EXHF   =         0.00000000
  -V(xc)+E(xc)   XCENC  =        71.73571099
  PAW double counting   =      1428.40628957    -1426.98428199
  entropy T*S    EENTRO =        -0.00665683
  eigenvalues    EBANDS =      -223.27304029
  atomic energy  EATOM  =      2084.74881817
  Solvation  Ediel_sol  =         0.00000000
  ---------------------------------------------------
  free energy    TOTEN  =        13.07223763 eV

  energy without entropy =       13.07889446  energy(sigma->0) =       13.07556605


--------------------------------------------------------------------------------------------------------




--------------------------------------- Iteration      1(   2)  ---------------------------------------


     EDDAV:  cpu time      0.0731: real time      0.3855
       DOS:  cpu time      0.0003: real time      0.0003
    --------------------------------------------
      LOOP:  cpu time      0.0734: real time      0.3859

 eigenvalue-minimisations  :   336
 total energy-change (2. order) :-0.3106481E+02  (-0.3103142E+02)
 number of electron      20.0000000 magnetization 
 augmentation part       20.0000000 magnetization 

 Free energy of the ion-electron system (eV)
  ---------------------------------------------------
  alpha Z        PSCENC =       123.64294538
  Ewald energy   TEWEN  =     -1597.48447671
  -Hartree energ DENC   =      -447.71307064
  -exchange      EXHF   =         0.00000000
  -V(xc)+E(xc)   XCENC  =        71.73571099
  PAW double counting   =      1428.40628957    -1426.98428199
  entropy T*S    EENTRO =        -0.02196383
  eigenvalues    EBANDS =      -254.32254707
  atomic energy  EATOM  =      2084.74881817
  Solvation  Ediel_sol  =         0.00000000
  ---------------------------------------------------
  free energy    TOTEN  =       -17.99257615 eV

  energy without entropy =      -17.97061232  energy(sigma->0) =      -17.98159423


--------------------------------------------------------------------------------------------------------




--------------------------------------- Iteration      1(   3)  ---------------------------------------


     EDDAV:  cpu time      0.0533: real time      0.0548
       DOS:  cpu time      0.0003: real time      0.0003
    --------------------------------------------
      LOOP:  cpu time      0.0536: real time      0.0551

 eigenvalue-minimisations  :   420
 total energy-change (2. order) :-0.1208598E+00  (-0.1207444E+00)
 number of electron      20.0000000 magnetization 
 augmentation part       20.0000000 magnetization 

 Free energy of the ion-electron system (eV)
  ---------------------------------------------------
  alpha Z        PSCENC =       123.64294538
  Ewald energy   TEWEN  =     -1597.48447671
  -Hartree energ DENC   =      -447.71307064
  -exchange      EXHF   =         0.00000000
  -V(xc)+E(xc)   XCENC  =        71.73571099
  PAW double counting   =      1428.40628957    -1426.98428199
  entropy T*S    EENTRO =        -0.02232913
  eigenvalues    EBANDS =      -254.44304158
  atomic energy  EATOM  =      2084.74881817
  Solvation  Ediel_sol  =         0.00000000
  ---------------------------------------------------
  free energy    TOTEN  =       -18.11343596 eV

  energy without entropy =      -18.09110683  energy(sigma->0) =      -18.10227139


--------------------------------------------------------------------------------------------------------




--------------------------------------- Iteration      1(   4)  ---------------------------------------


     EDDAV:  cpu time      0.0734: real time      0.0744
       DOS:  cpu time      0.0003: real time      0.0003
    --------------------------------------------
      LOOP:  cpu time      0.0737: real time      0.0748

 eigenvalue-minimisations  :   532
 total energy-change (2. order) :-0.2494419E-03  (-0.2494257E-03)
 number of electron      20.0000000 magnetization 
 augmentation part       20.0000000 magnetization 

 Free energy of the ion-electron system (eV)
  ---------------------------------------------------
  alpha Z        PSCENC =       123.64294538
  Ewald energy   TEWEN  =     -1597.48447671
  -Hartree energ DENC   =      -447.71307064
  -exchange      EXHF   =         0.00000000
  -V(xc)+E(xc)   XCENC  =        71.73571099
  PAW double counting   =      1428.40628957    -1426.98428199
  entropy T*S    EENTRO =        -0.02233100
  eigenvalues    EBANDS =      -254.44328915
  atomic energy  EATOM  =      2084.74881817
  Solvation  Ediel_sol  =         0.00000000
  ---------------------------------------------------
  free energy    TOTEN  =       -18.11368540 eV

  energy without entropy =      -18.09135440  energy(sigma->0) =      -18.10251990


--------------------------------------------------------------------------------------------------------




--------------------------------------- Iteration      1(   5)  ---------------------------------------


     EDDAV:  cpu time      0.0600: real time      0.0614
       DOS:  cpu time      0.0003: real time      0.0003
    CHARGE:  cpu time      0.0020: real time      0.0071
    MIXING:  cpu time      0.0015: real time      0.0064
    --------------------------------------------
      LOOP:  cpu time      0.0638: real time      0.0752

 eigenvalue-minimisations  :   448
 total energy-change (2. order) :-0.4157528E-07  (-0.4153628E-07)
 number of electron      19.9999923 magnetization 
 augmentation part        8.7199469 magnetization 

 Broyden mixing:
  rms(total) = 0.85218E+00    rms(broyden)= 0.85214E+00
  rms(prec ) = 0.19146E+01
  weight for this iteration     100.00

 Free energy of the ion-electron system (eV)
  ---------------------------------------------------
  alpha Z        PSCENC =       123.64294538
  Ewald energy   TEWEN  =     -1597.48447671
  -Hartree energ DENC   =      -447.71307064
  -exchange      EXHF   =         0.00000000
  -V(xc)+E(xc)   XCENC  =        71.73571099
  PAW double counting   =      1428.40628957    -1426.98428199
  entropy T*S    EENTRO =        -0.02233100
  eigenvalues    EBANDS =      -254.44328919
  atomic energy  EATOM  =      2084.74881817
  Solvation  Ediel_sol  =         0.00000000
  ---------------------------------------------------
  free energy    TOTEN  =       -18.11368544 eV

  energy without entropy =      -18.09135444  energy(sigma->0) =      -18.10251994


--------------------------------------------------------------------------------------------------------




--------------------------------------- Iteration      1(   6)  ---------------------------------------


    POTLOK:  cpu time      0.0020: real time      0.0022
    SETDIJ:  cpu time      0.0015: real time      0.0015
    EDDIAG:  cpu time      0.0214: real time      0.0285
  RMM-DIIS:  cpu time      0.0035: real time      0.0060
    ORTHCH:  cpu time      0.0015: real time      0.0015
       DOS:  cpu time      0.0003: real time      0.0003
    CHARGE:  cpu time      0.0014: real time      0.0014
    MIXING:  cpu time      0.0006: real time      0.0013
    --------------------------------------------
      LOOP:  cpu time      0.0321: real time      0.0425

 eigenvalue-minimisations  :   336
 total energy-change (2. order) : 0.2174513E+01  (-0.1678796E+00)
 number of electron      19.9999919 magnetization 
 augmentation part        9.2862307 magnetization 

 Broyden mixing:
  rms(total) = 0.19095E+00    rms(broyden)= 0.19094E+00
  rms(prec ) = 0.43851E+00
  weight for this iteration     100.00

 eigenvalues of (default mixing * dielectric matrix)
  average eigenvalue GAMMA=   1.2114
  1.2114

 Free energy of the ion-electron system (eV)
  ---------------------------------------------------
  alpha Z        PSCENC =       123.64294538
  Ewald energy   TEWEN  =     -1597.48447671
  -Hartree energ DENC   =      -407.53942154
  -exchange      EXHF   =         0.00000000
  -V(xc)+E(xc)   XCENC  =        69.61204972
  PAW double counting   =      1380.83498148    -1383.18347109
  entropy T*S    EENTRO =        -0.01848309
  eigenvalues    EBANDS =      -286.55211482
  atomic energy  EATOM  =      2084.74881817
  Solvation  Ediel_sol  =         0.00000000
  ---------------------------------------------------
  free energy    TOTEN  =       -15.93917250 eV

  energy without entropy =      -15.92068941  energy(sigma->0) =      -15.92993095


--------------------------------------------------------------------------------------------------------




--------------------------------------- Iteration      1(   7)  ---------------------------------------


    POTLOK:  cpu time      0.0025: real time      0.0025
    SETDIJ:  cpu time      0.0013: real time      0.0013
    EDDIAG:  cpu time      0.0124: real time      0.0125
  RMM-DIIS:  cpu time      0.0022: real time      0.0022
    ORTHCH:  cpu time      0.0014: real time      0.0014
       DOS:  cpu time      0.0003: real time      0.0003
    CHARGE:  cpu time      0.0012: real time      0.0012
    MIXING:  cpu time      0.0003: real time      0.0003
    --------------------------------------------
      LOOP:  cpu time      0.0216: real time      0.0216

 eigenvalue-minimisations  :   336
 total energy-change (2. order) : 0.1065007E+00  (-0.2024686E-01)
 number of electron      19.9999918 magnetization 
 augmentation part        9.4244535 magnetization 

 Broyden mixing:
  rms(total) = 0.76050E-01    rms(broyden)= 0.76038E-01
  rms(prec ) = 0.12985E+00
  weight for this iteration     100.00

 eigenvalues of (default mixing * dielectric matrix)
  average eigenvalue GAMMA=   1.9970
  1.2333  2.7608

 Free energy of the ion-electron system (eV)
  ---------------------------------------------------
  alpha Z        PSCENC =       123.64294538
  Ewald energy   TEWEN  =     -1597.48447671
  -Hartree energ DENC   =      -397.67656766
  -exchange      EXHF   =         0.00000000
  -V(xc)+E(xc)   XCENC  =        69.13135133
  PAW double counting   =      1389.31960661    -1393.50073975
  entropy T*S    EENTRO =        -0.01771382
  eigenvalues    EBANDS =      -293.99589529
  atomic energy  EATOM  =      2084.74881817
  Solvation  Ediel_sol  =         0.00000000
  ---------------------------------------------------
  free energy    TOTEN  =       -15.83267175 eV

  energy without entropy =      -15.81495793  energy(sigma->0) =      -15.82381484


--------------------------------------------------------------------------------------------------------




--------------------------------------- Iteration      1(   8)  ---------------------------------------


    POTLOK:  cpu time      0.0061: real time      0.0063
    SETDIJ:  cpu time      0.0011: real time      0.0011
    EDDIAG:  cpu time      0.0114: real time      0.0115
  RMM-DIIS:  cpu time      0.0022: real time      0.0022
    ORTHCH:  cpu time      0.0014: real time      0.0014
       DOS:  cpu time      0.0002: real time      0.0002
    CHARGE:  cpu time      0.0011: real time      0.0011
    MIXING:  cpu time      0.0002: real time      0.0002
    --------------------------------------------
      LOOP:  cpu time      0.0238: real time      0.0241

 eigenvalue-minimisations  :   336
 total energy-change (2. order) : 0.1131540E-01  (-0.1993771E-02)
 number of electron      19.9999918 magnetization 
 augmentation part        9.4068057 magnetization 

 Broyden mixing:
  rms(total) = 0.13096E-01    rms(broyden)= 0.13094E-01
  rms(prec ) = 0.25418E-01
  weight for this iteration     100.00

 eigenvalues of (default mixing * dielectric matrix)
  average eigenvalue GAMMA=   1.6357
  1.1954  1.1954  2.5165

 Free energy of the ion-electron system (eV)
  ---------------------------------------------------
  alpha Z        PSCENC =       123.64294538
  Ewald energy   TEWEN  =     -1597.48447671
  -Hartree energ DENC   =      -396.68961559
  -exchange      EXHF   =         0.00000000
  -V(xc)+E(xc)   XCENC  =        69.15645665
  PAW double counting   =      1419.94302660    -1425.72278918
  entropy T*S    EENTRO =        -0.01806729
  eigenvalues    EBANDS =      -293.39765436
  atomic energy  EATOM  =      2084.74881817
  Solvation  Ediel_sol  =         0.00000000
  ---------------------------------------------------
  free energy    TOTEN  =       -15.82135635 eV

  energy without entropy =      -15.80328906  energy(sigma->0) =      -15.81232270


--------------------------------------------------------------------------------------------------------




--------------------------------------- Iteration      1(   9)  ---------------------------------------


    POTLOK:  cpu time      0.0017: real time      0.0019
    SETDIJ:  cpu time      0.0011: real time      0.0011
    EDDIAG:  cpu time      0.0111: real time      0.0112
  RMM-DIIS:  cpu time      0.0026: real time      0.0030
    ORTHCH:  cpu time      0.0014: real time      0.0014
       DOS:  cpu time      0.0003: real time      0.0003
    CHARGE:  cpu time      0.0011: real time      0.0011
    MIXING:  cpu time      0.0002: real time      0.0002
    --------------------------------------------
      LOOP:  cpu time      0.0196: real time      0.0203

 eigenvalue-minimisations  :   341
 total energy-change (2. order) : 0.1495264E-03  (-0.5892779E-03)
 number of electron      19.9999918 magnetization 
 augmentation part        9.4251680 magnetization 

 Broyden mixing:
  rms(total) = 0.68542E-02    rms(broyden)= 0.68504E-02
  rms(prec ) = 0.13217E-01
  weight for this iteration     100.00

 eigenvalues of (default mixing * dielectric matrix)
  average eigenvalue GAMMA=   1.5917
  2.4318  1.9055  0.8689  1.1605

 Free energy of the ion-electron system (eV)
  ---------------------------------------------------
  alpha Z        PSCENC =       123.64294538
  Ewald energy   TEWEN  =     -1597.48447671
  -Hartree energ DENC   =      -396.09882931
  -exchange      EXHF   =         0.00000000
  -V(xc)+E(xc)   XCENC  =        69.11980517
  PAW double counting   =      1417.27404815    -1422.88869611
  entropy T*S    EENTRO =        -0.01787919
  eigenvalues    EBANDS =      -294.11694237
  atomic energy  EATOM  =      2084.74881817
  Solvation  Ediel_sol  =         0.00000000
  ---------------------------------------------------
  free energy    TOTEN  =       -15.82120682 eV

  energy without entropy =      -15.80332763  energy(sigma->0) =      -15.81226723


--------------------------------------------------------------------------------------------------------




--------------------------------------- Iteration      1(  10)  ---------------------------------------


    POTLOK:  cpu time      0.0017: real time      0.0018
    SETDIJ:  cpu time      0.0011: real time      0.0011
    EDDIAG:  cpu time      0.0112: real time      0.0112
  RMM-DIIS:  cpu time      0.0028: real time      0.0028
    ORTHCH:  cpu time      0.0014: real time      0.0014
       DOS:  cpu time      0.0003: real time      0.0003
    CHARGE:  cpu time      0.0011: real time      0.0011
    MIXING:  cpu time      0.0002: real time      0.0002
    --------------------------------------------
      LOOP:  cpu time      0.0198: real time      0.0199

 eigenvalue-minimisations  :   342
 total energy-change (2. order) :-0.3140938E-04  (-0.9824507E-04)
 number of electron      19.9999918 magnetization 
 augmentation part        9.4199137 magnetization 

 Broyden mixing:
  rms(total) = 0.14623E-02    rms(broyden)= 0.14585E-02
  rms(prec ) = 0.24387E-02
  weight for this iteration     100.00

 eigenvalues of (default mixing * dielectric matrix)
  average eigenvalue GAMMA=   1.7465
  2.9502  1.8623  1.8623  1.0288  1.0288

 Free energy of the ion-electron system (eV)
  ---------------------------------------------------
  alpha Z        PSCENC =       123.64294538
  Ewald energy   TEWEN  =     -1597.48447671
  -Hartree energ DENC   =      -396.44465449
  -exchange      EXHF   =         0.00000000
  -V(xc)+E(xc)   XCENC  =        69.13855169
  PAW double counting   =      1418.41775869    -1423.92671715
  entropy T*S    EENTRO =        -0.01788281
  eigenvalues    EBANDS =      -293.89558099
  atomic energy  EATOM  =      2084.74881817
  Solvation  Ediel_sol  =         0.00000000
  ---------------------------------------------------
  free energy    TOTEN  =       -15.82123823 eV

  energy without entropy =      -15.80335543  energy(sigma->0) =      -15.81229683


--------------------------------------------------------------------------------------------------------




--------------------------------------- Iteration      1(  11)  ---------------------------------------


    POTLOK:  cpu time      0.0017: real time      0.0019
    SETDIJ:  cpu time      0.0012: real time      0.0012
    EDDIAG:  cpu time      0.0109: real time      0.0110
  RMM-DIIS:  cpu time      0.0024: real time      0.0024
    ORTHCH:  cpu time      0.0014: real time      0.0014
       DOS:  cpu time      0.0003: real time      0.0003
    CHARGE:  cpu time      0.0011: real time      0.0011
    MIXING:  cpu time      0.0002: real time      0.0002
    --------------------------------------------
      LOOP:  cpu time      0.0192: real time      0.0194

 eigenvalue-minimisations  :   338
 total energy-change (2. order) :-0.3660210E-04  (-0.2265376E-04)
 number of electron      19.9999918 magnetization 
 augmentation part        9.4234607 magnetization 

 Broyden mixing:
  rms(total) = 0.27544E-02    rms(broyden)= 0.27535E-02
  rms(prec ) = 0.59958E-02
  weight for this iteration     100.00

 eigenvalues of (default mixing * dielectric matrix)
  average eigenvalue GAMMA=   1.6429
  2.5963  2.2490  1.9062  1.2299  1.0013  0.8746

 Free energy of the ion-electron system (eV)
  ---------------------------------------------------
  alpha Z        PSCENC =       123.64294538
  Ewald energy   TEWEN  =     -1597.48447671
  -Hartree energ DENC   =      -396.30251547
  -exchange      EXHF   =         0.00000000
  -V(xc)+E(xc)   XCENC  =        69.13204135
  PAW double counting   =      1418.92924530    -1424.41187309
  entropy T*S    EENTRO =        -0.01785279
  eigenvalues    EBANDS =      -294.05760697
  atomic energy  EATOM  =      2084.74881817
  Solvation  Ediel_sol  =         0.00000000
  ---------------------------------------------------
  free energy    TOTEN  =       -15.82127484 eV

  energy without entropy =      -15.80342204  energy(sigma->0) =      -15.81234844


--------------------------------------------------------------------------------------------------------




--------------------------------------- Iteration      1(  12)  ---------------------------------------


    POTLOK:  cpu time      0.0019: real time      0.0019
    SETDIJ:  cpu time      0.0011: real time      0.0011
    EDDIAG:  cpu time      0.0112: real time      0.0112
  RMM-DIIS:  cpu time      0.0021: real time      0.0021
    ORTHCH:  cpu time      0.0014: real time      0.0014
       DOS:  cpu time      0.0003: real time      0.0003
    CHARGE:  cpu time      0.0012: real time      0.0012
    MIXING:  cpu time      0.0002: real time      0.0002
    --------------------------------------------
      LOOP:  cpu time      0.0195: real time      0.0195

 eigenvalue-minimisations  :   330
 total energy-change (2. order) : 0.1874602E-04  (-0.6430793E-05)
 number of electron      19.9999918 magnetization 
 augmentation part        9.4209826 magnetization 

 Broyden mixing:
  rms(total) = 0.17254E-03    rms(broyden)= 0.16950E-03
  rms(prec ) = 0.24128E-03
  weight for this iteration     100.00

 eigenvalues of (default mixing * dielectric matrix)
  average eigenvalue GAMMA=   1.5058
  2.5160  2.5160  1.9103  1.2506  1.0119  0.8935  0.4424

 Free energy of the ion-electron system (eV)
  ---------------------------------------------------
  alpha Z        PSCENC =       123.64294538
  Ewald energy   TEWEN  =     -1597.48447671
  -Hartree energ DENC   =      -396.43913626
  -exchange      EXHF   =         0.00000000
  -V(xc)+E(xc)   XCENC  =        69.13898839
  PAW double counting   =      1419.03976408    -1424.50467471
  entropy T*S    EENTRO =        -0.01787327
  eigenvalues    EBANDS =      -293.94561114
  atomic energy  EATOM  =      2084.74881817
  Solvation  Ediel_sol  =         0.00000000
  ---------------------------------------------------
  free energy    TOTEN  =       -15.82125609 eV

  energy without entropy =      -15.80338281  energy(sigma->0) =      -15.81231945


--------------------------------------------------------------------------------------------------------




--------------------------------------- Iteration      1(  13)  ---------------------------------------


    POTLOK:  cpu time      0.0017: real time      0.0019
    SETDIJ:  cpu time      0.0011: real time      0.0011
    EDDIAG:  cpu time      0.0108: real time      0.0108
  RMM-DIIS:  cpu time      0.0022: real time      0.0022
    ORTHCH:  cpu time      0.0015: real time      0.0015
       DOS:  cpu time      0.0003: real time      0.0003
    --------------------------------------------
      LOOP:  cpu time      0.0177: real time      0.0179

 eigenvalue-minimisations  :   264
 total energy-change (2. order) :-0.2458603E-05  (-0.2539200E-05)
 number of electron      19.9999918 magnetization 
 augmentation part        9.4209826 magnetization 

 Free energy of the ion-electron system (eV)
  ---------------------------------------------------
  alpha Z        PSCENC =       123.64294538
  Ewald energy   TEWEN  =     -1597.48447671
  -Hartree energ DENC   =      -396.44645587
  -exchange      EXHF   =         0.00000000
  -V(xc)+E(xc)   XCENC  =        69.13937723
  PAW double counting   =      1419.06850737    -1424.52997979
  entropy T*S    EENTRO =        -0.01787384
  eigenvalues    EBANDS =      -293.94212047
  atomic energy  EATOM  =      2084.74881817
  Solvation  Ediel_sol  =         0.00000000
  ---------------------------------------------------
  free energy    TOTEN  =       -15.82125855 eV

  energy without entropy =      -15.80338471  energy(sigma->0) =      -15.81232163


--------------------------------------------------------------------------------------------------------




 average (electrostatic) potential at core
  the test charge radii are     1.0397
  (the norm of the test charge is              1.0000)
       1 -51.2660       2 -51.2660
 
 
 
 E-fermi :   5.7268     XC(G=0): -11.3293     alpha+bet :-13.4789

 val. band max:        5.6910632328   @ k =   0.3333   0.3333   0.3333
 cond. band min:       5.7797891691   @ k =   0.0000   0.0000   0.3333
 fundamental gap:      0.0887259363
 Fermi energy:         5.7267841639

 k-point     1 :       0.0000    0.0000    0.0000
  band No.  band energies     occupation 
      1     -27.6643      2.00000
      2     -27.0378      2.00000
      3     -27.0378      2.00000
      4     -26.9943      2.00000
      5     -26.9423      2.00000
      6     -26.9423      2.00000
      7      -0.3337      2.00000
      8       3.1487      2.00000
      9       6.5206      0.00000
     10       6.5454      0.00000
     11       6.5454      0.00000
     12       6.6432      0.00000
     13       7.0296      0.00000
     14       7.0296      0.00000
     15       7.3674      0.00000
     16       7.3674      0.00000
     17       8.8532      0.00000
     18       8.8532      0.00000
     19      13.8990      0.00000
     20      20.4652      0.00000
     21      23.1343      0.00000
     22      23.3317      0.00000
     23      24.9390      0.00000
     24      24.9391      0.00000
     25      25.9698      0.00000
     26      25.9698      0.00000
     27      27.1372      0.00000
     28      27.1372      0.00000

 k-point     2 :       0.3333   -0.0000    0.0000
  band No.  band energies     occupation 
      1     -27.4744      2.00000
      2     -27.3743      2.00000
      3     -27.2702      2.00000
      4     -27.1412      2.00000
      5     -27.0913      2.00000
      6     -26.9925      2.00000
      7       2.2117      2.00000
      8       4.0966      2.00000
      9       4.3801      2.00000
     10       5.1936      2.00000
     11       6.4781      0.00000
     12       6.5709      0.00000
     13       6.5937      0.00000
     14       8.3183      0.00000
     15       8.3606      0.00000
     16       8.5527      0.00000
     17       9.2026      0.00000
     18      13.0903      0.00000
     19      13.4825      0.00000
     20      15.1122      0.00000
     21      18.5166      0.00000
     22      19.5012      0.00000
     23      20.7863      0.00000
     24      22.4216      0.00000
     25      23.9990      0.00000
     26      26.2728      0.00000
     27      27.4757      0.00000
     28      28.2516      0.00000

 k-point     3 :       0.3333    0.3333    0.0000
  band No.  band energies     occupation 
      1     -27.4023      2.00000
      2     -27.2985      2.00000
      3     -27.2985      2.00000
      4     -27.2594      2.00000
      5     -27.2594      2.00000
      6     -27.1862      2.00000
      7       4.1370      2.00000
      8       4.4242      2.00000
      9       4.4242      2.00000
     10       4.5062      2.00000
     11       6.0020      0.00010
     12       6.0020      0.00010
     13       7.2478      0.00000
     14       8.7671      0.00000
     15       8.7671      0.00000
     16       8.9833      0.00000
     17      11.6562      0.00000
     18      12.0541      0.00000
     19      12.0541      0.00000
     20      16.6933      0.00000
     21      17.6620      0.00000
     22      17.6620      0.00000
     23      18.3439      0.00000
     24      18.9956      0.00000
     25      18.9957      0.00000
     26      29.8819      0.00000
     27      31.8543      0.00000
     28      31.8563      0.00000

 k-point     4 :       0.0000    0.0000    0.3333
  band No.  band energies     occupation 
      1     -27.5026      2.00000
      2     -27.1678      2.00000
      3     -27.0141      2.00000
      4     -27.0140      2.00000
      5     -26.9663      2.00000
      6     -26.9663      2.00000
      7       0.5475      2.00000
      8       2.4528      2.00000
      9       5.7798      0.45349
     10       6.2060      0.00000
     11       6.3771      0.00000
     12       6.3771      0.00000
     13       6.6627      0.00000
     14       6.6627      0.00000
     15       8.0685      0.00000
     16       8.0685      0.00000
     17       8.7830      0.00000
     18       8.7830      0.00000
     19      16.6792      0.00000
     20      19.8415      0.00000
     21      21.6624      0.00000
     22      22.2575      0.00000
     23      24.8485      0.00000
     24      24.8485      0.00000
     25      25.5431      0.00000
     26      25.5431      0.00000
     27      27.7022      0.00000
     28      27.7023      0.00000

 k-point     5 :       0.3333   -0.0000    0.3333
  band No.  band energies     occupation 
      1     -27.5064      2.00000
      2     -27.4014      2.00000
      3     -27.2144      2.00000
      4     -27.1044      2.00000
      5     -27.0872      2.00000
      6     -27.0300      2.00000
      7       2.6286      2.00000
      8       3.6375      2.00000
      9       4.7168      2.00000
     10       5.3252      2.00000
     11       6.1779      0.00000
     12       6.6654      0.00000
     13       6.9119      0.00000
     14       7.9268      0.00000
     15       8.5365      0.00000
     16       8.5796      0.00000
     17       8.9509      0.00000
     18      10.1241      0.00000
     19      15.6591      0.00000
     20      16.8839      0.00000
     21      18.3383      0.00000
     22      19.9459      0.00000
     23      21.2827      0.00000
     24      22.8182      0.00000
     25      23.1574      0.00000
     26      23.9957      0.00000
     27      26.7557      0.00000
     28      30.1518      0.00000

 k-point     6 :       0.3333    0.3333    0.3333
  band No.  band energies     occupation 
      1     -27.4512      2.00000
      2     -27.4512      2.00000
      3     -27.3491      2.00000
      4     -27.2410      2.00000
      5     -27.1033      2.00000
      6     -27.1033      2.00000
      7       4.4079      2.00000
      8       4.5855      2.00000
      9       4.6386      2.00000
     10       4.6387      2.00000
     11       5.6911      1.38659
     12       5.6911      1.38656
     13       7.2165      0.00000
     14       7.9354      0.00000
     15       8.8467      0.00000
     16       8.8467      0.00000
     17      12.3019      0.00000
     18      12.3019      0.00000
     19      12.9358      0.00000
     20      14.8898      0.00000
     21      15.5621      0.00000
     22      15.5621      0.00000
     23      21.3479      0.00000
     24      22.4672      0.00000
     25      22.4672      0.00000
     26      26.3734      0.00000
     27      28.0645      0.00000
     28      28.0645      0.00000


--------------------------------------------------------------------------------------------------------


 soft charge-density along one line, spin component           1
         0         1         2         3         4         5         6         7         8         9
 total charge-density along one line
 
 pseudopotential strength for first ion, spin component:           1
-29.112   0.000   0.000  13.033  -0.000  -0.000  -0.000   0.000
  0.000 -29.171   0.000  -0.000  13.076  -0.000  -0.000  -0.000
  0.000   0.000 -29.112  -0.000  -0.000  13.033   0.005  -0.000
 13.033  -0.000  -0.000  -0.887   0.000   0.000   0.000  -0.000
 -0.000  13.076  -0.000   0.000  -0.916   0.000   0.000   0.000
 -0.000  -0.000  13.033   0.000   0.000  -0.887  -0.003   0.000
 -0.000  -0.000   0.005   0.000   0.000  -0.003  -2.939  -0.000
  0.000  -0.000  -0.000  -0.000   0.000   0.000  -0.000  -2.966
 -0.000  -0.000   0.000   0.000   0.000  -0.000  -0.000  -0.000
 -0.000  -0.000  -0.000   0.000   0.000   0.000   0.000  -0.000
  0.005  -0.000  -0.000  -0.003   0.000   0.000  -0.000  -0.000
 -0.000  -0.000   0.001   0.000   0.000  -0.001   0.513  -0.000
  0.000  -0.000  -0.000  -0.000   0.000   0.000  -0.000   0.507
 -0.000  -0.000   0.000   0.000   0.000  -0.000  -0.000  -0.000
 -0.000  -0.000  -0.000   0.000   0.000   0.000   0.000  -0.000
  0.001  -0.000  -0.000  -0.001   0.000   0.000  -0.000  -0.000
 -0.000   0.000   0.000   0.000  -0.000  -0.000  -0.000  -0.000
  0.000  -0.000  -0.000  -0.000   0.000   0.000   0.000   0.000
 total augmentation occupancy for first ion, spin component:           1
  1.976   0.000  -0.000   0.004   0.000   0.000   0.000   0.000   0.000   0.000  -0.018   0.000   0.000  -0.000  -0.000   0.006
  0.000   1.974   0.000   0.000  -0.004  -0.000   0.000   0.000  -0.000  -0.000  -0.000  -0.000   0.000   0.000  -0.000  -0.000
 -0.000   0.000   1.976   0.000  -0.000   0.004  -0.018   0.000   0.000  -0.000   0.000   0.006  -0.000   0.000  -0.000  -0.000
  0.004   0.000   0.000   0.193  -0.000  -0.000   0.000  -0.000   0.000   0.000  -0.077   0.000  -0.000  -0.000   0.000   0.018
  0.000  -0.004   0.000   0.000   0.154   0.000   0.000   0.000   0.000   0.000  -0.000   0.000   0.000  -0.000  -0.000  -0.000
  0.000   0.000   0.004  -0.000  -0.000   0.193  -0.077  -0.000  -0.000  -0.000   0.000   0.018  -0.000  -0.000   0.000  -0.000
  0.000   0.000  -0.018  -0.000  -0.000  -0.077   0.582  -0.000   0.000   0.000  -0.000  -0.264  -0.000  -0.000   0.000   0.000
  0.000   0.000  -0.000   0.000   0.000   0.000  -0.000   0.516   0.000   0.000  -0.000   0.000  -0.249  -0.000  -0.000   0.000
  0.000  -0.000  -0.000   0.000   0.000  -0.000   0.000   0.000   0.577  -0.000  -0.000  -0.000  -0.000  -0.261  -0.000   0.000
 -0.000   0.000  -0.000  -0.000  -0.000  -0.000  -0.000   0.000   0.000   0.516   0.000   0.000   0.000  -0.000  -0.249  -0.000
 -0.018  -0.000   0.000  -0.077   0.000   0.000  -0.000   0.000  -0.000  -0.000   0.582   0.000   0.000   0.000   0.000  -0.264
  0.000   0.000   0.006   0.000  -0.000   0.018  -0.264  -0.000  -0.000  -0.000   0.000   0.140   0.000   0.000   0.000  -0.000
 -0.000  -0.000   0.000   0.000   0.000   0.000   0.000  -0.249  -0.000  -0.000  -0.000  -0.000   0.137   0.000  -0.000  -0.000
 -0.000  -0.000   0.000  -0.000  -0.000  -0.000  -0.000   0.000  -0.261  -0.000   0.000   0.000  -0.000   0.135  -0.000  -0.000
 -0.000   0.000   0.000  -0.000  -0.000  -0.000  -0.000  -0.000  -0.000  -0.249   0.000   0.000  -0.000   0.000   0.137  -0.000
  0.006  -0.000  -0.000   0.018   0.000  -0.000   0.000   0.000   0.000   0.000  -0.264  -0.000  -0.000  -0.000  -0.000   0.140
  0.000  -0.000   0.000  -0.000   0.000  -0.000   0.000  -0.000   0.060  -0.000  -0.000   0.000   0.000  -0.027   0.000   0.000
 -0.000  -0.000  -0.000  -0.000  -0.000  -0.000  -0.000  -0.000   0.011   0.000  -0.000  -0.000   0.000  -0.005   0.000   0.000


------------------------ aborting loop because EDIFF is reached ----------------------------------------


    CHARGE:  cpu time      0.0016: real time      0.0016
    FORLOC:  cpu time      0.0003: real time      0.0011
    FORNL :  cpu time      0.0015: real time      0.0040
    STRESS:  cpu time      0.0101: real time      0.0134
    FORCOR:  cpu time      0.0018: real time      0.0041
    FORHAR:  cpu time      0.0003: real time      0.0010
    MIXING:  cpu time      0.0003: real time      0.0003
    OFIELD:  cpu time      0.0001: real time      0.0006

  FORCE on cell =-STRESS in cart. coord.  units (eV):
  Direction    XX          YY          ZZ          XY          YZ          ZX
  --------------------------------------------------------------------------------------
  Alpha Z   123.64295   123.64295   123.64295
  Ewald    -539.10169  -539.10168  -519.28221     0.00000    -0.00000     0.00000
  Hartree   129.21462   129.21463   138.01099     0.00000     0.00000     0.00000
  E(xc)     -94.08765   -94.08765   -94.05678    -0.00000    -0.00000    -0.00000
  Local     139.95859   139.95828   113.82810    -0.00026    -0.00001    -0.00000
  n-local   -51.43616   -45.30518   -47.19095    -5.30946     0.38586     0.66332
  augment   102.28109   102.28125   100.69783     0.00014    -0.00000    -0.00000
  Kinetic   188.81243   183.78308   183.15055     4.35559    -0.39064    -0.67661
  Fock        0.00000     0.00000     0.00000     0.00000     0.00000     0.00000
  -------------------------------------------------------------------------------------
  Total      -0.16508    -0.16508    -1.19954     0.00000    -0.00000    -0.00000
  in kB      -7.49745    -7.49745   -54.48030     0.00000    -0.00000    -0.00000
  external pressure =      -23.16 kB  Pullay stress =        0.00 kB


 VOLUME and BASIS-vectors are now :
 -----------------------------------------------------------------------------
  energy-cutoff  :      400.00
  volume of cell :       35.28
      direct lattice vectors                 reciprocal lattice vectors
     2.950599909  0.000000000  0.000000000     0.338914130  0.195672164  0.000000000
    -1.475299954  2.555294477  0.000000000     0.000000000  0.391344328  0.000000000
     0.000000000  0.000000000  4.678800106     0.000000000  0.000000000  0.213730011

  length of vectors
     2.950599909  2.950599909  4.678800106     0.391344328  0.391344328  0.213730011


 FORCES acting on ions
    electron-ion (+dipol)            ewald-force                    non-local-force                 convergence-correction
 -----------------------------------------------------------------------------------------------
   -.134E-05 -.147E-04 -.128E-06   0.792E-07 -.279E-05 -.194E-13   0.516E-16 0.387E-16 0.415E-17   0.358E-06 -.203E-06 0.413E-11
   0.159E-05 0.974E-05 -.128E-06   -.792E-07 0.279E-05 0.194E-13   -.653E-16 0.170E-16 0.567E-17   -.358E-06 0.203E-06 0.422E-11
 -----------------------------------------------------------------------------------------------
   0.250E-06 -.500E-05 -.256E-06   0.492E-14 -.429E-14 -.335E-16   -.136E-16 0.557E-16 0.982E-17   -.668E-10 0.567E-09 0.835E-11
 
 
 POSITION                                       TOTAL-FORCE (eV/Angst)
 -----------------------------------------------------------------------------------
     -0.00000      1.70353      1.16970         0.000000      0.000000      0.000000
      1.47530      0.85176      3.50910        -0.000000     -0.000000     -0.000000
 -----------------------------------------------------------------------------------
    total drift:                                0.000000     -0.000005     -0.000000


--------------------------------------------------------------------------------------------------------



  FREE ENERGIE OF THE ION-ELECTRON SYSTEM (eV)
  ---------------------------------------------------
  free  energy   TOTEN  =       -15.82125855 eV

  energy  without entropy=      -15.80338471  energy(sigma->0) =      -15.81232163
 


--------------------------------------------------------------------------------------------------------


    POTLOK:  cpu time      0.0037: real time      0.0038


--------------------------------------------------------------------------------------------------------




--------------------------------------------------------------------------------------------------------


    WAVPRE:  cpu time      0.0072: real time      0.0136
    FEWALD:  cpu time      0.0002: real time      0.0007
    GENKIN:  cpu time      0.0010: real time      0.0010
    ORTHCH:  cpu time      0.0028: real time      0.0028
     LOOP+:  cpu time      0.5525: real time      0.9423


--------------------------------------- Ionic step        2  -------------------------------------------




--------------------------------------- Iteration      2(   1)  ---------------------------------------


    POTLOK:  cpu time      0.0028: real time      0.0030
    SETDIJ:  cpu time      0.0027: real time      0.0028
     EDDAV:  cpu time      0.0383: real time      0.0384
       DOS:  cpu time      0.0003: real time      0.0003
    CHARGE:  cpu time      0.0013: real time      0.0013
    MIXING:  cpu time      0.0001: real time      0.0001
    --------------------------------------------
      LOOP:  cpu time      0.0455: real time      0.0459

 eigenvalue-minimisations  :   336
 total energy-change (2. order) :-0.3269154E+00  (-0.8952063E+00)
 number of electron      19.9999975 magnetization 
 augmentation part        9.1689641 magnetization 

 Broyden mixing:
  rms(total) = 0.36711E+00    rms(broyden)= 0.36697E+00
  rms(prec ) = 0.69963E+00
  weight for this iteration     100.00

 Free energy of the ion-electron system (eV)
  ---------------------------------------------------
  alpha Z        PSCENC =       128.34718477
  Ewald energy   TEWEN  =     -1617.02651375
  -Hartree energ DENC   =      -401.55919596
  -exchange      EXHF   =         0.00000000
  -V(xc)+E(xc)   XCENC  =        70.17130498
  PAW double counting   =      1419.09338940    -1424.55366161
  entropy T*S    EENTRO =        -0.01920125
  eigenvalues    EBANDS =      -275.35029622
  atomic energy  EATOM  =      2084.74881817
  Solvation  Ediel_sol  =         0.00000000
  ---------------------------------------------------
  free energy    TOTEN  =       -16.14817146 eV

  energy without entropy =      -16.12897021  energy(sigma->0) =      -16.13857083


--------------------------------------------------------------------------------------------------------




--------------------------------------- Iteration      2(   2)  ---------------------------------------


    POTLOK:  cpu time      0.0018: real time      0.0019
    SETDIJ:  cpu time      0.0012: real time      0.0012
    EDDIAG:  cpu time      0.0113: real time      0.0114
  RMM-DIIS:  cpu time      0.0023: real time      0.0023
    ORTHCH:  cpu time      0.0014: real time      0.0014
       DOS:  cpu time      0.0003: real time      0.0003
    CHARGE:  cpu time      0.0018: real time      0.0018
    MIXING:  cpu time      0.0002: real time      0.0002
    --------------------------------------------
      LOOP:  cpu time      0.0202: real time      0.0204

 eigenvalue-minimisations  :   336
 total energy-change (2. order) : 0.2992324E+00  (-0.2408515E-01)
 number of electron      19.9999975 magnetization 
 augmentation part        9.3880387 magnetization 

 Broyden mixing:
  rms(total) = 0.10970E+00    rms(broyden)= 0.10969E+00
  rms(prec ) = 0.17951E+00
  weight for this iteration     100.00

 eigenvalues of (default mixing * dielectric matrix)
  average eigenvalue GAMMA=   1.2844
  1.2844

 Free energy of the ion-electron system (eV)
  ---------------------------------------------------
  alpha Z        PSCENC =       128.34718477
  Ewald energy   TEWEN  =     -1617.02651375
  -Hartree energ DENC   =      -389.21804217
  -exchange      EXHF   =         0.00000000
  -V(xc)+E(xc)   XCENC  =        69.47266299
  PAW double counting   =      1409.13746631    -1415.00770243
  entropy T*S    EENTRO =        -0.01536100
  eigenvalues    EBANDS =      -286.28745196
  atomic energy  EATOM  =      2084.74881817
  Solvation  Ediel_sol  =         0.00000000
  ---------------------------------------------------
  free energy    TOTEN  =       -15.84893907 eV

  energy without entropy =      -15.83357807  energy(sigma->0) =      -15.84125857


--------------------------------------------------------------------------------------------------------




--------------------------------------- Iteration      2(   3)  ---------------------------------------


    POTLOK:  cpu time      0.0017: real time      0.0018
    SETDIJ:  cpu time      0.0012: real time      0.0012
    EDDIAG:  cpu time      0.0111: real time      0.0111
  RMM-DIIS:  cpu time      0.0022: real time      0.0022
    ORTHCH:  cpu time      0.0015: real time      0.0016
       DOS:  cpu time      0.0003: real time      0.0003
    CHARGE:  cpu time      0.0012: real time      0.0012
    MIXING:  cpu time      0.0002: real time      0.0002
    --------------------------------------------
      LOOP:  cpu time      0.0193: real time      0.0196

 eigenvalue-minimisations  :   336
 total energy-change (2. order) : 0.1504106E-01  (-0.2969202E-02)
 number of electron      19.9999975 magnetization 
 augmentation part        9.4228878 magnetization 

 Broyden mixing:
  rms(total) = 0.43515E-01    rms(broyden)= 0.43506E-01
  rms(prec ) = 0.71062E-01
  weight for this iteration     100.00

 eigenvalues of (default mixing * dielectric matrix)
  average eigenvalue GAMMA=   1.6365
  1.1426  2.1304

 Free energy of the ion-electron system (eV)
  ---------------------------------------------------
  alpha Z        PSCENC =       128.34718477
  Ewald energy   TEWEN  =     -1617.02651375
  -Hartree energ DENC   =      -387.57204974
  -exchange      EXHF   =         0.00000000
  -V(xc)+E(xc)   XCENC  =        69.36507106
  PAW double counting   =      1417.42651850    -1423.28687524
  entropy T*S    EENTRO =        -0.01403815
  eigenvalues    EBANDS =      -287.82201363
  atomic energy  EATOM  =      2084.74881817
  Solvation  Ediel_sol  =         0.00000000
  ---------------------------------------------------
  free energy    TOTEN  =       -15.83389801 eV

  energy without entropy =      -15.81985986  energy(sigma->0) =      -15.82687894


--------------------------------------------------------------------------------------------------------




--------------------------------------- Iteration      2(   4)  ---------------------------------------


    POTLOK:  cpu time      0.0017: real time      0.0017
    SETDIJ:  cpu time      0.0012: real time      0.0011
    EDDIAG:  cpu time      0.0108: real time      0.0109
  RMM-DIIS:  cpu time      0.0022: real time      0.0022
    ORTHCH:  cpu time      0.0014: real time      0.0014
       DOS:  cpu time      0.0003: real time      0.0003
    CHARGE:  cpu time      0.0015: real time      0.0015
    MIXING:  cpu time      0.0002: real time      0.0002
    --------------------------------------------
      LOOP:  cpu time      0.0192: real time      0.0193

 eigenvalue-minimisations  :   336
 total energy-change (2. order) : 0.1107817E-02  (-0.6616144E-03)
 number of electron      19.9999974 magnetization 
 augmentation part        9.4231274 magnetization 

 Broyden mixing:
  rms(total) = 0.64974E-02    rms(broyden)= 0.64725E-02
  rms(prec ) = 0.10808E-01
  weight for this iteration     100.00

 eigenvalues of (default mixing * dielectric matrix)
  average eigenvalue GAMMA=   1.8993
  1.1368  2.7354  1.8257

 Free energy of the ion-electron system (eV)
  ---------------------------------------------------
  alpha Z        PSCENC =       128.34718477
  Ewald energy   TEWEN  =     -1617.02651375
  -Hartree energ DENC   =      -387.90750188
  -exchange      EXHF   =         0.00000000
  -V(xc)+E(xc)   XCENC  =        69.37018884
  PAW double counting   =      1428.43208851    -1434.18163748
  entropy T*S    EENTRO =        -0.01363242
  eigenvalues    EBANDS =      -287.60178495
  atomic energy  EATOM  =      2084.74881817
  Solvation  Ediel_sol  =         0.00000000
  ---------------------------------------------------
  free energy    TOTEN  =       -15.83279019 eV

  energy without entropy =      -15.81915778  energy(sigma->0) =      -15.82597399


--------------------------------------------------------------------------------------------------------




--------------------------------------- Iteration      2(   5)  ---------------------------------------


    POTLOK:  cpu time      0.0018: real time      0.0019
    SETDIJ:  cpu time      0.0011: real time      0.0011
    EDDIAG:  cpu time      0.0115: real time      0.0118
  RMM-DIIS:  cpu time      0.0027: real time      0.0027
    ORTHCH:  cpu time      0.0014: real time      0.0014
       DOS:  cpu time      0.0003: real time      0.0003
    CHARGE:  cpu time      0.0011: real time      0.0011
    MIXING:  cpu time      0.0002: real time      0.0002
    --------------------------------------------
      LOOP:  cpu time      0.0201: real time      0.0206

 eigenvalue-minimisations  :   353
 total energy-change (2. order) :-0.2137232E-03  (-0.1432226E-03)
 number of electron      19.9999974 magnetization 
 augmentation part        9.4246515 magnetization 

 Broyden mixing:
  rms(total) = 0.21597E-02    rms(broyden)= 0.21502E-02
  rms(prec ) = 0.36219E-02
  weight for this iteration     100.00

 eigenvalues of (default mixing * dielectric matrix)
  average eigenvalue GAMMA=   1.6981
  0.9884  1.1107  2.1045  2.5888

 Free energy of the ion-electron system (eV)
  ---------------------------------------------------
  alpha Z        PSCENC =       128.34718477
  Ewald energy   TEWEN  =     -1617.02651375
  -Hartree energ DENC   =      -388.11725148
  -exchange      EXHF   =         0.00000000
  -V(xc)+E(xc)   XCENC  =        69.37835220
  PAW double counting   =      1431.42527376    -1437.05507818
  entropy T*S    EENTRO =        -0.01363598
  eigenvalues    EBANDS =      -287.52015344
  atomic energy  EATOM  =      2084.74881817
  Solvation  Ediel_sol  =         0.00000000
  ---------------------------------------------------
  free energy    TOTEN  =       -15.83300392 eV

  energy without entropy =      -15.81936794  energy(sigma->0) =      -15.82618593


--------------------------------------------------------------------------------------------------------




--------------------------------------- Iteration      2(   6)  ---------------------------------------


    POTLOK:  cpu time      0.0017: real time      0.0018
    SETDIJ:  cpu time      0.0012: real time      0.0012
    EDDIAG:  cpu time      0.0109: real time      0.0110
  RMM-DIIS:  cpu time      0.0023: real time      0.0023
    ORTHCH:  cpu time      0.0014: real time      0.0014
       DOS:  cpu time      0.0003: real time      0.0003
    CHARGE:  cpu time      0.0012: real time      0.0012
    MIXING:  cpu time      0.0002: real time      0.0002
    --------------------------------------------
      LOOP:  cpu time      0.0190: real time      0.0193

 eigenvalue-minimisations  :   303
 total energy-change (2. order) :-0.9677280E-05  (-0.1844383E-04)
 number of electron      19.9999974 magnetization 
 augmentation part        9.4235338 magnetization 

 Broyden mixing:
  rms(total) = 0.51639E-03    rms(broyden)= 0.51418E-03
  rms(prec ) = 0.73240E-03
  weight for this iteration     100.00

 eigenvalues of (default mixing * dielectric matrix)
  average eigenvalue GAMMA=   1.7093
  2.3944  2.3944  0.9985  1.0834  1.6759

 Free energy of the ion-electron system (eV)
  ---------------------------------------------------
  alpha Z        PSCENC =       128.34718477
  Ewald energy   TEWEN  =     -1617.02651375
  -Hartree energ DENC   =      -388.15983567
  -exchange      EXHF   =         0.00000000
  -V(xc)+E(xc)   XCENC  =        69.38100111
  PAW double counting   =      1431.17543027    -1436.79751843
  entropy T*S    EENTRO =        -0.01365123
  eigenvalues    EBANDS =      -287.48792883
  atomic energy  EATOM  =      2084.74881817
  Solvation  Ediel_sol  =         0.00000000
  ---------------------------------------------------
  free energy    TOTEN  =       -15.83301360 eV

  energy without entropy =      -15.81936236  energy(sigma->0) =      -15.82618798


--------------------------------------------------------------------------------------------------------




--------------------------------------- Iteration      2(   7)  ---------------------------------------


    POTLOK:  cpu time      0.0017: real time      0.0018
    SETDIJ:  cpu time      0.0011: real time      0.0012
    EDDIAG:  cpu time      0.0108: real time      0.0110
  RMM-DIIS:  cpu time      0.0023: real time      0.0023
    ORTHCH:  cpu time      0.0014: real time      0.0014
       DOS:  cpu time      0.0003: real time      0.0003
    --------------------------------------------
      LOOP:  cpu time      0.0176: real time      0.0180

 eigenvalue-minimisations  :   260
 total energy-change (2. order) :-0.5540778E-05  (-0.5197080E-05)
 number of electron      19.9999974 magnetization 
 augmentation part        9.4235338 magnetization 

 Free energy of the ion-electron system (eV)
  ---------------------------------------------------
  alpha Z        PSCENC =       128.34718477
  Ewald energy   TEWEN  =     -1617.02651375
  -Hartree energ DENC   =      -388.14475616
  -exchange      EXHF   =         0.00000000
  -V(xc)+E(xc)   XCENC  =        69.38011448
  PAW double counting   =      1431.13515096    -1436.75707602
  entropy T*S    EENTRO =        -0.01365085
  eigenvalues    EBANDS =      -287.50229073
  atomic energy  EATOM  =      2084.74881817
  Solvation  Ediel_sol  =         0.00000000
  ---------------------------------------------------
  free energy    TOTEN  =       -15.83301914 eV

  energy without entropy =      -15.81936828  energy(sigma->0) =      -15.82619371


--------------------------------------------------------------------------------------------------------




 average (electrostatic) potential at core
  the test charge radii are     1.0397
  (the norm of the test charge is              1.0000)
       1 -50.8799       2 -50.8799
 
 
 
 E-fermi :   6.0669     XC(G=0): -11.5044     alpha+bet :-13.9917

 val. band max:        6.0197239229   @ k =   0.3333   0.3333   0.3333
 cond. band min:       6.2329769408   @ k =   0.0000   0.0000   0.3333
 fundamental gap:      0.2132530178
 Fermi energy:         6.0668889586

 k-point     1 :       0.0000    0.0000    0.0000
  band No.  band energies     occupation 
      1     -27.3681      2.00000
      2     -26.6725      2.00000
      3     -26.6724      2.00000
      4     -26.5750      2.00000
      5     -26.5508      2.00000
      6     -26.5508      2.00000
      7      -0.1010      2.00000
      8       3.3784      2.00000
      9       6.8354      0.00000
     10       6.8354      0.00000
     11       7.1393      0.00000
     12       7.1778      0.00000
     13       7.3922      0.00000
     14       7.3922      0.00000
     15       7.6115      0.00000
     16       7.6115      0.00000
     17       9.2921      0.00000
     18       9.2921      0.00000
     19      14.8457      0.00000
     20      20.8144      0.00000
     21      23.7156      0.00000
     22      24.3167      0.00000
     23      25.5094      0.00000
     24      25.5094      0.00000
     25      26.5327      0.00000
     26      26.5327      0.00000
     27      27.7760      0.00000
     28      27.7760      0.00000

 k-point     2 :       0.3333   -0.0000    0.0000
  band No.  band energies     occupation 
      1     -27.1509      2.00000
      2     -27.0252      2.00000
      3     -26.8946      2.00000
      4     -26.7858      2.00000
      5     -26.6971      2.00000
      6     -26.5980      2.00000
      7       2.4674      2.00000
      8       4.2879      2.00000
      9       4.6776      2.00000
     10       5.4157      2.00000
     11       6.6762      0.00000
     12       6.9939      0.00000
     13       7.0102      0.00000
     14       8.6627      0.00000
     15       8.8538      0.00000
     16       8.9401      0.00000
     17       9.7128      0.00000
     18      13.8568      0.00000
     19      14.2538      0.00000
     20      15.7580      0.00000
     21      18.9480      0.00000
     22      20.2288      0.00000
     23      21.5195      0.00000
     24      23.1757      0.00000
     25      24.7575      0.00000
     26      26.9881      0.00000
     27      28.3637      0.00000
     28      29.0221      0.00000

 k-point     3 :       0.3333    0.3333    0.0000
  band No.  band energies     occupation 
      1     -27.0651      2.00000
      2     -26.9352      2.00000
      3     -26.9352      2.00000
      4     -26.8999      2.00000
      5     -26.8999      2.00000
      6     -26.7945      2.00000
      7       4.3005      2.00000
      8       4.6327      2.00000
      9       4.6327      2.00000
     10       4.7242      2.00000
     11       6.3455      0.00008
     12       6.3455      0.00008
     13       7.7043      0.00000
     14       9.2638      0.00000
     15       9.2638      0.00000
     16       9.5595      0.00000
     17      12.0835      0.00000
     18      12.4966      0.00000
     19      12.4966      0.00000
     20      17.3669      0.00000
     21      18.5354      0.00000
     22      18.5354      0.00000
     23      19.0135      0.00000
     24      19.8402      0.00000
     25      19.8402      0.00000
     26      30.8454      0.00000
     27      32.6754      0.00000
     28      32.7248      0.00000

 k-point     4 :       0.0000    0.0000    0.3333
  band No.  band energies     occupation 
      1     -27.1777      2.00000
      2     -26.7816      2.00000
      3     -26.6422      2.00000
      4     -26.6422      2.00000
      5     -26.5814      2.00000
      6     -26.5814      2.00000
      7       0.8400      2.00000
      8       2.7903      2.00000
      9       6.2330      0.01883
     10       6.6112      0.00000
     11       6.6112      0.00000
     12       6.6494      0.00000
     13       6.9457      0.00000
     14       6.9458      0.00000
     15       8.4463      0.00000
     16       8.4463      0.00000
     17       9.2514      0.00000
     18       9.2514      0.00000
     19      17.7771      0.00000
     20      20.2907      0.00000
     21      22.1030      0.00000
     22      23.3908      0.00000
     23      25.3711      0.00000
     24      25.3711      0.00000
     25      26.0872      0.00000
     26      26.0872      0.00000
     27      28.3724      0.00000
     28      28.3724      0.00000

 k-point     5 :       0.3333   -0.0000    0.3333
  band No.  band energies     occupation 
      1     -27.1900      2.00000
[...]




--------------------------------------- Iteration      7(   3)  ---------------------------------------


    POTLOK:  cpu time      0.0017: real time      0.0018
    SETDIJ:  cpu time      0.0012: real time      0.0012
    EDDIAG:  cpu time      0.0107: real time      0.0108
  RMM-DIIS:  cpu time      0.0022: real time      0.0022
    ORTHCH:  cpu time      0.0014: real time      0.0014
       DOS:  cpu time      0.0003: real time      0.0003
    CHARGE:  cpu time      0.0011: real time      0.0012
    MIXING:  cpu time      0.0002: real time      0.0002
    --------------------------------------------
      LOOP:  cpu time      0.0187: real time      0.0190

 eigenvalue-minimisations  :   331
 total energy-change (2. order) : 0.1644511E-04  (-0.4049051E-05)
 number of electron      19.9999955 magnetization 
 augmentation part        9.4199690 magnetization 

 Broyden mixing:
  rms(total) = 0.17556E-02    rms(broyden)= 0.17553E-02
  rms(prec ) = 0.28463E-02
  weight for this iteration     100.00

 eigenvalues of (default mixing * dielectric matrix)
  average eigenvalue GAMMA=   1.6464
  1.1047  2.1881

 Free energy of the ion-electron system (eV)
  ---------------------------------------------------
  alpha Z        PSCENC =       125.73219897
  Ewald energy   TEWEN  =     -1605.76383869
  -Hartree energ DENC   =      -392.75024437
  -exchange      EXHF   =         0.00000000
  -V(xc)+E(xc)   XCENC  =        69.23486617
  PAW double counting   =      1423.27897567    -1428.90187553
  entropy T*S    EENTRO =        -0.01344621
  eigenvalues    EBANDS =      -291.40388541
  atomic energy  EATOM  =      2084.74881817
  Solvation  Ediel_sol  =         0.00000000
  ---------------------------------------------------
  free energy    TOTEN  =       -15.83843124 eV

  energy without entropy =      -15.82498503  energy(sigma->0) =      -15.83170813


--------------------------------------------------------------------------------------------------------




--------------------------------------- Iteration      7(   4)  ---------------------------------------


    POTLOK:  cpu time      0.0020: real time      0.0021
    SETDIJ:  cpu time      0.0012: real time      0.0012
    EDDIAG:  cpu time      0.0108: real time      0.0109
  RMM-DIIS:  cpu time      0.0023: real time      0.0023
    ORTHCH:  cpu time      0.0014: real time      0.0014
       DOS:  cpu time      0.0003: real time      0.0003
    --------------------------------------------
      LOOP:  cpu time      0.0179: real time      0.0181

 eigenvalue-minimisations  :   213
 total energy-change (2. order) : 0.1808146E-05  (-0.8801210E-06)
 number of electron      19.9999955 magnetization 
 augmentation part        9.4199690 magnetization 

 Free energy of the ion-electron system (eV)
  ---------------------------------------------------
  alpha Z        PSCENC =       125.73219897
  Ewald energy   TEWEN  =     -1605.76383869
  -Hartree energ DENC   =      -392.76154356
  -exchange      EXHF   =         0.00000000
  -V(xc)+E(xc)   XCENC  =        69.23482408
  PAW double counting   =      1423.83086140    -1429.44856637
  entropy T*S    EENTRO =        -0.01344127
  eigenvalues    EBANDS =      -291.39774216
  atomic energy  EATOM  =      2084.74881817
  Solvation  Ediel_sol  =         0.00000000
  ---------------------------------------------------
  free energy    TOTEN  =       -15.83842943 eV

  energy without entropy =      -15.82498816  energy(sigma->0) =      -15.83170879


--------------------------------------------------------------------------------------------------------




 average (electrostatic) potential at core
  the test charge radii are     1.0397
  (the norm of the test charge is              1.0000)
       1 -51.1155       2 -51.1155
 
 
 
 E-fermi :   5.8877     XC(G=0): -11.4088     alpha+bet :-13.7067

 val. band max:        5.8402109604   @ k =   0.3333   0.3333   0.3333
 cond. band min:       6.0808176571   @ k =   0.0000   0.0000   0.3333
 fundamental gap:      0.2406066967
 Fermi energy:         5.8877240957

 k-point     1 :       0.0000    0.0000    0.0000
  band No.  band energies     occupation 
      1     -27.5634      2.00000
      2     -26.9136      2.00000
      3     -26.9136      2.00000
      4     -26.8097      2.00000
      5     -26.7944      2.00000
      6     -26.7944      2.00000
      7      -0.2293      2.00000
      8       3.2596      2.00000
      9       6.6353      0.00000
     10       6.6353      0.00000
     11       6.9939      0.00000
     12       7.0255      0.00000
     13       7.1894      0.00000
     14       7.1895      0.00000
     15       7.3599      0.00000
     16       7.3599      0.00000
     17       9.0323      0.00000
     18       9.0323      0.00000
     19      14.5275      0.00000
     20      20.4554      0.00000
     21      23.3467      0.00000
     22      24.1028      0.00000
     23      24.8887      0.00000
     24      24.8887      0.00000
     25      25.9406      0.00000
     26      25.9406      0.00000
     27      27.3363      0.00000
     28      27.3363      0.00000

 k-point     2 :       0.3333   -0.0000    0.0000
  band No.  band energies     occupation 
      1     -27.3595      2.00000
      2     -27.2335      2.00000
      3     -27.1075      2.00000
      4     -27.0186      2.00000
      5     -26.9280      2.00000
      6     -26.8359      2.00000
      7       2.2949      2.00000
      8       4.1511      2.00000
      9       4.5553      2.00000
     10       5.2261      2.00000
     11       6.4531      0.00000
     12       6.8109      0.00000
     13       6.8436      0.00000
     14       8.3981      0.00000
     15       8.6272      0.00000
     16       8.6741      0.00000
     17       9.4533      0.00000
     18      13.5466      0.00000
     19      13.9233      0.00000
     20      15.3450      0.00000
     21      18.4544      0.00000
     22      19.8926      0.00000
     23      21.0760      0.00000
     24      22.8117      0.00000
     25      24.1801      0.00000
     26      26.4353      0.00000
     27      28.0121      0.00000
     28      28.0136      0.00000

 k-point     3 :       0.3333    0.3333    0.0000
  band No.  band energies     occupation 
      1     -27.2738      2.00000
      2     -27.1484      2.00000
      3     -27.1484      2.00000
      4     -27.1221      2.00000
      5     -27.1221      2.00000
      6     -27.0128      2.00000
      7       4.1722      2.00000
      8       4.4495      2.00000
      9       4.4495      2.00000
     10       4.5535      2.00000
     11       6.1726      0.00006
     12       6.1726      0.00006
     13       7.5172      0.00000
     14       9.0201      0.00000
     15       9.0201      0.00000
     16       9.3302      0.00000
     17      11.7163      0.00000
     18      12.1003      0.00000
     19      12.1003      0.00000
     20      16.9658      0.00000
     21      18.1560      0.00000
     22      18.1560      0.00000
     23      18.6708      0.00000
     24      19.4271      0.00000
     25      19.4271      0.00000
     26      28.0130      0.00000
     27      28.0130      0.00000
     28      30.3935      0.00000

 k-point     4 :       0.0000    0.0000    0.3333
  band No.  band energies     occupation 
      1     -27.3822      2.00000
      2     -27.0057      2.00000
      3     -26.8840      2.00000
      4     -26.8840      2.00000
      5     -26.8244      2.00000
      6     -26.8244      2.00000
      7       0.7062      2.00000
      8       2.6607      2.00000
      9       6.0808      0.00632
     10       6.4003      0.00000
     11       6.4003      0.00000
     12       6.5068      0.00000
     13       6.7363      0.00000
     14       6.7363      0.00000
     15       8.2027      0.00000
     16       8.2027      0.00000
     17       9.0010      0.00000
     18       9.0010      0.00000
     19      17.4862      0.00000
     20      19.9665      0.00000
     21      21.7319      0.00000
     22      23.0945      0.00000
     23      24.8294      0.00000
     24      24.8294      0.00000
     25      25.5337      0.00000
     26      25.5337      0.00000
     27      28.0125      0.00000
     28      28.0127      0.00000

 k-point     5 :       0.3333   -0.0000    0.3333
  band No.  band energies     occupation 
      1     -27.3952      2.00000
      2     -27.2704      2.00000
      3     -27.0517      2.00000
      4     -26.9734      2.00000
      5     -26.9104      2.00000
      6     -26.8821      2.00000
      7       2.7367      2.00000
      8       3.7924      2.00000
      9       4.8210      2.00000
     10       5.4401      2.00000
     11       6.3518      0.00000
     12       6.8749      0.00000
     13       6.9098      0.00000
     14       7.9942      0.00000
     15       8.6549      0.00000
     16       8.8145      0.00000
     17       9.1564      0.00000
     18      10.4273      0.00000
     19      15.8081      0.00000
     20      17.2733      0.00000
     21      18.8842      0.00000
     22      19.9823      0.00000
     23      21.6633      0.00000
     24      23.0979      0.00000
     25      23.3389      0.00000
     26      24.6594      0.00000
     27      27.3885      0.00000
     28      28.0134      0.00000

 k-point     6 :       0.3333    0.3333    0.3333
  band No.  band energies     occupation 
      1     -27.3367      2.00000
      2     -27.3367      2.00000
      3     -27.2097      2.00000
      4     -27.0791      2.00000
      5     -26.9297      2.00000
      6     -26.9297      2.00000
      7       4.4726      2.00000
      8       4.6564      2.00000
      9       4.7185      2.00000
     10       4.7185      2.00000
     11       5.8402      1.49841
     12       5.8402      1.49838
     13       7.4320      0.00000
     14       8.1523      0.00000
     15       9.0089      0.00000
     16       9.0090      0.00000
     17      12.4155      0.00000
     18      12.4155      0.00000
     19      13.1117      0.00000
     20      15.1130      0.00000
     21      15.8768      0.00000
     22      15.8768      0.00000
     23      21.8664      0.00000
     24      23.1239      0.00000
     25      23.1239      0.00000
     26      27.2415      0.00000
     27      28.0131      0.00000
     28      28.0131      0.00000


--------------------------------------------------------------------------------------------------------


 soft charge-density along one line, spin component           1
         0         1         2         3         4         5         6         7         8         9
 total charge-density along one line
 
 pseudopotential strength for first ion, spin component:           1
-29.019   0.000   0.000  12.962  -0.000  -0.000  -0.000   0.000
  0.000 -29.076   0.000  -0.000  13.003  -0.000  -0.000  -0.000
  0.000   0.000 -29.019  -0.000  -0.000  12.962   0.006  -0.000
 12.962  -0.000  -0.000  -0.841   0.000   0.000   0.000  -0.000
 -0.000  13.003  -0.000   0.000  -0.867   0.000   0.000   0.000
 -0.000  -0.000  12.962   0.000   0.000  -0.841  -0.003   0.000
 -0.000  -0.000   0.006   0.000   0.000  -0.003  -2.876  -0.000
  0.000  -0.000  -0.000  -0.000   0.000   0.000  -0.000  -2.904
 -0.000  -0.000   0.000   0.000   0.000  -0.000  -0.000  -0.000
 -0.000  -0.000  -0.000   0.000   0.000   0.000   0.000  -0.000
  0.006  -0.000  -0.000  -0.003   0.000   0.000  -0.000  -0.000
 -0.000  -0.000   0.001   0.000   0.000  -0.001   0.525  -0.000
  0.000  -0.000  -0.000  -0.000   0.000   0.000  -0.000   0.519
 -0.000  -0.000   0.000   0.000   0.000  -0.000  -0.000  -0.000
 -0.000  -0.000  -0.000   0.000   0.000   0.000   0.000   0.000
  0.001  -0.000  -0.000  -0.001   0.000   0.000  -0.000  -0.000
 -0.000   0.000   0.000   0.000  -0.000  -0.000  -0.000  -0.000
  0.000  -0.000  -0.000  -0.000   0.000   0.000   0.000   0.000
 total augmentation occupancy for first ion, spin component:           1
  1.977  -0.000  -0.000   0.006  -0.000   0.000   0.000   0.000   0.000  -0.000  -0.019   0.000   0.000  -0.000  -0.000   0.007
 -0.000   1.976  -0.000   0.000  -0.001  -0.000   0.000  -0.000   0.000  -0.000  -0.000   0.000  -0.000   0.000   0.000   0.000
 -0.000  -0.000   1.977   0.000   0.000   0.006  -0.019   0.000  -0.000  -0.000   0.000   0.007  -0.000   0.000  -0.000  -0.000
  0.006   0.000   0.000   0.201   0.000   0.000   0.000  -0.000   0.000  -0.000  -0.078   0.000   0.000  -0.000  -0.000   0.019
  0.000  -0.001  -0.000   0.000   0.158   0.000   0.000   0.000  -0.000   0.000  -0.000  -0.000  -0.000   0.000   0.000   0.000
  0.000  -0.000   0.006   0.000   0.000   0.201  -0.078   0.000   0.000   0.000   0.000   0.019  -0.000  -0.000   0.000  -0.000
  0.000  -0.000  -0.019   0.000   0.000  -0.078   0.574  -0.000   0.000   0.000  -0.000  -0.268   0.000  -0.000   0.000   0.000
  0.000  -0.000   0.000   0.000   0.000   0.000  -0.000   0.528   0.000  -0.000   0.000   0.000  -0.258   0.000   0.000   0.000
  0.000   0.000  -0.000   0.000   0.000   0.000   0.000   0.000   0.583   0.000  -0.000  -0.000   0.000  -0.280   0.000   0.000
  0.000   0.000   0.000   0.000   0.000  -0.000   0.000  -0.000   0.000   0.528  -0.000   0.000   0.000  -0.000  -0.258  -0.000
 -0.019   0.000   0.000  -0.078   0.000   0.000  -0.000   0.000  -0.000  -0.000   0.574   0.000  -0.000   0.000   0.000  -0.268
  0.000   0.000   0.007   0.000   0.000   0.019  -0.268   0.000   0.000   0.000   0.000   0.146  -0.000   0.000  -0.000  -0.000
  0.000   0.000  -0.000  -0.000  -0.000   0.000  -0.000  -0.258   0.000   0.000  -0.000   0.000   0.144   0.000  -0.000   0.000
 -0.000  -0.000  -0.000  -0.000   0.000  -0.000  -0.000  -0.000  -0.280   0.000   0.000   0.000   0.000   0.150   0.000  -0.000
  0.000   0.000   0.000   0.000   0.000   0.000   0.000   0.000   0.000  -0.258   0.000   0.000  -0.000  -0.000   0.144   0.000
  0.007  -0.000  -0.000   0.019   0.000  -0.000   0.000   0.000   0.000  -0.000  -0.268  -0.000   0.000  -0.000   0.000   0.146
  0.000  -0.000   0.000   0.000  -0.000  -0.000   0.000   0.000   0.074  -0.000  -0.000   0.000  -0.000  -0.038   0.000   0.000
  0.000   0.000   0.000  -0.000   0.000   0.000  -0.000   0.000   0.013   0.000  -0.000  -0.000   0.000  -0.006   0.000   0.000


------------------------ aborting loop because EDIFF is reached ----------------------------------------


    CHARGE:  cpu time      0.0012: real time      0.0012
    FORLOC:  cpu time      0.0000: real time      0.0000
    FORNL :  cpu time      0.0011: real time      0.0011
    STRESS:  cpu time      0.0080: real time      0.0080
    FORCOR:  cpu time      0.0009: real time      0.0009
    FORHAR:  cpu time      0.0005: real time      0.0005
    MIXING:  cpu time      0.0002: real time      0.0002
    OFIELD:  cpu time      0.0000: real time      0.0000

  FORCE on cell =-STRESS in cart. coord.  units (eV):
  Direction    XX          YY          ZZ          XY          YZ          ZX
  --------------------------------------------------------------------------------------
  Alpha Z   125.73220   125.73220   125.73220
  Ewald    -548.27538  -548.27536  -509.21425     0.00000    -0.00000     0.00000
  Hartree   125.06492   125.06493   142.65136     0.00000     0.00000     0.00000
  E(xc)     -94.18237   -94.18237   -94.14532    -0.00000    -0.00000    -0.00000
  Local     150.87268   150.87236    97.44436    -0.00027    -0.00001    -0.00000
  n-local   -50.93845   -44.85180   -46.81962    -5.27110     0.35932     0.61825
  augment   102.24581   102.24601   100.73730     0.00017    -0.00000    -0.00000
  Kinetic   189.33387   183.53545   183.61766     5.02161    -0.28268    -0.48961
  Fock        0.00000     0.00000     0.00000     0.00000     0.00000     0.00000
  -------------------------------------------------------------------------------------
  Total      -0.00265    -0.00265     0.00369     0.00000    -0.00000    -0.00000
  in kB      -0.12227    -0.12227     0.17039     0.00000    -0.00000    -0.00000
  external pressure =       -0.02 kB  Pullay stress =        0.00 kB


 VOLUME and BASIS-vectors are now :
 -----------------------------------------------------------------------------
  energy-cutoff  :      400.00
  volume of cell :       34.69
      direct lattice vectors                 reciprocal lattice vectors
     2.967345546  0.000000000 -0.000000000     0.337001534  0.194567926  0.000000000
    -1.483672773  2.569796624 -0.000000000    -0.000000000  0.389135852  0.000000000
     0.000000000 -0.000000000  4.549270137     0.000000000  0.000000000  0.219815480

  length of vectors
     2.967345546  2.967345546  4.549270137     0.389135852  0.389135852  0.219815480


 FORCES acting on ions
    electron-ion (+dipol)            ewald-force                    non-local-force                 convergence-correction
 -----------------------------------------------------------------------------------------------
   -.635E-06 -.149E-04 -.120E-06   0.942E-07 -.332E-05 -.191E-13   -.285E-17 -.173E-16 -.719E-17   0.133E-07 -.930E-08 0.702E-12
   0.910E-06 0.100E-04 -.120E-06   -.942E-07 0.332E-05 0.191E-13   -.116E-18 0.444E-16 -.662E-17   -.132E-07 0.899E-08 0.695E-12
 -----------------------------------------------------------------------------------------------
   0.274E-06 -.493E-05 -.241E-06   0.468E-14 0.834E-15 0.504E-16   -.297E-17 0.271E-16 -.138E-16   0.797E-10 -.315E-09 0.140E-11
 
 
 POSITION                                       TOTAL-FORCE (eV/Angst)
 -----------------------------------------------------------------------------------
     -0.00000      1.71320      1.13732         0.000000      0.000000      0.000000
      1.48367      0.85660      3.41195        -0.000000     -0.000000     -0.000000
 -----------------------------------------------------------------------------------
    total drift:                                0.000000     -0.000005     -0.000000


--------------------------------------------------------------------------------------------------------



  FREE ENERGIE OF THE ION-ELECTRON SYSTEM (eV)
  ---------------------------------------------------
  free  energy   TOTEN  =       -15.83842943 eV

  energy  without entropy=      -15.82498816  energy(sigma->0) =      -15.83170879
 
 d Force = 0.0000000E+00[ 0.000E+00, 0.000E+00]  d Energy = 0.4974058E-04-0.497E-04
 d Force = 0.0000000E+00[ 0.000E+00, 0.000E+00]  d Ewald  = 0.8682416E+00-0.868E+00


--------------------------------------------------------------------------------------------------------


    POTLOK:  cpu time      0.0037: real time      0.0037


--------------------------------------------------------------------------------------------------------




--------------------------------------------------------------------------------------------------------


  
 reached required accuracy - stopping structural energy minimisation
     LOOP+:  cpu time      0.1294: real time      0.1309
    4ORBIT:  cpu time      0.0000: real time      0.0000

 total amount of memory used by VASP MPI-rank0    31034. kBytes
=======================================================================

   base      :      30000. kBytes
   nonl-proj :        602. kBytes
   fftplans  :         75. kBytes
   grid      :        257. kBytes
   one-center:         31. kBytes
   wavefun   :         69. kBytes
 
  
  
 General timing and accounting informations for this job:
 ========================================================
  
                  Total CPU time used (sec):        2.243
                            User time (sec):        1.929
                          System time (sec):        0.314
                         Elapsed time (sec):        3.781
  
                   Maximum memory used (kb):       62992.
                   Average memory used (kb):          N/A
  
                          Minor page faults:        18902
                          Major page faults:            2
                 Voluntary context switches:         1092
