<?xml version="1.0" encoding="ISO-8859-1"?>
<modeling>
 <generator>
  <i name="program" type="string">vasp </i>
  <i name="version" type="string">6.4.3  </i>
  <i name="subversion" type="string">19Mar24 (build Sep 18 2024 11:30:23) complex                          parallel </i>
  <i name="platform" type="string">LinuxIFC </i>
  <i name="date" type="string">2026 07 07 </i>
  <i name="time" type="string">16:47:12 </i>
 </generator>
 <incar>
  <i type="string" name="SYSTEM">HECN</i>
  <i type="int" name="ISTART">     0</i>
  <i type="string" name="PREC">Normal</i>
  <i type="string" name="ALGO">Fast</i>
  <i type="int" name="ICHARG">     2</i>
  <i type="int" name="NELM">    60</i>
  <i type="int" name="IBRION">     2</i>
  <i name="EDIFF">      0.00001000</i>
  <i name="EDIFFG">     -0.01000000</i>
  <i type="int" name="NSW">   100</i>
  <i type="int" name="ISIF">     3</i>
  <i name="ENCUT">    400.00000000</i>
  <i name="POTIM">      0.50000000</i>
  <i type="logical" name="LREAL"> F  </i>
  <i type="int" name="ISMEAR">     0</i>
  <i name="SIGMA">      0.10000000</i>
  <i type="logical" name="LWAVE"> F  </i>
  <i type="logical" name="LCHARG"> F  </i>
 </incar>
 <primitive_cell>
  <structure name="primitive_cell" >
   <crystal>
    <varray name="basis" >
     <v>       2.95059991       0.00000000       0.00000000 </v>
     <v>      -1.47529995       2.55529448       0.00000000 </v>
     <v>       0.00000000       0.00000000       4.67880011 </v>
    </varray>
    <i name="volume">     35.27652295 </i>
    <varray name="rec_basis" >
     <v>       0.33891413       0.19567216       0.00000000 </v>
     <v>       0.00000000       0.39134433       0.00000000 </v>
     <v>       0.00000000       0.00000000       0.21373001 </v>
    </varray>
   </crystal>
   <varray name="positions" >
    <v>       0.33333334       0.66666669       0.25000000 </v>
    <v>       0.66666666       0.33333331       0.75000000 </v>
   </varray>
  </structure>
  <varray name="primitive_index" >
   <v type="int" >        1 </v>
   <v type="int" >        2 </v>
  </varray>
 </primitive_cell>
 <kpoints>
  <generation param="Gamma">
   <v type="int" name="divisions">       3        3        3 </v>
   <v name="usershift">      0.00000000       0.00000000       0.00000000 </v>
   <v name="genvec1">      0.33333333      -0.00000000       0.00000000 </v>
   <v name="genvec2">      0.00000000       0.33333333       0.00000000 </v>
   <v name="genvec3">      0.00000000       0.00000000       0.33333333 </v>
   <v name="shift">      0.00000000       0.00000000       0.00000000 </v>
  </generation>
  <varray name="kpointlist" >
   <v>       0.00000000       0.00000000       0.00000000 </v>
   <v>       0.33333333      -0.00000000       0.00000000 </v>
   <v>       0.33333333       0.33333333       0.00000000 </v>
   <v>       0.00000000       0.00000000       0.33333333 </v>
   <v>       0.33333333      -0.00000000       0.33333333 </v>
   <v>       0.33333333       0.33333333       0.33333333 </v>
  </varray>
  <varray name="weights" >
   <v>       0.03703704 </v>
   <v>       0.22222222 </v>
   <v>       0.07407407 </v>
   <v>       0.07407407 </v>
   <v>       0.44444444 </v>
   <v>       0.14814815 </v>
  </varray>
 </kpoints>
 <parameters>
  <separator name="general" >
   <i type="string" name="SYSTEM">HECN</i>
   <i type="logical" name="LCOMPAT"> F  </i>
  </separator>
  <separator name="electronic" >
   <i type="string" name="PREC">normal</i>
   <i name="ENMAX">    400.00000000</i>
   <i name="ENAUG">    482.84800000</i>
   <i name="EDIFF">      0.00001000</i>
   <i type="int" name="IALGO">    68</i>
   <i type="int" name="IWAVPR">    11</i>
   <i type="int" name="NBANDS">    28</i>
   <i type="int" name="NBANDSLOW">    -1</i>
   <i type="int" name="NBANDSHIGH">    -1</i>
   <i name="NELECT">     20.00000000</i>
   <i type="int" name="TURBO">     0</i>
   <i type="int" name="IRESTART">     0</i>
   <i type="int" name="NREBOOT">     0</i>
   <i type="int" name="NMIN">     0</i>
   <i name="EREF">      0.00000000</i>
   <separator name="electronic smearing" >
    <i type="int" name="ISMEAR">     0</i>
    <i name="SIGMA">      0.10000000</i>
    <i name="KSPACING">      0.50000000</i>
    <i type="logical" name="KGAMMA"> T  </i>
    <i type="logical" name="KBLOWUP"> T  </i>
   </separator>
   <separator name="electronic projectors" >
    <i type="logical" name="LREAL"> F  </i>
    <v name="ROPT">      0.00000000</v>
    <i type="int" name="LMAXPAW">  -100</i>
    <i type="int" name="LMAXMIX">     2</i>
    <i type="logical" name="NLSPLINE"> F  </i>
   </separator>
   <separator name="electronic startup" >
    <i type="int" name="ISTART">     0</i>
    <i type="int" name="ICHARG">     2</i>
    <i type="int" name="INIWAV">     1</i>
   </separator>
   <separator name="electronic spin" >
    <i type="int" name="ISPIN">     1</i>
    <i type="logical" name="LNONCOLLINEAR"> F  </i>
    <v name="MAGMOM">      1.00000000      1.00000000</v>
    <i name="NUPDOWN">     -1.00000000</i>
    <i type="logical" name="LSORBIT"> F  </i>
    <v name="SAXIS">      0.00000000      0.00000000      1.00000000</v>
    <i type="logical" name="LSPIRAL"> F  </i>
    <v name="QSPIRAL">      0.00000000      0.00000000      0.00000000</v>
    <i type="logical" name="LZEROZ"> F  </i>
   </separator>
   <separator name="electronic exchange-correlation" >
    <i type="logical" name="LASPH"> F  </i>
   </separator>
   <separator name="electronic convergence" >
    <i type="int" name="NELM">    60</i>
    <i type="int" name="NELMDL">    -5</i>
    <i type="int" name="NELMIN">     2</i>
    <i name="ENINI">    400.00000000</i>
    <separator name="electronic convergence detail" >
     <i type="logical" name="LDIAG"> T  </i>
     <i type="logical" name="LSUBROT"> F  </i>
     <i name="WEIMIN">      0.00100000</i>
     <i name="EBREAK">      0.00000009</i>
     <i name="DEPER">      0.30000000</i>
     <i type="int" name="NRMM">     4</i>
     <i name="TIME">      0.40000000</i>
    </separator>
   </separator>
   <separator name="electronic mixer" >
    <i name="AMIX">      0.40000000</i>
    <i name="BMIX">      1.00000000</i>
    <i name="AMIN">      0.10000000</i>
    <i name="AMIX_MAG">      1.60000000</i>
    <i name="BMIX_MAG">      1.00000000</i>
    <separator name="electronic mixer details" >
     <i type="int" name="IMIX">     4</i>
     <i type="logical" name="MIXFIRST"> F  </i>
     <i type="int" name="MAXMIX">   -45</i>
     <i name="WC">    100.00000000</i>
     <i type="int" name="INIMIX">     1</i>
     <i type="int" name="MIXPRE">     1</i>
     <i type="int" name="MREMOVE">     5</i>
    </separator>
   </separator>
   <separator name="electronic dipolcorrection" >
    <i type="logical" name="LDIPOL"> F  </i>
    <i type="logical" name="LMONO"> F  </i>
    <i type="int" name="IDIPOL">     0</i>
    <i name="EPSILON">      1.00000000</i>
    <v name="DIPOL">   -100.00000000   -100.00000000   -100.00000000</v>
    <i name="EFIELD">      0.00000000</i>
    <i type="logical" name="LVACPOTAV"> F  </i>
   </separator>
  </separator>
  <separator name="grids" >
   <i type="int" name="NGX">    14</i>
   <i type="int" name="NGY">    14</i>
   <i type="int" name="NGZ">    24</i>
   <i type="int" name="NGXF">    28</i>
   <i type="int" name="NGYF">    28</i>
   <i type="int" name="NGZF">    48</i>
   <i type="logical" name="ADDGRID"> F  </i>
  </separator>
  <separator name="ionic" >
   <i type="int" name="NSW">   100</i>
   <i type="int" name="IBRION">     2</i>
   <i type="int" name="MDALGO">     0</i>
   <i type="int" name="ISIF">     3</i>
   <i name="PSTRESS">      0.00000000</i>
   <i name="EDIFFG">     -0.01000000</i>
   <i type="int" name="NFREE">     1</i>
   <i name="POTIM">      0.50000000</i>
   <i name="SMASS">     -3.00000000</i>
   <i name="SCALEE">      1.00000000</i>
  </separator>
  <separator name="ionic md" >
   <i name="TEBEG">      0.00010000</i>
   <i name="TEEND">      0.00010000</i>
   <i type="int" name="NBLOCK">     1</i>
   <i type="int" name="KBLOCK">   100</i>
   <i type="int" name="NPACO">   256</i>
   <i name="APACO">     10.00000000</i>
  </separator>
  <separator name="symmetry" >
   <i type="int" name="ISYM">     2</i>
   <i name="SYMPREC">      0.00001000</i>
  </separator>
  <separator name="dos" >
   <i type="int" name="LORBIT">     0</i>
   <v name="RWIGS">     -1.00000000</v>
   <i type="int" name="NEDOS">   301</i>
   <i name="EMIN">     10.00000000</i>
   <i name="EMAX">    -10.00000000</i>
   <i name="EFERMI">      0.00000000</i>
  </separator>
  <separator name="writing" >
   <i type="int" name="NWRITE">     2</i>
   <i type="logical" name="LWAVE"> F  </i>
   <i type="logical" name="LDOWNSAMPLE"> F  </i>
   <i type="logical" name="LCHARG"> F  </i>
   <i type="logical" name="LPARD"> F  </i>
   <i type="logical" name="LVTOT"> F  </i>
   <i type="logical" name="LVHAR"> F  </i>
   <i type="logical" name="LELF"> F  </i>
   <i type="logical" name="LOPTICS"> F  </i>
   <v name="STM">      0.00000000      0.00000000      0.00000000      0.00000000      0.00000000      0.00000000      0.00000000</v>
  </separator>
  <separator name="performance" >
   <i type="int" name="NPAR">    28</i>
   <i type="int" name="NSIM">     4</i>
   <i type="int" name="NBLK">    -1</i>
   <i type="logical" name="LPLANE"> T  </i>
   <i type="logical" name="LSCALAPACK"> T  </i>
   <i type="logical" name="LSCAAWARE"> T  </i>
   <i type="logical" name="LSCALU"> F  </i>
   <i type="logical" name="LASYNC"> F  </i>
   <i type="logical" name="LORBITALREAL"> F  </i>
  </separator>
  <separator name="miscellaneous" >
   <i type="int" name="IDIOT">     3</i>
   <i type="int" name="PHON_NSTRUCT">    -1</i>
   <i type="logical" name="LMUSIC"> F  </i>
   <v name="POMASS">     47.88000000</v>
   <v name="DARWINR">      0.00000000</v>
   <v name="DARWINV">      1.00000000</v>
   <i type="logical" name="LCORR"> T  </i>
  </separator>
  <i type="logical" name="GGA_COMPAT"> T  </i>
  <i type="logical" name="LBERRY"> F  </i>
  <i type="int" name="ICORELEVEL">     0</i>
  <i type="logical" name="LDAU"> F  </i>
  <i type="int" name="I_CONSTRAINED_M">     0</i>
  <separator name="electronic exchange-correlation" >
   <i type="string" name="GGA    ">PE</i>
   <i type="string" name="XC_C">1</i>
   <i type="int" name="VOSKOWN">     0</i>
   <i type="logical" name="LHFCALC"> F  </i>
   <i type="string" name="PRECFOCK"></i>
   <i type="logical" name="LSYMGRAD"> F  </i>
   <i type="logical" name="LHFONE"> F  </i>
   <i type="logical" name="LRHFCALC"> F  </i>
   <i type="logical" name="LTHOMAS"> F  </i>
   <i type="logical" name="LMODELHF"> F  </i>
   <i type="logical" name="LFOCKACE"> F  </i>
   <i name="ENCUT4O">     -1.00000000</i>
   <i type="int" name="EXXOEP">     0</i>
   <i type="int" name="FOURORBIT">     0</i>
   <i name="AEXX">      0.00000000</i>
   <i name="HFALPHA">      0.00000000</i>
   <i name="MCALPHA">      0.00000000</i>
   <i name="ALDAX">      1.00000000</i>
   <i name="AGGAX">      1.00000000</i>
   <i name="AMGGAX">      1.00000000</i>
   <i name="ALDAC">      1.00000000</i>
   <i name="AGGAC">      1.00000000</i>
   <i name="AMGGAC">      1.00000000</i>
   <i type="int" name="NKREDX">     1</i>
   <i type="int" name="NKREDY">     1</i>
   <i type="int" name="NKREDZ">     1</i>
   <i type="logical" name="SHIFTRED"> F  </i>
   <i type="logical" name="ODDONLY"> F  </i>
   <i type="logical" name="EVENONLY"> F  </i>
   <i type="int" name="LMAXFOCK">     0</i>
   <i type="int" name="NMAXFOCKAE">     0</i>
   <i type="logical" name="LFOCKAEDFT"> F  </i>
   <i name="HFSCREEN">      0.00000000</i>
   <i name="HFSCREENC">      0.00000000</i>
   <i type="int" name="NBANDSGWLOW">     0</i>
  </separator>
  <separator name="vdW DFT" >
   <i type="logical" name="LUSE_VDW"> F  </i>
   <i type="int" name="IVDW_NL">    -1</i>
   <i type="logical" name="LSPIN_VDW"> F  </i>
   <i name="ZAB_VDW">     -0.84910000</i>
   <i name="GAMMA_VDW">      1.39626340</i>
   <i name="ALPHA_VDW">      0.00000000</i>
   <i name="PARAM1">      0.12340000</i>
   <i name="PARAM2">      1.00000000</i>
   <i name="BPARAM">      6.30000000</i>
   <i name="CPARAM">      0.00930000</i>
  </separator>
  <separator name="model GW" >
   <i type="int" name="MODEL_GW">     0</i>
   <i name="MODEL_EPS0">     10.58295688</i>
   <i name="MODEL_ALPHA">      1.00000000</i>
  </separator>
  <separator name="linear response parameters" >
   <i type="logical" name="LEPSILON"> F  </i>
   <i type="logical" name="LRPA"> F  </i>
   <i type="logical" name="LNABLA"> F  </i>
   <i type="logical" name="LVEL"> F  </i>
   <i name="CSHIFT">      0.10000000</i>
   <i name="OMEGAMAX">     -1.00000000</i>
   <i name="DEG_THRESHOLD">      0.00200000</i>
   <i name="RTIME">     -0.10000000</i>
   <i name="WPLASMAI">      0.00000000</i>
   <v name="DFIELD">      0.00000000      0.00000000      0.00000000</v>
   <v name="WPLASMA">      0.00000000      0.00000000      0.00000000      0.00000000      0.00000000      0.00000000      0.00000000      0.00000000      0.00000000</v>
  </separator>
  <separator name="orbital magnetization" >
   <i type="logical" name="NUCIND"> F  </i>
   <v name="MAGPOS">      0.00000000      0.00000000      0.00000000</v>
   <i type="logical" name="LNICSALL"> T  </i>
   <i type="logical" name="ORBITALMAG"> F  </i>
   <i type="logical" name="LMAGBLOCH"> F  </i>
   <i type="logical" name="LCHIMAG"> F  </i>
   <i type="logical" name="LGAUGE"> T  </i>
   <i type="int" name="MAGATOM">     0</i>
   <v name="MAGDIPOL">      0.00000000      0.00000000      0.00000000</v>
   <v name="AVECCONST">      0.00000000      0.00000000      0.00000000</v>
  </separator>
  <separator name="response functions" >
   <i type="logical" name="LALL_IN_ONE"> F  </i>
   <i type="int" name="IALL_IN_ONE">    -1</i>
   <i type="int" name="NBANDS_WAVE">    -1</i>
   <i type="logical" name="LFINITE_TEMPERATURE"> F  </i>
   <i type="logical" name="LADDER"> F  </i>
   <i type="logical" name="LRPAFORCE"> F  </i>
   <i type="logical" name="LFXC"> F  </i>
   <i type="logical" name="LHARTREE"> T  </i>
   <i type="int" name="IBSE">     0</i>
   <v type="int" name="KPOINT">    -1     0     0     0</v>
   <i type="logical" name="LTCTC"> F  </i>
   <i type="logical" name="LTCTE"> F  </i>
   <i type="logical" name="LTETE"> F  </i>
   <i type="logical" name="LTRIPLET"> F  </i>
   <i type="logical" name="LFXCEPS"> F  </i>
   <i type="logical" name="LFXHEG"> F  </i>
   <i type="int" name="NATURALO">     2</i>
   <i type="logical" name="LHOLEGF"> F  </i>
   <i type="logical" name="L2ORDER"> F  </i>
   <i type="logical" name="LDMP1"> F  </i>
   <i type="logical" name="LMP2LT"> F  </i>
   <i type="logical" name="LSMP2LT"> F  </i>
   <i type="logical" name="LGWLF"> F  </i>
   <i name="ENCUTGW">     -1.60000002</i>
   <i name="ENCUTGWSOFT">     -1.60000002</i>
   <i name="ENCUTLF">     -1.00000000</i>
   <i type="logical" name="ESF_SPLINES"> F  </i>
   <i name="ESF_CONV">      0.01000000</i>
   <i type="int" name="ESF_NINTER">    15</i>
   <i type="int" name="LMAXMP2">    -1</i>
   <i name="SCISSOR">      0.00000000</i>
   <i type="int" name="NOMEGA">     0</i>
   <i type="int" name="NOMEGAR">     0</i>
   <i type="int" name="NBANDSGW">    -1</i>
   <i type="int" name="NBANDSO">    -1</i>
   <i type="int" name="NBANDSV">    -1</i>
   <i type="int" name="NELMGW">     1</i>
   <i type="int" name="NELMHF">     1</i>
   <i type="int" name="DIM">     3</i>
   <i type="int" name="IESPILON">     4</i>
   <i type="int" name="ANTIRES">     0</i>
   <i name="OMEGAMAX">    -30.00000000</i>
   <i name="OMEGAMIN">    -30.00000000</i>
   <i name="OMEGATL">   -200.00000000</i>
   <i type="int" name="OMEGAGRID">     0</i>
   <i name="CSHIFT">     -0.10000000</i>
   <i type="logical" name="LSELFENERGY"> F  </i>
   <i type="logical" name="LSPECTRAL"> F  </i>
   <i type="logical" name="LSPECTRALGW"> F  </i>
   <i type="logical" name="LSINGLES"> F  </i>
   <i type="logical" name="LFERMIGW"> F  </i>
   <i type="logical" name="ODDONLYGW"> F  </i>
   <i type="logical" name="EVENONLYGW"> F  </i>
   <i type="int" name="NKREDLFX">     1</i>
   <i type="int" name="NKREDLFY">     1</i>
   <i type="int" name="NKREDLFZ">     1</i>
   <i type="int" name="MAXMEM">  2800</i>
   <i type="int" name="TELESCOPE">     0</i>
   <i type="int" name="NTAUPAR">    -1</i>
   <i type="int" name="NOMEGAPAR">    -1</i>
   <i name="DAMP_NEWTON">      0.80000001</i>
   <i name="LAMBDA">      1.00000000</i>
  </separator>
  <separator name="External order field" >
   <i name="OFIELD_KAPPA">      0.00000000</i>
   <v name="OFIELD_K">      0.00000000      0.00000000      0.00000000</v>
   <i name="OFIELD_Q6_NEAR">      0.00000000</i>
   <i name="OFIELD_Q6_FAR">      0.00000000</i>
   <i name="OFIELD_A">      0.00000000</i>
  </separator>
  <separator name="optional k-points parameters" >
   <i type="int" name="KPOINTS_OPT_MODE">     1</i>
   <i type="logical" name="LKPOINTS_OPT"> F  </i>
  </separator>
  <separator name="solvation model" >
   <i type="logical" name="LSOL"> F  </i>
  </separator>
 </parameters>
 <atominfo>
  <atoms>       2 </atoms>
  <types>       1 </types>
  <array name="atoms" >
   <dimension dim="1">ion</dimension>
   <field type="string">element</field>
   <field type="int">atomtype</field>
   <set>
    <rc><c>Ti</c><c>   1</c></rc>
    <rc><c>Ti</c><c>   1</c></rc>
   </set>
  </array>
  <array name="atomtypes" >
   <dimension dim="1">type</dimension>
   <field type="int">atomspertype</field>
   <field type="string">element</field>
   <field>mass</field>
   <field>valence</field>
   <field type="string">pseudopotential</field>
   <set>
    <rc><c>   2</c><c>Ti</c><c>     47.88000000</c><c>     10.00000000</c><c> PAW_PBE Ti_pv 07Sep2000                </c></rc>
   </set>
  </array>
 </atominfo>
 <structure name="initialpos" >
  <crystal>
   <varray name="basis" >
    <v>       2.95059991       0.00000000       0.00000000 </v>
    <v>      -1.47529995       2.55529448       0.00000000 </v>
    <v>       0.00000000       0.00000000       4.67880011 </v>
   </varray>
   <i name="volume">     35.27652295 </i>
   <varray name="rec_basis" >
    <v>       0.33891413       0.19567216       0.00000000 </v>
    <v>       0.00000000       0.39134433       0.00000000 </v>
    <v>       0.00000000       0.00000000       0.21373001 </v>
   </varray>
  </crystal>
  <varray name="positions" >
   <v>       0.33333334       0.66666669       0.25000000 </v>
   <v>       0.66666666       0.33333331       0.75000000 </v>
  </varray>
 </structure>
 <calculation>
  <scstep>
   <time name="dav">    0.05    0.07</time>
   <time name="total">    0.08    0.11</time>
   <energy>
    <i name="alphaZ">    123.64294538 </i>
    <i name="ewald">  -1597.48447671 </i>
    <i name="hartreedc">   -447.71307064 </i>
    <i name="XCdc">     71.73571099 </i>
    <i name="pawpsdc">   1428.40628957 </i>
    <i name="pawaedc">  -1426.98428199 </i>
    <i name="eentropy">     -0.00665683 </i>
    <i name="bandstr">   -223.27304029 </i>
    <i name="atom">   2084.74881817 </i>
    <i name="e_fr_energy">     13.07223763 </i>
    <i name="e_wo_entrp">     13.07889446 </i>
    <i name="e_0_energy">     13.07556605 </i>
   </energy>
  </scstep>
  <scstep>
   <time name="dav">    0.07    0.39</time>
   <time name="total">    0.07    0.39</time>
   <energy>
    <i name="e_fr_energy">    -17.99257615 </i>
    <i name="e_wo_entrp">    -17.97061232 </i>
    <i name="e_0_energy">    -17.98159423 </i>
   </energy>
  </scstep>
  <scstep>
   <time name="dav">    0.05    0.05</time>
   <time name="total">    0.05    0.06</time>
   <energy>
    <i name="e_fr_energy">    -18.11343596 </i>
    <i name="e_wo_entrp">    -18.09110683 </i>
    <i name="e_0_energy">    -18.10227139 </i>
   </energy>
  </scstep>
  <scstep>
   <time name="dav">    0.07    0.07</time>
   <time name="total">    0.07    0.07</time>
   <energy>
    <i name="e_fr_energy">    -18.11368540 </i>
    <i name="e_wo_entrp">    -18.09135440 </i>
    <i name="e_0_energy">    -18.10251990 </i>
   </energy>
  </scstep>
  <scstep>
   <time name="dav">    0.06    0.06</time>
   <time name="total">    0.06    0.08</time>
   <energy>
    <i name="e_fr_energy">    -18.11368544 </i>
    <i name="e_wo_entrp">    -18.09135444 </i>
    <i name="e_0_energy">    -18.10251994 </i>
   </energy>
  </scstep>
  <scstep>
   <time name="diag">    0.02    0.03</time>
   <time name="diis">    0.00    0.01</time>
   <time name="orth">    0.00    0.00</time>
   <time name="total">    0.03    0.04</time>
   <energy>
    <i name="e_fr_energy">    -15.93917250 </i>
    <i name="e_wo_entrp">    -15.92068941 </i>
    <i name="e_0_energy">    -15.92993095 </i>
   </energy>
  </scstep>
  <scstep>
   <time name="diag">    0.01    0.01</time>
   <time name="diis">    0.00    0.00</time>
   <time name="orth">    0.00    0.00</time>
   <time name="total">    0.02    0.02</time>
   <energy>
    <i name="e_fr_energy">    -15.83267175 </i>
    <i name="e_wo_entrp">    -15.81495793 </i>
    <i name="e_0_energy">    -15.82381484 </i>
   </energy>
  </scstep>
  <scstep>
   <time name="diag">    0.01    0.01</time>
   <time name="diis">    0.00    0.00</time>
   <time name="orth">    0.00    0.00</time>
   <time name="total">    0.02    0.02</time>
   <energy>
    <i name="e_fr_energy">    -15.82135635 </i>
    <i name="e_wo_entrp">    -15.80328906 </i>
    <i name="e_0_energy">    -15.81232270 </i>
   </energy>
  </scstep>
  <scstep>
   <time name="diag">    0.01    0.01</time>
   <time name="diis">    0.00    0.00</time>
   <time name="orth">    0.00    0.00</time>
   <time name="total">    0.02    0.02</time>
   <energy>
    <i name="e_fr_energy">    -15.82120682 </i>
    <i name="e_wo_entrp">    -15.80332763 </i>
    <i name="e_0_energy">    -15.81226723 </i>
   </energy>
  </scstep>
  <scstep>
   <time name="diag">    0.01    0.01</time>
   <time name="diis">    0.00    0.00</time>
   <time name="orth">    0.00    0.00</time>
   <time name="total">    0.02    0.02</time>
   <energy>
    <i name="e_fr_energy">    -15.82123823 </i>
    <i name="e_wo_entrp">    -15.80335543 </i>
    <i name="e_0_energy">    -15.81229683 </i>
   </energy>
  </scstep>
  <scstep>
   <time name="diag">    0.01    0.01</time>
   <time name="diis">    0.00    0.00</time>
   <time name="orth">    0.00    0.00</time>
   <time name="total">    0.02    0.02</time>
   <energy>
    <i name="e_fr_energy">    -15.82127484 </i>
    <i name="e_wo_entrp">    -15.80342204 </i>
    <i name="e_0_energy">    -15.81234844 </i>
   </energy>
  </scstep>
  <scstep>
   <time name="diag">    0.01    0.01</time>
   <time name="diis">    0.00    0.00</time>
   <time name="orth">    0.00    0.00</time>
   <time name="total">    0.02    0.02</time>
   <energy>
    <i name="e_fr_energy">    -15.82125609 </i>
    <i name="e_wo_entrp">    -15.80338281 </i>
    <i name="e_0_energy">    -15.81231945 </i>
   </energy>
  </scstep>
  <scstep>
   <time name="diag">    0.01    0.01</time>
   <time name="diis">    0.00    0.00</time>
   <time name="orth">    0.00    0.00</time>
   <time name="total">    0.02    0.02</time>
   <energy>
    <i name="alphaZ">    123.64294538 </i>
    <i name="ewald">  -1597.48447671 </i>
    <i name="hartreedc">   -396.44645587 </i>
    <i name="XCdc">     69.13937723 </i>
    <i name="pawpsdc">   1419.06850737 </i>
    <i name="pawaedc">  -1424.52997979 </i>
    <i name="eentropy">     -0.01787384 </i>
    <i name="bandstr">   -293.94212047 </i>
    <i name="atom">   2084.74881817 </i>
    <i name="e_fr_energy">    -15.82125855 </i>
    <i name="e_wo_entrp">    -15.80338471 </i>
    <i name="e_0_energy">    -15.81232163 </i>
   </energy>
  </scstep>
  <structure>
   <crystal>
    <varray name="basis" >
     <v>       2.95059991       0.00000000       0.00000000 </v>
     <v>      -1.47529995       2.55529448       0.00000000 </v>
     <v>       0.00000000       0.00000000       4.67880011 </v>
    </varray>
    <i name="volume">     35.27652295 </i>
    <varray name="rec_basis" >
     <v>       0.33891413       0.19567216       0.00000000 </v>
     <v>       0.00000000       0.39134433       0.00000000 </v>
     <v>       0.00000000       0.00000000       0.21373001 </v>
    </varray>
   </crystal>
   <varray name="positions" >
    <v>       0.33333334       0.66666669       0.25000000 </v>
    <v>       0.66666666       0.33333331       0.75000000 </v>
   </varray>
  </structure>
  <varray name="forces" >
   <v>       0.00000000       0.00000000       0.00000000 </v>
   <v>      -0.00000000      -0.00000000      -0.00000000 </v>
  </varray>
  <varray name="stress" >
   <v>      -7.49744631       0.00000000      -0.00000000 </v>
   <v>       0.00000000      -7.49744631      -0.00000000 </v>
   <v>       0.00000000      -0.00000000     -54.48029563 </v>
  </varray>
  <energy>
   <i name="e_fr_energy">    -15.82125855 </i>
   <i name="e_wo_entrp">    -15.80338471 </i>
   <i name="e_0_energy">    -15.81232163 </i>
  </energy>
  <time name="totalsc">    0.55    0.94</time>
 </calculation>
 <calculation>
  <scstep>
   <time name="dav">    0.04    0.04</time>
   <time name="total">    0.05    0.05</time>
   <energy>
    <i name="alphaZ">    128.34718477 </i>
    <i name="ewald">  -1617.02651375 </i>
    <i name="hartreedc">   -401.55919596 </i>
    <i name="XCdc">     70.17130498 </i>
    <i name="pawpsdc">   1419.09338940 </i>
    <i name="pawaedc">  -1424.55366161 </i>
    <i name="eentropy">     -0.01920125 </i>
    <i name="bandstr">   -275.35029622 </i>
    <i name="atom">   2084.74881817 </i>
    <i name="e_fr_energy">    -16.14817146 </i>
    <i name="e_wo_entrp">    -16.12897021 </i>
    <i name="e_0_energy">    -16.13857083 </i>
   </energy>
  </scstep>
  <scstep>
   <time name="diag">    0.01    0.01</time>
   <time name="diis">    0.00    0.00</time>
   <time name="orth">    0.00    0.00</time>
   <time name="total">    0.02    0.02</time>
   <energy>
    <i name="e_fr_energy">    -15.84893907 </i>
    <i name="e_wo_entrp">    -15.83357807 </i>
    <i name="e_0_energy">    -15.84125857 </i>
   </energy>
  </scstep>
  <scstep>
   <time name="diag">    0.01    0.01</time>
   <time name="diis">    0.00    0.00</time>
   <time name="orth">    0.00    0.00</time>
   <time name="total">    0.02    0.02</time>
   <energy>
    <i name="e_fr_energy">    -15.83389801 </i>
    <i name="e_wo_entrp">    -15.81985986 </i>
    <i name="e_0_energy">    -15.82687894 </i>
   </energy>
  </scstep>
  <scstep>
   <time name="diag">    0.01    0.01</time>
   <time name="diis">    0.00    0.00</time>
   <time name="orth">    0.00    0.00</time>
   <time name="total">    0.02    0.02</time>
   <energy>
    <i name="e_fr_energy">    -15.83279019 </i>
    <i name="e_wo_entrp">    -15.81915778 </i>
    <i name="e_0_energy">    -15.82597399 </i>
   </energy>
  </scstep>
  <scstep>
   <time name="diag">    0.01    0.01</time>
   <time name="diis">    0.00    0.00</time>
   <time name="orth">    0.00    0.00</time>
   <time name="total">    0.02    0.02</time>
   <energy>
    <i name="e_fr_energy">    -15.83300392 </i>
    <i name="e_wo_entrp">    -15.81936794 </i>
    <i name="e_0_energy">    -15.82618593 </i>
   </energy>
  </scstep>
  <scstep>
   <time name="diag">    0.01    0.01</time>
   <time name="diis">    0.00    0.00</time>
   <time name="orth">    0.00    0.00</time>
   <time name="total">    0.02    0.02</time>
   <energy>
    <i name="e_fr_energy">    -15.83301360 </i>
    <i name="e_wo_entrp">    -15.81936236 </i>
    <i name="e_0_energy">    -15.82618798 </i>
   </energy>
  </scstep>
  <scstep>
   <time name="diag">    0.01    0.01</time>
   <time name="diis">    0.00    0.00</time>
   <time name="orth">    0.00    0.00</time>
   <time name="total">    0.02    0.02</time>
   <energy>
    <i name="alphaZ">    128.34718477 </i>
    <i name="ewald">  -1617.02651375 </i>
    <i name="hartreedc">   -388.14475616 </i>
    <i name="XCdc">     69.38011448 </i>
    <i name="pawpsdc">   1431.13515096 </i>
    <i name="pawaedc">  -1436.75707602 </i>
    <i name="eentropy">     -0.01365085 </i>
    <i name="bandstr">   -287.50229073 </i>
    <i name="atom">   2084.74881817 </i>
    <i name="e_fr_energy">    -15.83301914 </i>
    <i name="e_wo_entrp">    -15.81936828 </i>
    <i name="e_0_energy">    -15.82619371 </i>
   </energy>
  </scstep>
  <structure>
   <crystal>
    <varray name="basis" >
     <v>       2.93885093       0.00000000      -0.00000000 </v>
     <v>      -1.46942547       2.54511956      -0.00000000 </v>
     <v>       0.00000000      -0.00000000       4.54342141 </v>
    </varray>
    <i name="volume">     33.98355178 </i>
    <varray name="rec_basis" >
     <v>       0.34026905       0.19645442       0.00000000 </v>
     <v>      -0.00000000       0.39290885       0.00000000 </v>
     <v>       0.00000000       0.00000000       0.22009845 </v>
    </varray>
   </crystal>
   <varray name="positions" >
    <v>       0.33333334       0.66666669       0.25000000 </v>
    <v>       0.66666666       0.33333331       0.75000000 </v>
   </varray>
  </structure>
  <varray name="forces" >
   <v>       0.00000000       0.00000000       0.00000000 </v>
   <v>      -0.00000000      -0.00000000      -0.00000000 </v>
  </varray>
  <varray name="stress" >
   <v>      25.48641887       0.00000000      -0.00000000 </v>
   <v>       0.00000000      25.48641887       0.00000000 </v>
   <v>       0.00000000       0.00000000      17.53413720 </v>
  </varray>
  <energy>
   <i name="e_fr_energy">    -15.83301914 </i>
   <i name="e_wo_entrp">    -15.81936828 </i>
   <i name="e_0_energy">    -15.82619371 </i>
  </energy>
  <time name="totalsc">    0.19    0.19</time>
 </calculation>
 <calculation>
  <scstep>
   <time name="dav">    0.08    0.08</time>
   <time name="total">    0.08    0.08</time>
   <energy>
    <i name="alphaZ">    127.06975793 </i>
    <i name="ewald">  -1611.79300731 </i>
    <i name="hartreedc">   -386.79618683 </i>
    <i name="XCdc">     69.10678609 </i>
    <i name="pawpsdc">   1431.25705863 </i>
    <i name="pawaedc">  -1436.87329566 </i>
    <i name="eentropy">     -0.01352663 </i>
    <i name="bandstr">   -292.56493756 </i>
    <i name="atom">   2084.74881817 </i>
    <i name="e_fr_energy">    -15.85853316 </i>
    <i name="e_wo_entrp">    -15.84500653 </i>
    <i name="e_0_energy">    -15.85176985 </i>
   </energy>
  </scstep>
  <scstep>
   <time name="diag">    0.01    0.01</time>
   <time name="diis">    0.00    0.00</time>
   <time name="orth">    0.00    0.00</time>
   <time name="total">    0.02    0.02</time>
   <energy>
    <i name="e_fr_energy">    -15.83605785 </i>
    <i name="e_wo_entrp">    -15.82216543 </i>
    <i name="e_0_energy">    -15.82911164 </i>
   </energy>
  </scstep>
  <scstep>
   <time name="diag">    0.01    0.01</time>
   <time name="diis">    0.00    0.00</time>
   <time name="orth">    0.00    0.00</time>
   <time name="total">    0.02    0.02</time>
   <energy>
    <i name="e_fr_energy">    -15.83508617 </i>
    <i name="e_wo_entrp">    -15.82096500 </i>
    <i name="e_0_energy">    -15.82802559 </i>
   </energy>
  </scstep>
  <scstep>
   <time name="diag">    0.01    0.01</time>
   <time name="diis">    0.00    0.00</time>
   <time name="orth">    0.00    0.00</time>
   <time name="total">    0.02    0.02</time>
   <energy>
    <i name="e_fr_energy">    -15.83500065 </i>
    <i name="e_wo_entrp">    -15.82070050 </i>
    <i name="e_0_energy">    -15.82785058 </i>
   </energy>
  </scstep>
  <scstep>
   <time name="diag">    0.01    0.01</time>
   <time name="diis">    0.00    0.00</time>
   <time name="orth">    0.00    0.00</time>
   <time name="total">    0.02    0.02</time>
   <energy>
    <i name="e_fr_energy">    -15.83501705 </i>
    <i name="e_wo_entrp">    -15.82072766 </i>
    <i name="e_0_energy">    -15.82787235 </i>
   </energy>
  </scstep>
  <scstep>
   <time name="diag">    0.01    0.01</time>
   <time name="diis">    0.00    0.00</time>
   <time name="orth">    0.00    0.00</time>
   <time name="total">    0.02    0.02</time>
   <energy>
    <i name="alphaZ">    127.06975793 </i>
    <i name="ewald">  -1611.79300731 </i>
    <i name="hartreedc">   -390.35137982 </i>
    <i name="XCdc">     69.31475626 </i>
    <i name="pawpsdc">   1427.86168879 </i>
    <i name="pawaedc">  -1433.43546764 </i>
    <i name="eentropy">     -0.01428667 </i>
    <i name="bandstr">   -289.23589797 </i>
    <i name="atom">   2084.74881817 </i>
    <i name="e_fr_energy">    -15.83501828 </i>
    <i name="e_wo_entrp">    -15.82073161 </i>
    <i name="e_0_energy">    -15.82787495 </i>
   </energy>
  </scstep>
  <structure>
   <crystal>
    <varray name="basis" >
     <v>       2.94197065       0.00000000      -0.00000000 </v>
     <v>      -1.47098533       2.54782132      -0.00000000 </v>
     <v>       0.00000000      -0.00000000       4.57936867 </v>
    </varray>
    <i name="volume">     34.32518698 </i>
    <varray name="rec_basis" >
     <v>       0.33990822       0.19624610       0.00000000 </v>
     <v>      -0.00000000       0.39249220       0.00000000 </v>
     <v>       0.00000000       0.00000000       0.21837071 </v>
    </varray>
   </crystal>
   <varray name="positions" >
    <v>       0.33333334       0.66666669       0.25000000 </v>
    <v>       0.66666666       0.33333331       0.75000000 </v>
   </varray>
  </structure>
  <varray name="forces" >
   <v>       0.00000000      -0.00000000       0.00000000 </v>
   <v>      -0.00000000       0.00000000      -0.00000000 </v>
  </varray>
  <varray name="stress" >
   <v>      16.62215572       0.00000000      -0.00000000 </v>
   <v>      -0.00000000      16.62215572      -0.00000000 </v>
   <v>       0.00000000      -0.00000000      -4.45361017 </v>
  </varray>
  <energy>
   <i name="e_fr_energy">    -15.83501828 </i>
   <i name="e_wo_entrp">    -15.82073161 </i>
   <i name="e_0_energy">    -15.82787495 </i>
  </energy>
  <time name="totalsc">    0.20    0.21</time>
 </calculation>
 <calculation>
  <scstep>
   <time name="dav">    0.05    0.05</time>
   <time name="total">    0.05    0.05</time>
   <energy>
    <i name="alphaZ">    126.08399170 </i>
    <i name="ewald">  -1607.27733886 </i>
    <i name="hartreedc">   -389.46772488 </i>
    <i name="XCdc">     69.10168866 </i>
    <i name="pawpsdc">   1427.89598712 </i>
    <i name="pawaedc">  -1433.46979829 </i>
    <i name="eentropy">     -0.01416319 </i>
    <i name="bandstr">   -293.46750443 </i>
    <i name="atom">   2084.74881817 </i>
    <i name="e_fr_energy">    -15.86604400 </i>
    <i name="e_wo_entrp">    -15.85188081 </i>
    <i name="e_0_energy">    -15.85896240 </i>
   </energy>
  </scstep>
  <scstep>
   <time name="diag">    0.01    0.01</time>
   <time name="diis">    0.00    0.00</time>
   <time name="orth">    0.00    0.00</time>
   <time name="total">    0.02    0.02</time>
   <energy>
    <i name="e_fr_energy">    -15.84184120 </i>
    <i name="e_wo_entrp">    -15.82813952 </i>
    <i name="e_0_energy">    -15.83499036 </i>
   </energy>
  </scstep>
  <scstep>
   <time name="diag">    0.01    0.01</time>
   <time name="diis">    0.00    0.00</time>
   <time name="orth">    0.00    0.00</time>
   <time name="total">    0.02    0.02</time>
   <energy>
    <i name="e_fr_energy">    -15.83861352 </i>
    <i name="e_wo_entrp">    -15.82510250 </i>
    <i name="e_0_energy">    -15.83185801 </i>
   </energy>
  </scstep>
  <scstep>
   <time name="diag">    0.01    0.01</time>
   <time name="diis">    0.00    0.00</time>
   <time name="orth">    0.00    0.00</time>
   <time name="total">    0.02    0.02</time>
   <energy>
    <i name="e_fr_energy">    -15.83831712 </i>
    <i name="e_wo_entrp">    -15.82486999 </i>
    <i name="e_0_energy">    -15.83159355 </i>
   </energy>
  </scstep>
  <scstep>
   <time name="diag">    0.01    0.01</time>
   <time name="diis">    0.00    0.00</time>
   <time name="orth">    0.00    0.00</time>
   <time name="total">    0.02    0.02</time>
   <energy>
    <i name="e_fr_energy">    -15.83833746 </i>
    <i name="e_wo_entrp">    -15.82488933 </i>
    <i name="e_0_energy">    -15.83161339 </i>
   </energy>
  </scstep>
  <scstep>
   <time name="diag">    0.04    0.04</time>
   <time name="diis">    0.00    0.00</time>
   <time name="orth">    0.00    0.00</time>
   <time name="total">    0.04    0.04</time>
   <energy>
    <i name="alphaZ">    126.08399170 </i>
    <i name="ewald">  -1607.27733886 </i>
    <i name="hartreedc">   -392.14250183 </i>
    <i name="XCdc">     69.25438493 </i>
    <i name="pawpsdc">   1424.85978893 </i>
    <i name="pawaedc">  -1430.47520244 </i>
    <i name="eentropy">     -0.01344887 </i>
    <i name="bandstr">   -290.87683132 </i>
    <i name="atom">   2084.74881817 </i>
    <i name="e_fr_energy">    -15.83833959 </i>
    <i name="e_wo_entrp">    -15.82489072 </i>
    <i name="e_0_energy">    -15.83161516 </i>
   </energy>
  </scstep>
  <structure>
   <crystal>
    <varray name="basis" >
     <v>       2.96392526       0.00000000      -0.00000000 </v>
     <v>      -1.48196263       2.56683457      -0.00000000 </v>
     <v>       0.00000000      -0.00000000       4.54705322 </v>
    </varray>
    <i name="volume">     34.59355261 </i>
    <varray name="rec_basis" >
     <v>       0.33739042       0.19479245       0.00000000 </v>
     <v>      -0.00000000       0.38958490       0.00000000 </v>
     <v>       0.00000000       0.00000000       0.21992265 </v>
    </varray>
   </crystal>
   <varray name="positions" >
    <v>       0.33333334       0.66666669       0.25000000 </v>
    <v>       0.66666666       0.33333331       0.75000000 </v>
   </varray>
  </structure>
  <varray name="forces" >
   <v>       0.00000000       0.00000000      -0.00000000 </v>
   <v>      -0.00000000      -0.00000000       0.00000000 </v>
  </varray>
  <varray name="stress" >
   <v>       3.23401009       0.00000000      -0.00000000 </v>
   <v>       0.00000000       3.23401009       0.00000000 </v>
   <v>       0.00000000      -0.00000000       3.04263041 </v>
  </varray>
  <energy>
   <i name="e_fr_energy">    -15.83833959 </i>
   <i name="e_wo_entrp">    -15.82489072 </i>
   <i name="e_0_energy">    -15.83161516 </i>
  </energy>
  <time name="totalsc">    0.20    0.20</time>
 </calculation>
 <calculation>
  <scstep>
   <time name="dav">    0.06    0.06</time>
   <time name="total">    0.07    0.07</time>
   <energy>
    <i name="alphaZ">    125.98021273 </i>
    <i name="ewald">  -1606.79572810 </i>
    <i name="hartreedc">   -392.05624750 </i>
    <i name="XCdc">     69.23198137 </i>
    <i name="pawpsdc">   1424.88850876 </i>
    <i name="pawaedc">  -1430.50360841 </i>
    <i name="eentropy">     -0.01344514 </i>
    <i name="bandstr">   -291.31917388 </i>
    <i name="atom">   2084.74881817 </i>
    <i name="e_fr_energy">    -15.83868200 </i>
    <i name="e_wo_entrp">    -15.82523686 </i>
    <i name="e_0_energy">    -15.83195943 </i>
   </energy>
  </scstep>
  <scstep>
   <time name="diag">    0.01    0.01</time>
   <time name="diis">    0.00    0.00</time>
   <time name="orth">    0.00    0.00</time>
   <time name="total">    0.02    0.02</time>
   <energy>
    <i name="e_fr_energy">    -15.83840476 </i>
    <i name="e_wo_entrp">    -15.82497181 </i>
    <i name="e_0_energy">    -15.83168828 </i>
   </energy>
  </scstep>
  <scstep>
   <time name="diag">    0.01    0.01</time>
   <time name="diis">    0.00    0.00</time>
   <time name="orth">    0.00    0.00</time>
   <time name="total">    0.02    0.02</time>
   <energy>
    <i name="e_fr_energy">    -15.83836795 </i>
    <i name="e_wo_entrp">    -15.82494445 </i>
    <i name="e_0_energy">    -15.83165620 </i>
   </energy>
  </scstep>
  <scstep>
   <time name="diag">    0.01    0.01</time>
   <time name="diis">    0.00    0.00</time>
   <time name="orth">    0.00    0.00</time>
   <time name="total">    0.02    0.02</time>
   <energy>
    <i name="alphaZ">    125.98021273 </i>
    <i name="ewald">  -1606.79572810 </i>
    <i name="hartreedc">   -392.34970098 </i>
    <i name="XCdc">     69.24868531 </i>
    <i name="pawpsdc">   1424.67989570 </i>
    <i name="pawaedc">  -1430.29542163 </i>
    <i name="eentropy">     -0.01341885 </i>
    <i name="bandstr">   -291.04170846 </i>
    <i name="atom">   2084.74881817 </i>
    <i name="e_fr_energy">    -15.83836610 </i>
    <i name="e_wo_entrp">    -15.82494725 </i>
    <i name="e_0_energy">    -15.83165668 </i>
   </energy>
  </scstep>
  <structure>
   <crystal>
    <varray name="basis" >
     <v>       2.96627335       0.00000000      -0.00000000 </v>
     <v>      -1.48313668       2.56886808      -0.00000000 </v>
     <v>       0.00000000      -0.00000000       4.54359701 </v>
    </varray>
    <i name="volume">     34.62204981 </i>
    <varray name="rec_basis" >
     <v>       0.33712335       0.19463826       0.00000000 </v>
     <v>      -0.00000000       0.38927651       0.00000000 </v>
     <v>       0.00000000       0.00000000       0.22008994 </v>
    </varray>
   </crystal>
   <varray name="positions" >
    <v>       0.33333334       0.66666669       0.25000000 </v>
    <v>       0.66666666       0.33333331       0.75000000 </v>
   </varray>
  </structure>
  <varray name="forces" >
   <v>       0.00000000      -0.00000000      -0.00000000 </v>
   <v>      -0.00000000       0.00000000       0.00000000 </v>
  </varray>
  <varray name="stress" >
   <v>       1.89875559       0.00000000       0.00000000 </v>
   <v>       0.00000000       1.89875559      -0.00000000 </v>
   <v>       0.00000000       0.00000000       4.01689884 </v>
  </varray>
  <energy>
   <i name="e_fr_energy">    -15.83836610 </i>
   <i name="e_wo_entrp">    -15.82494725 </i>
   <i name="e_0_energy">    -15.83165668 </i>
  </energy>
  <time name="totalsc">    0.15    0.15</time>
 </calculation>
 <calculation>
  <scstep>
   <time name="dav">    0.04    0.04</time>
   <time name="total">    0.04    0.04</time>
   <energy>
    <i name="alphaZ">    125.52382738 </i>
    <i name="ewald">  -1604.89559713 </i>
    <i name="hartreedc">   -391.84952120 </i>
    <i name="XCdc">     69.14905103 </i>
    <i name="pawpsdc">   1424.59862942 </i>
    <i name="pawaedc">  -1430.21758464 </i>
    <i name="eentropy">     -0.01340456 </i>
    <i name="bandstr">   -292.88540842 </i>
    <i name="atom">   2084.74881817 </i>
    <i name="e_fr_energy">    -15.84118996 </i>
    <i name="e_wo_entrp">    -15.82778539 </i>
    <i name="e_0_energy">    -15.83448767 </i>
   </energy>
  </scstep>
  <scstep>
   <time name="diag">    0.01    0.01</time>
   <time name="diis">    0.00    0.00</time>
   <time name="orth">    0.00    0.00</time>
   <time name="total">    0.02    0.02</time>
   <energy>
    <i name="e_fr_energy">    -15.83845360 </i>
    <i name="e_wo_entrp">    -15.82501554 </i>
    <i name="e_0_energy">    -15.83173457 </i>
   </energy>
  </scstep>
  <scstep>
   <time name="diag">    0.02    0.02</time>
   <time name="diis">    0.00    0.00</time>
   <time name="orth">    0.00    0.00</time>
   <time name="total">    0.02    0.02</time>
   <energy>
    <i name="e_fr_energy">    -15.83838315 </i>
    <i name="e_wo_entrp">    -15.82493035 </i>
    <i name="e_0_energy">    -15.83165675 </i>
   </energy>
  </scstep>
  <scstep>
   <time name="diag">    0.01    0.01</time>
   <time name="diis">    0.00    0.00</time>
   <time name="orth">    0.00    0.00</time>
   <time name="total">    0.02    0.02</time>
   <energy>
    <i name="alphaZ">    125.52382738 </i>
    <i name="ewald">  -1604.89559713 </i>
    <i name="hartreedc">   -393.17239743 </i>
    <i name="XCdc">     69.22602016 </i>
    <i name="pawpsdc">   1423.63025200 </i>
    <i name="pawaedc">  -1429.22414084 </i>
    <i name="eentropy">     -0.01346491 </i>
    <i name="bandstr">   -291.66169709 </i>
    <i name="atom">   2084.74881817 </i>
    <i name="e_fr_energy">    -15.83837969 </i>
    <i name="e_wo_entrp">    -15.82491478 </i>
    <i name="e_0_energy">    -15.83164723 </i>
   </energy>
  </scstep>
  <structure>
   <crystal>
    <varray name="basis" >
     <v>       2.96824877       0.00000000      -0.00000000 </v>
     <v>      -1.48412438       2.57057884      -0.00000000 </v>
     <v>       0.00000000       0.00000000       4.55404919 </v>
    </varray>
    <i name="volume">     34.74793026 </i>
    <varray name="rec_basis" >
     <v>       0.33689899       0.19450872      -0.00000000 </v>
     <v>      -0.00000000       0.38901744      -0.00000000 </v>
     <v>       0.00000000       0.00000000       0.21958480 </v>
    </varray>
   </crystal>
   <varray name="positions" >
    <v>       0.33333334       0.66666669       0.25000000 </v>
    <v>       0.66666666       0.33333331       0.75000000 </v>
   </varray>
  </structure>
  <varray name="forces" >
   <v>       0.00000000      -0.00000000       0.00000000 </v>
   <v>      -0.00000000       0.00000000      -0.00000000 </v>
  </varray>
  <varray name="stress" >
   <v>      -1.65762249       0.00000000       0.00000000 </v>
   <v>       0.00000000      -1.65762249      -0.00000000 </v>
   <v>      -0.00000000      -0.00000000      -3.33459057 </v>
  </varray>
  <energy>
   <i name="e_fr_energy">    -15.83837969 </i>
   <i name="e_wo_entrp">    -15.82491478 </i>
   <i name="e_0_energy">    -15.83164723 </i>
  </energy>
  <time name="totalsc">    0.13    0.13</time>
 </calculation>
 <calculation>
  <scstep>
   <time name="dav">    0.05    0.05</time>
   <time name="total">    0.05    0.05</time>
   <energy>
    <i name="alphaZ">    125.73219897 </i>
    <i name="ewald">  -1605.76383869 </i>
    <i name="hartreedc">   -393.35431008 </i>
    <i name="XCdc">     69.26937418 </i>
    <i name="pawpsdc">   1423.32530356 </i>
    <i name="pawaedc">  -1428.93079876 </i>
    <i name="eentropy">     -0.01347383 </i>
    <i name="bandstr">   -290.85227151 </i>
    <i name="atom">   2084.74881817 </i>
    <i name="e_fr_energy">    -15.83899800 </i>
    <i name="e_wo_entrp">    -15.82552417 </i>
    <i name="e_0_energy">    -15.83226108 </i>
   </energy>
  </scstep>
  <scstep>
   <time name="diag">    0.01    0.01</time>
   <time name="diis">    0.00    0.00</time>
   <time name="orth">    0.00    0.00</time>
   <time name="total">    0.02    0.02</time>
   <energy>
    <i name="e_fr_energy">    -15.83844768 </i>
    <i name="e_wo_entrp">    -15.82499434 </i>
    <i name="e_0_energy">    -15.83172101 </i>
   </energy>
  </scstep>
  <scstep>
   <time name="diag">    0.01    0.01</time>
   <time name="diis">    0.00    0.00</time>
   <time name="orth">    0.00    0.00</time>
   <time name="total">    0.02    0.02</time>
   <energy>
    <i name="e_fr_energy">    -15.83843124 </i>
    <i name="e_wo_entrp">    -15.82498503 </i>
    <i name="e_0_energy">    -15.83170813 </i>
   </energy>
  </scstep>
  <scstep>
   <time name="diag">    0.01    0.01</time>
   <time name="diis">    0.00    0.00</time>
   <time name="orth">    0.00    0.00</time>
   <time name="total">    0.02    0.02</time>
   <energy>
    <i name="alphaZ">    125.73219897 </i>
    <i name="ewald">  -1605.76383869 </i>
    <i name="hartreedc">   -392.76154356 </i>
    <i name="XCdc">     69.23482408 </i>
    <i name="pawpsdc">   1423.83086140 </i>
    <i name="pawaedc">  -1429.44856637 </i>
    <i name="eentropy">     -0.01344127 </i>
    <i name="bandstr">   -291.39774216 </i>
    <i name="atom">   2084.74881817 </i>
    <i name="e_fr_energy">    -15.83842943 </i>
    <i name="e_wo_entrp">    -15.82498816 </i>
    <i name="e_0_energy">    -15.83170879 </i>
   </energy>
  </scstep>
  <structure>
   <crystal>
    <varray name="basis" >
     <v>       2.96734555       0.00000000      -0.00000000 </v>
     <v>      -1.48367277       2.56979662      -0.00000000 </v>
     <v>       0.00000000      -0.00000000       4.54927014 </v>
    </varray>
    <i name="volume">     34.69034373 </i>
    <varray name="rec_basis" >
     <v>       0.33700153       0.19456793       0.00000000 </v>
     <v>      -0.00000000       0.38913585       0.00000000 </v>
     <v>       0.00000000       0.00000000       0.21981548 </v>
    </varray>
   </crystal>
   <varray name="positions" >
    <v>       0.33333334       0.66666669       0.25000000 </v>
    <v>       0.66666666       0.33333331       0.75000000 </v>
   </varray>
  </structure>
  <varray name="forces" >
   <v>       0.00000000       0.00000000       0.00000000 </v>
   <v>      -0.00000000      -0.00000000      -0.00000000 </v>
  </varray>
  <varray name="stress" >
   <v>      -0.12227186       0.00000000      -0.00000000 </v>
   <v>       0.00000000      -0.12227186      -0.00000000 </v>
   <v>       0.00000000      -0.00000000       0.17038969 </v>
  </varray>
  <energy>
   <i name="e_fr_energy">    -15.83842943 </i>
   <i name="e_wo_entrp">    -15.82498816 </i>
   <i name="e_0_energy">    -15.83170879 </i>
  </energy>
  <time name="totalsc">    0.13    0.13</time>
  <eigenvalues>
   <array>
    <dimension dim="1">band</dimension>
    <dimension dim="2">kpoint</dimension>
    <dimension dim="3">spin</dimension>
    <field>eigene</field>
    <field>occ</field>
    <set>
     <set comment="spin 1">
      <set comment="kpoint 1">
       <r>  -27.5634    1.0000 </r>
       <r>  -26.9136    1.0000 </r>
       <r>  -26.9136    1.0000 </r>
       <r>  -26.8097    1.0000 </r>
       <r>  -26.7944    1.0000 </r>
       <r>  -26.7944    1.0000 </r>
       <r>   -0.2293    1.0000 </r>
       <r>    3.2596    1.0000 </r>
       <r>    6.6353    0.0000 </r>
       <r>    6.6353    0.0000 </r>
       <r>    6.9939    0.0000 </r>
       <r>    7.0255    0.0000 </r>
       <r>    7.1894    0.0000 </r>
       <r>    7.1895    0.0000 </r>
       <r>    7.3599    0.0000 </r>
       <r>    7.3599    0.0000 </r>
       <r>    9.0323    0.0000 </r>
       <r>    9.0323    0.0000 </r>
       <r>   14.5275    0.0000 </r>
       <r>   20.4554    0.0000 </r>
       <r>   23.3467    0.0000 </r>
       <r>   24.1028    0.0000 </r>
       <r>   24.8887    0.0000 </r>
       <r>   24.8887    0.0000 </r>
       <r>   25.9406    0.0000 </r>
       <r>   25.9406    0.0000 </r>
       <r>   27.3363    0.0000 </r>
       <r>   27.3363    0.0000 </r>
      </set>
      <set comment="kpoint 2">
       <r>  -27.3595    1.0000 </r>
       <r>  -27.2335    1.0000 </r>
       <r>  -27.1075    1.0000 </r>
       <r>  -27.0186    1.0000 </r>
       <r>  -26.9280    1.0000 </r>
       <r>  -26.8359    1.0000 </r>
       <r>    2.2949    1.0000 </r>
       <r>    4.1511    1.0000 </r>
       <r>    4.5553    1.0000 </r>
       <r>    5.2261    1.0000 </r>
       <r>    6.4531    0.0000 </r>
       <r>    6.8109    0.0000 </r>
       <r>    6.8436    0.0000 </r>
       <r>    8.3981    0.0000 </r>
       <r>    8.6272    0.0000 </r>
       <r>    8.6741    0.0000 </r>
       <r>    9.4533    0.0000 </r>
       <r>   13.5466    0.0000 </r>
       <r>   13.9233    0.0000 </r>
       <r>   15.3450    0.0000 </r>
       <r>   18.4544    0.0000 </r>
       <r>   19.8926    0.0000 </r>
       <r>   21.0760    0.0000 </r>
       <r>   22.8117    0.0000 </r>
       <r>   24.1801    0.0000 </r>
       <r>   26.4353    0.0000 </r>
       <r>   28.0121    0.0000 </r>
       <r>   28.0136    0.0000 </r>
      </set>
      <set comment="kpoint 3">
       <r>  -27.2738    1.0000 </r>
       <r>  -27.1484    1.0000 </r>
       <r>  -27.1484    1.0000 </r>
       <r>  -27.1221    1.0000 </r>
       <r>  -27.1221    1.0000 </r>
       <r>  -27.0128    1.0000 </r>
       <r>    4.1722    1.0000 </r>
       <r>    4.4495    1.0000 </r>
       <r>    4.4495    1.0000 </r>
       <r>    4.5535    1.0000 </r>
       <r>    6.1726    0.0000 </r>
       <r>    6.1726    0.0000 </r>
       <r>    7.5172    0.0000 </r>
       <r>    9.0201    0.0000 </r>
       <r>    9.0201    0.0000 </r>
       <r>    9.3302    0.0000 </r>
       <r>   11.7163    0.0000 </r>
       <r>   12.1003    0.0000 </r>
       <r>   12.1003    0.0000 </r>
       <r>   16.9658    0.0000 </r>
       <r>   18.1560    0.0000 </r>
       <r>   18.1560    0.0000 </r>
       <r>   18.6708    0.0000 </r>
       <r>   19.4271    0.0000 </r>
       <r>   19.4271    0.0000 </r>
       <r>   28.0130    0.0000 </r>
       <r>   28.0130    0.0000 </r>
       <r>   30.3935    0.0000 </r>
      </set>
      <set comment="kpoint 4">
       <r>  -27.3822    1.0000 </r>
       <r>  -27.0057    1.0000 </r>
       <r>  -26.8840    1.0000 </r>
       <r>  -26.8840    1.0000 </r>
       <r>  -26.8244    1.0000 </r>
       <r>  -26.8244    1.0000 </r>
       <r>    0.7062    1.0000 </r>
       <r>    2.6607    1.0000 </r>
       <r>    6.0808    0.0032 </r>
       <r>    6.4003    0.0000 </r>
       <r>    6.4003    0.0000 </r>
       <r>    6.5068    0.0000 </r>
       <r>    6.7363    0.0000 </r>
       <r>    6.7363    0.0000 </r>
       <r>    8.2027    0.0000 </r>
       <r>    8.2027    0.0000 </r>
       <r>    9.0010    0.0000 </r>
       <r>    9.0010    0.0000 </r>
       <r>   17.4862    0.0000 </r>
       <r>   19.9665    0.0000 </r>
       <r>   21.7319    0.0000 </r>
       <r>   23.0945    0.0000 </r>
       <r>   24.8294    0.0000 </r>
       <r>   24.8294    0.0000 </r>
       <r>   25.5337    0.0000 </r>
       <r>   25.5337    0.0000 </r>
       <r>   28.0125    0.0000 </r>
       <r>   28.0127    0.0000 </r>
      </set>
      <set comment="kpoint 5">
       <r>  -27.3952    1.0000 </r>
       <r>  -27.2704    1.0000 </r>
       <r>  -27.0517    1.0000 </r>
       <r>  -26.9734    1.0000 </r>
       <r>  -26.9104    1.0000 </r>
       <r>  -26.8821    1.0000 </r>
       <r>    2.7367    1.0000 </r>
       <r>    3.7924    1.0000 </r>
       <r>    4.8210    1.0000 </r>
       <r>    5.4401    1.0000 </r>
       <r>    6.3518    0.0000 </r>
       <r>    6.8749    0.0000 </r>
       <r>    6.9098    0.0000 </r>
       <r>    7.9942    0.0000 </r>
       <r>    8.6549    0.0000 </r>
       <r>    8.8145    0.0000 </r>
       <r>    9.1564    0.0000 </r>
       <r>   10.4273    0.0000 </r>
       <r>   15.8081    0.0000 </r>
       <r>   17.2733    0.0000 </r>
       <r>   18.8842    0.0000 </r>
       <r>   19.9823    0.0000 </r>
       <r>   21.6633    0.0000 </r>
       <r>   23.0979    0.0000 </r>
       <r>   23.3389    0.0000 </r>
       <r>   24.6594    0.0000 </r>
       <r>   27.3885    0.0000 </r>
       <r>   28.0134    0.0000 </r>
      </set>
      <set comment="kpoint 6">
       <r>  -27.3367    1.0000 </r>
       <r>  -27.3367    1.0000 </r>
       <r>  -27.2097    1.0000 </r>
       <r>  -27.0791    1.0000 </r>
       <r>  -26.9297    1.0000 </r>
       <r>  -26.9297    1.0000 </r>
       <r>    4.4726    1.0000 </r>
       <r>    4.6564    1.0000 </r>
       <r>    4.7185    1.0000 </r>
       <r>    4.7185    1.0000 </r>
       <r>    5.8402    0.7492 </r>
       <r>    5.8402    0.7492 </r>
       <r>    7.4320    0.0000 </r>
       <r>    8.1523    0.0000 </r>
       <r>    9.0089    0.0000 </r>
       <r>    9.0090    0.0000 </r>
       <r>   12.4155    0.0000 </r>
       <r>   12.4155    0.0000 </r>
       <r>   13.1117    0.0000 </r>
       <r>   15.1130    0.0000 </r>
       <r>   15.8768    0.0000 </r>
       <r>   15.8768    0.0000 </r>
       <r>   21.8664    0.0000 </r>
       <r>   23.1239    0.0000 </r>
       <r>   23.1239    0.0000 </r>
       <r>   27.2415    0.0000 </r>
       <r>   28.0131    0.0000 </r>
       <r>   28.0131    0.0000 </r>
      </set>
     </set>
    </set>
   </array>
  </eigenvalues>
  <separator name="orbital magnetization" >
   <v name="MAGDIPOLOUT">      0.00000000      0.00000000      0.00000000</v>
  </separator>
  <dos>
   <i name="efermi">      5.88772410 </i>
   <total>
    <array>
     <dimension dim="1">gridpoints</dimension>
     <dimension dim="2">spin</dimension>
     <field>energy</field>
     <field>total</field>
     <field>integrated</field>
     <set>
      <set comment="spin 1">
       <r>   -30.4612     0.0000     0.0000 </r>
       <r>   -30.2487     0.0000     0.0000 </r>
       <r>   -30.0362     0.0000     0.0000 </r>
       <r>   -29.8237     0.0000     0.0000 </r>
       <r>   -29.6112     0.0000     0.0000 </r>
       <r>   -29.3987     0.0000     0.0000 </r>
       <r>   -29.1862     0.0000     0.0000 </r>
       <r>   -28.9736     0.0000     0.0000 </r>
       <r>   -28.7611     0.0000     0.0000 </r>
       <r>   -28.5486     0.0000     0.0000 </r>
       <r>   -28.3361     0.0000     0.0000 </r>
       <r>   -28.1236     0.0000     0.0000 </r>
       <r>   -27.9111     0.0000     0.0000 </r>
       <r>   -27.6986     0.0098     0.0021 </r>
       <r>   -27.4861     0.8875     0.1907 </r>
       <r>   -27.2736    11.5591     2.6471 </r>
       <r>   -27.0611    14.2151     5.6679 </r>
       <r>   -26.8486    23.4198    10.6448 </r>
       <r>   -26.6361     6.3538    11.9951 </r>
       <r>   -26.4235     0.0232    12.0000 </r>
       <r>   -26.2110     0.0000    12.0000 </r>
       <r>   -25.9985     0.0000    12.0000 </r>
       <r>   -25.7860     0.0000    12.0000 </r>
       <r>   -25.5735     0.0000    12.0000 </r>
       <r>   -25.3610     0.0000    12.0000 </r>
       <r>   -25.1485     0.0000    12.0000 </r>
       <r>   -24.9360     0.0000    12.0000 </r>
       <r>   -24.7235     0.0000    12.0000 </r>
       <r>   -24.5110     0.0000    12.0000 </r>
       <r>   -24.2985     0.0000    12.0000 </r>
       <r>   -24.0859     0.0000    12.0000 </r>
       <r>   -23.8734     0.0000    12.0000 </r>
       <r>   -23.6609     0.0000    12.0000 </r>
       <r>   -23.4484     0.0000    12.0000 </r>
       <r>   -23.2359     0.0000    12.0000 </r>
       <r>   -23.0234     0.0000    12.0000 </r>
       <r>   -22.8109     0.0000    12.0000 </r>
       <r>   -22.5984     0.0000    12.0000 </r>
       <r>   -22.3859     0.0000    12.0000 </r>
       <r>   -22.1734     0.0000    12.0000 </r>
       <r>   -21.9609     0.0000    12.0000 </r>
       <r>   -21.7484     0.0000    12.0000 </r>
       <r>   -21.5358     0.0000    12.0000 </r>
       <r>   -21.3233     0.0000    12.0000 </r>
       <r>   -21.1108     0.0000    12.0000 </r>
       <r>   -20.8983     0.0000    12.0000 </r>
       <r>   -20.6858     0.0000    12.0000 </r>
       <r>   -20.4733     0.0000    12.0000 </r>
       <r>   -20.2608     0.0000    12.0000 </r>
       <r>   -20.0483     0.0000    12.0000 </r>
       <r>   -19.8358     0.0000    12.0000 </r>
       <r>   -19.6233     0.0000    12.0000 </r>
       <r>   -19.4108     0.0000    12.0000 </r>
       <r>   -19.1983     0.0000    12.0000 </r>
       <r>   -18.9857     0.0000    12.0000 </r>
       <r>   -18.7732     0.0000    12.0000 </r>
       <r>   -18.5607     0.0000    12.0000 </r>
       <r>   -18.3482     0.0000    12.0000 </r>
       <r>   -18.1357     0.0000    12.0000 </r>
       <r>   -17.9232     0.0000    12.0000 </r>
       <r>   -17.7107     0.0000    12.0000 </r>
       <r>   -17.4982     0.0000    12.0000 </r>
       <r>   -17.2857     0.0000    12.0000 </r>
       <r>   -17.0732     0.0000    12.0000 </r>
       <r>   -16.8607     0.0000    12.0000 </r>
       <r>   -16.6481     0.0000    12.0000 </r>
       <r>   -16.4356     0.0000    12.0000 </r>
       <r>   -16.2231     0.0000    12.0000 </r>
       <r>   -16.0106     0.0000    12.0000 </r>
       <r>   -15.7981     0.0000    12.0000 </r>
       <r>   -15.5856     0.0000    12.0000 </r>
       <r>   -15.3731     0.0000    12.0000 </r>
       <r>   -15.1606     0.0000    12.0000 </r>
       <r>   -14.9481     0.0000    12.0000 </r>
       <r>   -14.7356     0.0000    12.0000 </r>
       <r>   -14.5231     0.0000    12.0000 </r>
       <r>   -14.3106     0.0000    12.0000 </r>
       <r>   -14.0980     0.0000    12.0000 </r>
       <r>   -13.8855     0.0000    12.0000 </r>
       <r>   -13.6730     0.0000    12.0000 </r>
       <r>   -13.4605     0.0000    12.0000 </r>
       <r>   -13.2480     0.0000    12.0000 </r>
       <r>   -13.0355     0.0000    12.0000 </r>
       <r>   -12.8230     0.0000    12.0000 </r>
       <r>   -12.6105     0.0000    12.0000 </r>
       <r>   -12.3980     0.0000    12.0000 </r>
       <r>   -12.1855     0.0000    12.0000 </r>
       <r>   -11.9730     0.0000    12.0000 </r>
       <r>   -11.7605     0.0000    12.0000 </r>
       <r>   -11.5479     0.0000    12.0000 </r>
       <r>   -11.3354     0.0000    12.0000 </r>
       <r>   -11.1229     0.0000    12.0000 </r>
       <r>   -10.9104     0.0000    12.0000 </r>
       <r>   -10.6979     0.0000    12.0000 </r>
       <r>   -10.4854     0.0000    12.0000 </r>
       <r>   -10.2729     0.0000    12.0000 </r>
       <r>   -10.0604     0.0000    12.0000 </r>
       <r>    -9.8479     0.0000    12.0000 </r>
       <r>    -9.6354     0.0000    12.0000 </r>
       <r>    -9.4229     0.0000    12.0000 </r>
       <r>    -9.2103     0.0000    12.0000 </r>
       <r>    -8.9978     0.0000    12.0000 </r>
       <r>    -8.7853     0.0000    12.0000 </r>
       <r>    -8.5728     0.0000    12.0000 </r>
       <r>    -8.3603     0.0000    12.0000 </r>
       <r>    -8.1478     0.0000    12.0000 </r>
       <r>    -7.9353     0.0000    12.0000 </r>
       <r>    -7.7228     0.0000    12.0000 </r>
       <r>    -7.5103     0.0000    12.0000 </r>
       <r>    -7.2978     0.0000    12.0000 </r>
       <r>    -7.0853     0.0000    12.0000 </r>
       <r>    -6.8728     0.0000    12.0000 </r>
       <r>    -6.6602     0.0000    12.0000 </r>
       <r>    -6.4477     0.0000    12.0000 </r>
       <r>    -6.2352     0.0000    12.0000 </r>
       <r>    -6.0227     0.0000    12.0000 </r>
       <r>    -5.8102     0.0000    12.0000 </r>
       <r>    -5.5977     0.0000    12.0000 </r>
       <r>    -5.3852     0.0000    12.0000 </r>
       <r>    -5.1727     0.0000    12.0000 </r>
       <r>    -4.9602     0.0000    12.0000 </r>
       <r>    -4.7477     0.0000    12.0000 </r>
       <r>    -4.5352     0.0000    12.0000 </r>
       <r>    -4.3227     0.0000    12.0000 </r>
       <r>    -4.1101     0.0000    12.0000 </r>
       <r>    -3.8976     0.0000    12.0000 </r>
       <r>    -3.6851     0.0000    12.0000 </r>
       <r>    -3.4726     0.0000    12.0000 </r>
       <r>    -3.2601     0.0000    12.0000 </r>
       <r>    -3.0476     0.0000    12.0000 </r>
       <r>    -2.8351     0.0000    12.0000 </r>
       <r>    -2.6226     0.0000    12.0000 </r>
       <r>    -2.4101     0.0000    12.0000 </r>
       <r>    -2.1976     0.0000    12.0000 </r>
       <r>    -1.9851     0.0000    12.0000 </r>
       <r>    -1.7725     0.0000    12.0000 </r>
       <r>    -1.5600     0.0000    12.0000 </r>
       <r>    -1.3475     0.0000    12.0000 </r>
       <r>    -1.1350     0.0000    12.0000 </r>
       <r>    -0.9225     0.0000    12.0000 </r>
       <r>    -0.7100     0.0000    12.0000 </r>
       <r>    -0.4975     0.0000    12.0000 </r>
       <r>    -0.2850     0.0751    12.0160 </r>
       <r>    -0.0725     0.2688    12.0731 </r>
       <r>     0.1400     0.0046    12.0741 </r>
       <r>     0.3525     0.0000    12.0741 </r>
       <r>     0.5650     0.0160    12.0775 </r>
       <r>     0.7776     0.5720    12.1990 </r>
       <r>     0.9901     0.1091    12.2222 </r>
       <r>     1.2026     0.0000    12.2222 </r>
       <r>     1.4151     0.0000    12.2222 </r>
       <r>     1.6276     0.0000    12.2222 </r>
       <r>     1.8401     0.0000    12.2222 </r>
       <r>     2.0526     0.0006    12.2224 </r>
       <r>     2.2651     0.7034    12.3718 </r>
       <r>     2.4776     1.3810    12.6653 </r>
       <r>     2.6901     1.5341    12.9913 </r>
       <r>     2.9026     3.3124    13.6952 </r>
       <r>     3.1151     0.0470    13.7052 </r>
       <r>     3.3277     0.2829    13.7653 </r>
       <r>     3.5402     0.0592    13.7779 </r>
       <r>     3.7527     1.2010    14.0332 </r>
       <r>     3.9652     2.9609    14.6624 </r>
       <r>     4.1777     1.7424    15.0326 </r>
       <r>     4.3902     1.5428    15.3605 </r>
       <r>     4.6027     4.7969    16.3799 </r>
       <r>     4.8152     6.1852    17.6943 </r>
       <r>     5.0277     2.4823    18.2218 </r>
       <r>     5.2402     1.2233    18.4817 </r>
       <r>     5.4527     3.2567    19.1738 </r>
       <r>     5.6653     1.8118    19.5589 </r>
       <r>     5.8778     1.9443    19.9720 </r>
       <r>     6.0903     1.3846    20.2663 </r>
       <r>     6.3028     2.6643    20.8325 </r>
       <r>     6.5153     6.4422    22.2015 </r>
       <r>     6.7278     2.5113    22.7352 </r>
       <r>     6.9403    10.6528    24.9990 </r>
       <r>     7.1528     3.1613    25.6708 </r>
       <r>     7.3653     1.1208    25.9090 </r>
       <r>     7.5778     2.0068    26.3354 </r>
       <r>     7.7903     0.1726    26.3721 </r>
       <r>     8.0028     2.3134    26.8637 </r>
       <r>     8.2154     3.7984    27.6709 </r>
       <r>     8.4279     2.2452    28.1480 </r>
       <r>     8.6404     4.3383    29.0700 </r>
       <r>     8.8529     7.7354    30.7138 </r>
       <r>     9.0654     6.4275    32.0797 </r>
       <r>     9.2779     5.1959    33.1839 </r>
       <r>     9.4904     2.1591    33.6427 </r>
       <r>     9.7029     0.6352    33.7777 </r>
       <r>     9.9154     0.0004    33.7778 </r>
       <r>    10.1279     0.0000    33.7778 </r>
       <r>    10.3404     0.4581    33.8751 </r>
       <r>    10.5529     3.5664    34.6330 </r>
       <r>    10.7655     0.1583    34.6667 </r>
       <r>    10.9780     0.0000    34.6667 </r>
       <r>    11.1905     0.0000    34.6667 </r>
       <r>    11.4030     0.0000    34.6667 </r>
       <r>    11.6155     0.0537    34.6781 </r>
       <r>    11.8280     0.6038    34.8064 </r>
       <r>    12.0405     0.3170    34.8737 </r>
       <r>    12.2530     1.1256    35.1129 </r>
       <r>    12.4655     2.1118    35.5617 </r>
       <r>    12.6780     0.6679    35.7036 </r>
       <r>    12.8905     0.0015    35.7040 </r>
       <r>    13.1031     0.6282    35.8375 </r>
       <r>    13.3156     0.7633    35.9997 </r>
       <r>    13.5281     0.8314    36.1763 </r>
       <r>    13.7406     1.2655    36.4453 </r>
       <r>    13.9531     1.3834    36.7392 </r>
       <r>    14.1656     0.7036    36.8888 </r>
       <r>    14.3781     0.0067    36.8902 </r>
       <r>    14.5906     0.2776    36.9492 </r>
       <r>    14.8031     0.0649    36.9630 </r>
       <r>    15.0156     0.1175    36.9879 </r>
       <r>    15.2281     1.3077    37.2658 </r>
       <r>    15.4406     1.8765    37.6646 </r>
       <r>    15.6532     0.2457    37.7168 </r>
       <r>    15.8657     4.4720    38.6671 </r>
       <r>    16.0782     2.4314    39.1838 </r>
       <r>    16.2907     0.0064    39.1852 </r>
       <r>    16.5032     0.0000    39.1852 </r>
       <r>    16.7157     0.0001    39.1852 </r>
       <r>    16.9282     0.2073    39.2293 </r>
       <r>    17.1407     0.6124    39.3594 </r>
       <r>    17.3532     3.5413    40.1120 </r>
       <r>    17.5657     1.1251    40.3510 </r>
       <r>    17.7782     0.0910    40.3704 </r>
       <r>    17.9907     0.0136    40.3733 </r>
       <r>    18.2033     1.0300    40.5921 </r>
       <r>    18.4158     0.9618    40.7965 </r>
       <r>    18.6283     1.6573    41.1487 </r>
       <r>    18.8408     1.6422    41.4977 </r>
       <r>    19.0533     3.0257    42.1407 </r>
       <r>    19.2658     0.0508    42.1515 </r>
       <r>    19.4783     1.0517    42.3750 </r>
       <r>    19.6908     0.3313    42.4454 </r>
       <r>    19.9033     1.8491    42.8384 </r>
       <r>    20.1158     4.9807    43.8968 </r>
       <r>    20.3283     0.1497    43.9286 </r>
       <r>    20.5409     0.2964    43.9916 </r>
       <r>    20.7534     0.0396    44.0000 </r>
       <r>    20.9659     0.1247    44.0265 </r>
       <r>    21.1784     1.8122    44.4116 </r>
       <r>    21.3909     0.1548    44.4445 </r>
       <r>    21.6034     0.8548    44.6261 </r>
       <r>    21.8159     4.2098    45.5208 </r>
       <r>    22.0284     1.1941    45.7745 </r>
       <r>    22.2409     0.0153    45.7778 </r>
       <r>    22.4534     0.0000    45.7778 </r>
       <r>    22.6659     0.0410    45.7865 </r>
       <r>    22.8784     1.6948    46.1466 </r>
       <r>    23.0910     3.5133    46.8932 </r>
       <r>    23.3035     5.8691    48.1405 </r>
       <r>    23.5160     3.1446    48.8087 </r>
       <r>    23.7285     0.0286    48.8148 </r>
       <r>    23.9410     0.0046    48.8158 </r>
       <r>    24.1535     1.0004    49.0284 </r>
       <r>    24.3660     1.4261    49.3314 </r>
       <r>    24.5785     0.5380    49.4458 </r>
       <r>    24.7910     3.9903    50.2937 </r>
       <r>    25.0035     1.7089    50.6569 </r>
       <r>    25.2160     0.0460    50.6667 </r>
       <r>    25.4285     0.0955    50.6870 </r>
       <r>    25.6411     1.2089    50.9439 </r>
       <r>    25.8536     0.1660    50.9791 </r>
       <r>    26.0661     0.5945    51.1055 </r>
       <r>    26.2786     0.0543    51.1170 </r>
       <r>    26.4911     1.6135    51.4599 </r>
       <r>    26.7036     0.4500    51.5555 </r>
       <r>    26.9161     0.0002    51.5556 </r>
       <r>    27.1286     0.0787    51.5723 </r>
       <r>    27.3411     2.6235    52.1298 </r>
       <r>    27.5536     3.5304    52.8800 </r>
       <r>    27.7661     0.0450    52.8896 </r>
       <r>    27.9787     4.3643    53.8171 </r>
       <r>    28.1912     9.4930    55.8344 </r>
       <r>    28.4037     0.0821    55.8519 </r>
       <r>    28.6162     0.0000    55.8519 </r>
       <r>    28.8287     0.0000    55.8519 </r>
       <r>    29.0412     0.0000    55.8519 </r>
       <r>    29.2537     0.0000    55.8519 </r>
       <r>    29.4662     0.0000    55.8519 </r>
       <r>    29.6787     0.0000    55.8519 </r>
       <r>    29.8912     0.0000    55.8519 </r>
       <r>    30.1037     0.0000    55.8519 </r>
       <r>    30.3162     0.0957    55.8722 </r>
       <r>    30.5288     0.5820    55.9959 </r>
       <r>    30.7413     0.0195    56.0000 </r>
       <r>    30.9538     0.0000    56.0000 </r>
       <r>    31.1663     0.0000    56.0000 </r>
       <r>    31.3788     0.0000    56.0000 </r>
       <r>    31.5913     0.0000    56.0000 </r>
       <r>    31.8038     0.0000    56.0000 </r>
       <r>    32.0163     0.0000    56.0000 </r>
       <r>    32.2288     0.0000    56.0000 </r>
       <r>    32.4413     0.0000    56.0000 </r>
       <r>    32.6538     0.0000    56.0000 </r>
       <r>    32.8663     0.0000    56.0000 </r>
       <r>    33.0789     0.0000    56.0000 </r>
       <r>    33.2914     0.0000    56.0000 </r>
      </set>
     </set>
    </array>
   </total>
  </dos>
 </calculation>
 <structure name="finalpos" >
  <crystal>
   <varray name="basis" >
    <v>       2.96734555       0.00000000      -0.00000000 </v>
    <v>      -1.48367277       2.56979662      -0.00000000 </v>
    <v>       0.00000000      -0.00000000       4.54927014 </v>
   </varray>
   <i name="volume">     34.69034373 </i>
   <varray name="rec_basis" >
    <v>       0.33700153       0.19456793       0.00000000 </v>
    <v>      -0.00000000       0.38913585       0.00000000 </v>
    <v>       0.00000000       0.00000000       0.21981548 </v>
   </varray>
  </crystal>
  <varray name="positions" >
   <v>       0.33333334       0.66666669       0.25000000 </v>
   <v>       0.66666666       0.33333331       0.75000000 </v>
  </varray>
 </structure>
</modeling>
