HECN                                    
           1
     2.950600    0.000000    0.000000
    -1.475300    2.555294    0.000000
     0.000000    0.000000    4.678800
   Ti
     2
Direct configuration=     1
   0.33333334  0.66666669  0.25000000
   0.66666666  0.33333331  0.75000000
HECN                                    
           1
     2.938851    0.000000   -0.000000
    -1.469425    2.545120   -0.000000
     0.000000   -0.000000    4.543421
   Ti
     2
Direct configuration=     2
   0.33333334  0.66666669  0.25000000
   0.66666666  0.33333331  0.75000000
HECN                                    
           1
     2.941971    0.000000   -0.000000
    -1.470985    2.547821   -0.000000
     0.000000   -0.000000    4.579369
   Ti
     2
Direct configuration=     3
   0.33333334  0.66666669  0.25000000
   0.66666666  0.33333331  0.75000000
HECN                                    
           1
     2.963925    0.000000   -0.000000
    -1.481963    2.566835   -0.000000
     0.000000   -0.000000    4.547053
   Ti
     2
Direct configuration=     4
   0.33333334  0.66666669  0.25000000
   0.66666666  0.33333331  0.75000000
HECN                                    
           1
     2.966273    0.000000   -0.000000
    -1.483137    2.568868   -0.000000
     0.000000   -0.000000    4.543597
   Ti
     2
Direct configuration=     5
   0.33333334  0.66666669  0.25000000
   0.66666666  0.33333331  0.75000000
HECN                                    
           1
     2.968249    0.000000   -0.000000
    -1.484124    2.570579   -0.000000
     0.000000    0.000000    4.554049
   Ti
     2
Direct configuration=     6
   0.33333334  0.66666669  0.25000000
   0.66666666  0.33333331  0.75000000
HECN                                    
           1
     2.967346    0.000000   -0.000000
    -1.483673    2.569797   -0.000000
     0.000000   -0.000000    4.549270
   Ti
     2
Direct configuration=     7
   0.33333334  0.66666669  0.25000000
   0.66666666  0.33333331  0.75000000
