HECN                                    
           1
     8.835025    0.000357    0.029657
     0.006366    8.832650   -0.020333
     0.061547   -0.035429    8.868480
   Hf   Nb   V    N    C    W    Ta
   7   6   7  13  19   6   6
Direct configuration=     1
   0.00569294  0.00715938  0.99748049
   0.26133502  0.00665462  0.24192133
   0.24802694  0.49226052  0.25136280
   0.49929622  0.49877476  0.99978952
   0.50045951  0.24353440  0.74698068
   0.00241189  0.50149229  0.50293900
   0.49338730  0.75702206  0.75578242
   0.99556065  0.23685388  0.25640234
   0.76016089  0.75153434  0.00393717
   0.00204717  0.25854609  0.74837325
   0.75697765  0.24497468  0.48719145
   0.00172812  0.74718667  0.75365423
   0.24899665  0.50098412  0.74997789
   0.25250076  0.26895233  0.98319493
   0.51132509  0.26303233  0.23904580
   0.74844408  0.99791606  0.27606275
   0.72586914  0.24322106  0.01387108
   0.23072908  0.72769871  0.00268394
   0.23451288  0.24230944  0.51825524
   0.26006337  0.76056027  0.49425769
   0.24990477  0.24873809  0.24629349
   0.25825772  0.00288620  0.99238241
   0.99650320  0.25425760  0.00220231
   0.74479323  0.24539655  0.24113687
   0.75572421  0.00832040  0.01909830
   0.51347633  0.99908273  0.23514369
   0.99719923  0.49890826  0.24689266
   0.49554841  0.75700276  0.00508750
   0.98798053  0.00471567  0.74909841
   0.75087823  0.24400514  0.75105485
   0.75371115  0.00028523  0.52044409
   0.50015120  0.24323217  0.49004838
   0.49415933  0.00049122  0.73412734
   0.99969037  0.99945738  0.25317340
   0.49010438  0.24748585  0.00230470
   0.25427681  0.75038145  0.24573927
   0.24564187  0.49841468  0.99964332
   0.00367199  0.74841095  0.00347218
   0.74959151  0.75463588  0.25196179
   0.75422159  0.49222679  0.00106586
   0.50093314  0.49524253  0.25201512
   0.24781696  0.24658141  0.75090600
   0.26337660  0.00280998  0.49696629
   0.00400390  0.24922133  0.50218330
   0.24563376  0.75460986  0.75299991
   0.25424919  0.49661041  0.50059471
   0.00370375  0.75523382  0.50057398
   0.99881238  0.50280632  0.75039198
   0.74839122  0.75075484  0.75180850
   0.74715600  0.49906018  0.49773603
   0.49512587  0.74801023  0.50257564
   0.50062638  0.49974953  0.74582882
   0.52146397  0.01112403  0.98752730
   0.00142453  0.50157854  0.98888885
   0.49573245  0.74025985  0.25930551
   0.23934902  0.99769275  0.74000367
   0.50624333  0.98629295  0.47465723
   0.73512293  0.98664377  0.77648416
   0.00416174  0.76199404  0.25230275
   0.74831179  0.49893031  0.24784490
   0.01312496  0.00243900  0.50424350
   0.49654074  0.50332167  0.49982729
   0.74938016  0.50647179  0.75437020
   0.74430414  0.75355758  0.49642965
HECN                                    
           1
     8.819789    0.001379    0.029066
     0.007383    8.800154   -0.021523
     0.060889   -0.036518    8.854622
   Hf   Nb   V    N    C    W    Ta
   7   6   7  13  19   6   6
Direct configuration=     2
   0.00551054  0.00697212  0.99768871
   0.26153000  0.00681943  0.24224606
   0.24842768  0.49207664  0.25179885
   0.49939784  0.49899725  0.99963342
   0.50034028  0.24288396  0.74701957
   0.00238497  0.50165534  0.50307073
   0.49321418  0.75735064  0.75554826
   0.99530450  0.23693569  0.25631202
   0.75992911  0.75142798  0.00420956
   0.00188829  0.25846992  0.74835234
   0.75680296  0.24516178  0.48746292
   0.00185151  0.74697092  0.75351171
   0.24858011  0.50108786  0.74963385
   0.25267341  0.26906185  0.98332133
   0.51137972  0.26333718  0.23887510
   0.74791806  0.99773615  0.27590339
   0.72569064  0.24363970  0.01360147
   0.23040731  0.72785806  0.00250951
   0.23442461  0.24238511  0.51783849
   0.25981475  0.76034972  0.49441122
   0.24985737  0.24870421  0.24621165
   0.25829674  0.00277577  0.99242028
   0.99674874  0.25438118  0.00245483
   0.74505436  0.24508286  0.24114293
   0.75622790  0.00806782  0.01877644
   0.51343913  0.99923448  0.23509381
   0.99727959  0.49903985  0.24698006
   0.49545199  0.75665680  0.00524710
   0.98713159  0.00445953  0.74931213
   0.75084790  0.24427631  0.75105072
   0.75414172  0.00037366  0.52042645
   0.50011628  0.24378372  0.49057657
   0.49379433  0.00047378  0.73422042
   0.99926014  0.99937071  0.25335194
   0.49009199  0.24733802  0.00216091
   0.25413502  0.75007627  0.24548993
   0.24565513  0.49831006  0.99948341
   0.00389377  0.74825183  0.00330710
   0.74961255  0.75423320  0.25224945
   0.75429876  0.49227100  0.00110894
   0.50122778  0.49507873  0.25203887
   0.24787164  0.24670427  0.75103209
   0.26368752  0.00296795  0.49732131
   0.00406750  0.24907088  0.50184113
   0.24545682  0.75466001  0.75297668
   0.25391147  0.49662502  0.50090091
   0.00352774  0.75498499  0.50066976
   0.99876784  0.50274103  0.75047659
   0.74847294  0.75070947  0.75158057
   0.74727698  0.49865459  0.49785767
   0.49524555  0.74781887  0.50247834
   0.50068657  0.49969528  0.74599028
   0.52158009  0.01109668  0.98777319
   0.00144698  0.50167251  0.98879010
   0.49608752  0.74031079  0.25943112
   0.23922159  0.99784326  0.73957056
   0.50656638  0.98683309  0.47464649
   0.73493540  0.98696003  0.77646521
   0.00440867  0.76252232  0.25227166
   0.74811331  0.49914046  0.24794780
   0.01391175  0.00238679  0.50420889
   0.49684111  0.50330790  0.49966766
   0.74948151  0.50623862  0.75391137
   0.74440027  0.75363787  0.49613829
HECN                                    
           1
     8.827593    0.000855    0.029369
     0.006862    8.816800   -0.020913
     0.061226   -0.035961    8.861720
   Hf   Nb   V    N    C    W    Ta
   7   6   7  13  19   6   6
Direct configuration=     3
   0.00560411  0.00706837  0.99758191
   0.26142996  0.00673469  0.24207945
   0.24822203  0.49217117  0.25157515
   0.49934572  0.49888288  0.99971348
   0.50040142  0.24321835  0.74699967
   0.00239879  0.50157150  0.50300314
   0.49330303  0.75718172  0.75566837
   0.99543594  0.23689362  0.25635836
   0.76004802  0.75148263  0.00406983
   0.00196981  0.25850907  0.74836308
   0.75689260  0.24506556  0.48732364
   0.00178819  0.74708186  0.75358484
   0.24879386  0.50103452  0.74981036
   0.25258482  0.26900554  0.98325647
   0.51135171  0.26318047  0.23896265
   0.74818796  0.99782862  0.27598518
   0.72578226  0.24342448  0.01373976
   0.23057243  0.72777613  0.00259900
   0.23446992  0.24234623  0.51805229
   0.25994230  0.76045794  0.49433248
   0.24988169  0.24872163  0.24625364
   0.25827671  0.00283254  0.99240085
   0.99662275  0.25431765  0.00232527
   0.74492035  0.24524415  0.24113984
   0.75596945  0.00819773  0.01894156
   0.51345823  0.99915646  0.23511939
   0.99723836  0.49897220  0.24693521
   0.49550144  0.75683464  0.00516525
   0.98756717  0.00459115  0.74920253
   0.75086348  0.24413690  0.75105282
   0.75392080  0.00032822  0.52043548
   0.50013422  0.24350012  0.49030556
   0.49398161  0.00048272  0.73417268
   0.99948088  0.99941523  0.25326036
   0.49009834  0.24741403  0.00223469
   0.25420777  0.75023317  0.24561788
   0.24564832  0.49836386  0.99956545
   0.00377997  0.74833366  0.00339180
   0.74960172  0.75444020  0.25210190
   0.75425916  0.49224827  0.00108683
   0.50107659  0.49516296  0.25202669
   0.24784359  0.24664110  0.75096739
   0.26352798  0.00288673  0.49713916
   0.00403487  0.24914825  0.50201668
   0.24554761  0.75463422  0.75298860
   0.25408475  0.49661747  0.50074383
   0.00361803  0.75511290  0.50062065
   0.99879069  0.50277459  0.75043319
   0.74843101  0.75073282  0.75169750
   0.74721487  0.49886311  0.49779529
   0.49518414  0.74791727  0.50252827
   0.50065567  0.49972316  0.74590745
   0.52152050  0.01111073  0.98764704
   0.00143547  0.50162421  0.98884075
   0.49590533  0.74028462  0.25936667
   0.23928700  0.99776590  0.73979275
   0.50640066  0.98655541  0.47465195
   0.73503164  0.98679743  0.77647492
   0.00428200  0.76225074  0.25228756
   0.74821516  0.49903240  0.24789500
   0.01350804  0.00241368  0.50422663
   0.49668699  0.50331501  0.49974955
   0.74942951  0.50635854  0.75414677
   0.74435096  0.75359662  0.49628776
HECN                                    
           1
     8.833487    0.001661    0.029068
     0.007675    8.815374   -0.021808
     0.060946   -0.036836    8.866718
   Hf   Nb   V    N    C    W    Ta
   7   6   7  13  19   6   6
Direct configuration=     4
   0.00550199  0.00687391  0.99779090
   0.26162731  0.00680952  0.24240352
   0.24857318  0.49205731  0.25197005
   0.49942162  0.49917427  0.99952521
   0.50024493  0.24277630  0.74705050
   0.00234492  0.50168204  0.50302353
   0.49316144  0.75739313  0.75542493
   0.99514307  0.23711505  0.25622378
   0.75980999  0.75132314  0.00431061
   0.00180842  0.25830018  0.74835750
   0.75671765  0.24520270  0.48764524
   0.00180743  0.74700043  0.75343699
   0.24847717  0.50111635  0.74948943
   0.25273488  0.26898708  0.98344367
   0.51142542  0.26335566  0.23878815
   0.74755399  0.99767082  0.27583366
   0.72569146  0.24393372  0.01336164
   0.23039685  0.72805326  0.00240716
   0.23445785  0.24256124  0.51756925
   0.25962196  0.76014092  0.49450968
   0.24989210  0.24870652  0.24618625
   0.25836726  0.00267439  0.99247349
   0.99688686  0.25445106  0.00257546
   0.74514602  0.24486688  0.24111697
   0.75650584  0.00797603  0.01868053
   0.51341638  0.99936840  0.23501254
   0.99735155  0.49911787  0.24700823
   0.49539804  0.75650365  0.00532032
   0.98666625  0.00430903  0.74940031
   0.75083407  0.24441827  0.75106658
   0.75444891  0.00042737  0.52041176
   0.50006707  0.24407355  0.49083447
   0.49348570  0.00041334  0.73425166
   0.99905943  0.99946540  0.25345057
   0.49003741  0.24735180  0.00212686
   0.25410978  0.74995893  0.24536310
   0.24568778  0.49829185  0.99946369
   0.00387513  0.74823126  0.00324563
   0.74967843  0.75406335  0.25229335
   0.75432241  0.49222941  0.00110332
   0.50132714  0.49500826  0.25201534
   0.24785375  0.24676379  0.75108874
   0.26399676  0.00304823  0.49739922
   0.00406104  0.24905185  0.50169037
   0.24538643  0.75466805  0.75294066
   0.25381372  0.49666305  0.50102212
   0.00349758  0.75489113  0.50069825
   0.99872778  0.50267066  0.75045823
   0.74848459  0.75072907  0.75150336
   0.74733564  0.49848084  0.49791970
   0.49527224  0.74787138  0.50247072
   0.50067675  0.49966394  0.74599615
   0.52155047  0.01086300  0.98790843
   0.00147257  0.50163146  0.98885336
   0.49624870  0.74037791  0.25942260
   0.23902085  0.99799325  0.73941537
   0.50683216  0.98722089  0.47466300
   0.73487043  0.98723406  0.77638641
   0.00452927  0.76246869  0.25227814
   0.74812349  0.49916658  0.24801613
   0.01423378  0.00227915  0.50431328
   0.49696365  0.50311826  0.49975015
   0.74947407  0.50600347  0.75372121
   0.74448958  0.75370742  0.49611864
HECN                                    
           1
     8.834650    0.001820    0.029009
     0.007836    8.815092   -0.021984
     0.060890   -0.037009    8.867705
   Hf   Nb   V    N    C    W    Ta
   7   6   7  13  19   6   6
Direct configuration=     5
   0.00548185  0.00683551  0.99783214
   0.26166625  0.00682430  0.24246748
   0.24864247  0.49203482  0.25204799
   0.49943659  0.49923181  0.99948806
   0.50021406  0.24268901  0.74706052
   0.00233429  0.50170387  0.50302756
   0.49313349  0.75743488  0.75537689
   0.99508527  0.23715878  0.25619722
   0.75976302  0.75129165  0.00435812
   0.00177658  0.25825892  0.74835640
   0.75668313  0.24522979  0.48770871
   0.00181122  0.74698434  0.75340782
   0.24841468  0.50113251  0.74942610
   0.25276449  0.26898344  0.98348062
   0.51143996  0.26339025  0.23875372
   0.74742889  0.99763966  0.27580376
   0.72567353  0.24403429  0.01328704
   0.23036219  0.72810799  0.00236931
   0.23445546  0.24260369  0.51747393
   0.25955876  0.76007833  0.49454465
   0.24989416  0.24870354  0.24617295
   0.25838514  0.00264316  0.99248782
   0.99693898  0.25447740  0.00262484
   0.74519056  0.24479237  0.24111245
   0.75661169  0.00793223  0.01862901
   0.51340811  0.99941026  0.23499146
   0.99737388  0.49914663  0.24702265
   0.49537764  0.75643829  0.00535091
   0.98648848  0.00425334  0.74943932
   0.75082826  0.24447384  0.75106930
   0.75455311  0.00044694  0.52040709
   0.50005382  0.24418681  0.49093886
   0.49338785  0.00039965  0.73426724
   0.99897627  0.99947532  0.25348811
   0.49002538  0.24733951  0.00210558
   0.25409045  0.74990477  0.24531281
   0.24569557  0.49827762  0.99944361
   0.00389390  0.74821103  0.00321679
   0.74969357  0.75398893  0.25233112
   0.75433489  0.49222568  0.00110658
   0.50137658  0.49497770  0.25201310
   0.24785575  0.24678802  0.75111269
   0.26408926  0.00308012  0.49745055
   0.00406620  0.24903280  0.50162598
   0.24535463  0.75467473  0.75293119
   0.25376024  0.49667206  0.50107704
   0.00347381  0.75484734  0.50071355
   0.99871536  0.50265013  0.75046317
   0.74849516  0.75072832  0.75146505
   0.74735948  0.49840535  0.49794424
   0.49528963  0.74786231  0.50245936
   0.50068091  0.49965225  0.74601365
   0.52155639  0.01081408  0.98796001
   0.00147989  0.50163289  0.98885585
   0.49631646  0.74039633  0.25943365
   0.23896833  0.99803814  0.73934090
   0.50691729  0.98735230  0.47466520
   0.73483861  0.98732028  0.77636895
   0.00457806  0.76251172  0.25227629
   0.74810540  0.49919308  0.24804003
   0.01437699  0.00225258  0.50433039
   0.49701825  0.50307939  0.49975027
   0.74948286  0.50593334  0.75363723
   0.74451693  0.75372930  0.49608527
HECN                                    
           1
     8.834463    0.001804    0.029219
     0.007818    8.818854   -0.021659
     0.061111   -0.036706    8.864304
   Hf   Nb   V    N    C    W    Ta
   7   6   7  13  19   6   6
Direct configuration=     6
   0.00556678  0.00679122  0.99790003
   0.26173199  0.00670679  0.24266247
   0.24874708  0.49210738  0.25207012
   0.49938428  0.49936879  0.99938535
   0.49999583  0.24277359  0.74723294
   0.00225020  0.50157283  0.50291077
   0.49315946  0.75742695  0.75518469
   0.99486781  0.23722617  0.25618020
   0.75982058  0.75108265  0.00431069
   0.00188935  0.25801117  0.74826400
   0.75677914  0.24506512  0.48781297
   0.00163139  0.74707336  0.75335536
   0.24842272  0.50106308  0.74943976
   0.25290255  0.26895169  0.98357528
   0.51168300  0.26331864  0.23855682
   0.74674932  0.99755911  0.27592817
   0.72562879  0.24432152  0.01293439
   0.23036306  0.72818333  0.00224990
   0.23438896  0.24291526  0.51731091
   0.25938325  0.75982812  0.49467572
   0.24996257  0.24872305  0.24618053
   0.25846076  0.00245714  0.99266326
   0.99718506  0.25446645  0.00270111
   0.74514554  0.24461368  0.24101736
   0.75674085  0.00794274  0.01841630
   0.51329379  0.99955976  0.23490799
   0.99751197  0.49927381  0.24706968
   0.49540663  0.75632122  0.00531618
   0.98599577  0.00409027  0.74948163
   0.75070240  0.24464228  0.75109508
   0.75503944  0.00045719  0.52030855
   0.50005591  0.24453355  0.49126851
   0.49288319  0.00029971  0.73436986
   0.99887207  0.99967551  0.25366446
   0.49005517  0.24733357  0.00209670
   0.25422012  0.74988816  0.24522498
   0.24568397  0.49833431  0.99951140
   0.00364943  0.74820076  0.00320366
   0.74985096  0.75381001  0.25228251
   0.75436235  0.49213513  0.00105211
   0.50147227  0.49506495  0.25197825
   0.24768930  0.24680852  0.75111602
   0.26466501  0.00317509  0.49745553
   0.00400795  0.24901174  0.50153277
   0.24528434  0.75477944  0.75284278
   0.25386740  0.49676757  0.50109157
   0.00349282  0.75485839  0.50064495
   0.99860689  0.50250470  0.75046318
   0.74840084  0.75088734  0.75149084
   0.74736282  0.49838484  0.49797110
   0.49534945  0.74822634  0.50233512
   0.50063751  0.49961344  0.74587136
   0.52182123  0.01058337  0.98792858
   0.00159733  0.50159101  0.98886836
   0.49637898  0.74039452  0.25953469
   0.23842251  0.99825163  0.73913467
   0.50740969  0.98756777  0.47456393
   0.73450516  0.98741001  0.77646509
   0.00470004  0.76229885  0.25230424
   0.74819402  0.49905864  0.24809478
   0.01470597  0.00212249  0.50468090
   0.49703297  0.50283386  0.50001482
   0.74942405  0.50577735  0.75362246
   0.74454832  0.75392280  0.49622179
HECN                                    
           1
     8.834372    0.001797    0.029320
     0.007809    8.820675   -0.021502
     0.061217   -0.036560    8.862658
   Hf   Nb   V    N    C    W    Ta
   7   6   7  13  19   6   6
Direct configuration=     7
   0.00560790  0.00676979  0.99793290
   0.26176381  0.00664992  0.24275690
   0.24879772  0.49214249  0.25208084
   0.49935895  0.49943507  0.99933561
   0.49989019  0.24281452  0.74731644
   0.00220949  0.50150943  0.50285421
   0.49317204  0.75742311  0.75509162
   0.99476254  0.23725879  0.25617196
   0.75984844  0.75098153  0.00428772
   0.00194394  0.25789129  0.74821925
   0.75682562  0.24498544  0.48786347
   0.00154434  0.74711643  0.75332996
   0.24842662  0.50102949  0.74944638
   0.25296938  0.26893632  0.98362112
   0.51180066  0.26328399  0.23846147
   0.74642034  0.99752013  0.27598843
   0.72560714  0.24446051  0.01276361
   0.23036348  0.72821978  0.00219207
   0.23435677  0.24306602  0.51723195
   0.25929829  0.75970705  0.49473921
   0.24999569  0.24873249  0.24618419
   0.25849736  0.00236713  0.99274823
   0.99730418  0.25446115  0.00273804
   0.74512374  0.24452721  0.24097132
   0.75680338  0.00794783  0.01831329
   0.51323844  0.99963210  0.23486757
   0.99757882  0.49933534  0.24709246
   0.49542067  0.75626458  0.00529937
   0.98575726  0.00401136  0.74950212
   0.75064147  0.24472378  0.75110757
   0.75527486  0.00046215  0.52026083
   0.50005692  0.24470133  0.49142813
   0.49263889  0.00025134  0.73441956
   0.99882162  0.99977237  0.25374986
   0.49006959  0.24733069  0.00209241
   0.25428289  0.74988013  0.24518244
   0.24567835  0.49836175  0.99954423
   0.00353108  0.74819579  0.00319730
   0.74992715  0.75372344  0.25225897
   0.75437564  0.49209132  0.00102574
   0.50151860  0.49510716  0.25196137
   0.24760872  0.24681843  0.75111763
   0.26494373  0.00322105  0.49745793
   0.00397975  0.24900155  0.50148764
   0.24525032  0.75483010  0.75279996
   0.25391927  0.49681379  0.50109860
   0.00350202  0.75486375  0.50061173
   0.99855437  0.50243433  0.75046319
   0.74835518  0.75096429  0.75150332
   0.74736444  0.49837492  0.49798411
   0.49537841  0.74840248  0.50227494
   0.50061650  0.49959467  0.74580246
   0.52194944  0.01047173  0.98791336
   0.00165419  0.50157074  0.98887442
   0.49640925  0.74039365  0.25958362
   0.23815829  0.99835493  0.73903480
   0.50764806  0.98767203  0.47451488
   0.73434373  0.98745343  0.77651164
   0.00475910  0.76219585  0.25231777
   0.74823692  0.49899359  0.24812129
   0.01486522  0.00205953  0.50485064
   0.49704010  0.50271504  0.50014293
   0.74939558  0.50570187  0.75361531
   0.74456352  0.75401642  0.49628789
HECN                                    
           1
     8.834338    0.001794    0.029358
     0.007805    8.821356   -0.021443
     0.061257   -0.036505    8.862042
   Hf   Nb   V    N    C    W    Ta
   7   6   7  13  19   6   6
Direct configuration=     8
   0.00562329  0.00676177  0.99794520
   0.26177571  0.00662865  0.24279224
   0.24881667  0.49215563  0.25208485
   0.49934948  0.49945987  0.99931699
   0.49985065  0.24282983  0.74734769
   0.00219426  0.50148571  0.50283304
   0.49317674  0.75742167  0.75505678
   0.99472315  0.23727099  0.25616888
   0.75985887  0.75094369  0.00427912
   0.00196437  0.25784644  0.74820251
   0.75684301  0.24495563  0.48788237
   0.00151177  0.74713254  0.75332045
   0.24842807  0.50101692  0.74944885
   0.25299439  0.26893057  0.98363828
   0.51184468  0.26327103  0.23842578
   0.74629724  0.99750554  0.27601099
   0.72559904  0.24451252  0.01269969
   0.23036363  0.72823342  0.00217043
   0.23434473  0.24312243  0.51720240
   0.25926650  0.75966175  0.49476297
   0.25000808  0.24873602  0.24618556
   0.25851106  0.00233345  0.99278002
   0.99734876  0.25445916  0.00275186
   0.74511559  0.24449487  0.24095409
   0.75682678  0.00794974  0.01827474
   0.51321773  0.99965917  0.23485244
   0.99760383  0.49935836  0.24710098
   0.49542592  0.75624339  0.00529307
   0.98566800  0.00398184  0.74950979
   0.75061867  0.24475428  0.75111224
   0.75536296  0.00046400  0.52024296
   0.50005730  0.24476410  0.49148788
   0.49254748  0.00023325  0.73443816
   0.99880274  0.99980861  0.25378183
   0.49007498  0.24732961  0.00209080
   0.25430638  0.74987713  0.24516652
   0.24567625  0.49837201  0.99955652
   0.00348679  0.74819393  0.00319492
   0.74995566  0.75369105  0.25225016
   0.75438061  0.49207493  0.00101587
   0.50153593  0.49512296  0.25195505
   0.24757857  0.24682214  0.75111823
   0.26504803  0.00323824  0.49745882
   0.00396920  0.24899774  0.50147074
   0.24523759  0.75484906  0.75278393
   0.25393868  0.49683108  0.50110123
   0.00350547  0.75486575  0.50059930
   0.99853472  0.50240801  0.75046320
   0.74833810  0.75099307  0.75150799
   0.74736505  0.49837121  0.49798898
   0.49538925  0.74846838  0.50225242
   0.50060864  0.49958764  0.74577667
   0.52199742  0.01042997  0.98790766
   0.00167546  0.50156316  0.98887669
   0.49642058  0.74039332  0.25960193
   0.23805942  0.99839358  0.73899742
   0.50773726  0.98771104  0.47449652
   0.73428333  0.98746967  0.77652907
   0.00478119  0.76215731  0.25232284
   0.74825297  0.49896926  0.24813122
   0.01492481  0.00203598  0.50491417
   0.49704276  0.50267059  0.50019088
   0.74938492  0.50567363  0.75361263
   0.74456921  0.75405145  0.49631264
HECN                                    
           1
     8.835940    0.001402    0.029138
     0.007416    8.813783   -0.020933
     0.061048   -0.035963    8.862466
   Hf   Nb   V    N    C    W    Ta
   7   6   7  13  19   6   6
Direct configuration=     9
   0.00580741  0.00677967  0.99792003
   0.26181102  0.00662882  0.24285125
   0.24886910  0.49221271  0.25192618
   0.49924575  0.49951027  0.99934170
   0.49958040  0.24275202  0.74748424
   0.00218092  0.50143977  0.50282553
   0.49307512  0.75742687  0.75486135
   0.99470443  0.23718778  0.25616531
   0.75986926  0.75073073  0.00414670
   0.00204878  0.25761226  0.74817813
   0.75688553  0.24461365  0.48799438
   0.00137074  0.74712563  0.75325512
   0.24834186  0.50091277  0.74959239
   0.25314480  0.26893131  0.98385767
   0.51204128  0.26321168  0.23830870
   0.74555344  0.99742203  0.27625800
   0.72570928  0.24467912  0.01218469
   0.23024556  0.72823213  0.00202417
   0.23434475  0.24339335  0.51699646
   0.25923889  0.75952895  0.49490116
   0.25003801  0.24874939  0.24626413
   0.25850316  0.00212076  0.99291649
   0.99764986  0.25433332  0.00270419
   0.74495827  0.24442949  0.24078250
   0.75693441  0.00806588  0.01815561
   0.51303017  0.99974375  0.23477492
   0.99775141  0.49944833  0.24713047
   0.49554340  0.75625061  0.00514775
   0.98520225  0.00389068  0.74957025
   0.75040183  0.24484461  0.75120809
   0.75593419  0.00039340  0.52010035
   0.50013867  0.24500443  0.49164678
   0.49199060  0.00032345  0.73466831
   0.99879952  0.99964218  0.25398081
   0.49020316  0.24726177  0.00219458
   0.25451072  0.74994795  0.24520067
   0.24569625  0.49847779  0.99960853
   0.00342651  0.74813330  0.00321531
   0.75006776  0.75359956  0.25218960
   0.75440467  0.49196473  0.00099879
   0.50164351  0.49524782  0.25199540
   0.24745037  0.24684930  0.75108220
   0.26559385  0.00338179  0.49755072
   0.00394739  0.24887951  0.50150989
   0.24512647  0.75497076  0.75270353
   0.25401705  0.49696451  0.50103029
   0.00363446  0.75481730  0.50051596
   0.99849227  0.50230299  0.75045805
   0.74817998  0.75104087  0.75161452
   0.74731217  0.49852141  0.49799252
   0.49540632  0.74864095  0.50217343
   0.50051660  0.49961699  0.74577530
   0.52194358  0.01039540  0.98768011
   0.00178762  0.50158907  0.98894973
   0.49642856  0.74039217  0.25957211
   0.23751731  0.99849110  0.73880359
   0.50840234  0.98785703  0.47447207
   0.73391681  0.98739505  0.77654694
   0.00489648  0.76226022  0.25233906
   0.74830124  0.49875071  0.24809582
   0.01520714  0.00205227  0.50529075
   0.49707464  0.50265045  0.50014466
   0.74932750  0.50574621  0.75368087
   0.74462359  0.75422896  0.49649133
HECN                                    
           1
     8.835980    0.001392    0.029133
     0.007406    8.813595   -0.020921
     0.061042   -0.035950    8.862477
   Hf   Nb   V    N    C    W    Ta
   7   6   7  13  19   6   6
Direct configuration=    10
   0.00581197  0.00678012  0.99791941
   0.26181189  0.00662883  0.24285271
   0.24887040  0.49221413  0.25192225
   0.49924318  0.49951152  0.99934231
   0.49957371  0.24275009  0.74748762
   0.00218059  0.50143863  0.50282534
   0.49307260  0.75742700  0.75485651
   0.99470397  0.23718572  0.25616522
   0.75986952  0.75072546  0.00414342
   0.00205087  0.25760645  0.74817753
   0.75688658  0.24460518  0.48799715
   0.00136725  0.74712546  0.75325350
   0.24833973  0.50091019  0.74959594
   0.25314853  0.26893133  0.98386311
   0.51204615  0.26321021  0.23830580
   0.74553502  0.99741996  0.27626412
   0.72571201  0.24468325  0.01217193
   0.23024264  0.72823210  0.00202055
   0.23434475  0.24340007  0.51699136
   0.25923820  0.75952566  0.49490458
   0.25003875  0.24874972  0.24626608
   0.25850296  0.00211549  0.99291987
   0.99765731  0.25433020  0.00270301
   0.74495438  0.24442787  0.24077825
   0.75693708  0.00806876  0.01815266
   0.51302552  0.99974585  0.23477300
   0.99775507  0.49945056  0.24713120
   0.49554631  0.75625079  0.00514415
   0.98519072  0.00388842  0.74957175
   0.75039646  0.24484685  0.75121046
   0.75594833  0.00039165  0.52009682
   0.50014069  0.24501039  0.49165072
   0.49197681  0.00032568  0.73467401
   0.99879944  0.99963805  0.25398574
   0.49020633  0.24726009  0.00219715
   0.25451578  0.74994970  0.24520152
   0.24569674  0.49848041  0.99960982
   0.00342502  0.74813180  0.00321582
   0.75007054  0.75359729  0.25218810
   0.75440526  0.49196200  0.00099837
   0.50164617  0.49525092  0.25199640
   0.24744720  0.24684998  0.75108131
   0.26560737  0.00338535  0.49755299
   0.00394685  0.24887657  0.50151086
   0.24512372  0.75497378  0.75270154
   0.25401899  0.49696782  0.50102854
   0.00363765  0.75481610  0.50051389
   0.99849122  0.50230039  0.75045793
   0.74817607  0.75104205  0.75161716
   0.74731086  0.49852513  0.49799261
   0.49540675  0.74864523  0.50217148
   0.50051432  0.49961772  0.74577526
   0.52194224  0.01039454  0.98767447
   0.00179040  0.50158971  0.98895154
   0.49642875  0.74039214  0.25957137
   0.23750389  0.99849352  0.73879879
   0.50841880  0.98786065  0.47447147
   0.73390774  0.98739320  0.77654739
   0.00489934  0.76226277  0.25233946
   0.74830243  0.49874530  0.24809495
   0.01521413  0.00205267  0.50530008
   0.49707543  0.50264995  0.50014351
   0.74932608  0.50574801  0.75368256
   0.74462493  0.75423335  0.49649576
HECN                                    
           1
     8.839148    0.001397    0.028595
     0.007416    8.815645   -0.021266
     0.060513   -0.036297    8.866065
   Hf   Nb   V    N    C    W    Ta
   7   6   7  13  19   6   6
Direct configuration=    11
   0.00590142  0.00674135  0.99785880
   0.26192147  0.00672334  0.24287057
   0.24884504  0.49224955  0.25188285
   0.49927148  0.49951961  0.99941962
   0.49946601  0.24278856  0.74748440
   0.00224447  0.50147190  0.50285612
   0.49288061  0.75742123  0.75481763
   0.99477067  0.23714827  0.25623609
   0.75986201  0.75070980  0.00413981
   0.00201710  0.25753047  0.74822870
   0.75680221  0.24445004  0.48801948
   0.00135351  0.74711352  0.75325911
   0.24821973  0.50086543  0.74965336
   0.25323312  0.26885353  0.98405055
   0.51206570  0.26318039  0.23837702
   0.74516677  0.99744986  0.27637674
   0.72581038  0.24470660  0.01177642
   0.23014275  0.72838739  0.00194119
   0.23441638  0.24348446  0.51682559
   0.25930878  0.75954214  0.49492626
   0.24996560  0.24876527  0.24634214
   0.25842769  0.00202734  0.99290662
   0.99783259  0.25425181  0.00263264
   0.74492797  0.24438181  0.24066399
   0.75690553  0.00811074  0.01806732
   0.51290158  0.99975454  0.23478882
   0.99777835  0.49939887  0.24711527
   0.49563613  0.75633784  0.00504477
   0.98491109  0.00389494  0.74965234
   0.75026868  0.24478471  0.75128423
   0.75628620  0.00030228  0.52009214
   0.50026281  0.24499139  0.49157043
   0.49168910  0.00039604  0.73480317
   0.99881855  0.99951738  0.25403763
   0.49028631  0.24728505  0.00227478
   0.25456034  0.75000818  0.24527470
   0.24574286  0.49849653  0.99957061
   0.00353913  0.74809784  0.00322743
   0.75007172  0.75364352  0.25222739
   0.75439943  0.49191231  0.00102847
   0.50169102  0.49521164  0.25199686
   0.24744800  0.24686979  0.75108637
   0.26579766  0.00350186  0.49767475
   0.00397970  0.24885337  0.50157302
   0.24501351  0.75493736  0.75270651
   0.25394367  0.49705735  0.50096848
   0.00376367  0.75474102  0.50051315
   0.99849156  0.50227857  0.75048160
   0.74807501  0.75090890  0.75163287
   0.74731660  0.49857904  0.49799150
   0.49543030  0.74851731  0.50213881
   0.50045518  0.49967229  0.74588071
   0.52176019  0.01034491  0.98756879
   0.00179568  0.50155735  0.98900174
   0.49647256  0.74052894  0.25950702
   0.23736447  0.99848590  0.73863908
   0.50872423  0.98809881  0.47450249
   0.73383156  0.98745969  0.77659400
   0.00496330  0.76229541  0.25238917
   0.74831921  0.49864448  0.24803251
   0.01540338  0.00204088  0.50539747
   0.49710420  0.50272392  0.49996253
   0.74927956  0.50578964  0.75373285
   0.74466485  0.75420551  0.49642266
HECN                                    
           1
     8.838591    0.001397    0.028689
     0.007414    8.815284   -0.021205
     0.060606   -0.036236    8.865433
   Hf   Nb   V    N    C    W    Ta
   7   6   7  13  19   6   6
Direct configuration=    12
   0.00588569  0.00674817  0.99786946
   0.26190219  0.00670671  0.24286743
   0.24884950  0.49224332  0.25188978