<?xml version="1.0" encoding="ISO-8859-1"?>
<modeling>
 <generator>
  <i name="program" type="string">vasp </i>
  <i name="version" type="string">5.4.4.18Apr17-6-g9f103f2a35  </i>
  <i name="subversion" type="string">(build Oct 18 2021 20:38:43) complex            parallel </i>
  <i name="platform" type="string">LinuxIFC </i>
  <i name="date" type="string">2024 06 07 </i>
  <i name="time" type="string">16:02:17 </i>
 </generator>
 <incar>
  <i type="string" name="SYSTEM">HECN</i>
  <i type="int" name="ISTART">     0</i>
  <i type="string" name="PREC">normal</i>
  <i type="string" name="ALGO">Fast</i>
  <i type="int" name="ICHARG">     2</i>
  <i type="int" name="NELM">    60</i>
  <i type="int" name="IBRION">     2</i>
  <i name="EDIFF">      0.00001000</i>
  <i name="EDIFFG">     -0.01000000</i>
  <i type="int" name="NSW">   100</i>
  <i type="int" name="ISIF">     3</i>
  <i name="ENCUT">    400.00000000</i>
  <i name="POTIM">      0.50000000</i>
  <i type="logical" name="LREAL"> F  </i>
  <i type="int" name="ISMEAR">     0</i>
  <i name="SIGMA">      0.10000000</i>
  <i type="logical" name="LWAVE"> F  </i>
  <i type="logical" name="LCHARG"> F  </i>
  <v type="int" name="KPOINT_BSE">    -1     0     0     0</v>
  <i type="int" name="NELM">    60</i>
 </incar>
 <structure name="primitive_cell" >
  <crystal>
   <varray name="basis" >
    <v>       8.93249989       0.00000000       0.00000000 </v>
    <v>       0.00575300       9.05559834       0.00000000 </v>
    <v>       0.03210180      -0.01574346       8.93712807 </v>
   </varray>
   <i name="volume">    722.91652451 </i>
   <varray name="rec_basis" >
    <v>       0.11195074      -0.00007112      -0.00040225 </v>
    <v>       0.00000000       0.11042893       0.00019453 </v>
    <v>       0.00000000       0.00000000       0.11189277 </v>
   </varray>
  </crystal>
  <varray name="positions" >
   <v>      -0.00311999      -0.00795003      -0.00075998 </v>
   <v>      -0.25232999      -0.00252000       0.01202000 </v>
   <v>      -0.00162995      -0.25686004       0.00460000 </v>
   <v>      -0.00280000      -0.00228008       0.25899999 </v>
   <v>       0.00281000       0.25024000       0.00130000 </v>
   <v>      -0.01103011       0.00202000      -0.26291001 </v>
   <v>       0.26146999      -0.00015998      -0.00704004 </v>
   <v>      -0.00135002      -0.22426001       0.26102000 </v>
   <v>      -0.25720997      -0.02130006      -0.23549005 </v>
   <v>       0.23780002       0.01082000      -0.25392002 </v>
   <v>      -0.24282000      -0.25897003       0.01100000 </v>
   <v>       0.24762001      -0.25026001      -0.00025994 </v>
   <v>      -0.00485996      -0.25507996      -0.25488003 </v>
   <v>      -0.24281000       0.25603001      -0.00408003 </v>
   <v>       0.25398003      -0.00285005       0.24912000 </v>
   <v>       0.24788999       0.24839000      -0.00342003 </v>
   <v>      -0.00562996       0.23617001       0.26379999 </v>
   <v>      -0.25120996      -0.01212001       0.26967001 </v>
   <v>       0.00201000       0.25541000      -0.26105999 </v>
   <v>       0.24177002      -0.24659003      -0.24981998 </v>
   <v>      -0.24963995      -0.25112000      -0.25243996 </v>
   <v>      -0.24255004       0.24437997      -0.25103001 </v>
   <v>       0.25133999      -0.25041998       0.24910999 </v>
   <v>      -0.24367000      -0.26108997       0.25767000 </v>
   <v>      -0.24686002       0.24616999       0.25492002 </v>
   <v>       0.24982001       0.24942998       0.24825000 </v>
   <v>       0.24900999       0.25315000      -0.25146000 </v>
   <v>      -0.48411003       0.01358000      -0.01924992 </v>
   <v>      -0.00158006      -0.49023002      -0.01386996 </v>
   <v>       0.02362000      -0.00216999       0.49557002 </v>
   <v>      -0.49480995      -0.23869001       0.00855000 </v>
   <v>      -0.49285006      -0.00023001       0.24673000 </v>
   <v>      -0.24160996      -0.49684002       0.00288000 </v>
   <v>      -0.00999997      -0.23784997       0.49746000 </v>
   <v>      -0.00948001       0.48088003       0.24100999 </v>
   <v>       0.24446000      -0.00176004      -0.49712002 </v>
   <v>      -0.26367999       0.00417000      -0.48937000 </v>
   <v>       0.24328000      -0.49927003      -0.00489006 </v>
   <v>      -0.49572003       0.24673000       0.00262000 </v>
   <v>      -0.00796004      -0.49944001      -0.24861998 </v>
   <v>      -0.00195991       0.24229999      -0.49871997 </v>
   <v>      -0.49991002       0.00061000      -0.26528002 </v>
   <v>      -0.26123997      -0.47171998      -0.26185001 </v>
   <v>       0.49950005      -0.24518001      -0.25182996 </v>
   <v>       0.24457999      -0.24951001       0.49983999 </v>
   <v>      -0.24599997      -0.27062001       0.49116997 </v>
   <v>      -0.49520997       0.24631001      -0.25289998 </v>
   <v>       0.24803003      -0.49835000       0.24955001 </v>
   <v>      -0.26448999      -0.48531996       0.26666001 </v>
   <v>      -0.49167000       0.25676999       0.25376001 </v>
   <v>      -0.49620997      -0.26073003       0.25905001 </v>
   <v>      -0.24692999       0.26163001      -0.49466998 </v>
   <v>       0.25272001       0.24823001      -0.49984997 </v>
   <v>       0.25679999       0.49462002      -0.25454998 </v>
   <v>       0.47957999      -0.01691999       0.49717999 </v>
   <v>      -0.49498994       0.49745998      -0.00165997 </v>
   <v>      -0.00572008      -0.49550001       0.49779000 </v>
   <v>      -0.49436004       0.23264998       0.49544997 </v>
   <v>      -0.49424994      -0.25041998       0.49720000 </v>
   <v>      -0.49299998      -0.49666998       0.25878999 </v>
   <v>      -0.49498997      -0.49782002      -0.26087997 </v>
   <v>      -0.25963999      -0.49803000      -0.49932997 </v>
   <v>       0.25841001      -0.49937998      -0.49870999 </v>
   <v>      -0.49461000      -0.47166995       0.49917999 </v>
  </varray>
 </structure>
 <varray name="primitive_index" >
  <v type="int" >        1 </v>
  <v type="int" >       25 </v>
  <v type="int" >       38 </v>
  <v type="int" >       34 </v>
  <v type="int" >       23 </v>
  <v type="int" >       29 </v>
  <v type="int" >       22 </v>
  <v type="int" >       59 </v>
  <v type="int" >       58 </v>
  <v type="int" >       56 </v>
  <v type="int" >        9 </v>
  <v type="int" >       18 </v>
  <v type="int" >       12 </v>
  <v type="int" >       17 </v>
  <v type="int" >        2 </v>
  <v type="int" >       14 </v>
  <v type="int" >        8 </v>
  <v type="int" >       16 </v>
  <v type="int" >       10 </v>
  <v type="int" >       45 </v>
  <v type="int" >       49 </v>
  <v type="int" >       30 </v>
  <v type="int" >       36 </v>
  <v type="int" >       39 </v>
  <v type="int" >       24 </v>
  <v type="int" >       21 </v>
  <v type="int" >       42 </v>
  <v type="int" >       53 </v>
  <v type="int" >       54 </v>
  <v type="int" >       61 </v>
  <v type="int" >       28 </v>
  <v type="int" >       26 </v>
  <v type="int" >       40 </v>
  <v type="int" >       47 </v>
  <v type="int" >       27 </v>
  <v type="int" >       43 </v>
  <v type="int" >       31 </v>
  <v type="int" >       37 </v>
  <v type="int" >       35 </v>
  <v type="int" >       48 </v>
  <v type="int" >       44 </v>
  <v type="int" >       33 </v>
  <v type="int" >       63 </v>
  <v type="int" >        7 </v>
  <v type="int" >       20 </v>
  <v type="int" >       64 </v>
  <v type="int" >        5 </v>
  <v type="int" >        3 </v>
  <v type="int" >       60 </v>
  <v type="int" >       15 </v>
  <v type="int" >       55 </v>
  <v type="int" >       11 </v>
  <v type="int" >       19 </v>
  <v type="int" >       13 </v>
  <v type="int" >       57 </v>
  <v type="int" >        4 </v>
  <v type="int" >        6 </v>
  <v type="int" >       32 </v>
  <v type="int" >       51 </v>
  <v type="int" >       41 </v>
  <v type="int" >       52 </v>
  <v type="int" >       50 </v>
  <v type="int" >       46 </v>
  <v type="int" >       62 </v>
 </varray>
 <kpoints>
  <generation param="Gamma">
   <v type="int" name="divisions">       3        3        3 </v>
   <v name="usershift">      0.00000000       0.00000000       0.00000000 </v>
   <v name="genvec1">      0.33333333      -0.00000000      -0.00000000 </v>
   <v name="genvec2">      0.00000000       0.33333333       0.00000000 </v>
   <v name="genvec3">      0.00000000       0.00000000       0.33333333 </v>
   <v name="shift">      0.00000000       0.00000000       0.00000000 </v>
  </generation>
  <varray name="kpointlist" >
   <v>       0.00000000       0.00000000       0.00000000 </v>
   <v>       0.33333333       0.00000000       0.00000000 </v>
   <v>       0.00000000       0.33333333       0.00000000 </v>
   <v>       0.33333333       0.33333333       0.00000000 </v>
   <v>      -0.33333333       0.33333333       0.00000000 </v>
   <v>       0.00000000       0.00000000       0.33333333 </v>
   <v>       0.33333333       0.00000000       0.33333333 </v>
   <v>      -0.33333333       0.00000000       0.33333333 </v>
   <v>       0.00000000       0.33333333       0.33333333 </v>
   <v>       0.33333333       0.33333333       0.33333333 </v>
   <v>      -0.33333333       0.33333333       0.33333333 </v>
   <v>       0.00000000      -0.33333333       0.33333333 </v>
   <v>       0.33333333      -0.33333333       0.33333333 </v>
   <v>      -0.33333333      -0.33333333       0.33333333 </v>
  </varray>
  <varray name="weights" >
   <v>       0.03703704 </v>
   <v>       0.07407407 </v>
   <v>       0.07407407 </v>
   <v>       0.07407407 </v>
   <v>       0.07407407 </v>
   <v>       0.07407407 </v>
   <v>       0.07407407 </v>
   <v>       0.07407407 </v>
   <v>       0.07407407 </v>
   <v>       0.07407407 </v>
   <v>       0.07407407 </v>
   <v>       0.07407407 </v>
   <v>       0.07407407 </v>
   <v>       0.07407407 </v>
  </varray>
 </kpoints>
 <parameters>
  <separator name="general" >
   <i type="string" name="SYSTEM">HECN</i>
   <i type="logical" name="LCOMPAT"> F  </i>
  </separator>
  <separator name="electronic" >
   <i type="string" name="PREC">normal</i>
   <i name="ENMAX">    400.00000000</i>
   <i name="ENAUG">    644.87300000</i>
   <i name="EDIFF">      0.00001000</i>
   <i type="int" name="IALGO">    68</i>
   <i type="int" name="IWAVPR">    11</i>
   <i type="int" name="NBANDS">   336</i>
   <i name="NELECT">    531.00000000</i>
   <i type="int" name="TURBO">     0</i>
   <i type="int" name="IRESTART">     0</i>
   <i type="int" name="NREBOOT">     0</i>
   <i type="int" name="NMIN">     0</i>
   <i name="EREF">      0.00000000</i>
   <separator name="electronic smearing" >
    <i type="int" name="ISMEAR">     0</i>
    <i name="SIGMA">      0.10000000</i>
    <i name="KSPACING">      0.50000000</i>
    <i type="logical" name="KGAMMA"> T  </i>
   </separator>
   <separator name="electronic projectors" >
    <i type="logical" name="LREAL"> F  </i>
    <v name="ROPT">      0.00000000      0.00000000      0.00000000      0.00000000      0.00000000      0.00000000      0.00000000</v>
    <i type="int" name="LMAXPAW">  -100</i>
    <i type="int" name="LMAXMIX">     2</i>
    <i type="logical" name="NLSPLINE"> F  </i>
   </separator>
   <separator name="electronic startup" >
    <i type="int" name="ISTART">     0</i>
    <i type="int" name="ICHARG">     2</i>
    <i type="int" name="INIWAV">     1</i>
   </separator>
   <separator name="electronic spin" >
    <i type="int" name="ISPIN">     1</i>
    <i type="logical" name="LNONCOLLINEAR"> F  </i>
    <v name="MAGMOM">      1.00000000      1.00000000      1.00000000      1.00000000      1.00000000      1.00000000      1.00000000      1.00000000      1.00000000      1.00000000      1.00000000      1.00000000      1.00000000      1.00000000      1.00000000      1.00000000      1.00000000      1.00000000      1.00000000      1.00000000
      1.00000000      1.00000000      1.00000000      1.00000000      1.00000000      1.00000000      1.00000000      1.00000000      1.00000000      1.00000000      1.00000000      1.00000000      1.00000000      1.00000000      1.00000000      1.00000000      1.00000000      1.00000000      1.00000000      1.00000000
      1.00000000      1.00000000      1.00000000      1.00000000      1.00000000      1.00000000      1.00000000      1.00000000      1.00000000      1.00000000      1.00000000      1.00000000      1.00000000      1.00000000      1.00000000      1.00000000      1.00000000      1.00000000      1.00000000      1.00000000
      1.00000000      1.00000000      1.00000000      1.00000000</v>
    <i name="NUPDOWN">     -1.00000000</i>
    <i type="logical" name="LSORBIT"> F  </i>
    <v name="SAXIS">      0.00000000      0.00000000      1.00000000</v>
    <i type="logical" name="LSPIRAL"> F  </i>
    <v name="QSPIRAL">      0.00000000      0.00000000      0.00000000</v>
    <i type="logical" name="LZEROZ"> F  </i>
   </separator>
   <separator name="electronic exchange-correlation" >
    <i type="logical" name="LASPH"> F  </i>
    <i type="logical" name="LMETAGGA"> F  </i>
   </separator>
   <separator name="electronic convergence" >
    <i type="int" name="NELM">    60</i>
    <i type="int" name="NELMDL">    -5</i>
    <i type="int" name="NELMIN">     2</i>
    <i name="ENINI">    400.00000000</i>
    <separator name="electronic convergence detail" >
     <i type="logical" name="LDIAG"> T  </i>
     <i type="logical" name="LSUBROT"> F  </i>
     <i name="WEIMIN">      0.00100000</i>
     <i name="EBREAK">      0.00000001</i>
     <i name="DEPER">      0.30000000</i>
     <i type="int" name="NRMM">     4</i>
     <i name="TIME">      0.40000000</i>
    </separator>
   </separator>
   <separator name="electronic mixer" >
    <i name="AMIX">      0.40000000</i>
    <i name="BMIX">      1.00000000</i>
    <i name="AMIN">      0.10000000</i>
    <i name="AMIX_MAG">      1.60000000</i>
    <i name="BMIX_MAG">      1.00000000</i>
    <separator name="electronic mixer details" >
     <i type="int" name="IMIX">     4</i>
     <i type="logical" name="MIXFIRST"> F  </i>
     <i type="int" name="MAXMIX">   -45</i>
     <i name="WC">    100.00000000</i>
     <i type="int" name="INIMIX">     1</i>
     <i type="int" name="MIXPRE">     1</i>
     <i type="int" name="MREMOVE">     5</i>
    </separator>
   </separator>
   <separator name="electronic dipolcorrection" >
    <i type="logical" name="LDIPOL"> F  </i>
    <i type="logical" name="LMONO"> F  </i>
    <i type="int" name="IDIPOL">     0</i>
    <i name="EPSILON">      1.00000000</i>
    <v name="DIPOL">   -100.00000000   -100.00000000   -100.00000000</v>
    <i name="EFIELD">      0.00000000</i>
   </separator>
  </separator>
  <separator name="grids" >
   <i type="int" name="NGX">    48</i>
   <i type="int" name="NGY">    48</i>
   <i type="int" name="NGZ">    48</i>
   <i type="int" name="NGXF">    96</i>
   <i type="int" name="NGYF">    96</i>
   <i type="int" name="NGZF">    96</i>
   <i type="logical" name="ADDGRID"> F  </i>
  </separator>
  <separator name="ionic" >
   <i type="int" name="NSW">   100</i>
   <i type="int" name="IBRION">     2</i>
   <i type="int" name="MDALGO">     0</i>
   <i type="int" name="ISIF">     3</i>
   <i name="PSTRESS">      0.00000000</i>
   <i name="EDIFFG">     -0.01000000</i>
   <i type="int" name="NFREE">     1</i>
   <i name="POTIM">      0.50000000</i>
   <i name="SMASS">     -3.00000000</i>
   <i name="SCALEE">      1.00000000</i>
  </separator>
  <separator name="ionic md" >
   <i name="TEBEG">      0.00010000</i>
   <i name="TEEND">      0.00010000</i>
   <i type="int" name="NBLOCK">     1</i>
   <i type="int" name="KBLOCK">   100</i>
   <i type="int" name="NPACO">   256</i>
   <i name="APACO">     16.00000000</i>
  </separator>
  <separator name="symmetry" >
   <i type="int" name="ISYM">     2</i>
   <i name="SYMPREC">      0.00001000</i>
  </separator>
  <separator name="dos" >
   <i type="int" name="LORBIT">     0</i>
   <v name="RWIGS">     -1.00000000     -1.00000000     -1.00000000     -1.00000000     -1.00000000     -1.00000000     -1.00000000</v>
   <i type="int" name="NEDOS">   301</i>
   <i name="EMIN">     10.00000000</i>
   <i name="EMAX">    -10.00000000</i>
   <i name="EFERMI">      0.00000000</i>
  </separator>
  <separator name="writing" >
   <i type="int" name="NWRITE">     2</i>
   <i type="logical" name="LWAVE"> F  </i>
   <i type="logical" name="LDOWNSAMPLE"> F  </i>
   <i type="logical" name="LCHARG"> F  </i>
   <i type="logical" name="LPARD"> F  </i>
   <i type="logical" name="LVTOT"> F  </i>
   <i type="logical" name="LVHAR"> F  </i>
   <i type="logical" name="LELF"> F  </i>
   <i type="logical" name="LOPTICS"> F  </i>
   <v name="STM">      0.00000000      0.00000000      0.00000000      0.00000000      0.00000000      0.00000000      0.00000000</v>
  </separator>
  <separator name="performance" >
   <i type="int" name="NPAR">    24</i>
   <i type="int" name="NSIM">     4</i>
   <i type="int" name="NBLK">    -1</i>
   <i type="logical" name="LPLANE"> T  </i>
   <i type="logical" name="LSCALAPACK"> T  </i>
   <i type="logical" name="LSCAAWARE"> F  </i>
   <i type="logical" name="LSCALU"> F  </i>
   <i type="logical" name="LASYNC"> F  </i>
   <i type="logical" name="LORBITALREAL"> F  </i>
  </separator>
  <separator name="miscellaneous" >
   <i type="int" name="IDIOT">     3</i>
   <i type="int" name="ISPECIAL">     0</i>
   <i type="logical" name="LMUSIC"> F  </i>
   <v name="POMASS">     91.22400000     92.91000000     47.88000000     14.00100000     12.01100000     51.99600000    183.85000000</v>
   <v name="DARWINR">      0.00000000      0.00000000      0.00000000      0.00000000      0.00000000      0.00000000      0.00000000</v>
   <v name="DARWINV">      1.00000000      1.00000000      1.00000000      1.00000000      1.00000000      1.00000000      1.00000000</v>
   <i type="logical" name="LCORR"> T  </i>
  </separator>
  <i type="logical" name="GGA_COMPAT"> T  </i>
  <i type="logical" name="LBERRY"> F  </i>
  <i type="int" name="ICORELEVEL">     0</i>
  <i type="logical" name="LDAU"> F  </i>
  <i type="int" name="I_CONSTRAINED_M">     0</i>
  <separator name="electronic exchange-correlation" >
   <i type="string" name="GGA">--</i>
   <i type="int" name="VOSKOWN">     0</i>
   <i type="logical" name="LHFCALC"> F  </i>
   <i type="string" name="PRECFOCK"></i>
   <i type="logical" name="LSYMGRAD"> F  </i>
   <i type="logical" name="LHFONE"> F  </i>
   <i type="logical" name="LRHFCALC"> F  </i>
   <i type="logical" name="LTHOMAS"> F  </i>
   <i type="logical" name="LMODELHF"> F  </i>
   <i name="ENCUT4O">     -1.00000000</i>
   <i type="int" name="EXXOEP">     0</i>
   <i type="int" name="FOURORBIT">     0</i>
   <i name="AEXX">      0.00000000</i>
   <i name="HFALPHA">      0.00000000</i>
   <i name="MCALPHA">      0.00000000</i>
   <i name="ALDAX">      1.00000000</i>
   <i name="AGGAX">      1.00000000</i>
   <i name="ALDAC">      1.00000000</i>
   <i name="AGGAC">      1.00000000</i>
   <i type="int" name="NKREDX">     1</i>
   <i type="int" name="NKREDY">     1</i>
   <i type="int" name="NKREDZ">     1</i>
   <i type="logical" name="SHIFTRED"> F  </i>
   <i type="logical" name="ODDONLY"> F  </i>
   <i type="logical" name="EVENONLY"> F  </i>
   <i type="int" name="LMAXFOCK">     0</i>
   <i type="int" name="NMAXFOCKAE">     0</i>
   <i type="logical" name="LFOCKAEDFT"> F  </i>
   <i name="HFSCREEN">      0.00000000</i>
   <i name="HFSCREENC">      0.00000000</i>
   <i type="int" name="NBANDSGWLOW">     0</i>
  </separator>
  <separator name="vdW DFT" >
   <i type="logical" name="LUSE_VDW"> F  </i>
   <i name="Zab_VDW">     -0.84910000</i>
   <i name="PARAM1">      0.12340000</i>
   <i name="PARAM2">      1.00000000</i>
   <i name="PARAM3">      0.00000000</i>
  </separator>
  <separator name="model GW" >
   <i type="int" name="MODEL_GW">     0</i>
   <i name="MODEL_EPS0">      6.77734242</i>
   <i name="MODEL_ALPHA">      1.00000000</i>
  </separator>
  <separator name="linear response parameters" >
   <i type="logical" name="LEPSILON"> F  </i>
   <i type="logical" name="LRPA"> F  </i>
   <i type="logical" name="LNABLA"> F  </i>
   <i type="logical" name="LVEL"> F  </i>
   <i type="int" name="KINTER">     0</i>
   <i name="CSHIFT">      0.10000000</i>
   <i name="OMEGAMAX">     -1.00000000</i>
   <i name="DEG_THRESHOLD">      0.00200000</i>
   <i name="RTIME">     -0.10000000</i>
   <i name="WPLASMAI">      0.00000000</i>
   <v name="DFIELD">      0.00000000      0.00000000      0.00000000</v>
   <v name="WPLASMA">      0.00000000      0.00000000      0.00000000      0.00000000      0.00000000      0.00000000      0.00000000      0.00000000      0.00000000</v>
  </separator>
  <separator name="orbital magnetization" >
   <i type="logical" name="NUCIND"> F  </i>
   <v name="MAGPOS">      0.00000000      0.00000000      0.00000000</v>
   <i type="logical" name="LNICSALL"> T  </i>
   <i type="logical" name="ORBITALMAG"> F  </i>
   <i type="logical" name="LMAGBLOCH"> F  </i>
   <i type="logical" name="LCHIMAG"> F  </i>
   <i type="logical" name="LGAUGE"> T  </i>
   <i type="int" name="MAGATOM">     0</i>
   <v name="MAGDIPOL">      0.00000000      0.00000000      0.00000000</v>
   <v name="AVECCONST">      0.00000000      0.00000000      0.00000000</v>
  </separator>
  <separator name="response functions" >
   <i type="logical" name="LADDER"> F  </i>
   <i type="logical" name="LRPAFORCE"> F  </i>
   <i type="logical" name="LFXC"> F  </i>
   <i type="logical" name="LHARTREE"> T  </i>
   <i type="int" name="IBSE">     0</i>
   <v type="int" name="KPOINT">    -1     0     0     0</v>
   <i type="logical" name="LTCTE"> F  </i>
   <i type="logical" name="LTETE"> F  </i>
   <i type="logical" name="LTRIPLET"> F  </i>
   <i type="logical" name="LFXCEPS"> F  </i>
   <i type="logical" name="LFXHEG"> F  </i>
   <i type="int" name="NATURALO">     2</i>
   <i type="logical" name="L2ORDER"> F  </i>
   <i type="logical" name="LMP2LT"> F  </i>
   <i type="logical" name="LUSEW"> F  </i>
   <i name="ENCUTGW">     -2.00000000</i>
   <i name="ENCUTGWSOFT">     -2.00000000</i>
   <i name="ENCUTLF">     -1.00000000</i>
   <i type="int" name="LMAXMP2">    -1</i>
   <i name="SCISSOR">      0.00000000</i>
   <i type="int" name="NOMEGA">     0</i>
   <i type="int" name="NOMEGAR">     0</i>
   <i type="int" name="NBANDSGW">    -1</i>
   <i type="int" name="NBANDSO">    -1</i>
   <i type="int" name="NBANDSV">    -1</i>
   <i type="int" name="NELM">    60</i>
   <i type="int" name="NELMHF">     1</i>
   <i type="int" name="DIM">     3</i>
   <i type="int" name="ANTIRES">     0</i>
   <i name="OMEGAMAX">    -30.00000000</i>
   <i name="OMEGAMIN">    -30.00000000</i>
   <i name="OMEGATL">   -200.00000000</i>
   <i type="int" name="OMEGAGRID">   140</i>
   <i name="CSHIFT">     -0.10000000</i>
   <i type="logical" name="SELFENERGY"> F  </i>
   <i type="logical" name="LSPECTRAL"> F  </i>
   <i type="logical" name="LSPECTRALGW"> F  </i>
   <i type="logical" name="LSINGLES"> F  </i>
   <i type="logical" name="LFERMIGW"> F  </i>
   <i type="logical" name="ODDONLYGW"> F  </i>
   <i type="logical" name="EVENONLYGW"> F  </i>
   <i type="int" name="NKREDLFX">     1</i>
   <i type="int" name="NKREDLFY">     1</i>
   <i type="int" name="NKREDLFZ">     1</i>
   <i type="int" name="MAXMEM">  2800</i>
   <i type="int" name="TELESCOPE">     0</i>
   <i type="int" name="TAUPAR">     1</i>
   <i type="int" name="OMEGAPAR">    -1</i>
   <i name="LAMBDA">      1.00000000</i>
  </separator>
  <separator name="External order field" >
   <i name="OFIELD_KAPPA">      0.00000000</i>
   <v name="OFIELD_K">      0.00000000      0.00000000      0.00000000</v>
   <i name="OFIELD_Q6_NEAR">      0.00000000</i>
   <i name="OFIELD_Q6_FAR">      0.00000000</i>
   <i name="OFIELD_A">      0.00000000</i>
  </separator>
 </parameters>
 <atominfo>
  <atoms>      64 </atoms>
  <types>       7 </types>
  <array name="atoms" >
   <dimension dim="1">ion</dimension>
   <field type="string">element</field>
   <field type="int">atomtype</field>
   <set>
    <rc><c>Zr</c><c>   1</c></rc>
    <rc><c>Zr</c><c>   1</c></rc>
    <rc><c>Zr</c><c>   1</c></rc>
    <rc><c>Zr</c><c>   1</c></rc>
    <rc><c>Zr</c><c>   1</c></rc>
    <rc><c>Zr</c><c>   1</c></rc>
    <rc><c>Zr</c><c>   1</c></rc>
    <rc><c>Nb</c><c>   2</c></rc>
    <rc><c>Nb</c><c>   2</c></rc>
    <rc><c>Nb</c><c>   2</c></rc>
    <rc><c>Nb</c><c>   2</c></rc>
    <rc><c>Nb</c><c>   2</c></rc>
    <rc><c>Nb</c><c>   2</c></rc>
    <rc><c>Ti</c><c>   3</c></rc>
    <rc><c>Ti</c><c>   3</c></rc>
    <rc><c>Ti</c><c>   3</c></rc>
    <rc><c>Ti</c><c>   3</c></rc>
    <rc><c>Ti</c><c>   3</c></rc>
    <rc><c>Ti</c><c>   3</c></rc>
    <rc><c>Ti</c><c>   3</c></rc>
    <rc><c>N </c><c>   4</c></rc>
    <rc><c>N </c><c>   4</c></rc>
    <rc><c>N </c><c>   4</c></rc>
    <rc><c>N </c><c>   4</c></rc>
    <rc><c>N </c><c>   4</c></rc>
    <rc><c>N </c><c>   4</c></rc>
    <rc><c>N </c><c>   4</c></rc>
    <rc><c>N </c><c>   4</c></rc>
    <rc><c>N </c><c>   4</c></rc>
    <rc><c>N </c><c>   4</c></rc>
    <rc><c>N </c><c>   4</c></rc>
    <rc><c>N </c><c>   4</c></rc>
    <rc><c>N </c><c>   4</c></rc>
    <rc><c>C </c><c>   5</c></rc>
    <rc><c>C </c><c>   5</c></rc>
    <rc><c>C </c><c>   5</c></rc>
    <rc><c>C </c><c>   5</c></rc>
    <rc><c>C </c><c>   5</c></rc>
    <rc><c>C </c><c>   5</c></rc>
    <rc><c>C </c><c>   5</c></rc>
    <rc><c>C </c><c>   5</c></rc>
    <rc><c>C </c><c>   5</c></rc>
    <rc><c>C </c><c>   5</c></rc>
    <rc><c>C </c><c>   5</c></rc>
    <rc><c>C </c><c>   5</c></rc>
    <rc><c>C </c><c>   5</c></rc>
    <rc><c>C </c><c>   5</c></rc>
    <rc><c>C </c><c>   5</c></rc>
    <rc><c>C </c><c>   5</c></rc>
    <rc><c>C </c><c>   5</c></rc>
    <rc><c>C </c><c>   5</c></rc>
    <rc><c>C </c><c>   5</c></rc>
    <rc><c>Cr</c><c>   6</c></rc>
    <rc><c>Cr</c><c>   6</c></rc>
    <rc><c>Cr</c><c>   6</c></rc>
    <rc><c>Cr</c><c>   6</c></rc>
    <rc><c>Cr</c><c>   6</c></rc>
    <rc><c>Cr</c><c>   6</c></rc>
    <rc><c>W </c><c>   7</c></rc>
    <rc><c>W </c><c>   7</c></rc>
    <rc><c>W </c><c>   7</c></rc>
    <rc><c>W </c><c>   7</c></rc>
    <rc><c>W </c><c>   7</c></rc>
    <rc><c>W </c><c>   7</c></rc>
   </set>
  </array>
  <array name="atomtypes" >
   <dimension dim="1">type</dimension>
   <field type="int">atomspertype</field>
   <field type="string">element</field>
   <field>mass</field>
   <field>valence</field>
   <field type="string">pseudopotential</field>
   <set>
    <rc><c>   7</c><c>Zr</c><c>     91.22400000</c><c>     12.00000000</c><c> PAW_PBE Zr_sv 07Sep2000                </c></rc>
    <rc><c>   6</c><c>Nb</c><c>     92.91000000</c><c>     13.00000000</c><c> PAW_PBE Nb_sv 17Jan2003                </c></rc>
    <rc><c>   7</c><c>Ti</c><c>     47.88000000</c><c>     12.00000000</c><c> PAW_PBE Ti_sv 07Sep2000                </c></rc>
    <rc><c>  13</c><c>N </c><c>     14.00100000</c><c>      5.00000000</c><c> PAW_PBE N 08Apr2002                    </c></rc>
    <rc><c>  19</c><c>C </c><c>     12.01100000</c><c>      4.00000000</c><c> PAW_PBE C 08Apr2002                    </c></rc>
    <rc><c>   6</c><c>Cr</c><c>     51.99600000</c><c>     12.00000000</c><c> PAW_PBE Cr_pv 07Sep2000                </c></rc>
    <rc><c>   6</c><c>W </c><c>    183.85000000</c><c>     12.00000000</c><c> PAW_PBE W_pv 06Sep2000                 </c></rc>
   </set>
  </array>
 </atominfo>
 <structure name="initialpos" >
  <crystal>
   <varray name="basis" >
    <v>       8.93249989       0.00000000       0.00000000 </v>
    <v>       0.00575300       9.05559834       0.00000000 </v>
    <v>       0.03210180      -0.01574346       8.93712807 </v>
   </varray>
   <i name="volume">    722.91652451 </i>
   <varray name="rec_basis" >
    <v>       0.11195074      -0.00007112      -0.00040225 </v>
    <v>       0.00000000       0.11042893       0.00019453 </v>
    <v>       0.00000000       0.00000000       0.11189277 </v>
   </varray>
  </crystal>
  <varray name="positions" >
   <v>       0.99688001       0.99204997       0.99924002 </v>
   <v>       0.25398003       0.99714995       0.24912000 </v>
   <v>       0.24803003       0.50165000       0.24955001 </v>
   <v>       0.50501006       0.49745998       0.99834003 </v>
   <v>       0.50479003       0.24631001       0.74710002 </v>
   <v>       0.99427992       0.50449999       0.49779000 </v>
   <v>       0.49950005       0.75481999       0.74817004 </v>
   <v>       0.99437004       0.23617001       0.26379999 </v>
   <v>       0.75718000       0.74102998       0.01100000 </v>
   <v>       0.00201000       0.25541000       0.73894001 </v>
   <v>       0.75307001       0.26163001       0.50533002 </v>
   <v>       0.99514004       0.74492004       0.74511997 </v>
   <v>       0.25679999       0.49462002       0.74545002 </v>
   <v>       0.24788999       0.24839000       0.99657997 </v>
   <v>       0.50833000       0.25676999       0.25376001 </v>
   <v>       0.74879004       0.98787999       0.26967001 </v>
   <v>       0.75719000       0.25603001       0.99591997 </v>
   <v>       0.24762001       0.74973999       0.99974006 </v>
   <v>       0.25272001       0.24823001       0.50015003 </v>
   <v>       0.24457999       0.75048999       0.49983999 </v>
   <v>       0.24982001       0.24942998       0.24825000 </v>
   <v>       0.26146999       0.99984002       0.99295996 </v>
   <v>       0.00281000       0.25024000       0.00130000 </v>
   <v>       0.75313998       0.24617000       0.25492002 </v>
   <v>       0.74767001       0.99748000       0.01202000 </v>
   <v>       0.50714994       0.99977000       0.24673000 </v>
   <v>       0.99051999       0.48088002       0.24100998 </v>
   <v>       0.50519005       0.76130999       0.00855000 </v>
   <v>       0.98896989       0.00202000       0.73708999 </v>
   <v>       0.75744996       0.24437997       0.74896999 </v>
   <v>       0.73632001       0.00417000       0.51063000 </v>
   <v>       0.50563996       0.23264999       0.49544997 </v>
   <v>       0.50008998       0.00061000       0.73471998 </v>
   <v>       0.99720000       0.99771992       0.25899999 </v>
   <v>       0.50427997       0.24673000       0.00262000 </v>
   <v>       0.25133999       0.74958002       0.24910999 </v>
   <v>       0.24328000       0.50072997       0.99510994 </v>
   <v>       0.99837005       0.74313996       0.00460000 </v>
   <v>       0.75633000       0.73891003       0.25767000 </v>
   <v>       0.75839004       0.50315998       0.00288000 </v>
   <v>       0.50700002       0.50333002       0.25878999 </v>
   <v>       0.24900999       0.25315000       0.74854000 </v>
   <v>       0.24446000       0.99823996       0.50287998 </v>
   <v>       0.99804009       0.24229999       0.50128003 </v>
   <v>       0.24177002       0.75340997       0.75018002 </v>
   <v>       0.25841001       0.50062002       0.50129001 </v>
   <v>       0.99000004       0.76215003       0.49746000 </v>
   <v>       0.99203996       0.50055999       0.75138002 </v>
   <v>       0.75036005       0.74888000       0.74756004 </v>
   <v>       0.74036002       0.50197000       0.50067003 </v>
   <v>       0.50575006       0.74958002       0.49720000 </v>
   <v>       0.50501003       0.50217998       0.73912003 </v>
   <v>       0.51588997       0.01358000       0.98075008 </v>
   <v>       0.99841994       0.50976998       0.98613004 </v>
   <v>       0.50379003       0.73926997       0.25905001 </v>
   <v>       0.23780002       0.01082000       0.74607998 </v>
   <v>       0.47957999       0.98308000       0.49717999 </v>
   <v>       0.74279003       0.97869994       0.76450995 </v>
   <v>       0.99864998       0.77573999       0.26102000 </v>
   <v>       0.73551001       0.51468004       0.26666001 </v>
   <v>       0.02362000       0.99783001       0.49557002 </v>
   <v>       0.50539000       0.52833005       0.49917999 </v>
   <v>       0.73876003       0.52828003       0.73814999 </v>
   <v>       0.75400003       0.72937999       0.49116997 </v>
  </varray>
 </structure>
 <calculation>
  <scstep>
   <time name="dav">   22.10   22.72</time>
   <time name="total">   22.14   22.78</time>
   <energy>
    <i name="alphaZ">   4285.45471881 </i>
    <i name="ewald"> -45401.95907543 </i>
    <i name="hartreedc">  -9308.58831321 </i>
    <i name="XCdc">   2197.04658155 </i>
    <i name="pawpsdc">  33666.73058778 </i>
    <i name="pawaedc"> -33542.19532102 </i>
    <i name="eentropy">     -0.08356074 </i>
    <i name="bandstr">   2192.83650142 </i>
    <i name="atom">  53106.19688664 </i>
    <i name="e_fr_energy">   7195.43900581 </i>
    <i name="e_wo_entrp">   7195.52256655 </i>
    <i name="e_0_energy">   7195.48078618 </i>
   </energy>
  </scstep>
  <scstep>
   <time name="dav">   23.33   23.38</time>
   <time name="total">   23.33   23.38</time>
   <energy>
    <i name="e_fr_energy">    512.53440466 </i>
    <i name="e_wo_entrp">    512.65209697 </i>
    <i name="e_0_energy">    512.59325082 </i>
   </energy>
  </scstep>
  <scstep>
   <time name="dav">   33.61   33.72</time>
   <time name="total">   33.61   33.72</time>
   <energy>
    <i name="e_fr_energy">   -616.80607381 </i>
    <i name="e_wo_entrp">   -616.70141639 </i>
    <i name="e_0_energy">   -616.75374510 </i>
   </energy>
  </scstep>
  <scstep>
   <time name="dav">   38.10   38.19</time>
   <time name="total">   38.10   38.20</time>
   <energy>
    <i name="e_fr_energy">   -763.78561845 </i>
    <i name="e_wo_entrp">   -763.68324039 </i>
    <i name="e_0_energy">   -763.73442942 </i>
   </energy>
  </scstep>
  <scstep>
   <time name="dav">   41.29   42.41</time>
   <time name="total">   41.57   42.70</time>
   <energy>
    <i name="e_fr_energy">   -783.49842795 </i>
    <i name="e_wo_entrp">   -783.39566505 </i>
    <i name="e_0_energy">   -783.44704650 </i>
   </energy>
  </scstep>
  <scstep>
   <time name="diag">    1.96    1.96</time>
   <time name="diis">   20.66   20.68</time>
   <time name="orth">    0.50    0.50</time>
   <time name="total">   23.43   23.46</time>
   <energy>
    <i name="e_fr_energy">   -938.30869170 </i>
    <i name="e_wo_entrp">   -938.11874207 </i>
    <i name="e_0_energy">   -938.21371689 </i>
   </energy>
  </scstep>
  <scstep>
   <time name="diag">    1.97    1.97</time>
   <time name="diis">   24.27   24.29</time>
   <time name="orth">    0.50    0.50</time>
   <time name="total">   27.03   27.05</time>
   <energy>
    <i name="e_fr_energy">   -646.63456427 </i>
    <i name="e_wo_entrp">   -646.46928790 </i>
    <i name="e_0_energy">   -646.55192609 </i>
   </energy>
  </scstep>
  <scstep>
   <time name="diag">    1.95    1.98</time>
   <time name="diis">   23.73   23.77</time>
   <time name="orth">    0.50    0.50</time>
   <time name="total">   26.47   26.55</time>
   <energy>
    <i name="e_fr_energy">   -639.46231052 </i>
    <i name="e_wo_entrp">   -639.29492814 </i>
    <i name="e_0_energy">   -639.37861933 </i>
   </energy>
  </scstep>
  <scstep>
   <time name="diag">    1.96    1.96</time>
   <time name="diis">   24.28   24.31</time>
   <time name="orth">    0.49    0.49</time>
   <time name="total">   27.03   27.07</time>
   <energy>
    <i name="e_fr_energy">   -634.81213389 </i>
    <i name="e_wo_entrp">   -634.66312661 </i>
    <i name="e_0_energy">   -634.73763025 </i>
   </energy>
  </scstep>
  <scstep>
   <time name="diag">    1.93    1.97</time>
   <time name="diis">   24.91   25.64</time>
   <time name="orth">    0.49    0.49</time>
   <time name="total">   27.62   28.41</time>
   <energy>
    <i name="e_fr_energy">   -632.54719459 </i>
    <i name="e_wo_entrp">   -632.37397297 </i>
    <i name="e_0_energy">   -632.46058378 </i>
   </energy>
  </scstep>
  <scstep>
   <time name="diag">    1.97    1.97</time>
   <time name="diis">   22.73   22.75</time>
   <time name="orth">    0.50    0.52</time>
   <time name="total">   25.50   25.54</time>
   <energy>
    <i name="e_fr_energy">   -634.60171694 </i>
    <i name="e_wo_entrp">   -634.43865991 </i>
    <i name="e_0_energy">   -634.52018843 </i>
   </energy>
  </scstep>
  <scstep>
   <time name="diag">    1.92    1.96</time>
   <time name="diis">   24.18   24.59</time>
   <time name="orth">    0.49    0.49</time>
   <time name="total">   26.89   27.34</time>
   <energy>
    <i name="e_fr_energy">   -632.51239856 </i>
    <i name="e_wo_entrp">   -632.35877614 </i>
    <i name="e_0_energy">   -632.43558735 </i>
   </energy>
  </scstep>
  <scstep>
   <time name="diag">    1.92    1.96</time>
   <time name="diis">   23.93   24.63</time>
   <time name="orth">    0.48    0.49</time>
   <time name="total">   26.63   27.38</time>
   <energy>
    <i name="e_fr_energy">   -632.00295784 </i>
    <i name="e_wo_entrp">   -631.83704886 </i>
    <i name="e_0_energy">   -631.92000335 </i>
   </energy>
  </scstep>
  <scstep>
   <time name="diag">    1.92    1.96</time>
   <time name="diis">   23.89   24.60</time>
   <time name="orth">    0.49    0.49</time>
   <time name="total">   26.59   27.35</time>
   <energy>
    <i name="e_fr_energy">   -631.67235624 </i>
    <i name="e_wo_entrp">   -631.48982474 </i>
    <i name="e_0_energy">   -631.58109049 </i>
   </energy>
  </scstep>
  <scstep>
   <time name="diag">    1.92    1.96</time>
   <time name="diis">   22.98   23.63</time>
   <time name="orth">    0.49    0.49</time>
   <time name="total">   25.67   26.38</time>
   <energy>
    <i name="e_fr_energy">   -631.84293440 </i>
    <i name="e_wo_entrp">   -631.68398123 </i>
    <i name="e_0_energy">   -631.76345782 </i>
   </energy>
  </scstep>
  <scstep>
   <time name="diag">    1.96    1.96</time>
   <time name="diis">   22.99   23.00</time>
   <time name="orth">    0.49    0.49</time>
   <time name="total">   25.75   25.76</time>
   <energy>
    <i name="e_fr_energy">   -631.46763318 </i>
    <i name="e_wo_entrp">   -631.28811130 </i>
    <i name="e_0_energy">   -631.37787224 </i>
   </energy>
  </scstep>
  <scstep>
   <time name="diag">    1.94    1.98</time>
   <time name="diis">   23.49   24.26</time>
   <time name="orth">    0.49    0.49</time>
   <time name="total">   26.21   27.04</time>
   <energy>
    <i name="e_fr_energy">   -631.42238387 </i>
    <i name="e_wo_entrp">   -631.24871898 </i>
    <i name="e_0_energy">   -631.33555143 </i>
   </energy>
  </scstep>
  <scstep>
   <time name="diag">    1.92    1.96</time>
   <time name="diis">   23.52   23.79</time>
   <time name="orth">    0.49    0.49</time>
   <time name="total">   26.24   26.55</time>
   <energy>
    <i name="e_fr_energy">   -631.47136647 </i>
    <i name="e_wo_entrp">   -631.29799115 </i>
    <i name="e_0_energy">   -631.38467881 </i>
   </energy>
  </scstep>
  <scstep>
   <time name="diag">    1.96    1.96</time>
   <time name="diis">   24.07   24.09</time>
   <time name="orth">    0.49    0.49</time>
   <time name="total">   26.82   26.85</time>
   <energy>
    <i name="e_fr_energy">   -631.41103280 </i>
    <i name="e_wo_entrp">   -631.23647722 </i>
    <i name="e_0_energy">   -631.32375501 </i>
   </energy>
  </scstep>
  <scstep>
   <time name="diag">    1.96    1.96</time>
   <time name="diis">   23.51   23.53</time>
   <time name="orth">    0.49    0.49</time>
   <time name="total">   26.26   26.28</time>
   <energy>
    <i name="e_fr_energy">   -631.39491866 </i>
    <i name="e_wo_entrp">   -631.21934200 </i>
    <i name="e_0_energy">   -631.30713033 </i>
   </energy>
  </scstep>
  <scstep>
   <time name="diag">    1.96    1.96</time>
   <time name="diis">   24.01   24.06</time>
   <time name="orth">    0.49    0.49</time>
   <time name="total">   26.76   26.82</time>
   <energy>
    <i name="e_fr_energy">   -631.39439969 </i>
    <i name="e_wo_entrp">   -631.21850309 </i>
    <i name="e_0_energy">   -631.30645139 </i>
   </energy>
  </scstep>
  <scstep>
   <time name="diag">    1.94    1.98</time>
   <time name="diis">   24.06   24.76</time>
   <time name="orth">    0.48    0.49</time>
   <time name="total">   26.78   27.53</time>
   <energy>
    <i name="e_fr_energy">   -631.39747773 </i>
    <i name="e_wo_entrp">   -631.22165262 </i>
    <i name="e_0_energy">   -631.30956518 </i>
   </energy>
  </scstep>
  <scstep>
   <time name="diag">    1.92    1.96</time>
   <time name="diis">   23.89   24.10</time>
   <time name="orth">    0.49    0.49</time>
   <time name="total">   26.61   26.85</time>
   <energy>
    <i name="e_fr_energy">   -631.40066981 </i>
    <i name="e_wo_entrp">   -631.22471711 </i>
    <i name="e_0_energy">   -631.31269346 </i>
   </energy>
  </scstep>
  <scstep>
   <time name="diag">    1.91    1.95</time>
   <time name="diis">   23.26   23.95</time>
   <time name="orth">    0.49    0.49</time>
   <time name="total">   25.95   26.69</time>
   <energy>
    <i name="e_fr_energy">   -631.40290935 </i>
    <i name="e_wo_entrp">   -631.22682870 </i>
    <i name="e_0_energy">   -631.31486903 </i>
   </energy>
  </scstep>
  <scstep>
   <time name="diag">    1.96    1.96</time>
   <time name="diis">   23.67   23.68</time>
   <time name="orth">    0.50    0.50</time>
   <time name="total">   26.44   26.45</time>
   <energy>
    <i name="e_fr_energy">   -631.40436225 </i>
    <i name="e_wo_entrp">   -631.22839823 </i>
    <i name="e_0_energy">   -631.31638024 </i>
   </energy>
  </scstep>
  <scstep>
   <time name="diag">    1.96    1.96</time>
   <time name="diis">   22.50   22.61</time>
   <time name="orth">    0.49    0.49</time>
   <time name="total">   25.25   25.36</time>
   <energy>
    <i name="e_fr_energy">   -631.40535408 </i>
    <i name="e_wo_entrp">   -631.22943929 </i>
    <i name="e_0_energy">   -631.31739669 </i>
   </energy>
  </scstep>
  <scstep>
   <time name="diag">    1.96    1.96</time>
   <time name="diis">   21.87   21.89</time>
   <time name="orth">    0.49    0.49</time>
   <time name="total">   24.61   24.64</time>
   <energy>
    <i name="e_fr_energy">   -631.40599510 </i>
    <i name="e_wo_entrp">   -631.23009126 </i>
    <i name="e_0_energy">   -631.31804318 </i>
   </energy>
  </scstep>
  <scstep>
   <time name="diag">    1.91    1.95</time>
   <time name="diis">   20.73   21.33</time>
   <time name="orth">    0.48    0.49</time>
   <time name="total">   23.43   24.08</time>
   <energy>
    <i name="e_fr_energy">   -631.40646117 </i>
    <i name="e_wo_entrp">   -631.23056996 </i>
    <i name="e_0_energy">   -631.31851557 </i>
   </energy>
  </scstep>
  <scstep>
   <time name="diag">    1.98    1.99</time>
   <time name="diis">   20.46   20.47</time>
   <time name="orth">    0.49    0.49</time>
   <time name="total">   23.23   23.25</time>
   <energy>
    <i name="e_fr_energy">   -631.40677197 </i>
    <i name="e_wo_entrp">   -631.23089351 </i>
    <i name="e_0_energy">   -631.31883274 </i>
   </energy>
  </scstep>
  <scstep>
   <time name="diag">    1.91    1.95</time>
   <time name="diis">   19.31   19.87</time>
   <time name="orth">    0.50    0.51</time>
   <time name="total">   22.02   22.64</time>
   <energy>
    <i name="e_fr_energy">   -631.40698982 </i>
    <i name="e_wo_entrp">   -631.23109483 </i>
    <i name="e_0_energy">   -631.31904232 </i>
   </energy>
  </scstep>
  <scstep>
   <time name="diag">    1.92    1.95</time>
   <time name="diis">   19.33   19.97</time>
   <time name="orth">    0.49    0.49</time>
   <time name="total">   22.03   22.71</time>
   <energy>
    <i name="e_fr_energy">   -631.40714027 </i>
    <i name="e_wo_entrp">   -631.23125165 </i>
    <i name="e_0_energy">   -631.31919596 </i>
   </energy>
  </scstep>
  <scstep>
   <time name="diag">    1.92    1.95</time>
   <time name="diis">   19.50   19.79</time>
   <time name="orth">    0.49    0.49</time>
   <time name="total">   22.22   22.55</time>
   <energy>
    <i name="e_fr_energy">   -631.40724696 </i>
    <i name="e_wo_entrp">   -631.23136678 </i>
    <i name="e_0_energy">   -631.31930687 </i>
   </energy>
  </scstep>
  <scstep>
   <time name="diag">    1.95    1.95</time>
   <time name="diis">   19.16   19.17</time>
   <time name="orth">    0.49    0.49</time>
   <time name="total">   21.91   21.93</time>
   <energy>
    <i name="e_fr_energy">   -631.40732057 </i>
    <i name="e_wo_entrp">   -631.23144842 </i>
    <i name="e_0_energy">   -631.31938450 </i>
   </energy>
  </scstep>
  <scstep>
   <time name="diag">    2.00    2.01</time>
   <time name="diis">   19.04   19.07</time>
   <time name="orth">    0.49    0.49</time>
   <time name="total">   21.85   21.89</time>
   <energy>
    <i name="e_fr_energy">   -631.40737425 </i>
    <i name="e_wo_entrp">   -631.23150051 </i>
    <i name="e_0_energy">   -631.31943738 </i>
   </energy>
  </scstep>
  <scstep>
   <time name="diag">    2.00    2.00</time>
   <time name="diis">   19.06   19.09</time>
   <time name="orth">    0.49    0.49</time>
   <time name="total">   21.86   21.89</time>
   <energy>
    <i name="e_fr_energy">   -631.40741229 </i>
    <i name="e_wo_entrp">   -631.23154531 </i>
    <i name="e_0_energy">   -631.31947880 </i>
   </energy>
  </scstep>
  <scstep>
   <time name="diag">    1.92    1.96</time>
   <time name="diis">   18.10   18.65</time>
   <time name="orth">    0.48    0.49</time>
   <time name="total">   20.80   21.40</time>
   <energy>
    <i name="e_fr_energy">   -631.40743847 </i>
    <i name="e_wo_entrp">   -631.23156687 </i>
    <i name="e_0_energy">   -631.31950267 </i>
   </energy>
  </scstep>
  <scstep>
   <time name="diag">    1.93    1.97</time>
   <time name="diis">   17.34   17.83</time>
   <time name="orth">    0.49    0.49</time>
   <time name="total">   20.04   20.60</time>
   <energy>
    <i name="e_fr_energy">   -631.40745783 </i>
    <i name="e_wo_entrp">   -631.23158969 </i>
    <i name="e_0_energy">   -631.31952376 </i>
   </energy>
  </scstep>
  <scstep>
   <time name="diag">    1.95    1.95</time>
   <time name="diis">   17.25   17.28</time>
   <time name="orth">    0.49    0.49</time>
   <time name="total">   20.01   20.05</time>
   <energy>
    <i name="e_fr_energy">   -631.40747096 </i>
    <i name="e_wo_entrp">   -631.23160021 </i>
    <i name="e_0_energy">   -631.31953559 </i>
   </energy>
  </scstep>
  <scstep>
   <time name="diag">    1.91    1.95</time>
   <time name="diis">   16.34   16.85</time>
   <time name="orth">    0.48    0.49</time>
   <time name="total">   19.04   19.59</time>
   <energy>
    <i name="e_fr_energy">   -631.40748052 </i>
    <i name="e_wo_entrp">   -631.23160970 </i>
    <i name="e_0_energy">   -631.31954511 </i>
   </energy>
  </scstep>
  <scstep>
   <time name="diag">    1.93    1.98</time>
   <time name="diis">   15.43   15.89</time>
   <time name="orth">    0.49    0.49</time>
   <time name="total">   17.88   18.39</time>
   <energy>
    <i name="alphaZ">   4285.45471881 </i>
    <i name="ewald"> -45401.95907543 </i>
    <i name="hartreedc">  -8663.81502659 </i>
    <i name="XCdc">   2178.40608384 </i>
    <i name="pawpsdc">  34428.81609121 </i>
    <i name="pawaedc"> -34335.80452954 </i>
    <i name="eentropy">     -0.17587075 </i>
    <i name="bandstr">  -6228.52676533 </i>
    <i name="atom">  53106.19688664 </i>
    <i name="e_fr_energy">   -631.40748714 </i>
    <i name="e_wo_entrp">   -631.23161639 </i>
    <i name="e_0_energy">   -631.31955176 </i>
   </energy>
  </scstep>
  <structure>
   <crystal>
    <varray name="basis" >
     <v>       8.93249989       0.00000000       0.00000000 </v>
     <v>       0.00575300       9.05559834       0.00000000 </v>
     <v>       0.03210180      -0.01574346       8.93712807 </v>
    </varray>
    <i name="volume">    722.91652451 </i>
    <varray name="rec_basis" >
     <v>       0.11195074      -0.00007112      -0.00040225 </v>
     <v>       0.00000000       0.11042893       0.00019453 </v>
     <v>       0.00000000       0.00000000       0.11189277 </v>
    </varray>
   </crystal>
   <varray name="positions" >
    <v>       0.99688001       0.99204997       0.99924002 </v>
    <v>       0.25398003       0.99714995       0.24912000 </v>
    <v>       0.24803003       0.50165000       0.24955001 </v>
    <v>       0.50501006       0.49745998       0.99834003 </v>
    <v>       0.50479003       0.24631001       0.74710002 </v>
    <v>       0.99427992       0.50449999       0.49779000 </v>
    <v>       0.49950005       0.75481999       0.74817004 </v>
    <v>       0.99437004       0.23617001       0.26379999 </v>
    <v>       0.75718000       0.74102998       0.01100000 </v>
    <v>       0.00201000       0.25541000       0.73894001 </v>
    <v>       0.75307001       0.26163001       0.50533002 </v>
    <v>       0.99514004       0.74492004       0.74511997 </v>
    <v>       0.25679999       0.49462002       0.74545002 </v>
    <v>       0.24788999       0.24839000       0.99657997 </v>
    <v>       0.50833000       0.25676999       0.25376001 </v>
    <v>       0.74879004       0.98787999       0.26967001 </v>
    <v>       0.75719000       0.25603001       0.99591997 </v>
    <v>       0.24762001       0.74973999       0.99974006 </v>
    <v>       0.25272001       0.24823001       0.50015003 </v>
    <v>       0.24457999       0.75048999       0.49983999 </v>
    <v>       0.24982001       0.24942998       0.24825000 </v>
    <v>       0.26146999       0.99984002       0.99295996 </v>
    <v>       0.00281000       0.25024000       0.00130000 </v>
    <v>       0.75313998       0.24617000       0.25492002 </v>
    <v>       0.74767001       0.99748000       0.01202000 </v>
    <v>       0.50714994       0.99977000       0.24673000 </v>
    <v>       0.99051999       0.48088002       0.24100998 </v>
    <v>       0.50519005       0.76130999       0.00855000 </v>
    <v>       0.98896989       0.00202000       0.73708999 </v>
    <v>       0.75744996       0.24437997       0.74896999 </v>
    <v>       0.73632001       0.00417000       0.51063000 </v>
    <v>       0.50563996       0.23264999       0.49544997 </v>
    <v>       0.50008998       0.00061000       0.73471998 </v>
    <v>       0.99720000       0.99771992       0.25899999 </v>
    <v>       0.50427997       0.24673000       0.00262000 </v>
    <v>       0.25133999       0.74958002       0.24910999 </v>
    <v>       0.24328000       0.50072997       0.99510994 </v>
    <v>       0.99837005       0.74313996       0.00460000 </v>
    <v>       0.75633000       0.73891003       0.25767000 </v>
    <v>       0.75839004       0.50315998       0.00288000 </v>
    <v>       0.50700002       0.50333002       0.25878999 </v>
    <v>       0.24900999       0.25315000       0.74854000 </v>
    <v>       0.24446000       0.99823996       0.50287998 </v>
    <v>       0.99804009       0.24229999       0.50128003 </v>
    <v>       0.24177002       0.75340997       0.75018002 </v>
    <v>       0.25841001       0.50062002       0.50129001 </v>
    <v>       0.99000004       0.76215003       0.49746000 </v>
    <v>       0.99203996       0.50055999       0.75138002 </v>
    <v>       0.75036005       0.74888000       0.74756004 </v>
    <v>       0.74036002       0.50197000       0.50067003 </v>
    <v>       0.50575006       0.74958002       0.49720000 </v>
    <v>       0.50501003       0.50217998       0.73912003 </v>
    <v>       0.51588997       0.01358000       0.98075008 </v>
    <v>       0.99841994       0.50976998       0.98613004 </v>
    <v>       0.50379003       0.73926997       0.25905001 </v>
    <v>       0.23780002       0.01082000       0.74607998 </v>
    <v>       0.47957999       0.98308000       0.49717999 </v>
    <v>       0.74279003       0.97869994       0.76450995 </v>
    <v>       0.99864998       0.77573999       0.26102000 </v>
    <v>       0.73551001       0.51468004       0.26666001 </v>
    <v>       0.02362000       0.99783001       0.49557002 </v>
    <v>       0.50539000       0.52833005       0.49917999 </v>
    <v>       0.73876003       0.52828003       0.73814999 </v>
    <v>       0.75400003       0.72937999       0.49116997 </v>
   </varray>
  </structure>
  <varray name="forces" >
   <v>      -0.03725735       0.92005803      -0.88529087 </v>
   <v>       1.95092753       0.42792014      -0.89610883 </v>
   <v>      -0.00472051      -0.35436900      -0.63884516 </v>
   <v>      -0.69934839       0.09515739       0.50845788 </v>
   <v>      -0.12156393      -1.50812105      -0.08237007 </v>
   <v>       0.83853174      -0.54578853       0.24093764 </v>
   <v>      -1.00325914       2.15805272       1.00628979 </v>
   <v>      -0.10474142      -0.42816923      -0.71842452 </v>
   <v>      -0.46020857       0.68068914       0.03169801 </v>
   <v>       0.34796991      -0.35798556       0.83245025 </v>
   <v>      -0.69404821      -1.06081076      -0.33447270 </v>
   <v>       0.90899546       0.30168607       0.78763942 </v>
   <v>      -0.77800836       0.18357866       0.68332068 </v>
   <v>       0.14881050       0.03877743      -0.42031594 </v>
   <v>       0.25745679      -0.84810888      -0.21547365 </v>
   <v>      -1.27068040       0.49312504      -0.04172991 </v>
   <v>      -0.36823170      -0.14051476      -0.10403614 </v>
   <v>      -0.19457631      -0.19631242      -0.16615588 </v>
   <v>       0.17859900      -0.23714515       0.37956750 </v>
   <v>       0.31558782       0.20438713       0.20377664 </v>
   <v>       0.33138663       0.01496413       0.10504635 </v>
   <v>      -0.25781984       0.10421230      -0.25194466 </v>
   <v>      -0.08716873      -0.02623469      -0.14840644 </v>
   <v>      -0.61901931      -0.02690326      -0.35279101 </v>
   <v>      -0.66132926       0.30576282      -0.72286317 </v>
   <v>       0.58503095      -0.04223393       0.51192381 </v>
   <v>      -0.12586978       0.53281869       0.15554843 </v>
   <v>      -0.34205932      -0.08741756      -0.22481454 </v>
   <v>       0.07726519       0.04013958       0.34669970 </v>
   <v>      -0.20451124       0.07977296       0.60197373 </v>
   <v>       0.36089280      -0.32964973      -0.84783618 </v>
   <v>      -0.57010430       0.20119913      -0.58448638 </v>
   <v>       0.44281761      -0.06509504       0.63154383 </v>
   <v>      -0.65310677       0.59857457      -0.59178079 </v>
   <v>       0.20533733      -0.68267965       0.40819724 </v>
   <v>      -0.06753224      -0.13309509      -0.00269929 </v>
   <v>      -0.22720504       0.13844141      -0.02963761 </v>
   <v>       0.83934461      -0.60887417       0.03605757 </v>
   <v>      -0.62914146       1.26569034      -0.81789653 </v>
   <v>       0.58727623      -0.75918523      -0.11386366 </v>
   <v>      -0.77403655      -0.27707703      -0.47393561 </v>
   <v>      -0.13416637      -0.68062007      -0.02107096 </v>
   <v>       1.69026211      -0.17010582       0.88181933 </v>
   <v>       0.77272967       0.28627675       0.09653260 </v>
   <v>       0.05389842       0.11549396       0.00167762 </v>
   <v>      -0.13502672       0.16264383      -0.11342037 </v>
   <v>       1.16215285      -0.28092395       0.51695175 </v>
   <v>       0.11868758       0.01082542       0.64569428 </v>
   <v>      -0.09446811       1.58461929       0.24748182 </v>
   <v>       0.78413961      -1.00299006       0.40907052 </v>
   <v>      -0.90268671       1.42376193      -0.91364014 </v>
   <v>      -0.61084551      -0.19258448       0.65203311 </v>
   <v>       0.56786161       0.41450482       0.02965123 </v>
   <v>       0.26559535       0.29932423      -0.59856815 </v>
   <v>      -0.00999538      -0.00931321      -0.19425780 </v>
   <v>      -0.00444531       0.48410224       0.22174132 </v>
   <v>      -0.60976501       0.09613284       0.05617041 </v>
   <v>      -0.56809110      -0.80195541       0.56928568 </v>
   <v>       0.74583044      -0.58625068      -0.80195034 </v>
   <v>       0.32154154      -1.13579271      -1.44703408 </v>
   <v>      -0.69168246       0.60502737       1.05179285 </v>
   <v>      -0.89262604      -0.96873079      -0.49589875 </v>
   <v>       1.03608000      -1.79926679       1.00091030 </v>
   <v>      -0.28566245       2.07658436       0.40007886 </v>
  </varray>
  <varray name="stress" >
   <v>    -125.14105274       7.91456445      -3.29035376 </v>
   <v>       7.91456484    -123.94677545       0.31808856 </v>
   <v>      -3.29035243       0.31808840    -121.90292091 </v>
  </varray>
  <energy>
   <i name="e_fr_energy">   -631.40748714 </i>
   <i name="e_wo_entrp">   -631.31955176 </i>
   <i name="e_0_energy">     -0.17587075 </i>
  </energy>
  <time name="totalsc"> 1059.44 1073.01</time>
 </calculation>
 <calculation>
  <scstep>
   <time name="dav">   30.48   31.29</time>
   <time name="total">   30.79   31.61</time>
   <energy>
    <i name="alphaZ">   4875.13156275 </i>
    <i name="ewald"> -47428.25878079 </i>
    <i name="hartreedc">  -9018.95152913 </i>
    <i name="XCdc">   2272.73864735 </i>
    <i name="pawpsdc">  34428.81752307 </i>
    <i name="pawaedc"> -34335.80535217 </i>
    <i name="eentropy">     -0.08521549 </i>
    <i name="bandstr">  -4586.49378593 </i>
    <i name="atom">  53106.19688664 </i>
    <i name="e_fr_energy">   -686.71004371 </i>
    <i name="e_wo_entrp">   -686.62482821 </i>
    <i name="e_0_energy">   -686.66743596 </i>
   </energy>
  </scstep>
  <scstep>
   <time name="diag">    1.92    1.96</time>
   <time name="diis">   18.11   18.66</time>
   <time name="orth">    0.49    0.49</time>
   <time name="total">   20.81   21.41</time>
   <energy>
    <i name="e_fr_energy">   -812.46882361 </i>
    <i name="e_wo_entrp">   -812.33450122 </i>
    <i name="e_0_energy">   -812.40166241 </i>
   </energy>
  </scstep>
  <scstep>
   <time name="diag">    1.91    1.95</time>
   <time name="diis">   21.60   22.23</time>
   <time name="orth">    0.48    0.49</time>
   <time name="total">   24.29   24.97</time>
   <energy>
    <i name="e_fr_energy">   -642.09445772 </i>
    <i name="e_wo_entrp">   -641.95975651 </i>
    <i name="e_0_energy">   -642.02710712 </i>
   </energy>
  </scstep>
  <scstep>
   <time name="diag">    1.95    1.96</time>
   <time name="diis">   20.85   20.86</time>
   <time name="orth">    0.49    0.49</time>
   <time name="total">   23.60   23.61</time>
   <energy>
    <i name="e_fr_energy">   -645.67826064 </i>
    <i name="e_wo_entrp">   -645.55707674 </i>
    <i name="e_0_energy">   -645.61766869 </i>
   </energy>
  </scstep>
  <scstep>
   <time name="diag">    2.00    2.01</time>
   <time name="diis">   20.01   20.03</time>
   <time name="orth">    0.49    0.49</time>
   <time name="total">   22.80   22.83</time>
   <energy>
    <i name="e_fr_energy">   -636.76786449 </i>
    <i name="e_wo_entrp">   -636.64117137 </i>
    <i name="e_0_energy">   -636.70451793 </i>
   </energy>
  </scstep>
  <scstep>
   <time name="diag">    1.95    1.95</time>
   <time name="diis">   23.03   23.06</time>
   <time name="orth">    0.49    0.49</time>
   <time name="total">   25.77   25.79</time>
   <energy>
    <i name="e_fr_energy">   -634.59550087 </i>
    <i name="e_wo_entrp">   -634.46195378 </i>
    <i name="e_0_energy">   -634.52872732 </i>
   </energy>
  </scstep>
  <scstep>
   <time name="diag">    1.92    1.95</time>
   <time name="diis">   21.10   21.77</time>
   <time name="orth">    0.49    0.49</time>
   <time name="total">   23.79   24.51</time>
   <energy>
    <i name="e_fr_energy">   -631.90801566 </i>
    <i name="e_wo_entrp">   -631.76053491 </i>
    <i name="e_0_energy">   -631.83427528 </i>
   </energy>
  </scstep>
  <scstep>
   <time name="diag">    1.99    1.99</time>
   <time name="diis">   21.76   21.79</time>
   <time name="orth">    0.49    0.49</time>
   <time name="total">   24.54   24.58</time>
   <energy>
    <i name="e_fr_energy">   -632.44066872 </i>
    <i name="e_wo_entrp">   -632.29664550 </i>
    <i name="e_0_energy">   -632.36865711 </i>
   </energy>
  </scstep>
  <scstep>
   <time name="diag">    1.96    1.96</time>
   <time name="diis">   21.66   21.67</time>
   <time name="orth">    0.49    0.49</time>
   <time name="total">   24.41   24.43</time>
   <energy>
    <i name="e_fr_energy">   -631.43181869 </i>
    <i name="e_wo_entrp">   -631.29579162 </i>
    <i name="e_0_energy">   -631.36380516 </i>
   </energy>
  </scstep>
  <scstep>
   <time name="diag">    1.97    1.98</time>
   <time name="diis">   24.69   24.77</time>
   <time name="orth">    0.49    0.49</time>
   <time name="total">   27.45   27.54</time>
   <energy>
    <i name="e_fr_energy">   -631.58259718 </i>
    <i name="e_wo_entrp">   -631.44531601 </i>
    <i name="e_0_energy">   -631.51395660 </i>
   </energy>
  </scstep>
  <scstep>
   <time name="diag">    1.95    1.95</time>
   <time name="diis">   24.94   24.95</time>
   <time name="orth">    0.49    0.49</time>
   <time name="total">   27.68   27.69</time>
   <energy>
    <i name="e_fr_energy">   -631.51313953 </i>
    <i name="e_wo_entrp">   -631.37486626 </i>
    <i name="e_0_energy">   -631.44400290 </i>
   </energy>
  </scstep>
  <scstep>
   <time name="diag">    1.95    1.99</time>
   <time name="diis">   25.14   25.88</time>
   <time name="orth">    0.48    0.49</time>
   <time name="total">   27.86   28.66</time>
   <energy>
    <i name="e_fr_energy">   -631.59714226 </i>
    <i name="e_wo_entrp">   -631.45581081 </i>
    <i name="e_0_energy">   -631.52647654 </i>
   </energy>
  </scstep>
  <scstep>
   <time name="diag">    1.92    1.96</time>
   <time name="diis">   24.09   24.79</time>
   <time name="orth">    0.49    0.50</time>
   <time name="total">   26.79   27.54</time>
   <energy>
    <i name="e_fr_energy">   -631.61174779 </i>
    <i name="e_wo_entrp">   -631.47347514 </i>
    <i name="e_0_energy">   -631.54261147 </i>
   </energy>
  </scstep>
  <scstep>
   <time name="diag">    1.95    1.95</time>
   <time name="diis">   24.44   24.55</time>
   <time name="orth">    0.49    0.49</time>
   <time name="total">   27.17   27.28</time>
   <energy>
    <i name="e_fr_energy">   -631.62283903 </i>
    <i name="e_wo_entrp">   -631.48377171 </i>
    <i name="e_0_energy">   -631.55330537 </i>
   </energy>
  </scstep>
  <scstep>
   <time name="diag">    1.96    1.96</time>
   <time name="diis">   25.46   25.50</time>
   <time name="orth">    0.49    0.49</time>
   <time name="total">   28.21   28.25</time>
   <energy>
    <i name="e_fr_energy">   -631.64060404 </i>
    <i name="e_wo_entrp">   -631.50131851 </i>
    <i name="e_0_energy">   -631.57096127 </i>
   </energy>
  </scstep>
  <scstep>
   <time name="diag">    1.91    1.94</time>
   <time name="diis">   25.26   26.05</time>
   <time name="orth">    0.49    0.50</time>
   <time name="total">   27.95   28.78</time>
   <energy>
    <i name="e_fr_energy">   -631.64997443 </i>
    <i name="e_wo_entrp">   -631.51052598 </i>
    <i name="e_0_energy">   -631.58025021 </i>
   </energy>
  </scstep>
  <scstep>
   <time name="diag">    1.95    1.95</time>
   <time name="diis">   25.16   25.19</time>
   <time name="orth">    0.49    0.49</time>
   <time name="total">   27.90   27.93</time>
   <energy>
    <i name="e_fr_energy">   -631.65276154 </i>
    <i name="e_wo_entrp">   -631.51350361 </i>
    <i name="e_0_energy">   -631.58313257 </i>
   </energy>
  </scstep>
  <scstep>
   <time name="diag">    1.96    1.96</time>
   <time name="diis">   25.71   25.76</time>
   <time name="orth">    0.49    0.51</time>
   <time name="total">   28.47   28.54</time>
   <energy>
    <i name="e_fr_energy">   -631.65497328 </i>
    <i name="e_wo_entrp">   -631.51576797 </i>
    <i name="e_0_energy">   -631.58537063 </i>
   </energy>
  </scstep>
  <scstep>
   <time name="diag">    1.95    1.96</time>
   <time name="diis">   25.18   25.20</time>
   <time name="orth">    0.49    0.49</time>
   <time name="total">   27.91   27.94</time>
   <energy>
    <i name="e_fr_energy">   -631.65634966 </i>
    <i name="e_wo_entrp">   -631.51714882 </i>
    <i name="e_0_energy">   -631.58674924 </i>
   </energy>
  </scstep>
  <scstep>
   <time name="diag">    1.93    1.96</time>
   <time name="diis">   24.33   25.06</time>
   <time name="orth">    0.48    0.49</time>
   <time name="total">   27.03   27.81</time>
   <energy>
    <i name="e_fr_energy">   -631.65723677 </i>
    <i name="e_wo_entrp">   -631.51807241 </i>
    <i name="e_0_energy">   -631.58765459 </i>
   </energy>
  </scstep>
  <scstep>
   <time name="diag">    1.96    1.97</time>
   <time name="diis">   23.01   23.07</time>
   <time name="orth">    0.49    0.49</time>
   <time name="total">   25.77   25.84</time>
   <energy>
    <i name="e_fr_energy">   -631.65772959 </i>
    <i name="e_wo_entrp">   -631.51852405 </i>
    <i name="e_0_energy">   -631.58812682 </i>
   </energy>
  </scstep>
  <scstep>
   <time name="diag">    1.95    1.95</time>
   <time name="diis">   22.45   22.50</time>
   <time name="orth">    0.49    0.49</time>
   <time name="total">   25.19   25.25</time>
   <energy>
    <i name="e_fr_energy">   -631.65805928 </i>
    <i name="e_wo_entrp">   -631.51885296 </i>
    <i name="e_0_energy">   -631.58845612 </i>
   </energy>
  </scstep>
  <scstep>
   <time name="diag">    1.95    1.95</time>
   <time name="diis">   21.58   21.66</time>
   <time name="orth">    0.49    0.49</time>
   <time name="total">   24.33   24.40</time>
   <energy>
    <i name="e_fr_energy">   -631.65824825 </i>
    <i name="e_wo_entrp">   -631.51906625 </i>
    <i name="e_0_energy">   -631.58865725 </i>
   </energy>
  </scstep>
  <scstep>
   <time name="diag">    1.90    1.94</time>
   <time name="diis">   20.26   20.88</time>
   <time name="orth">    0.49    0.49</time>
   <time name="total">   22.94   23.61</time>
   <energy>
    <i name="e_fr_energy">   -631.65838903 </i>
    <i name="e_wo_entrp">   -631.51920004 </i>
    <i name="e_0_energy">   -631.58879454 </i>
   </energy>
  </scstep>
  <scstep>
   <time name="diag">    1.90    1.94</time>
   <time name="diis">   20.54   20.86</time>
   <time name="orth">    0.49    0.49</time>
   <time name="total">   23.23   23.59</time>
   <energy>
    <i name="e_fr_energy">   -631.65846719 </i>
    <i name="e_wo_entrp">   -631.51928593 </i>
    <i name="e_0_energy">   -631.58887656 </i>
   </energy>
  </scstep>
  <scstep>
   <time name="diag">    1.93    1.97</time>
   <time name="diis">   19.55   20.12</time>
   <time name="orth">    0.48    0.49</time>
   <time name="total">   22.25   22.88</time>
   <energy>
    <i name="e_fr_energy">   -631.65852083 </i>
    <i name="e_wo_entrp">   -631.51933664 </i>
    <i name="e_0_energy">   -631.58892874 </i>
   </energy>
  </scstep>
  <scstep>
   <time name="diag">    1.94    1.94</time>
   <time name="diis">   20.06   20.08</time>
   <time name="orth">    0.49    0.49</time>
   <time name="total">   22.79   22.81</time>
   <energy>
    <i name="e_fr_energy">   -631.65855487 </i>
    <i name="e_wo_entrp">   -631.51937806 </i>
    <i name="e_0_energy">   -631.58896647 </i>
   </energy>
  </scstep>
  <scstep>
   <time name="diag">    1.92    1.97</time>
   <time name="diis">   18.74   19.36</time>
   <time name="orth">    0.49    0.49</time>
   <time name="total">   21.45   22.12</time>
   <energy>
    <i name="e_fr_energy">   -631.65857740 </i>
    <i name="e_wo_entrp">   -631.51939304 </i>
    <i name="e_0_energy">   -631.58898522 </i>
   </energy>
  </scstep>
  <scstep>
   <time name="diag">    1.95    1.95</time>
   <time name="diis">   18.59   19.01</time>
   <time name="orth">    0.48    0.49</time>
   <time name="total">   21.31   21.76</time>
   <energy>
    <i name="e_fr_energy">   -631.65859099 </i>
    <i name="e_wo_entrp">   -631.51940803 </i>
    <i name="e_0_energy">   -631.58899951 </i>
   </energy>
  </scstep>
  <scstep>
   <time name="diag">    1.93    1.97</time>
   <time name="diis">   16.79   17.28</time>
   <time name="orth">    0.48    0.49</time>
   <time name="total">   19.50   20.05</time>
   <energy>
    <i name="e_fr_energy">   -631.65860025 </i>
    <i name="e_wo_entrp">   -631.51941782 </i>
    <i name="e_0_energy">   -631.58900904 </i>
   </energy>
  </scstep>
  <scstep>
   <time name="diag">    2.03    2.08</time>
   <time name="diis">   16.66   17.14</time>
   <time name="orth">    0.49    0.49</time>
   <time name="total">   19.21   19.75</time>
   <energy>
    <i name="alphaZ">   4875.13156275 </i>
    <i name="ewald"> -47428.25878079 </i>
    <i name="hartreedc">  -7975.39319684 </i>
    <i name="XCdc">   2213.72309791 </i>
    <i name="pawpsdc">  35838.78484027 </i>
    <i name="pawaedc"> -35723.71817727 </i>
    <i name="eentropy">     -0.13917926 </i>
    <i name="bandstr">  -5537.98565970 </i>
    <i name="atom">  53106.19688664 </i>
    <i name="e_fr_energy">   -631.65860630 </i>
    <i name="e_wo_entrp">   -631.51942704 </i>
    <i name="e_0_energy">   -631.58901667 </i>
   </energy>
  </scstep>
  <structure>
   <crystal>
    <varray name="basis" >
     <v>       8.55230908       0.02404522      -0.00999642 </v>
     <v>       0.02988472       8.67386196       0.00097326 </v>
     <v>       0.02069149      -0.01402648       8.56654551 </v>
    </varray>
    <i name="volume">    635.47536951 </i>
    <varray name="rec_basis" >
     <v>       0.11692829      -0.00040283      -0.00028309 </v>
     <v>      -0.00032392       0.11528999       0.00018955 </v>
     <v>       0.00013648      -0.00001357       0.11673282 </v>
    </varray>
   </crystal>
   <varray name="positions" >
    <v>       0.99669281       0.99694316       0.99446121 </v>
    <v>       0.26453252       0.99942124       0.24428280 </v>
    <v>       0.24801814       0.49975615       0.24610152 </v>
    <v>       0.50122283       0.49797169       0.00108469 </v>
    <v>       0.50414026       0.23827490       0.74665538 </v>
    <v>       0.99880586       0.50159463       0.49909058 </v>
    <v>       0.49405472       0.76632621       0.75360200 </v>
    <v>       0.99381976       0.23388225       0.25992193 </v>
    <v>       0.75469155       0.74465657       0.01117111 </v>
    <v>       0.00387439       0.25351069       0.74343358 </v>
    <v>       0.74933173       0.25597553       0.50352454 </v>
    <v>       0.00003303       0.74653463       0.74937165 </v>
    <v>       0.25258424       0.49560443       0.74913859 </v>
    <v>       0.24870171       0.24859263       0.99431110 </v>
    <v>       0.50972757       0.25224977       0.25259688 </v>
    <v>       0.74192646       0.99050667       0.26944475 </v>
    <v>       0.75520375       0.25528046       0.99535838 </v>
    <v>       0.24657304       0.74869260       0.99884315 </v>
    <v>       0.25367803       0.24697021       0.50219894 </v>
    <v>       0.24627976       0.75158075       0.50093998 </v>
    <v>       0.25160768       0.24951069       0.24881704 </v>
    <v>       0.26008209       0.00039283       0.99159996 </v>
    <v>       0.00234219       0.25009885       0.00049890 </v>
    <v>       0.74980372       0.24602336       0.25301565 </v>
    <v>       0.74411128       0.99910213       0.00811798 </v>
    <v>       0.51029978       0.99954980       0.24949337 </v>
    <v>       0.98983535       0.48372001       0.24184964 </v>
    <v>       0.50334732       0.76084217       0.00733645 </v>
    <v>       0.98938032       0.00223709       0.73896148 </v>
    <v>       0.75633348       0.24481060       0.75221944 </v>
    <v>       0.73828670       0.00240587       0.50605338 </v>
    <v>       0.50257159       0.23371636       0.49229491 </v>
    <v>       0.50246952       0.00026914       0.73812906 </v>
    <v>       0.99368213       0.00090320       0.25580556 </v>
    <v>       0.50538338       0.24309693       0.00482345 </v>
    <v>       0.25097577       0.74887094       0.24909542 </v>
    <v>       0.24205301       0.50146723       0.99494996 </v>
    <v>       0.00290457       0.73989659       0.00479464 </v>
    <v>       0.75294366       0.74564517       0.25325499 </v>
    <v>       0.76156662       0.49911444       0.00226536 </v>
    <v>       0.50282975       0.50184947       0.25623168 </v>
    <v>       0.24828813       0.24952388       0.74842626 </v>
    <v>       0.25357224       0.99734202       0.50764004 </v>
    <v>       0.00221059       0.24382601       0.50180111 </v>
    <v>       0.24206068       0.75402527       0.75018907 </v>
    <v>       0.25768240       0.50148542       0.50067776 </v>
    <v>       0.99626752       0.76065829       0.50025051 </v>
    <v>       0.99266840       0.50062372       0.75486548 </v>
    <v>       0.74983961       0.75732420       0.74889595 </v>
    <v>       0.74459050       0.49663053       0.50287819 </v>
    <v>       0.50088767       0.75715637       0.49226817 </v>
    <v>       0.50169898       0.50116013       0.74263971 </v>
    <v>       0.51895488       0.01578850       0.98091013 </v>
    <v>       0.99986496       0.51135898       0.98289896 </v>
    <v>       0.50373985       0.73921853       0.25800141 </v>
    <v>       0.23777005       0.01340108       0.74727694 </v>
    <v>       0.47628535       0.98359267       0.49748320 </v>
    <v>       0.73971359       0.97443295       0.76758296 </v>
    <v>       0.00269563       0.77260928       0.25669107 </v>
    <v>       0.73727857       0.50861565       0.25884891 </v>
    <v>       0.01986187       0.00106309       0.50124760 </v>
    <v>       0.50058205       0.52316460       0.49650313 </v>
    <v>       0.74434245       0.51870403       0.74355291 </v>
    <v>       0.75244234       0.74044651       0.49332960 </v>
   </varray>
  </structure>
  <varray name="forces" >
   <v>       0.20458901       0.10182494      -0.28603803 </v>
   <v>      -0.01153868       0.16315929      -0.19735165 </v>
   <v>      -0.42656051      -0.44738960       0.10648162 </v>
   <v>      -0.06893297      -0.00574965      -0.07863079 </v>
   <v>      -0.14730136       0.36301154       0.15421585 </v>
   <v>       0.50084608      -0.15383277       0.10404130 </v>
   <v>      -0.23285094      -1.09095173       0.08134623 </v>
   <v>       0.13886058       0.57757690      -0.90023755 </v>
   <v>      -0.21044701       0.40192326      -0.62793600 </v>
   <v>      -0.23592732      -0.39119019       0.95054551 </v>
   <v>       0.08245805      -1.12766137      -0.10480886 </v>
   <v>      -0.14625736       0.34432396       0.68513950 </v>
   <v>      -0.51739942       0.05837015       0.20442669 </v>
   <v>       0.32043023      -0.25021587       0.01455609 </v>
   <v>      -0.20374595      -0.32550254      -0.37901888 </v>
   <v>      -0.45068589       0.56183173      -0.68172550 </v>
   <v>      -0.43273427      -0.43312438       0.23110403 </v>
   <v>       0.07254988       0.10005285       0.06357226 </v>
   <v>       0.21264452      -0.23769541      -0.06612417 </v>
   <v>       0.31176820       0.17367449      -0.01339765 </v>
   <v>       0.31957188      -0.16741441      -0.03200700 </v>
   <v>       0.28975887       0.10438100      -0.56497534 </v>
   <v>       0.05879738       0.66294097       0.08425685 </v>
   <v>      -0.62038752      -0.15255974      -0.78556634 </v>
   <v>      -0.43188753       0.54098366      -0.50107185 </v>
   <v>       0.67875450      -0.06942550       0.00567775 </v>
   <v>      -0.06909581       0.99449519      -0.50795941 </v>
   <v>      -0.64114955       0.41315504       0.40538474 </v>
   <v>      -0.13776008       0.06746503       0.35526682 </v>
   <v>      -0.06284077       0.19090164       0.51834330 </v>
   <v>       0.66894502      -0.47607026       0.01547472 </v>
   <v>      -0.74347657       0.44883940      -0.36659671 </v>
   <v>       0.22613355       0.43933025       0.48945663 </v>
   <v>       0.05389953      -0.49632136      -0.29247862 </v>
   <v>      -0.18176762      -0.31999038       0.30710504 </v>
   <v>       0.50556278       0.07243267      -0.05794968 </v>
   <v>      -0.44548491      -0.02614792      -0.05210494 </v>
   <v>       0.41618929      -0.12674891       0.16559727 </v>
   <v>      -0.74656307       0.64753922      -0.00644757 </v>
   <v>       0.26405665      -0.58118308       0.03160046 </v>
   <v>      -0.67478049      -0.40107376      -0.38200678 </v>
   <v>       0.31050391      -0.49321230       0.02579699 </v>
   <v>       0.53417507       0.11704576       0.43919479 </v>
   <v>       0.54701179       0.40698484      -0.01111898 </v>
   <v>       0.19269217       0.40687278       0.10968567 </v>
   <v>      -0.18706004      -0.03139435      -0.10053991 </v>
   <v>       0.81375817      -0.47051003       0.19980057 </v>
   <v>       0.56652956      -0.12926261       0.29866146 </v>
   <v>      -0.08708110      -0.18993173       0.03126353 </v>
   <v>       0.03243558       0.43055115      -0.28224128 </v>
   <v>      -0.75066301       0.62471686      -0.13113430 </v>
   <v>      -0.12564746       0.05570911       0.21158600 </v>
   <v>       0.05685097      -0.43122567       0.17186096 </v>
   <v>       0.29354096      -0.26732009       0.15014876 </v>
   <v>      -0.39537234      -0.01632189      -0.56905912 </v>
   <v>      -0.31412328      -0.04541425       0.40629632 </v>
   <v>       0.32360939       0.47564227      -0.23912266 </v>
   <v>      -0.36016366       0.74672186       0.58197252 </v>
   <v>       0.50116286      -0.65154094      -0.84132788 </v>
   <v>       0.78120135      -0.60033213      -0.81668225 </v>
   <v>      -0.08193617       0.46049786       0.14642731 </v>
   <v>       0.08349471      -0.58832846      -0.00839106 </v>
   <v>       0.38223551      -0.41606293       1.56956941 </v>
   <v>      -0.60339532       0.45815055       0.56819379 </v>
  </varray>
  <varray name="stress" >
   <v>     271.26354054       3.37499002       3.55246479 </v>
   <v>       3.37499030     229.85460872      -2.64303930 </v>
   <v>       3.55246408      -2.64304046     266.85254955 </v>
  </varray>
  <energy>
   <i name="e_fr_energy">   -631.65860630 </i>
   <i name="e_wo_entrp">   -631.58901667 </i>
   <i name="e_0_energy">     -0.13917926 </i>
  </energy>
  <time name="totalsc">  820.74  831.52</time>
 </calculation>
 <calculation>
  <scstep>
   <time name="dav">   31.30   31.35</time>
   <time name="total">   31.61   31.66</time>
   <energy>
    <i name="alphaZ">   4582.23508242 </i>
    <i name="ewald"> -46462.96914733 </i>
    <i name="hartreedc">  -7803.99474738 </i>
    <i name="XCdc">   2168.98387431 </i>
    <i name="pawpsdc">  35838.89181557 </i>
    <i name="pawaedc"> -35723.75849783 </i>
    <i name="eentropy">     -0.16261695 </i>
    <i name="bandstr">  -6354.12844361 </i>
    <i name="atom">  53106.19688664 </i>
    <i name="e_fr_energy">   -648.70579415 </i>
    <i name="e_wo_entrp">   -648.54317720 </i>
    <i name="e_0_energy">   -648.62448567 </i>
   </energy>
  </scstep>
  <scstep>
   <time name="diag">    1.90    1.94</time>
   <time name="diis">   23.18   23.90</time>
   <time name="orth">    0.48    0.49</time>
   <time name="total">   25.85   26.62</time>
   <energy>
    <i name="e_fr_energy">   -766.77133507 </i>
    <i name="e_wo_entrp">   -766.64252358 </i>
    <i name="e_0_energy">   -766.70692933 </i>
   </energy>
  </scstep>
  <scstep>
   <time name="diag">    1.96    1.97</time>
   <time name="diis">   20.83   20.86</time>
   <time name="orth">    0.49    0.49</time>
   <time name="total">   23.58   23.62</time>
   <energy>
    <i name="e_fr_energy">   -642.68840463 </i>
    <i name="e_wo_entrp">   -642.55824314 </i>
    <i name="e_0_energy">   -642.62332389 </i>
   </energy>
  </scstep>
  <scstep>
   <time name="diag">    1.96    1.96</time>
   <time name="diis">   21.15   21.16</time>
   <time name="orth">    0.49    0.49</time>
   <time name="total">   23.90   23.92</time>
   <energy>
    <i name="e_fr_energy">   -644.11773199 </i>
    <i name="e_wo_entrp">   -643.99686200 </i>
    <i name="e_0_energy">   -644.05729699 </i>
   </energy>
  </scstep>
  <scstep>
   <time name="diag">    1.94    1.94</time>
   <time name="diis">   21.67   21.78</time>
   <time name="orth">    0.48    0.49</time>
[...]
      </set>
     </set>
    </set>
   </array>
  </eigenvalues>
  <separator name="orbital magnetization" >
   <v name="MAGDIPOLOUT">      0.00000000      0.00000000      0.00000000</v>
  </separator>
  <dos>
   <i name="efermi">      8.80968931 </i>
   <total>
    <array>
     <dimension dim="1">gridpoints</dimension>
     <dimension dim="2">spin</dimension>
     <field>energy</field>
     <field>total</field>
     <field>integrated</field>
     <set>
      <set comment="spin 1">
       <r>   -51.9645     0.0000     0.0000 </r>
       <r>   -51.7410     0.0000     0.0000 </r>
       <r>   -51.5176     0.0000     0.0000 </r>
       <r>   -51.2942     0.0000     0.0000 </r>
       <r>   -51.0707     0.0000     0.0000 </r>
       <r>   -50.8473     0.0000     0.0000 </r>
       <r>   -50.6239     0.0000     0.0000 </r>
       <r>   -50.4004     0.0000     0.0000 </r>
       <r>   -50.1770     0.0000     0.0000 </r>
       <r>   -49.9536     0.0000     0.0000 </r>
       <r>   -49.7302     0.0000     0.0000 </r>
       <r>   -49.5067     0.0000     0.0000 </r>
       <r>   -49.2833     0.0000     0.0000 </r>
       <r>   -49.0599     0.1995     0.0446 </r>
       <r>   -48.8364    11.5209     2.6187 </r>
       <r>   -48.6130    22.3438     7.6110 </r>
       <r>   -48.3896    24.5908    13.1054 </r>
       <r>   -48.1661     4.0004    13.9992 </r>
       <r>   -47.9427     0.0036    14.0000 </r>
       <r>   -47.7193     0.0000    14.0000 </r>
       <r>   -47.4958     0.0004    14.0001 </r>
       <r>   -47.2724     2.6100    14.5832 </r>
       <r>   -47.0490    20.5474    19.1742 </r>
       <r>   -46.8255    17.6756    23.1235 </r>
       <r>   -46.6021    11.9489    25.7932 </r>
       <r>   -46.3787     0.9254    26.0000 </r>
       <r>   -46.1552     0.0000    26.0000 </r>
       <r>   -45.9318     0.0000    26.0000 </r>
       <r>   -45.7084     0.0000    26.0000 </r>
       <r>   -45.4850     0.0000    26.0000 </r>
       <r>   -45.2615     0.0000    26.0000 </r>
       <r>   -45.0381     0.0000    26.0000 </r>
       <r>   -44.8147     0.0000    26.0000 </r>
       <r>   -44.5912     0.0000    26.0000 </r>
       <r>   -44.3678     0.0000    26.0000 </r>
       <r>   -44.1444     0.0000    26.0000 </r>
       <r>   -43.9209     0.0000    26.0000 </r>
       <r>   -43.6975     0.0000    26.0000 </r>
       <r>   -43.4741     0.0000    26.0000 </r>
       <r>   -43.2506     0.0000    26.0000 </r>
       <r>   -43.0272     0.0000    26.0000 </r>
       <r>   -42.8038     0.0000    26.0000 </r>
       <r>   -42.5803     0.0000    26.0000 </r>
       <r>   -42.3569     0.0000    26.0000 </r>
       <r>   -42.1335     0.0000    26.0000 </r>
       <r>   -41.9100     0.0000    26.0000 </r>
       <r>   -41.6866     0.0000    26.0000 </r>
       <r>   -41.4632     0.0000    26.0000 </r>
       <r>   -41.2398     0.0000    26.0000 </r>
       <r>   -41.0163     0.0000    26.0000 </r>
       <r>   -40.7929     0.0000    26.0000 </r>
       <r>   -40.5695     0.0016    26.0004 </r>
       <r>   -40.3460     3.0794    26.6884 </r>
       <r>   -40.1226     9.3738    28.7828 </r>
       <r>   -39.8992    15.5796    32.2638 </r>
       <r>   -39.6757    31.1992    39.2347 </r>
       <r>   -39.4523     3.4244    39.9998 </r>
       <r>   -39.2289     0.0008    40.0000 </r>
       <r>   -39.0054     0.0000    40.0000 </r>
       <r>   -38.7820     0.0000    40.0000 </r>
       <r>   -38.5586     0.0000    40.0000 </r>
       <r>   -38.3351     0.0000    40.0000 </r>
       <r>   -38.1117     0.0000    40.0000 </r>
       <r>   -37.8883     0.0000    40.0000 </r>
       <r>   -37.6649     0.0000    40.0000 </r>
       <r>   -37.4414     0.0000    40.0000 </r>
       <r>   -37.2180     0.0000    40.0000 </r>
       <r>   -36.9946     0.0000    40.0000 </r>
       <r>   -36.7711     0.0000    40.0000 </r>
       <r>   -36.5477     0.0000    40.0000 </r>
       <r>   -36.3243     0.0000    40.0000 </r>
       <r>   -36.1008     0.0000    40.0000 </r>
       <r>   -35.8774     0.0000    40.0000 </r>
       <r>   -35.6540     0.0000    40.0000 </r>
       <r>   -35.4305     0.0000    40.0000 </r>
       <r>   -35.2071     0.0277    40.0062 </r>
       <r>   -34.9837     7.0366    41.5784 </r>
       <r>   -34.7602    67.2604    56.6065 </r>
       <r>   -34.5368    83.5111    75.2655 </r>
       <r>   -34.3134     3.2871    75.9999 </r>
       <r>   -34.0899     0.0004    76.0000 </r>
       <r>   -33.8665     0.0000    76.0000 </r>
       <r>   -33.6431     0.0000    76.0000 </r>
       <r>   -33.4197     0.0000    76.0000 </r>
       <r>   -33.1962     0.0000    76.0000 </r>
       <r>   -32.9728     0.0000    76.0000 </r>
       <r>   -32.7494     0.0000    76.0000 </r>
       <r>   -32.5259     0.0000    76.0000 </r>
       <r>   -32.3025     0.0000    76.0000 </r>
       <r>   -32.0791     0.0000    76.0000 </r>
       <r>   -31.8556     0.0000    76.0000 </r>
       <r>   -31.6322     0.0000    76.0000 </r>
       <r>   -31.4088     0.0000    76.0000 </r>
       <r>   -31.1853     0.0000    76.0000 </r>
       <r>   -30.9619     0.0000    76.0000 </r>
       <r>   -30.7385     0.1060    76.0237 </r>
       <r>   -30.5150    25.5505    81.7325 </r>
       <r>   -30.2916    90.9514   102.0539 </r>
       <r>   -30.0682    42.1932   111.4811 </r>
       <r>   -29.8447     2.3220   111.9999 </r>
       <r>   -29.6213     0.0002   112.0000 </r>
       <r>   -29.3979     0.0000   112.0000 </r>
       <r>   -29.1745     0.0000   112.0000 </r>
       <r>   -28.9510     0.0000   112.0000 </r>
       <r>   -28.7276     0.0000   112.0000 </r>
       <r>   -28.5042     0.0000   112.0000 </r>
       <r>   -28.2807     0.0000   112.0000 </r>
       <r>   -28.0573     0.0000   112.0000 </r>
       <r>   -27.8339     0.0000   112.0000 </r>
       <r>   -27.6104     0.0000   112.0000 </r>
       <r>   -27.3870     0.0000   112.0000 </r>
       <r>   -27.1636     0.0000   112.0000 </r>
       <r>   -26.9401     0.0000   112.0000 </r>
       <r>   -26.7167     0.0000   112.0000 </r>
       <r>   -26.4933     0.0000   112.0000 </r>
       <r>   -26.2698     0.0000   112.0000 </r>
       <r>   -26.0464     0.0000   112.0000 </r>
       <r>   -25.8230     0.0000   112.0000 </r>
       <r>   -25.5995     0.0035   112.0008 </r>
       <r>   -25.3761     6.9326   113.5497 </r>
       <r>   -25.1527    45.0098   123.6064 </r>
       <r>   -24.9293    74.2070   140.1865 </r>
       <r>   -24.7058    57.8311   153.1078 </r>
       <r>   -24.4824     3.9921   153.9998 </r>
       <r>   -24.2590     0.0008   154.0000 </r>
       <r>   -24.0355     0.0000   154.0000 </r>
       <r>   -23.8121     0.0005   154.0001 </r>
       <r>   -23.5887     2.2254   154.4973 </r>
       <r>   -23.3652    24.5290   159.9779 </r>
       <r>   -23.1418    60.2547   173.4407 </r>
       <r>   -22.9184    45.8509   183.6852 </r>
       <r>   -22.6949    26.6128   189.6314 </r>
       <r>   -22.4715     1.6498   190.0000 </r>
       <r>   -22.2481     0.0001   190.0000 </r>
       <r>   -22.0246     0.0000   190.0000 </r>
       <r>   -21.8012     0.0000   190.0000 </r>
       <r>   -21.5778     0.0000   190.0000 </r>
       <r>   -21.3543     0.0000   190.0000 </r>
       <r>   -21.1309     0.0000   190.0000 </r>
       <r>   -20.9075     0.0000   190.0000 </r>
       <r>   -20.6841     0.0000   190.0000 </r>
       <r>   -20.4606     0.0000   190.0000 </r>
       <r>   -20.2372     0.0000   190.0000 </r>
       <r>   -20.0138     0.0000   190.0000 </r>
       <r>   -19.7903     0.0000   190.0000 </r>
       <r>   -19.5669     0.0000   190.0000 </r>
       <r>   -19.3435     0.0000   190.0000 </r>
       <r>   -19.1200     0.0000   190.0000 </r>
       <r>   -18.8966     0.1120   190.0250 </r>
       <r>   -18.6732    12.2894   192.7709 </r>
       <r>   -18.4497    29.5491   199.3730 </r>
       <r>   -18.2263    68.6591   214.7136 </r>
       <r>   -18.0029    56.5540   227.3496 </r>
       <r>   -17.7794    18.1217   231.3985 </r>
       <r>   -17.5560     2.6909   231.9998 </r>
       <r>   -17.3326     0.0010   232.0000 </r>
       <r>   -17.1092     0.0000   232.0000 </r>
       <r>   -16.8857     0.0000   232.0000 </r>
       <r>   -16.6623     0.0000   232.0000 </r>
       <r>   -16.4389     0.0000   232.0000 </r>
       <r>   -16.2154     0.0000   232.0000 </r>
       <r>   -15.9920     0.0000   232.0000 </r>
       <r>   -15.7686     0.0000   232.0000 </r>
       <r>   -15.5451     0.0000   232.0000 </r>
       <r>   -15.3217     0.0000   232.0000 </r>
       <r>   -15.0983     0.0000   232.0000 </r>
       <r>   -14.8748     0.0000   232.0000 </r>
       <r>   -14.6514     0.0000   232.0000 </r>
       <r>   -14.4280     0.0000   232.0000 </r>
       <r>   -14.2045     0.0000   232.0000 </r>
       <r>   -13.9811     0.0000   232.0000 </r>
       <r>   -13.7577     0.0000   232.0000 </r>
       <r>   -13.5342     0.0000   232.0000 </r>
       <r>   -13.3108     0.0000   232.0000 </r>
       <r>   -13.0874     0.0000   232.0000 </r>
       <r>   -12.8640     0.0000   232.0000 </r>
       <r>   -12.6405     0.0000   232.0000 </r>
       <r>   -12.4171     0.0000   232.0000 </r>
       <r>   -12.1937     0.0000   232.0000 </r>
       <r>   -11.9702     0.0000   232.0000 </r>
       <r>   -11.7468     0.0000   232.0000 </r>
       <r>   -11.5234     0.0000   232.0000 </r>
       <r>   -11.2999     0.0000   232.0000 </r>
       <r>   -11.0765     0.0000   232.0000 </r>
       <r>   -10.8531     0.0000   232.0000 </r>
       <r>   -10.6296     0.0000   232.0000 </r>
       <r>   -10.4062     0.0000   232.0000 </r>
       <r>   -10.1828     0.0000   232.0000 </r>
       <r>    -9.9593     0.0000   232.0000 </r>
       <r>    -9.7359     0.0000   232.0000 </r>
       <r>    -9.5125     0.0000   232.0000 </r>
       <r>    -9.2890     0.0000   232.0000 </r>
       <r>    -9.0656     0.0000   232.0000 </r>
       <r>    -8.8422     0.0000   232.0000 </r>
       <r>    -8.6188     0.0000   232.0000 </r>
       <r>    -8.3953     0.0000   232.0000 </r>
       <r>    -8.1719     0.0000   232.0000 </r>
       <r>    -7.9485     0.0000   232.0000 </r>
       <r>    -7.7250     0.0000   232.0000 </r>
       <r>    -7.5016     0.0611   232.0136 </r>
       <r>    -7.2782     4.9725   233.1247 </r>
       <r>    -7.0547     6.8352   234.6519 </r>
       <r>    -6.8313     7.4733   236.3216 </r>
       <r>    -6.6079    11.4187   238.8729 </r>
       <r>    -6.3844     7.8621   240.6296 </r>
       <r>    -6.1610    18.4076   244.7424 </r>
       <r>    -5.9376    23.3464   249.9587 </r>
       <r>    -5.7141    23.2786   255.1599 </r>
       <r>    -5.4907     9.6989   257.3269 </r>
       <r>    -5.2673     3.0108   257.9997 </r>
       <r>    -5.0438     0.0016   258.0000 </r>
       <r>    -4.8204     0.0000   258.0000 </r>
       <r>    -4.5970     0.0000   258.0000 </r>
       <r>    -4.3736     0.0044   258.0010 </r>
       <r>    -4.1501     1.3833   258.3101 </r>
       <r>    -3.9267     6.2764   259.7124 </r>
       <r>    -3.7033     1.9412   260.1461 </r>
       <r>    -3.4798     7.8285   261.8953 </r>
       <r>    -3.2564     7.7117   263.6183 </r>
       <r>    -3.0330    12.4884   266.4086 </r>
       <r>    -2.8095    20.1274   270.9057 </r>
       <r>    -2.5861    21.2071   275.6440 </r>
       <r>    -2.3627    23.1274   280.8114 </r>
       <r>    -2.1392    20.9035   285.4819 </r>
       <r>    -1.9158    15.3585   288.9135 </r>
       <r>    -1.6924    15.2800   292.3275 </r>
       <r>    -1.4689    10.7319   294.7254 </r>
       <r>    -1.2455     4.5075   295.7325 </r>
       <r>    -1.0221     1.1863   295.9976 </r>
       <r>    -0.7987     0.0108   296.0000 </r>
       <r>    -0.5752     0.0000   296.0000 </r>
       <r>    -0.3518     0.0000   296.0000 </r>
       <r>    -0.1284     0.0000   296.0000 </r>
       <r>     0.0951     0.0000   296.0000 </r>
       <r>     0.3185     0.0000   296.0000 </r>
       <r>     0.5419     0.0001   296.0000 </r>
       <r>     0.7654     0.1140   296.0255 </r>
       <r>     0.9888     0.8433   296.2139 </r>
       <r>     1.2122     3.7436   297.0503 </r>
       <r>     1.4357     9.8600   299.2533 </r>
       <r>     1.6591    10.3644   301.5691 </r>
       <r>     1.8825    16.6721   305.2941 </r>
       <r>     2.1060    18.4722   309.4214 </r>
       <r>     2.3294    27.9714   315.6711 </r>
       <r>     2.5528    29.5276   322.2685 </r>
       <r>     2.7763    25.8764   328.0501 </r>
       <r>     2.9997    33.8834   335.6207 </r>
       <r>     3.2231    38.0068   344.1126 </r>
       <r>     3.4465    41.3888   353.3602 </r>
       <r>     3.6700    48.6253   364.2246 </r>
       <r>     3.8934    56.9750   376.9546 </r>
       <r>     4.1168    60.1532   390.3948 </r>
       <r>     4.3403    59.6222   403.7163 </r>
       <r>     4.5637    59.3307   416.9726 </r>
       <r>     4.7871    53.8343   429.0009 </r>
       <r>     5.0106    51.4354   440.4932 </r>
       <r>     5.2340    46.4289   450.8668 </r>
       <r>     5.4574    39.1550   459.6153 </r>
       <r>     5.6809    32.7859   466.9407 </r>
       <r>     5.9043    29.2514   473.4764 </r>
       <r>     6.1277    24.6084   478.9747 </r>
       <r>     6.3512    18.6665   483.1454 </r>
       <r>     6.5746    15.2803   486.5595 </r>
       <r>     6.7980     7.1836   488.1645 </r>
       <r>     7.0215    12.6211   490.9845 </r>
       <r>     7.2449    16.4060   494.6501 </r>
       <r>     7.4683    16.3405   498.3011 </r>
       <r>     7.6917    22.9801   503.4356 </r>
       <r>     7.9152    22.6006   508.4853 </r>
       <r>     8.1386    20.3527   513.0327 </r>
       <r>     8.3620    26.5173   518.9575 </r>
       <r>     8.5855    28.9750   525.4314 </r>
       <r>     8.8089    24.8452   530.9826 </r>
       <r>     9.0323    26.1879   536.8338 </r>
       <r>     9.2558    34.3118   544.5002 </r>
       <r>     9.4792    42.1350   553.9145 </r>
       <r>     9.7026    45.7747   564.1420 </r>
       <r>     9.9261    49.8850   575.2878 </r>
       <r>    10.1495    51.2876   586.7471 </r>
       <r>    10.3729    53.1297   598.6180 </r>
       <r>    10.5964    51.2652   610.0722 </r>
       <r>    10.8198    52.3057   621.7590 </r>
       <r>    11.0432    50.4871   633.0394 </r>
       <r>    11.2667    50.2450   644.2657 </r>
       <r>    11.4901    52.8693   656.0783 </r>
       <r>    11.7135    43.3910   665.7733 </r>
       <r>    11.9369    23.5862   671.0432 </r>
       <r>    12.1604     4.2484   671.9924 </r>
       <r>    12.3838     0.0340   672.0000 </r>
       <r>    12.6072     0.0000   672.0000 </r>
       <r>    12.8307     0.0000   672.0000 </r>
       <r>    13.0541     0.0000   672.0000 </r>
       <r>    13.2775     0.0000   672.0000 </r>
       <r>    13.5010     0.0000   672.0000 </r>
       <r>    13.7244     0.0000   672.0000 </r>
       <r>    13.9478     0.0000   672.0000 </r>
       <r>    14.1713     0.0000   672.0000 </r>
       <r>    14.3947     0.0000   672.0000 </r>
       <r>    14.6181     0.0000   672.0000 </r>
       <r>    14.8416     0.0000   672.0000 </r>
       <r>    15.0650     0.0000   672.0000 </r>
      </set>
     </set>
    </array>
   </total>
  </dos>
 </calculation>
 <structure name="finalpos" >
  <crystal>
   <varray name="basis" >
    <v>       8.81673345       0.02046229      -0.00882053 </v>
    <v>       0.02687773       8.81628740       0.00507950 </v>
    <v>       0.02281844      -0.01017914       8.79988144 </v>
   </varray>
   <i name="volume">    684.01971320 </i>
   <varray name="rec_basis" >
    <v>       0.11342120      -0.00034561      -0.00029451 </v>
    <v>      -0.00026312       0.11342716       0.00013189 </v>
    <v>       0.00011384      -0.00006582       0.11363752 </v>
   </varray>
  </crystal>
  <varray name="positions" >
   <v>      -0.00128719       0.99806421       0.99622634 </v>
   <v>       0.26837489       0.00260827       0.24319544 </v>
   <v>       0.24517865       0.49435711       0.24629166 </v>
   <v>       0.50098843       0.49976288       0.00264730 </v>
   <v>       0.50787909       0.24718674       0.74101000 </v>
   <v>      -0.00168527       0.50183768       0.50223032 </v>
   <v>       0.49566378       0.75913146       0.75014717 </v>
   <v>       0.98821873       0.23976771       0.25183510 </v>
   <v>       0.75632419       0.74566932       0.01267138 </v>
   <v>       0.00148854       0.25055574       0.75015886 </v>
   <v>       0.75428118       0.24608308       0.49316823 </v>
   <v>       0.00020615       0.74975285       0.75134716 </v>
   <v>       0.24918737       0.49361516       0.75058354 </v>
   <v>       0.25748998       0.24244897       0.98938785 </v>
   <v>       0.50998914       0.25393310       0.25298361 </v>
   <v>       0.73291729       0.99480486       0.26195002 </v>
   <v>       0.74337553       0.24317548       0.00053883 </v>
   <v>       0.24704535       0.74775145       0.99620263 </v>
   <v>       0.25084096       0.24587911       0.50613998 </v>
   <v>       0.25061921       0.75139062       0.50331181 </v>
   <v>       0.25083190       0.24783075       0.24800286 </v>
   <v>       0.25913481       0.00193067       0.98996016 </v>
   <v>       0.00136904       0.25541849       0.00059248 </v>
   <v>       0.74298968       0.23878268       0.24265210 </v>
   <v>       0.74049677       0.00032236       0.00223989 </v>
   <v>       0.51048682      -0.00059526       0.27700887 </v>
   <v>       0.99094962       0.50324865       0.24254397 </v>
   <v>       0.49671571       0.76522296       0.00919362 </v>
   <v>       0.98678884       0.00391460       0.73959868 </v>
   <v>       0.75676138       0.25392417       0.75211546 </v>
   <v>       0.76286732       0.00165784       0.49606236 </v>
   <v>       0.49835008       0.24650212       0.48915753 </v>
   <v>       0.52819234       0.00202859       0.74132552 </v>
   <v>       0.99728603      -0.00053194       0.25327188 </v>
   <v>       0.50131183       0.23766407       0.00256188 </v>
   <v>       0.25340881       0.74960607       0.24977381 </v>
   <v>       0.24054455       0.50066238       0.99402736 </v>
   <v>       0.00425537       0.74042140       0.00545227 </v>
   <v>       0.74793778       0.74539098       0.25448040 </v>
   <v>       0.76358428       0.49347657       0.00535811 </v>
   <v>       0.50160827       0.50249221       0.25278303 </v>
   <v>       0.24982779       0.24573858       0.74884702 </v>
   <v>       0.25401961       0.99981062       0.51289728 </v>
   <v>       0.00511606       0.24701926       0.50033937 </v>
   <v>       0.24259536       0.75774511       0.75143176 </v>
   <v>       0.25652813       0.50211841       0.50178506 </v>
   <v>      -0.00141821       0.75894133       0.49904430 </v>
   <v>       0.99935747       0.50121607       0.75583643 </v>
   <v>       0.75105134       0.75283658       0.75088094 </v>
   <v>       0.74408936       0.49721359       0.50641286 </v>
   <v>       0.49779367       0.76542335       0.48812896 </v>
   <v>       0.50511035       0.50302416       0.74212402 </v>
   <v>       0.51743254       0.01138402       0.96324870 </v>
   <v>      -0.00271788       0.51359837       0.97951955 </v>
   <v>       0.47600599       0.73747316       0.25647993 </v>
   <v>       0.22318802       0.01596214       0.74939991 </v>
   <v>       0.46746386       0.99463813       0.51928620 </v>
   <v>       0.74201220       0.96622445       0.77839584 </v>
   <v>       0.01700224       0.76668025       0.25412396 </v>
   <v>       0.74214561       0.48811876       0.25429964 </v>
   <v>       0.01959603       0.00466358       0.49704579 </v>
   <v>       0.50267284       0.51857650       0.48925194 </v>
   <v>       0.75439501       0.51630037       0.76248653 </v>
   <v>       0.74376578       0.73814679       0.48854467 </v>
  </varray>
 </structure>
</modeling>
