HECN                                    
           1
     8.932500    0.000000    0.000000
     0.005753    9.055598    0.000000
     0.032102   -0.015743    8.937128
   Zr   Nb   Ti   N    C    Cr   W 
   7   6   7  13  19   6   6
Direct configuration=     1
   0.99688001  0.99204997  0.99924002
   0.25398003  0.99714995  0.24912000
   0.24803003  0.50165000  0.24955001
   0.50501006  0.49745998  0.99834003
   0.50479003  0.24631001  0.74710002
   0.99427992  0.50449999  0.49779000
   0.49950005  0.75481999  0.74817004
   0.99437004  0.23617001  0.26379999
   0.75718000  0.74102998  0.01100000
   0.00201000  0.25541000  0.73894001
   0.75307001  0.26163001  0.50533002
   0.99514004  0.74492004  0.74511997
   0.25679999  0.49462002  0.74545002
   0.24788999  0.24839000  0.99657997
   0.50833000  0.25676999  0.25376001
   0.74879004  0.98787999  0.26967001
   0.75719000  0.25603001  0.99591997
   0.24762001  0.74973999  0.99974006
   0.25272001  0.24823001  0.50015003
   0.24457999  0.75048999  0.49983999
   0.24982001  0.24942998  0.24825000
   0.26146999  0.99984002  0.99295996
   0.00281000  0.25024000  0.00130000
   0.75313998  0.24617000  0.25492002
   0.74767001  0.99748000  0.01202000
   0.50714994  0.99977000  0.24673000
   0.99051999  0.48088002  0.24100998
   0.50519005  0.76130999  0.00855000
   0.98896989  0.00202000  0.73708999
   0.75744996  0.24437997  0.74896999
   0.73632001  0.00417000  0.51063000
   0.50563996  0.23264999  0.49544997
   0.50008998  0.00061000  0.73471998
   0.99720000  0.99771992  0.25899999
   0.50427997  0.24673000  0.00262000
   0.25133999  0.74958002  0.24910999
   0.24328000  0.50072997  0.99510994
   0.99837005  0.74313996  0.00460000
   0.75633000  0.73891003  0.25767000
   0.75839004  0.50315998  0.00288000
   0.50700002  0.50333002  0.25878999
   0.24900999  0.25315000  0.74854000
   0.24446000  0.99823996  0.50287998
   0.99804009  0.24229999  0.50128003
   0.24177002  0.75340997  0.75018002
   0.25841001  0.50062002  0.50129001
   0.99000004  0.76215003  0.49746000
   0.99203996  0.50055999  0.75138002
   0.75036005  0.74888000  0.74756004
   0.74036002  0.50197000  0.50067003
   0.50575006  0.74958002  0.49720000
   0.50501003  0.50217998  0.73912003
   0.51588997  0.01358000  0.98075008
   0.99841994  0.50976998  0.98613004
   0.50379003  0.73926997  0.25905001
   0.23780002  0.01082000  0.74607998
   0.47957999  0.98308000  0.49717999
   0.74279003  0.97869994  0.76450995
   0.99864998  0.77573999  0.26102000
   0.73551001  0.51468004  0.26666001
   0.02362000  0.99783001  0.49557002
   0.50539000  0.52833005  0.49917999
   0.73876003  0.52828003  0.73814999
   0.75400003  0.72937999  0.49116997
HECN                                    
           1
     8.552309    0.024045   -0.009996
     0.029885    8.673862    0.000973
     0.020691   -0.014026    8.566546
   Zr   Nb   Ti   N    C    Cr   W 
   7   6   7  13  19   6   6
Direct configuration=     2
   0.99669281  0.99694316  0.99446121
   0.26453252  0.99942124  0.24428280
   0.24801814  0.49975615  0.24610152
   0.50122283  0.49797169  0.00108469
   0.50414026  0.23827490  0.74665538
   0.99880586  0.50159463  0.49909058
   0.49405472  0.76632621  0.75360200
   0.99381976  0.23388225  0.25992193
   0.75469155  0.74465657  0.01117111
   0.00387439  0.25351069  0.74343358
   0.74933173  0.25597553  0.50352454
   0.00003303  0.74653463  0.74937165
   0.25258424  0.49560443  0.74913859
   0.24870171  0.24859263  0.99431110
   0.50972757  0.25224977  0.25259688
   0.74192646  0.99050667  0.26944475
   0.75520375  0.25528046  0.99535838
   0.24657304  0.74869260  0.99884315
   0.25367803  0.24697021  0.50219894
   0.24627976  0.75158075  0.50093998
   0.25160768  0.24951069  0.24881704
   0.26008209  0.00039283  0.99159996
   0.00234219  0.25009885  0.00049890
   0.74980372  0.24602336  0.25301565
   0.74411128  0.99910213  0.00811798
   0.51029978  0.99954980  0.24949337
   0.98983535  0.48372001  0.24184964
   0.50334732  0.76084217  0.00733645
   0.98938032  0.00223709  0.73896148
   0.75633348  0.24481060  0.75221944
   0.73828670  0.00240587  0.50605338
   0.50257159  0.23371636  0.49229491
   0.50246952  0.00026914  0.73812906
   0.99368213  0.00090320  0.25580556
   0.50538338  0.24309693  0.00482345
   0.25097577  0.74887094  0.24909542
   0.24205301  0.50146723  0.99494996
   0.00290457  0.73989659  0.00479464
   0.75294366  0.74564517  0.25325499
   0.76156662  0.49911444  0.00226536
   0.50282975  0.50184947  0.25623168
   0.24828813  0.24952388  0.74842626
   0.25357224  0.99734202  0.50764004
   0.00221059  0.24382601  0.50180111
   0.24206068  0.75402527  0.75018907
   0.25768240  0.50148542  0.50067776
   0.99626752  0.76065829  0.50025051
   0.99266840  0.50062372  0.75486548
   0.74983961  0.75732420  0.74889595
   0.74459050  0.49663053  0.50287819
   0.50088767  0.75715637  0.49226817
   0.50169898  0.50116013  0.74263971
   0.51895488  0.01578850  0.98091013
   0.99986496  0.51135898  0.98289896
   0.50373985  0.73921853  0.25800141
   0.23777005  0.01340108  0.74727694
   0.47628535  0.98359267  0.49748320
   0.73971359  0.97443295  0.76758296
   0.00269563  0.77260928  0.25669107
   0.73727857  0.50861565  0.25884891
   0.01986187  0.00106309  0.50124760
   0.50058205  0.52316460  0.49650313
   0.74434245  0.51870403  0.74355291
   0.75244234  0.74044651  0.49332960
HECN                                    
           1
     8.732986    0.012618   -0.005246
     0.018417    8.855274    0.000511
     0.026114   -0.014842    8.742657
   Zr   Nb   Ti   N    C    Cr   W 
   7   6   7  13  19   6   6
Direct configuration=     3
   0.99679544  0.99451487  0.99683087
   0.25930076  0.99830856  0.24667503
   0.24802338  0.50069555  0.24781113
   0.50310177  0.49771277 -0.00027385
   0.50445168  0.24226057  0.74687573
   0.99655451  0.50304242  0.49844298
   0.49677064  0.76061030  0.75091273
   0.99409193  0.23501632  0.26184480
   0.75593174  0.74285384  0.01108793
   0.00294367  0.25445587  0.74120454
   0.75118031  0.25877572  0.50442151
  -0.00239584  0.74574055  0.74726099
   0.25467599  0.49511045  0.74731235
   0.24830042  0.24849307  0.99543552
   0.50902817  0.25449431  0.25317247
   0.74533709  0.98919400  0.26956056
   0.75618891  0.25564958  0.99563792
   0.24709175  0.74921077  0.99928837
   0.25319953  0.24759670  0.50118249
   0.24543697  0.75104198  0.50039370
   0.25072014  0.24947314  0.24853487
   0.26077256  0.00011656  0.99227507
   0.00257466  0.25016819  0.00089634
   0.75146060  0.24609141  0.25396173
   0.74588226  0.99829218  0.01005470
   0.50873441  0.99966355  0.24812149
   0.99017870  0.48231008  0.24143391
   0.50426202  0.76107167  0.00793915
   0.98917581  0.00213006  0.73803340
   0.75688636  0.24459562  0.75060908
   0.73731070  0.00328356  0.50832116
   0.50409795  0.23318287  0.49386099
   0.50128594  0.00044174  0.73643749
   0.99543462 -0.00068121  0.25739154
   0.50482927  0.24490112  0.00373016
   0.25115556  0.74922224  0.24910281
   0.24266318  0.50109974  0.99503003
   0.00064913  0.74151203  0.00469532
   0.75463660  0.74229862  0.25544624
   0.75998454  0.50112594  0.00256802
   0.50489909  0.50257815  0.25750239
   0.24864137  0.25132197  0.74848286
   0.24904527  0.99780035  0.50527473
   0.00014238  0.24307465  0.50154044
   0.24191727  0.75372039  0.75018445
   0.25804513  0.50105501  0.50098178
   0.99315287  0.76140720  0.49886329
   0.99235452  0.50059319  0.75313707
   0.75010909  0.75313401  0.74823441
   0.74248183  0.49928564  0.50178065
   0.50331474  0.75339040  0.49471656
   0.50333895  0.50166180  0.74089656
   0.51743662  0.01469699  0.98082913
   0.99915185  0.51057239  0.98450014
   0.50376530  0.73924391  0.25852132
   0.23778787  0.01212052  0.74668367
   0.47792122  0.98333380  0.49733481
   0.74123277  0.97654596  0.76606094
   0.00068565  0.77416786  0.25883477
   0.73639672  0.51162642  0.26272017
   0.02172850 -0.00054580  0.49843510
   0.50296277  0.52572064  0.49783277
   0.74155488  0.52346314  0.74087043
   0.75322990  0.73495389  0.49226043
HECN                                    
           1
     8.775389    0.033202   -0.008376
     0.039382    8.850944   -0.002094
     0.023104   -0.017341    8.788316
   Zr   Nb   Ti   N    C    Cr   W 
   7   6   7  13  19   6   6
Direct configuration=     4
   0.99725696  0.99874417  0.99223160
   0.26751486  0.00058269  0.24256483
   0.24710738  0.49816460  0.24526657
   0.49983600  0.49811769  0.00175313
   0.50360982  0.23650523  0.74703835
   0.00132146  0.50040356  0.49965158
   0.49220709  0.76748343  0.75532729
   0.99408614  0.23424567  0.25663453
   0.75337007  0.74681784  0.00983247
   0.00406002  0.25190152  0.74711236
   0.74843993  0.25189543  0.50273854
   0.00119545  0.74782193  0.75231063
   0.25005729  0.49606084  0.75092323
   0.24971061  0.24800756  0.99362457
   0.50969088  0.25015317  0.25136927
   0.73859378  0.99242713  0.26796371
   0.75354041  0.25415717  0.99564212
   0.24634333  0.74859843  0.99869367
   0.25448132  0.24597625  0.50262062
   0.24754947  0.75237627  0.50123091
   0.25293381  0.24916961  0.24885382
   0.26041127  0.00081244  0.99000746
   0.00234197  0.25139970  0.00038157
   0.74723270  0.24565421  0.25066283
   0.74177669  0.00075182  0.00573814
   0.51282141  0.99942812  0.25023995
   0.98937426  0.48687098  0.24080922
   0.50135153  0.76167435  0.00774133
   0.98927625  0.00249403  0.74026836
   0.75577068  0.24547559  0.75444845
   0.74047074  0.00066179  0.50463243
   0.50001740  0.23500087  0.49054575
   0.50369133  0.00088885  0.74035575
   0.99295501  0.00085808  0.25426089
   0.50531225  0.24120894  0.00622173
   0.25200259  0.74879204  0.24887318
   0.24073573  0.50162600  0.99476284
   0.00532366  0.73860922  0.00519562
   0.75010550  0.74896938  0.25185508
   0.76303928  0.49648654  0.00216898
   0.49994562  0.50052062  0.25448290
   0.24874156  0.24721652  0.74852362
   0.25776532  0.99729717  0.50989086
   0.00465573  0.24516869  0.50196679
   0.24261086  0.75512925  0.75052226
   0.25706434  0.50164311  0.50024096
   0.99990047  0.75921176  0.50152062
   0.99410071  0.50031201  0.75674419
   0.74946778  0.75940622  0.74928071
   0.74575361  0.49647409  0.50273863
   0.49764053  0.76084046  0.49064685
   0.50043988  0.50103008  0.74417498
   0.52019884  0.01556884  0.98117069
   0.00105342  0.51130772  0.98217307
   0.50276312  0.73925415  0.25648373
   0.23693618  0.01425886  0.74858710
   0.47546071  0.98455174  0.49679719
   0.73777343  0.97435581  0.77005058
   0.00529713  0.77014178  0.25327204
   0.73992673  0.50569927  0.25479224
   0.01883144  0.00327141  0.50338764
   0.49939091  0.52051681  0.49569331
   0.74695284  0.51555265  0.74885843
   0.75041291  0.74399759  0.49544742
HECN                                    
           1
     8.771333    0.031233   -0.008076
     0.037377    8.851359   -0.001844
     0.023392   -0.017102    8.783948
   Zr   Nb   Ti   N    C    Cr   W 
   7   6   7  13  19   6   6
Direct configuration=     5
   0.99721414  0.99833958  0.99266918
   0.26673348  0.00036694  0.24295566
   0.24719410  0.49840671  0.24550884
   0.50014694  0.49807816  0.00156032
   0.50368865  0.23705591  0.74702307
   0.00086697  0.50065716  0.49953648
   0.49264299  0.76682445  0.75490711
   0.99408669  0.23431956  0.25713041
   0.75361491  0.74643789  0.00995193
   0.00395295  0.25214610  0.74655014
   0.74869931  0.25255342  0.50289899
   0.00085384  0.74762337  0.75182987
   0.25049711  0.49596876  0.75057971
   0.24957630  0.24805439  0.99379688
   0.50962686  0.25056888  0.25154098
   0.73923658  0.99211623  0.26811582
   0.75379222  0.25429943  0.99564185
   0.24641447  0.74865689  0.99875031
   0.25435886  0.24613160  0.50248376
   0.24734863  0.75224900  0.50115112
   0.25272298  0.24919915  0.24882340
   0.26044590  0.00074581  0.99022326
   0.00236442  0.25128179  0.00043053
   0.74763523  0.24569521  0.25097695
   0.74216828  0.00051560  0.00614902
   0.51243217  0.99945150  0.25003820
   0.98945191  0.48643427  0.24086857
   0.50162877  0.76161603  0.00776023
   0.98926669  0.00245916  0.74005565
   0.75587697  0.24539102  0.75408306
   0.74016941  0.00091352  0.50498345
   0.50040643  0.23482604  0.49086135
   0.50346229  0.00084648  0.73998275
   0.99319155  0.00071028  0.25455887
   0.50526533  0.24156238  0.00598469
   0.25192185  0.74883341  0.24889501
   0.24091937  0.50157521  0.99478831
   0.00487794  0.73888809  0.00514793
   0.75053854  0.74832998  0.25219682
   0.76274741  0.49693128  0.00220699
   0.50041686  0.50071654  0.25477049
   0.24873108  0.24760950  0.74851985
   0.25693485  0.99734714  0.50945126
   0.00422649  0.24496925  0.50192601
   0.24254514  0.75499455  0.75049005
   0.25715788  0.50158662  0.50031148
   0.99925746  0.75942332  0.50126755
   0.99393428  0.50033922  0.75640084
   0.74953024  0.75880571  0.74918098
   0.74544144  0.49674389  0.50264743
   0.49818259  0.76012623  0.49103415
   0.50071563  0.50108982  0.74386309
   0.51993605  0.01548599  0.98113807
   0.00087263  0.51123782  0.98239446
   0.50285861  0.73925301  0.25667768
   0.23701769  0.01405395  0.74840592
   0.47569526  0.98443463  0.49684840
   0.73810214  0.97456457  0.76967106
   0.00485735  0.77052830  0.25380141
   0.73958957  0.50626757  0.25554679
   0.01910796  0.00290528  0.50291629
   0.49972986  0.52101417  0.49589719
   0.74643684  0.51631079  0.74809825
   0.75068306  0.74313126  0.49514395
HECN                                    
           1
     8.790399    0.031796   -0.003521
     0.038060    8.841075   -0.004735
     0.028024   -0.019966    8.795387
   Zr   Nb   Ti   N    C    Cr   W 
   7   6   7  13  19   6   6
Direct configuration=     6
   0.99733656  0.99798870  0.99254651
   0.26671471  0.00015052  0.24239347
   0.24626348  0.49713879  0.24602891
   0.50039697  0.49765381  0.00146014
   0.50366878  0.23874264  0.74723284
   0.00087144  0.50013618  0.50107284
   0.49260030  0.76328211  0.75450825
   0.99294205  0.23480443  0.25587812
   0.75404403  0.74665959  0.00839473
   0.00346101  0.25116401  0.74780191
   0.75000515  0.24949064  0.50212513
   0.00017717  0.74775394  0.75369551
   0.24941721  0.49524974  0.75101213
   0.25081227  0.24687930  0.99297535
   0.51004236  0.25009324  0.25043856
   0.73771885  0.99338075  0.26644470
   0.75169849  0.25261566  0.99634018
   0.24594916  0.74874584  0.99914776
   0.25465742  0.24495592  0.50321513
   0.24814183  0.75310186  0.50106718
   0.25321260  0.24810680  0.24866643
   0.26002645  0.00144901  0.98941407
   0.00265721  0.25276082  0.00080136
   0.74631319  0.24535258  0.24910774
   0.74166860  0.00192396  0.00314128
   0.51366140  0.99976658  0.25068013
   0.98927473  0.49006964  0.24081817
   0.50017880  0.76222237  0.00818443
   0.98939459  0.00282065  0.74047930
   0.75554222  0.24688028  0.75499594
   0.74406669 -0.00019094  0.50331888
   0.49866495  0.23753950  0.49034904
   0.50539010  0.00168872  0.74283106
   0.99442409 -0.00254409  0.25443440
   0.50440655  0.24052530  0.00595251
   0.25253629  0.74947663  0.24866132
   0.24003203  0.50128496  0.99460838
   0.00481900  0.73924105  0.00608218
   0.74869087  0.74909753  0.25357112
   0.76290100  0.49623912  0.00237842
   0.50103321  0.49983694  0.25509625
   0.24914510  0.24649262  0.74857366
   0.25640857  0.99823776  0.51083994
   0.00541738  0.24578190  0.50174021
   0.24248719  0.75593100  0.75100708
   0.25738131  0.50161748  0.50050747
   0.00055485  0.75848288  0.50072209
   0.99573086  0.50019247  0.75682915
   0.74932922  0.75713885  0.74896300
   0.74516200  0.49848117  0.50231900
   0.49695910  0.75997322  0.49045698
   0.50131378  0.50164113  0.74353074
   0.52176863  0.01444253  0.98073189
   0.00141391  0.51175950  0.98124182
   0.50117637  0.73714785  0.25595212
   0.23430333  0.01430428  0.74934064
   0.47572328  0.98520500  0.49626884
   0.73527773  0.97540684  0.77331146
   0.00625450  0.77228717  0.25185293
   0.73844148  0.50660977  0.25382734
   0.02197516  0.00380017  0.50272015
   0.50125779  0.52186992  0.49416970
   0.74765232  0.51704293  0.75267425
   0.74905269  0.74261825  0.49506793
HECN                                    
           1
     8.799500    0.032065   -0.001346
     0.038386    8.836167   -0.006115
     0.030235   -0.021334    8.800846
   Zr   Nb   Ti   N    C    Cr   W 
   7   6   7  13  19   6   6
Direct configuration=     7
   0.99739491  0.99782100  0.99248795
   0.26670592  0.00004701  0.24212545
   0.24582018  0.49653299  0.24627685
   0.50051609  0.49745100  0.00141227
   0.50365920  0.23954870  0.74733310
   0.00087321  0.49988747  0.50180512
   0.49258021  0.76158929  0.75431757
   0.99239718  0.23503596  0.25528152
   0.75424878  0.74676528  0.00765237
   0.00322643  0.25069491  0.74839858
   0.75062740  0.24802689  0.50175544
  -0.00014559  0.74781664  0.75458503
   0.24890280  0.49490624  0.75121841
   0.25140119  0.24631761  0.99258324
   0.51024055  0.24986576  0.24991287
   0.73699637  0.99398481  0.26564868
   0.75070119  0.25181122  0.99667333
   0.24572745  0.74878842  0.99933735
   0.25479947  0.24439421  0.50356351
   0.24851959  0.75350937  0.50102710
   0.25344587  0.24758477  0.24859132
   0.25982684  0.00178493  0.98902855
   0.00279651  0.25346764  0.00097829
   0.74568402  0.24518860  0.24821698
   0.74143132  0.00259651  0.00170788
   0.51424668  0.99991721  0.25098587
   0.98919022  0.49180684  0.24079476
   0.49948808  0.76251223  0.00838710
   0.98945538  0.00299345  0.74068128
   0.75538251  0.24759209  0.75543141
   0.74592332 -0.00071909  0.50252426
   0.49783555  0.23883612  0.49010568
   0.50630752  0.00209158  0.74418847
   0.99501128 -0.00409929  0.25437425
   0.50399759  0.24002974  0.00593722
   0.25282896  0.74978396  0.24854988
   0.23960947  0.50114626  0.99452278
   0.00479068  0.73940987  0.00652759
   0.74781051  0.74946458  0.25422681
   0.76297414  0.49590838  0.00245999
   0.50132671  0.49941664  0.25525124
   0.24934233  0.24595890  0.74859903
   0.25615754  0.99866359  0.51150217
   0.00598457  0.24617018  0.50165147
   0.24245942  0.75637859  0.75125370
   0.25748767  0.50163225  0.50060085
   0.00117294  0.75803336  0.50046160
   0.99658643  0.50012236  0.75703285
   0.74923360  0.75634229  0.74885888
   0.74502892  0.49931131  0.50216278
   0.49637654  0.75990005  0.49018212
   0.50159872  0.50190451  0.74337225
   0.52264158  0.01394379  0.98053765
   0.00167198  0.51200860  0.98069232
   0.50037544  0.73614180  0.25560633
   0.23301030  0.01442413  0.74978693
   0.47573673  0.98557304  0.49599268
   0.73393159  0.97580997  0.77504762
   0.00692035  0.77312733  0.25092404
   0.73789509  0.50677306  0.25300804
   0.02334075  0.00422769  0.50262608
   0.50198590  0.52227855  0.49334598
   0.74823005  0.51739347  0.75485539
   0.74827623  0.74237313  0.49503202
HECN                                    
           1
     8.786781    0.028363   -0.000810
     0.034653    8.825246   -0.002679
     0.030720   -0.017919    8.773492
   Zr   Nb   Ti   N    C    Cr   W 
   7   6   7  13  19   6   6
Direct configuration=     8
   0.99768899  0.99830442  0.99329687
   0.26698337  0.00059918  0.24223601
   0.24564044  0.49546207  0.24699722
   0.49999164  0.49751340  0.00227887
   0.50452059  0.24196596  0.74620464
  -0.00071254  0.50026319  0.50242279
   0.49338729  0.76065146  0.75325812
   0.99116012  0.23423035  0.25480281
   0.75469500  0.74715253  0.00737897
   0.00272678  0.24968409  0.74848003
   0.75206174  0.24647025  0.50055081
  -0.00058663  0.74832080  0.75485940
   0.24906507  0.49406596  0.75065545
   0.25245344  0.24467481  0.99209089
   0.51022463  0.25008124  0.24965599
   0.73748646  0.99432255  0.26445397
   0.74877024  0.24974142  0.99769668
   0.24545713  0.74884798  0.99940266
   0.25512379  0.24424793  0.50393436
   0.24905518  0.75362000  0.50099859
   0.25331227  0.24696455  0.24826293
   0.25894337  0.00216854  0.98895932
   0.00307955  0.25486805  0.00152533
   0.74532738  0.24487297  0.24692971
   0.74296393  0.00312231  0.00020834
   0.51336550  0.00044694  0.25144446
   0.98920572  0.49468627  0.24148120
   0.49870553  0.76268543  0.00879424
   0.98989111  0.00295917  0.73988196
   0.75531838  0.24876956  0.75527534
   0.74988495 -0.00018061  0.50065182
   0.49744626  0.24177032  0.49017290
   0.50875194  0.00094659  0.74692156
   0.99628182 -0.00143794  0.25447410
   0.50287817  0.23943196  0.00511561
   0.25303754  0.74932695  0.24845770
   0.23951270  0.50058174  0.99490187
   0.00399034  0.74009205  0.00715285
   0.74702387  0.74948101  0.25417182
   0.76278498  0.49613467  0.00302486
   0.50066245  0.49820424  0.25478534
   0.24927850  0.24565579  0.74891762
   0.25725110  0.99912608  0.51181904
   0.00632942  0.24597908  0.50136641
   0.24184073  0.75696640  0.75175801
   0.25800130  0.50176609  0.50121782
   0.00070355  0.75846081  0.49926658
   0.99754865  0.50010930  0.75667225
   0.74895925  0.75612909  0.74889161
   0.74507845  0.49915541  0.50291927
   0.49628594  0.76003946  0.48982990
   0.50290567  0.50229283  0.74232261
   0.52337087  0.01298132  0.97915336
   0.00139244  0.51294357  0.97997241
   0.49795915  0.73409286  0.25527803
   0.22928752  0.01448500  0.75083640
   0.47576159  0.98644191  0.49663907
   0.73068275  0.97496636  0.77811587
   0.00803045  0.76959832  0.25097559
   0.73768354  0.50782475  0.25244565
   0.02348938  0.00404206  0.50248759
   0.50297589  0.52168573  0.49184413
   0.75003885  0.51734244  0.75859002
   0.74758486  0.74180074  0.49443248
HECN                                    
           1
     8.784998    0.027844   -0.000735
     0.034129    8.823715   -0.002198
     0.030788   -0.017440    8.769658
   Zr   Nb   Ti   N    C    Cr   W 
   7   6   7  13  19   6   6
Direct configuration=     9
   0.99773030  0.99837224  0.99341059
   0.26702235  0.00067669  0.24225152
   0.24561514  0.49531171  0.24709857
   0.49991801  0.49752209  0.00240072
   0.50464167  0.24230533  0.74604582
  -0.00093513  0.50031580  0.50250964
   0.49350054  0.76051994  0.75310920
   0.99098642  0.23411724  0.25473555
   0.75475767  0.74720692  0.00734050
   0.00265658  0.24954219  0.74849155
   0.75226300  0.24625192  0.50038150
  -0.00064851  0.74839152  0.75489795
   0.24908780  0.49394807  0.75057634
   0.25260106  0.24444433  0.99202174
   0.51022241  0.25011150  0.24961986
   0.73755529  0.99437005  0.26428596
   0.74849904  0.24945076  0.99784071
   0.24541919  0.74885632  0.99941185
   0.25516930  0.24422740  0.50398651
   0.24913037  0.75363556  0.50099456
   0.25329348  0.24687751  0.24821678
   0.25881937  0.00222233  0.98894958
   0.00311936  0.25506458  0.00160217
   0.74527731  0.24482872  0.24674872
   0.74317912  0.00319627 -0.00000256
   0.51324183  0.00052121  0.25150892
   0.98920806  0.49509035  0.24157757
   0.49859568  0.76270967  0.00885149
   0.98995228  0.00295443  0.73976957
   0.75530945  0.24893482  0.75525333
   0.75044112 -0.00010470  0.50038847
   0.49739179  0.24218211  0.49018220
   0.50909499  0.00078589  0.74730591
   0.99646033 -0.00106436  0.25448798
   0.50272101  0.23934804  0.00500012
   0.25306680  0.74926283  0.24844477
   0.23949907  0.50050249  0.99495521
   0.00387802  0.74018771  0.00724074
   0.74691344  0.74948327  0.25416410
   0.76275844  0.49616639  0.00310428
   0.50056914  0.49803406  0.25471990
   0.24926952  0.24561323  0.74896244
   0.25740464  0.99919103  0.51186356
   0.00637782  0.24595229  0.50132633
   0.24175392  0.75704884  0.75182890
   0.25807341  0.50178488  0.50130456
   0.00063769  0.75852083  0.49909853
   0.99768373  0.50010754  0.75662154
   0.74892072  0.75609916  0.74889623
   0.74508538  0.49913349  0.50302565
   0.49627324  0.76005904  0.48978037
   0.50308917  0.50234746  0.74217498
   0.52347321  0.01284636  0.97895876
   0.00135326  0.51307481  0.97987113
   0.49761984  0.73380518  0.25523200
   0.22876492  0.01449327  0.75098399
   0.47576513  0.98656382  0.49672991
   0.73022661  0.97484760  0.77854738
   0.00818607  0.76910310  0.25098302
   0.73765391  0.50797237  0.25236652
   0.02351024  0.00401603  0.50246812
   0.50311484  0.52160267  0.49163298
   0.75029273  0.51733519  0.75911514
   0.74748778  0.74172040  0.49434822
HECN                                    
           1
     8.815263    0.024944   -0.003132
     0.031276    8.842194    0.002539
     0.028495   -0.012763    8.800788
   Zr   Nb   Ti   N    C    Cr   W 
   7   6   7  13  19   6   6
Direct configuration=    10
   0.99858687  0.99901814  0.99467652
   0.26697211  0.00081764  0.24295180
   0.24550962  0.49443576  0.24777679
   0.49899146  0.49822859  0.00287897
   0.50589189  0.24332668  0.74402442
  -0.00220278  0.50109078  0.50232159
   0.49370026  0.76026023  0.75215053
   0.99010514  0.23466137  0.25434043
   0.75452201  0.74804313  0.00775293
   0.00216263  0.24883966  0.74832761
   0.75313798  0.24566695  0.49871752
  -0.00073968  0.74922322  0.75377060
   0.24955260  0.49357062  0.74997433
   0.25359184  0.24300344  0.99181618
   0.50984596  0.25052258  0.25016755
   0.73908491  0.99358653  0.26326013
   0.74679688  0.24756864  0.99901625
   0.24546762  0.74857774  0.99898746
   0.25511834  0.24476751  0.50408228
   0.24958388  0.75315188  0.50113378
   0.25280979  0.24677616  0.24799593
   0.25812110  0.00209520  0.98920648
   0.00313229  0.25620234  0.00218049
   0.74544934  0.24471965  0.24594347
   0.74530255  0.00295374  0.00081904
   0.51234277  0.00123005  0.25201287
   0.98921860  0.49802084  0.24238414
   0.49818216  0.76263400  0.00938217
   0.99012160  0.00248720  0.73914258
   0.75562685  0.24981407  0.75448045
   0.75431300  0.00152444  0.49859284
   0.49797304  0.24503196  0.49009883
   0.51142717  0.00084073  0.74892262
   0.99736404 -0.00061590  0.25444579
   0.50180740  0.23893913  0.00406757
   0.25340188  0.74816256  0.24868008
   0.23961531  0.50004120  0.99513693
   0.00333124  0.74086854  0.00687316
   0.74639734  0.74972671  0.25296141
   0.76261360  0.49654425  0.00437831
   0.49925019  0.49661953  0.25377072
   0.24918737  0.24553804  0.74923471
   0.25911247  0.99914380  0.51220749
   0.00638240  0.24548446  0.50086670
   0.24134578  0.75737271  0.75204149
   0.25800786  0.50195373  0.50205129
  -0.00050760  0.75897186  0.49864397
   0.99823850  0.50024953  0.75628560
   0.74905325  0.75713096  0.74897580
   0.74506731  0.49762290  0.50457802
   0.49690074  0.76102358  0.48887075
   0.50449348  0.50238981  0.74154942
   0.52294616  0.01216458  0.97761327
   0.00073106  0.51390536  0.97993848
   0.49403875  0.73179249  0.25500942
   0.22486487  0.01456289  0.75162678
   0.47630371  0.98771119  0.49892797
   0.72814856  0.97293075  0.78013500
   0.00920002  0.76754179  0.25191979
   0.73811419  0.50870301  0.25206253
   0.02200999  0.00349147  0.50151745
   0.50345968  0.51952218  0.49051638
   0.75238400  0.51638079  0.76181630
   0.74703701  0.74143438  0.49400802
HECN                                    
           1
     8.811018    0.025351   -0.002795
     0.031676    8.839602    0.001874
     0.028817   -0.013419    8.796421
   Zr   Nb   Ti   N    C    Cr   W 
   7   6   7  13  19   6   6
Direct configuration=    11
   0.99846705  0.99892778  0.99449958
   0.26697910  0.00079796  0.24285393
   0.24552438  0.49455844  0.24768193
   0.49912093  0.49812977  0.00281221
   0.50571715  0.24318350  0.74430700
  -0.00202560  0.50098234  0.50234798
   0.49367239  0.76029651  0.75228450
   0.99022832  0.23458521  0.25439573
   0.75455490  0.74792612  0.00769535
   0.00223172  0.24893801  0.74835049
   0.75301575  0.24574867  0.49895003
  -0.00072693  0.74910672  0.75392824
   0.24948767  0.49362339  0.75005844
   0.25345341  0.24320507  0.99184477
   0.50989855  0.25046510  0.25009104
   0.73887116  0.99369606  0.26340340
   0.74703488  0.24783228  0.99885186
   0.24546088  0.74861670  0.99904676
   0.25512544  0.24469191  0.50406893
   0.24952050  0.75321958  0.50111427
   0.25287742  0.24679036  0.24802681
   0.25821871  0.00211305  0.98917059
   0.00313041  0.25604312  0.00209974
   0.74542533  0.24473485  0.24605601
   0.74500569  0.00298765  0.00070410
   0.51246840  0.00113091  0.25194251
   0.98921696  0.49761068  0.24227162
   0.49823995  0.76264465  0.00930800
   0.99009797  0.00255255  0.73923017
   0.75558247  0.24969092  0.75458854
   0.75377173  0.00129607  0.49884381
   0.49789166  0.24463300  0.49011068
   0.51110108  0.00083307  0.74869656
   0.99723769 -0.00067872  0.25445169
   0.50193517  0.23899634  0.00419793
   0.25335508  0.74831658  0.24864710
   0.23959908  0.50010578  0.99511149
   0.00340766  0.74077323  0.00692461
   0.74646952  0.74969257  0.25312956
   0.76263378  0.49649146  0.00420026
   0.49943468  0.49681753  0.25390334
   0.24919885  0.24554859  0.74919665
   0.25887371  0.99915035  0.51215935
   0.00638180  0.24554991  0.50093091
   0.24140281  0.75732741  0.75201182
   0.25801699  0.50193015  0.50194693
  -0.00034750  0.75890875  0.49870759
   0.99816095  0.50022960  0.75633254
   0.74903467  0.75698653  0.74896475
   0.74506984  0.49783447  0.50436092
   0.49681301  0.76088846  0.48899794
   0.50429719  0.50238377  0.74163681
   0.52301992  0.01225995  0.97780131
   0.00081800  0.51378913  0.97992915
   0.49453947  0.73207438  0.25504052
   0.22541004  0.01455338  0.75153709
   0.47622828  0.98755072  0.49862079
   0.72843909  0.97319929  0.77991301
   0.00905832  0.76776036  0.25178869
   0.73804982  0.50860069  0.25210505
   0.02221978  0.00356490  0.50165035
   0.50341162  0.51981331  0.49067228
   0.75209159  0.51651449  0.76143858
   0.74710005  0.74147441  0.49405557
HECN                                    
           1
     8.800093    0.026592   -0.006023
     0.032950    8.815946    0.002353
     0.025555   -0.012890    8.794657
   Zr   Nb   Ti   N    C    Cr   W 
   7   6   7  13  19   6   6
Direct configuration=    12
   0.99950028  0.99917947  0.99513411
   0.26683950  0.00043296  0.24392602
   0.24522176  0.49413082  0.24777300