  64  64   0   0
  0.1129557E+02  0.8932500E-09  0.9055600E-09  0.8937200E-09  0.5000000E-15
  1.000000000000000E-004
  CAR 
 HECN                                    
     13.41666136    -52.77621895  301      7.90355713      1.00000000
    -52.776  0.0000E+00  0.0000E+00
    -52.556  0.0000E+00  0.0000E+00
    -52.335  0.0000E+00  0.0000E+00
    -52.114  0.0000E+00  0.0000E+00
    -51.894  0.0000E+00  0.0000E+00
    -51.673  0.0000E+00  0.0000E+00
    -51.452  0.0000E+00  0.0000E+00
    -51.232  0.0000E+00  0.0000E+00
    -51.011  0.0000E+00  0.0000E+00
    -50.790  0.0000E+00  0.0000E+00
    -50.570  0.0000E+00  0.0000E+00
    -50.349  0.1006E-16  0.2220E-17
    -50.129  0.1617E-07  0.3567E-08
    -49.908  0.2904E-02  0.6408E-03
    -49.687  0.1945E+00  0.4356E-01
    -49.467  0.2405E+00  0.9662E-01
    -49.246  0.1540E+00  0.1306E+00
    -49.025  0.4258E-01  0.1400E+00
    -48.805  0.6218E-04  0.1400E+00
    -48.584  0.1179E-10  0.1400E+00
    -48.363  0.0000E+00  0.1400E+00
    -48.143  0.0000E+00  0.1400E+00
    -47.922  0.0000E+00  0.1400E+00
    -47.701  0.0000E+00  0.1400E+00
    -47.481  0.0000E+00  0.1400E+00
    -47.260  0.0000E+00  0.1400E+00
    -47.040  0.0000E+00  0.1400E+00
    -46.819  0.0000E+00  0.1400E+00
    -46.598  0.0000E+00  0.1400E+00
    -46.378  0.0000E+00  0.1400E+00
    -46.157  0.0000E+00  0.1400E+00
    -45.936  0.0000E+00  0.1400E+00
    -45.716  0.0000E+00  0.1400E+00
    -45.495  0.0000E+00  0.1400E+00
    -45.274  0.0000E+00  0.1400E+00
    -45.054  0.0000E+00  0.1400E+00
    -44.833  0.0000E+00  0.1400E+00
    -44.612  0.0000E+00  0.1400E+00
    -44.392  0.0000E+00  0.1400E+00
    -44.171  0.0000E+00  0.1400E+00
    -43.951  0.0000E+00  0.1400E+00
    -43.730  0.0000E+00  0.1400E+00
    -43.509  0.0000E+00  0.1400E+00
    -43.289  0.0000E+00  0.1400E+00
    -43.068  0.0000E+00  0.1400E+00
    -42.847  0.0000E+00  0.1400E+00
    -42.627  0.0000E+00  0.1400E+00
    -42.406  0.0000E+00  0.1400E+00
    -42.185  0.0000E+00  0.1400E+00
    -41.965  0.0000E+00  0.1400E+00
    -41.744  0.0000E+00  0.1400E+00
    -41.523  0.0000E+00  0.1400E+00
    -41.303  0.0000E+00  0.1400E+00
    -41.082  0.0000E+00  0.1400E+00
    -40.862  0.0000E+00  0.1400E+00
    -40.641  0.0000E+00  0.1400E+00
    -40.420  0.0000E+00  0.1400E+00
    -40.200  0.0000E+00  0.1400E+00
    -39.979  0.0000E+00  0.1400E+00
    -39.758  0.0000E+00  0.1400E+00
    -39.538  0.0000E+00  0.1400E+00
    -39.317  0.0000E+00  0.1400E+00
    -39.096  0.0000E+00  0.1400E+00
    -38.876  0.0000E+00  0.1400E+00
    -38.655  0.0000E+00  0.1400E+00
    -38.434  0.0000E+00  0.1400E+00
    -38.214  0.0000E+00  0.1400E+00
    -37.993  0.0000E+00  0.1400E+00
    -37.772  0.0000E+00  0.1400E+00
    -37.552  0.0000E+00  0.1400E+00
    -37.331  0.0000E+00  0.1400E+00
    -37.111  0.0000E+00  0.1400E+00
    -36.890  0.0000E+00  0.1400E+00
    -36.669  0.0000E+00  0.1400E+00
    -36.449  0.1292E-11  0.1400E+00
    -36.228  0.1857E-04  0.1400E+00
    -36.007  0.3177E-01  0.1470E+00
    -35.787  0.2140E+00  0.1942E+00
    -35.566  0.9595E+00  0.4059E+00
    -35.345  0.4231E+00  0.4993E+00
    -35.125  0.3216E-02  0.5000E+00
    -34.904  0.1388E-07  0.5000E+00
    -34.683  0.0000E+00  0.5000E+00
    -34.463  0.0000E+00  0.5000E+00
    -34.242  0.0000E+00  0.5000E+00
    -34.022  0.0000E+00  0.5000E+00
    -33.801  0.0000E+00  0.5000E+00
    -33.580  0.0000E+00  0.5000E+00
    -33.360  0.0000E+00  0.5000E+00
    -33.139  0.0000E+00  0.5000E+00
    -32.918  0.0000E+00  0.5000E+00
    -32.698  0.0000E+00  0.5000E+00
    -32.477  0.0000E+00  0.5000E+00
    -32.256  0.0000E+00  0.5000E+00
    -32.036  0.0000E+00  0.5000E+00
    -31.815  0.0000E+00  0.5000E+00
    -31.594  0.0000E+00  0.5000E+00
    -31.374  0.0000E+00  0.5000E+00
    -31.153  0.0000E+00  0.5000E+00
    -30.933  0.0000E+00  0.5000E+00
    -30.712  0.0000E+00  0.5000E+00
    -30.491  0.0000E+00  0.5000E+00
    -30.271  0.0000E+00  0.5000E+00
    -30.050  0.0000E+00  0.5000E+00
    -29.829  0.0000E+00  0.5000E+00
    -29.609  0.0000E+00  0.5000E+00
    -29.388  0.0000E+00  0.5000E+00
    -29.167  0.0000E+00  0.5000E+00
    -28.947  0.0000E+00  0.5000E+00
    -28.726  0.0000E+00  0.5000E+00
    -28.505  0.0000E+00  0.5000E+00
    -28.285  0.7105E-10  0.5000E+00
    -28.064  0.1627E-03  0.5000E+00
    -27.844  0.7568E-01  0.5167E+00
    -27.623  0.3151E+00  0.5863E+00
    -27.402  0.3834E+00  0.6709E+00
    -27.182  0.4118E+00  0.7617E+00
    -26.961  0.3019E+00  0.8283E+00
    -26.740  0.1431E+00  0.8599E+00
    -26.520  0.4592E-03  0.8600E+00
    -26.299  0.2099E-01  0.8646E+00
    -26.078  0.4772E+00  0.9699E+00
    -25.858  0.7246E+00  0.1130E+01
    -25.637  0.5389E+00  0.1249E+01
    -25.416  0.1416E+00  0.1280E+01
    -25.196  0.3453E-03  0.1280E+01
    -24.975  0.1486E-09  0.1280E+01
    -24.755  0.0000E+00  0.1280E+01
    -24.534  0.0000E+00  0.1280E+01
    -24.313  0.0000E+00  0.1280E+01
    -24.093  0.0000E+00  0.1280E+01
    -23.872  0.0000E+00  0.1280E+01
    -23.651  0.1338E-10  0.1280E+01
    -23.431  0.7255E-04  0.1280E+01
    -23.210  0.7149E-01  0.1296E+01
    -22.989  0.1957E+00  0.1339E+01
    -22.769  0.2450E+00  0.1393E+01
    -22.548  0.7319E+00  0.1555E+01
    -22.327  0.5354E+00  0.1673E+01
    -22.107  0.1203E+00  0.1699E+01
    -21.886  0.3653E-02  0.1700E+01
    -21.666  0.5106E-07  0.1700E+01
    -21.445  0.6038E-16  0.1700E+01
    -21.224  0.0000E+00  0.1700E+01
    -21.004  0.0000E+00  0.1700E+01
    -20.783  0.0000E+00  0.1700E+01
    -20.562  0.0000E+00  0.1700E+01
    -20.342  0.0000E+00  0.1700E+01
    -20.121  0.0000E+00  0.1700E+01
    -19.900  0.0000E+00  0.1700E+01
    -19.680  0.0000E+00  0.1700E+01
    -19.459  0.0000E+00  0.1700E+01
    -19.238  0.0000E+00  0.1700E+01
    -19.018  0.0000E+00  0.1700E+01
    -18.797  0.0000E+00  0.1700E+01
    -18.577  0.0000E+00  0.1700E+01
    -18.356  0.0000E+00  0.1700E+01
    -18.135  0.0000E+00  0.1700E+01
    -17.915  0.0000E+00  0.1700E+01
    -17.694  0.0000E+00  0.1700E+01
    -17.473  0.0000E+00  0.1700E+01
    -17.253  0.0000E+00  0.1700E+01
    -17.032  0.0000E+00  0.1700E+01
    -16.811  0.0000E+00  0.1700E+01
    -16.591  0.0000E+00  0.1700E+01
    -16.370  0.0000E+00  0.1700E+01
    -16.149  0.0000E+00  0.1700E+01
    -15.929  0.0000E+00  0.1700E+01
    -15.708  0.0000E+00  0.1700E+01
    -15.488  0.0000E+00  0.1700E+01
    -15.267  0.0000E+00  0.1700E+01
    -15.046  0.0000E+00  0.1700E+01
    -14.826  0.0000E+00  0.1700E+01
    -14.605  0.0000E+00  0.1700E+01
    -14.384  0.0000E+00  0.1700E+01
    -14.164  0.0000E+00  0.1700E+01
    -13.943  0.0000E+00  0.1700E+01
    -13.722  0.0000E+00  0.1700E+01
    -13.502  0.0000E+00  0.1700E+01
    -13.281  0.0000E+00  0.1700E+01
    -13.060  0.0000E+00  0.1700E+01
    -12.840  0.0000E+00  0.1700E+01
    -12.619  0.0000E+00  0.1700E+01
    -12.399  0.0000E+00  0.1700E+01
    -12.178  0.0000E+00  0.1700E+01
    -11.957  0.0000E+00  0.1700E+01
    -11.737  0.0000E+00  0.1700E+01
    -11.516  0.0000E+00  0.1700E+01
    -11.295  0.0000E+00  0.1700E+01
    -11.075  0.0000E+00  0.1700E+01
    -10.854  0.0000E+00  0.1700E+01
    -10.633  0.0000E+00  0.1700E+01
    -10.413  0.0000E+00  0.1700E+01
    -10.192  0.0000E+00  0.1700E+01
     -9.971  0.0000E+00  0.1700E+01
     -9.751  0.0000E+00  0.1700E+01
     -9.530  0.0000E+00  0.1700E+01
     -9.310  0.0000E+00  0.1700E+01
     -9.089  0.0000E+00  0.1700E+01
     -8.868  0.3709E-10  0.1700E+01
     -8.648  0.2934E-04  0.1700E+01
     -8.427  0.1212E-01  0.1703E+01
     -8.206  0.6848E-01  0.1718E+01
     -7.986  0.5374E-01  0.1730E+01
     -7.765  0.1344E+00  0.1759E+01
     -7.544  0.1120E+00  0.1784E+01
     -7.324  0.1604E+00  0.1819E+01
     -7.103  0.1532E+00  0.1853E+01
     -6.882  0.2007E+00  0.1897E+01
     -6.662  0.1844E+00  0.1938E+01
     -6.441  0.8953E-01  0.1958E+01
     -6.221  0.9348E-02  0.1960E+01
     -6.000  0.5434E-06  0.1960E+01
     -5.779  0.3063E-14  0.1960E+01
     -5.559  0.4100E-17  0.1960E+01
     -5.338  0.3491E-08  0.1960E+01
     -5.117  0.2981E-03  0.1960E+01
     -4.897  0.2478E-01  0.1966E+01
     -4.676  0.6120E-01  0.1979E+01
     -4.455  0.2337E-01  0.1984E+01
     -4.235  0.1019E+00  0.2007E+01
     -4.014  0.1369E+00  0.2037E+01
     -3.793  0.1808E+00  0.2077E+01
     -3.573  0.2327E+00  0.2128E+01
     -3.352  0.2166E+00  0.2176E+01
     -3.132  0.2047E+00  0.2221E+01
     -2.911  0.2030E+00  0.2266E+01
     -2.690  0.1783E+00  0.2305E+01
     -2.470  0.1030E+00  0.2328E+01
     -2.249  0.4212E-01  0.2337E+01
     -2.028  0.1251E-01  0.2340E+01
     -1.808  0.1666E-03  0.2340E+01
     -1.587  0.2073E-08  0.2340E+01
     -1.366  0.2609E-17  0.2340E+01
     -1.146  0.0000E+00  0.2340E+01
     -0.925  0.0000E+00  0.2340E+01
     -0.704  0.3485E-16  0.2340E+01
     -0.484  0.1011E-07  0.2340E+01
     -0.263  0.2735E-03  0.2340E+01
     -0.043  0.6478E-02  0.2341E+01
      0.178  0.2075E-01  0.2346E+01
      0.399  0.9536E-01  0.2367E+01
      0.619  0.8608E-01  0.2386E+01
      0.840  0.1510E+00  0.2419E+01
      1.061  0.1866E+00  0.2461E+01
      1.281  0.2601E+00  0.2518E+01
      1.502  0.2909E+00  0.2582E+01
      1.723  0.2593E+00  0.2639E+01
      1.943  0.3036E+00  0.2706E+01
      2.164  0.3318E+00  0.2780E+01
      2.385  0.3559E+00  0.2858E+01
      2.605  0.3993E+00  0.2946E+01
      2.826  0.4674E+00  0.3049E+01
      3.046  0.5634E+00  0.3174E+01
      3.267  0.6311E+00  0.3313E+01
      3.488  0.6527E+00  0.3457E+01
      3.708  0.6211E+00  0.3594E+01
      3.929  0.5615E+00  0.3718E+01
      4.150  0.4907E+00  0.3826E+01
      4.370  0.4257E+00  0.3920E+01
      4.591  0.3621E+00  0.4000E+01
      4.812  0.3058E+00  0.4067E+01
      5.032  0.2805E+00  0.4129E+01
      5.253  0.2200E+00  0.4178E+01
      5.474  0.1688E+00  0.4215E+01
      5.694  0.1494E+00  0.4248E+01
      5.915  0.7560E-01  0.4265E+01
      6.135  0.1289E+00  0.4293E+01
      6.356  0.1726E+00  0.4331E+01
      6.577  0.1589E+00  0.4366E+01
      6.797  0.2378E+00  0.4419E+01
      7.018  0.2088E+00  0.4465E+01
      7.239  0.1873E+00  0.4506E+01
      7.459  0.2637E+00  0.4564E+01
      7.680  0.2991E+00  0.4630E+01
      7.901  0.2672E+00  0.4689E+01
      8.121  0.2515E+00  0.4745E+01
      8.342  0.3265E+00  0.4817E+01
      8.563  0.3996E+00  0.4905E+01
      8.783  0.4358E+00  0.5001E+01
      9.004  0.5075E+00  0.5113E+01
      9.224  0.4965E+00  0.5223E+01
      9.445  0.5160E+00  0.5337E+01
      9.666  0.5090E+00  0.5449E+01
      9.886  0.4958E+00  0.5558E+01
     10.107  0.4969E+00  0.5668E+01
     10.328  0.3588E+00  0.5747E+01
     10.548  0.5828E-01  0.5760E+01
     10.769  0.3945E-03  0.5760E+01
     10.990  0.2045E-08  0.5760E+01
     11.210  0.0000E+00  0.5760E+01
     11.431  0.0000E+00  0.5760E+01
     11.652  0.0000E+00  0.5760E+01
     11.872  0.0000E+00  0.5760E+01
     12.093  0.0000E+00  0.5760E+01
     12.313  0.0000E+00  0.5760E+01
     12.534  0.0000E+00  0.5760E+01
     12.755  0.0000E+00  0.5760E+01
     12.975  0.0000E+00  0.5760E+01
     13.196  0.0000E+00  0.5760E+01
     13.417  0.0000E+00  0.5760E+01
