HECN                                    
           1
     8.932500    0.000000    0.000000
     0.005753    9.055598    0.000000
     0.032102   -0.015743    8.937128
   Hf   Ta   Ti   N    C    Cr   Mo
   7   6   7  13  19   6   6
Direct configuration=     1
   0.99688001  0.99204997  0.99924002
   0.25398003  0.99714995  0.24912000
   0.24803003  0.50165000  0.24955001
   0.50501006  0.49745998  0.99834003
   0.50479003  0.24631001  0.74710002
   0.99427992  0.50449999  0.49779000
   0.49950005  0.75481999  0.74817004
   0.99437004  0.23617001  0.26379999
   0.75718000  0.74102998  0.01100000
   0.00201000  0.25541000  0.73894001
   0.75307001  0.26163001  0.50533002
   0.99514004  0.74492004  0.74511997
   0.25679999  0.49462002  0.74545002
   0.24788999  0.24839000  0.99657997
   0.50833000  0.25676999  0.25376001
   0.74879004  0.98787999  0.26967001
   0.75719000  0.25603001  0.99591997
   0.24762001  0.74973999  0.99974006
   0.25272001  0.24823001  0.50015003
   0.24457999  0.75048999  0.49983999
   0.24982001  0.24942998  0.24825000
   0.26146999  0.99984002  0.99295996
   0.00281000  0.25024000  0.00130000
   0.75313998  0.24617000  0.25492002
   0.74767001  0.99748000  0.01202000
   0.50714994  0.99977000  0.24673000
   0.99051999  0.48088002  0.24100998
   0.50519005  0.76130999  0.00855000
   0.98896989  0.00202000  0.73708999
   0.75744996  0.24437997  0.74896999
   0.73632001  0.00417000  0.51063000
   0.50563996  0.23264999  0.49544997
   0.50008998  0.00061000  0.73471998
   0.99720000  0.99771992  0.25899999
   0.50427997  0.24673000  0.00262000
   0.25133999  0.74958002  0.24910999
   0.24328000  0.50072997  0.99510994
   0.99837005  0.74313996  0.00460000
   0.75633000  0.73891003  0.25767000
   0.75839004  0.50315998  0.00288000
   0.50700002  0.50333002  0.25878999
   0.24900999  0.25315000  0.74854000
   0.24446000  0.99823996  0.50287998
   0.99804009  0.24229999  0.50128003
   0.24177002  0.75340997  0.75018002
   0.25841001  0.50062002  0.50129001
   0.99000004  0.76215003  0.49746000
   0.99203996  0.50055999  0.75138002
   0.75036005  0.74888000  0.74756004
   0.74036002  0.50197000  0.50067003
   0.50575006  0.74958002  0.49720000
   0.50501003  0.50217998  0.73912003
   0.51588997  0.01358000  0.98075008
   0.99841994  0.50976998  0.98613004
   0.50379003  0.73926997  0.25905001
   0.23780002  0.01082000  0.74607998
   0.47957999  0.98308000  0.49717999
   0.74279003  0.97869994  0.76450995
   0.99864998  0.77573999  0.26102000
   0.73551001  0.51468004  0.26666001
   0.02362000  0.99783001  0.49557002
   0.50539000  0.52833005  0.49917999
   0.73876003  0.52828003  0.73814999
   0.75400003  0.72937999  0.49116997
HECN                                    
           1
     8.449141    0.021952   -0.010963
     0.027696    8.562110    0.001009
     0.019357   -0.013804    8.466518
   Hf   Ta   Ti   N    C    Cr   Mo
   7   6   7  13  19   6   6
Direct configuration=     2
   0.99628062  0.99606197  0.99527354
   0.26381924  0.99798201  0.24490070
   0.24764740  0.50046377  0.24654009
   0.50248636  0.49753909  0.00106619
   0.50429657  0.23844542  0.74638583
   0.99799157  0.50357512  0.49816564
   0.49557055  0.76504695  0.75206238
   0.99371763  0.23594032  0.25904751
   0.75400417  0.74403826  0.01194051
   0.00359575  0.25312793  0.74439549
   0.74757183  0.25450648  0.50364226
   0.99971382  0.74663721  0.74822881
   0.25377560  0.49608979  0.74876514
   0.24945616  0.24883640  0.99388109
   0.51029923  0.25280485  0.25251881
   0.74231417  0.98923205  0.27057402
   0.75451310  0.25623473  0.99561198
   0.24636222  0.74847462  0.99977720
   0.25340557  0.24698999  0.50239694
   0.24583777  0.75146001  0.49989265
   0.25024446  0.24928854  0.24889050
   0.25810813  0.00029383  0.99407387
   0.00212494  0.24787416  0.00038372
   0.75140241  0.24463124  0.25462487
   0.74692777  0.99781755  0.00839432
   0.50765591  0.99994530  0.24926458
   0.99452696  0.48110242  0.24453105
   0.50487909  0.75908341  0.00510248
   0.98923048  0.00250965  0.74327145
   0.75519268  0.24404656  0.75030022
   0.73719393  0.00523602  0.50545833
   0.50447514  0.23365473  0.49501221
   0.50245478  0.00034902  0.73841317
   0.99561634  0.00322191  0.25300602
   0.50541181  0.24499236  0.00296517
   0.25281560  0.74907193  0.24917327
   0.24379684  0.50137976  0.99611427
   0.00181061  0.74245473  0.00239412
   0.75229509  0.74549361  0.25236825
   0.75980078  0.50001582  0.00243930
   0.50042180  0.50262451  0.25388966
   0.24921951  0.25027771  0.74833896
   0.25505143  0.99716620  0.50595482
   0.00084386  0.24675871  0.50145361
   0.24311343  0.75334929  0.75018206
   0.25456276  0.50112777  0.49952702
   0.99670800  0.75820224  0.50187963
   0.99472649  0.50049972  0.75247674
   0.74890124  0.75858006  0.75009711
   0.74690468  0.49580283  0.50220844
   0.50053294  0.75809012  0.49356346
   0.49929673  0.50111023  0.74538006
   0.51898073  0.01597115  0.98082727
   0.99885874  0.51076359  0.98320108
   0.50389624  0.73742075  0.25962941
   0.23756721  0.01311607  0.74623905
   0.47646794  0.98326685  0.49767317
   0.73953578  0.97427294  0.76716880
   0.00108527  0.77383874  0.25893976
   0.73446560  0.51059741  0.26013985
   0.02084819  0.99886205  0.49867253
   0.50356781  0.52498847  0.49584812
   0.74280802  0.52055899  0.74388150
   0.75301291  0.73680384  0.49158007
HECN                                    
           1
     8.710828    0.010067   -0.005028
     0.015816    8.829281    0.000463
     0.026257   -0.014854    8.721303
   Hf   Ta   Ti   N    C    Cr   Mo
   7   6   7  13  19   6   6
Direct configuration=     3
   0.99663271  0.99376351  0.99754106
   0.25819200  0.99751968  0.24730474
   0.24786687  0.50114222  0.24826042
   0.50392893  0.49749030 -0.00048990
   0.50456769  0.24294791  0.74679379
   0.99586546  0.50411017  0.49794815
   0.49783218  0.75918552  0.74984159
   0.99409426  0.23607053  0.26176396
   0.75582575  0.74231113  0.01140559
   0.00268060  0.25443738  0.74127642
   0.75070933  0.25857723  0.50461037
   0.99709620  0.74566090  0.74644888
   0.25550640  0.49524402  0.74687294
   0.24856243  0.24858288  0.99542234
   0.50916705  0.25507809  0.25322640
   0.74602212  0.98844843  0.27006229
   0.75604581  0.25611356  0.99578999
   0.24708020  0.74919733  0.99975682
   0.25300962  0.24770120  0.50111227
   0.24511928  0.75090642  0.49986169
   0.25000083  0.24937020  0.24852413
   0.26003220  0.00002913  0.99343981
   0.00251416  0.24922777  0.00090770
   0.75239484  0.24550976  0.25479472
   0.74735583  0.99762290  0.01046692
   0.50736468  0.99984586  0.24781574
   0.99223120  0.48098122  0.24251585
   0.50505630  0.76035763  0.00707277
   0.98907744  0.00223013  0.73973867
   0.75648318  0.24423427  0.74954166
   0.73669920  0.00462650  0.50841330
   0.50514369  0.23307767  0.49526332
   0.50109809  0.00050220  0.73630079
   0.99653556  0.00006869  0.25643306
   0.50476110  0.24598902  0.00276695
   0.25197019  0.74936503  0.24913598
   0.24350125  0.50100853  0.99553997
  -0.00015804  0.74285197  0.00365215
   0.75461844  0.74171753  0.25540158
   0.75898890  0.50181820  0.00268989
   0.50418957  0.50301847  0.25669496
   0.24909540  0.25192268  0.74845350
   0.24898531  0.99779680  0.50418966
  -0.00075434  0.24420977  0.50135265
   0.24234441  0.75338601  0.75017989
   0.25676688  0.50083126  0.50053743
   0.99285931  0.76047292  0.49934862
   0.99318789  0.50053825  0.75184798
   0.74974895  0.75302385  0.74864897
   0.74314827  0.49934387  0.50132397
   0.50353461  0.75320930  0.49564616
   0.50256055  0.50171487  0.74180669
   0.51721522  0.01460651  0.98078103
   0.99861128  0.51019507  0.98487468
   0.50383223  0.73847981  0.25929808
   0.23770381  0.01180101  0.74614848
   0.47824909  0.98315534  0.49739365
   0.74138974  0.97680327  0.76565140
  -0.00030993  0.77493081  0.26012665
   0.73506211  0.51293310  0.26386653
   0.02243392  0.99826727  0.49690161
   0.50460822  0.52689894  0.49775336
   0.74047515  0.52498643  0.74060247
   0.75358880  0.73255152  0.49134696
HECN                                    
           1
     8.734004    0.028544   -0.009418
     0.034606    8.811914   -0.000750
     0.021916   -0.015960    8.747764
   Hf   Ta   Ti   N    C    Cr   Mo
   7   6   7  13  19   6   6
Direct configuration=     4
   0.99703459  0.99772872  0.99372022
   0.26623278  0.99906543  0.24330655
   0.24666768  0.49910692  0.24587498
   0.50131408  0.49789691  0.00154311
   0.50378947  0.23726052  0.74686721
   0.00021345  0.50274260  0.49815955
   0.49394642  0.76604263  0.75356533
   0.99479349  0.23732926  0.25560688
   0.75233262  0.74634741  0.01075918
   0.00363867  0.25163820  0.74818710
   0.74630368  0.25053111  0.50319569
   0.00059772  0.74812086  0.75039766
   0.25193562  0.49693439  0.74995063
   0.25072757  0.24832255  0.99345782
   0.51002416  0.25121696  0.25141097
   0.74007056  0.99043209  0.26951403
   0.75286666  0.25539336  0.99601177
   0.24649921  0.74839816  0.99997285
   0.25409023  0.24630259  0.50259458
   0.24682915  0.75194440  0.49972172
   0.25131772  0.24905592  0.24886921
   0.25799354  0.00051721  0.99349731
   0.00198064  0.24842866  0.00009712
   0.74907590  0.24380121  0.25272847
   0.74558840  0.99905140  0.00680431
   0.50888183  0.99999656  0.24947288
   0.99552427  0.48344468  0.24425238
   0.50335902  0.75938676  0.00464886
   0.98920275  0.00278420  0.74538116
   0.75409616  0.24400838  0.75184464
   0.73861665  0.00474215  0.50429120
   0.50253616  0.23478788  0.49422908
   0.50317207  0.00065504  0.74024375
   0.99532221  0.00362191  0.25106060
   0.50536042  0.24383733  0.00388204
   0.25451517  0.74897211  0.24890280
   0.24308553  0.50149192  0.99652148
   0.00387084  0.74183047  0.00235382
   0.74964315  0.74871166  0.25114370
   0.76093173  0.49752771  0.00252268
   0.49716576  0.50185069  0.25209684
   0.25012170  0.24826057  0.74838090
   0.25927168  0.99708258  0.50752924
   0.00267721  0.24840001  0.50151233
   0.24427801  0.75445001  0.75051902
   0.25352683  0.50119422  0.49879976
   0.99999798  0.75660656  0.50307445
   0.99620008  0.50023905  0.75322789
   0.74828205  0.76109782  0.75026646
   0.74847431  0.49489570  0.50246131
   0.49798030  0.76215066  0.49221053
   0.49813687  0.50111651  0.74689029
   0.51970981  0.01546339  0.98121329
   0.99931131  0.50997058  0.98305276
   0.50289094  0.73723493  0.25885600
   0.23698774  0.01344149  0.74684330
   0.47616065  0.98428312  0.49724093
   0.73799674  0.97484118  0.76915889
   0.00286150  0.77109080  0.25663204
   0.73591946  0.50753504  0.25608103
   0.01913230  0.00038049  0.50015139
   0.50272240  0.52158847  0.49492494
   0.74502789  0.51743301  0.74903184
   0.75118491  0.73998467  0.49327936
HECN                                    
           1
     8.733211    0.027912   -0.009268
     0.033963    8.812508   -0.000708
     0.022065   -0.015922    8.746858
   Hf   Ta   Ti   N    C    Cr   Mo
   7   6   7  13  19   6   6
Direct configuration=     5
   0.99702123  0.99759282  0.99385053
   0.26595857  0.99901302  0.24344279
   0.24670849  0.49917662  0.24595639
   0.50140330  0.49788277  0.00147380
   0.50381561  0.23745545  0.74686474
   0.00006497  0.50278980  0.49815227
   0.49407947  0.76580726  0.75343834
   0.99476983  0.23728618  0.25581689
   0.75245213  0.74620878  0.01078127
   0.00360565  0.25173421  0.74795135
   0.74645345  0.25080665  0.50324406
   0.00047834  0.74803676  0.75026289
   0.25205754  0.49687617  0.74984570
   0.25065370  0.24833164  0.99352480
   0.50999466  0.25134941  0.25147290
   0.74027381  0.99036366  0.26953282
   0.75297509  0.25541783  0.99600426
   0.24651897  0.74842551  0.99996549
   0.25405322  0.24635061  0.50254401
   0.24677088  0.75190894  0.49972646
   0.25127275  0.24906679  0.24885742
   0.25806314  0.00050033  0.99349538
   0.00199880  0.24845602  0.00012478
   0.74918907  0.24385956  0.25279902
   0.74564888  0.99900232  0.00692928
   0.50883004  0.99999150  0.24941633
   0.99541205  0.48336046  0.24419307
   0.50341691  0.75941994  0.00473158
   0.98919842  0.00276519  0.74518867
   0.75417756  0.24401594  0.75176612
   0.73855130  0.00473833  0.50443178
   0.50262528  0.23472907  0.49426440
   0.50310124  0.00064993  0.74010921
   0.99536397  0.00350003  0.25124387
   0.50533979  0.24391113  0.00384400
   0.25442830  0.74898576  0.24891071
   0.24309973  0.50147531  0.99648800
   0.00373331  0.74186579  0.00239804
   0.74981352  0.74847154  0.25128900
   0.76086512  0.49767494  0.00252837
   0.49740544  0.50189024  0.25225382
   0.25008641  0.24838619  0.74838338
   0.25892055  0.99710779  0.50741515
   0.00256041  0.24825660  0.50150680
   0.24421209  0.75441367  0.75050742
   0.25363746  0.50118155  0.49885909
   0.99975402  0.75673961  0.50294725
   0.99609724  0.50024952  0.75318077
   0.74833268  0.76082091  0.75021127
   0.74829221  0.49504857  0.50242244
   0.49817056  0.76184374  0.49232778
   0.49828769  0.50113668  0.74671696
   0.51962474  0.01543419  0.98119850
   0.99928744  0.50997833  0.98311490
   0.50292298  0.73727754  0.25887110
   0.23701229  0.01338519  0.74681961
   0.47623201  0.98424431  0.49724617
   0.73811233  0.97490819  0.76903931
   0.00275305  0.77122269  0.25675122
   0.73588993  0.50772019  0.25634662
   0.01924507  0.00030779  0.50004058
   0.50278641  0.52177041  0.49502148
   0.74487182  0.51769226  0.74874425
   0.75126746  0.73972966  0.49321345
HECN                                    
           1
     8.764671    0.030117   -0.007069
     0.036311    8.811635   -0.002523
     0.024374   -0.017723    8.770978
   Hf   Ta   Ti   N    C    Cr   Mo
   7   6   7  13  19   6   6
Direct configuration=     6
   0.99741790  0.99731259  0.99443481
   0.26607357  0.99927750  0.24275901
   0.24561124  0.49808302  0.24638168
   0.50137711  0.49765027  0.00107705
   0.50319656  0.23885264  0.74766839
   0.00018326  0.50190823  0.49928551
   0.49368082  0.76280403  0.75299750
   0.99442225  0.23853479  0.25448731
   0.75269827  0.74644510  0.00918301
   0.00328358  0.25131074  0.74893898
   0.74762346  0.24755341  0.50308755
  -0.00010299  0.74830020  0.75143409
   0.25166841  0.49641751  0.74994677
   0.25258833  0.24718726  0.99268416
   0.50995695  0.25086761  0.25012856
   0.73879057  0.99107210  0.26783985
   0.75029696  0.25375749  0.99671336
   0.24630076  0.74830015  0.00071600
   0.25418342  0.24521319  0.50342631
   0.24762967  0.75270223  0.49906182
   0.25165120  0.24813737  0.24867051
   0.25708747  0.00106594  0.99351368
   0.00198464  0.24920231 -0.00008306
   0.74808498  0.24294070  0.25141704
   0.74527571  0.00026564  0.00415119
   0.51002421  0.00080863  0.24966423
   0.99647170  0.48606202  0.24485989
   0.50238713  0.75944306  0.00384105
   0.98973465  0.00323157  0.74623759
   0.75361035  0.24444983  0.75191173
   0.74212167  0.00494815  0.50208671
   0.50120184  0.23778444  0.49405808
   0.50472511  0.00139896  0.74318974
   0.99640931  0.00083979  0.25099024
   0.50466033  0.24309005  0.00392231
   0.25610535  0.74959307  0.24852007
   0.24238588  0.50125161  0.99613726
   0.00321752  0.74227630  0.00285760
   0.74712394  0.74945115  0.25238384
   0.76128622  0.49723378  0.00315064
   0.49751371  0.50136428  0.25250626
   0.25031100  0.24755883  0.74827163
   0.25878034  0.99790826  0.50878468
   0.00317616  0.24902211  0.50135159
   0.24429238  0.75539067  0.75105695
   0.25381124  0.50127218  0.49926376
   0.00167173  0.75564396  0.50286372
   0.99823510  0.50021830  0.75357957
   0.74832801  0.75957641  0.74965466
   0.74811378  0.49620264  0.50222620
   0.49723047  0.76219742  0.49107061
   0.49851924  0.50193419  0.74653412
   0.52165491  0.01405530  0.98101733
   0.99891041  0.51006276  0.98183238
   0.50100897  0.73423269  0.25939631
   0.23437960  0.01323717  0.74671779
   0.47657930  0.98549993  0.49702596
   0.73513109  0.97663023  0.77317060
   0.00398971  0.77278569  0.25558832
   0.73365758  0.50810733  0.25429269
   0.02177426  0.00136934  0.49984409
   0.50467905  0.52176450  0.49275846
   0.74685024  0.51856628  0.75427375
   0.74897281  0.73837481  0.49318666
HECN                                    
           1
     8.779013    0.031123   -0.006066
     0.037382    8.811238   -0.003351
     0.025427   -0.018545    8.781974
   Hf   Ta   Ti   N    C    Cr   Mo
   7   6   7  13  19   6   6
Direct configuration=     7
   0.99759805  0.99718483  0.99470037
   0.26612586  0.99939800  0.24244816
   0.24511290  0.49758457  0.24657505
   0.50136528  0.49754423  0.00089666
   0.50291509  0.23948980  0.74803395
   0.00023698  0.50150639  0.49980061
   0.49350016  0.76143478  0.75279685
   0.99426436  0.23910399  0.25388300
   0.75281024  0.74655268  0.00845638
   0.00313721  0.25111780  0.74938799
   0.74815535  0.24607002  0.50301595
  -0.00036724  0.74842048  0.75196664
   0.25149168  0.49620845  0.74999272
   0.25346737  0.24666522  0.99230164
   0.50994004  0.25064783  0.24951734
   0.73811692  0.99139511  0.26707041
   0.74908053  0.25300085  0.99703589
   0.24620157  0.74824309  0.00105722
   0.25424260  0.24469467  0.50382731
   0.24801975  0.75306376  0.49875964
   0.25182325  0.24771357  0.24858540
   0.25664419  0.00132393  0.99352216
   0.00197814  0.24954254 -0.00017748
   0.74758372  0.24252175  0.25078878
   0.74510636  0.00084142  0.00288835
   0.51056653  0.00118108  0.24977687
   0.99695264  0.48729370  0.24516318
   0.50191946  0.75945364  0.00343631
   0.98997806  0.00344425  0.74671445
   0.75335262  0.24464773  0.75197804
   0.74374375  0.00504322  0.50102018
   0.50055488  0.23917761  0.49396474
   0.50546230  0.00174057  0.74459013
   0.99688452 -0.00037323  0.25087456
   0.50435178  0.24271578  0.00395791
   0.25686712  0.74986975  0.24834233
   0.24206169  0.50114966  0.99597786
   0.00298312  0.74246356  0.00306663
   0.74590195  0.74989817  0.25288200
   0.76147748  0.49703265  0.00343345
   0.49756292  0.50112449  0.25262096
   0.25041313  0.24718158  0.74822072
   0.25871640  0.99827336  0.50940741
   0.00345578  0.24937105  0.50128102
   0.24432867  0.75583615  0.75130687
   0.25389012  0.50131352  0.49944773
   0.00254299  0.75514420  0.50282541
   0.99920618  0.50020387  0.75376062
   0.74832611  0.75900896  0.74940149
   0.74803262  0.49672881  0.50213711
   0.49680354  0.76235866  0.49049920
   0.49862434  0.50229775  0.74645105
   0.52257730  0.01342639  0.98093460
   0.99873928  0.51010117  0.98124935
   0.50013985  0.73284470  0.25963503
   0.23318373  0.01316996  0.74667179
   0.47673694  0.98607236  0.49692593
   0.73377617  0.97741606  0.77504932
   0.00455140  0.77349808  0.25505963
   0.73264372  0.50828389  0.25335920
   0.02292303  0.00185304  0.49975456
   0.50553905  0.52176140  0.49172940
   0.74774819  0.51896507  0.75678748
   0.74793063  0.73775734  0.49317462
HECN                                    
           1
     8.743745    0.028743   -0.006511
     0.034984    8.772123   -0.000677
     0.024844   -0.015819    8.737048
   Hf   Ta   Ti   N    C    Cr   Mo
   7   6   7  13  19   6   6
Direct configuration=     8
   0.99812763  0.99733567  0.99605197
   0.26646273  0.00014753  0.24272658
   0.24502911  0.49645099  0.24726951
   0.50085122  0.49793695  0.00124463
   0.50334641  0.24205598  0.74729431
  -0.00131079  0.50136088  0.50068984
   0.49433412  0.75968462  0.75100491
   0.99349681  0.23824127  0.25315256
   0.75337653  0.74688319  0.00810338
   0.00254521  0.25068721  0.74950273
   0.74935529  0.24427358  0.50285301
  -0.00054501  0.74878098  0.75174196
   0.25205805  0.49588061  0.74917038
   0.25521295  0.24494298  0.99155935
   0.50954300  0.25071718  0.24902535
   0.73753660  0.99130777  0.26527020
   0.74631540  0.25022149  0.99789459
   0.24569913  0.74803348  0.00146366
   0.25428982  0.24427594  0.50461613
   0.24914829  0.75330012  0.49822249
   0.25169007  0.24723341  0.24815574
   0.25518462  0.00174870  0.99396750
   0.00191994  0.25063445 -0.00022521
   0.74735873  0.24207321  0.24970669
   0.74619929  0.00168299  0.00122792
   0.51038792  0.00283248  0.24970465
   0.99752876  0.48947893  0.24626237
   0.50129906  0.75932061  0.00248468
   0.99104715  0.00376192  0.74654701
   0.75300445  0.24467487  0.75149188
   0.74829526  0.00630572  0.49780416
   0.50039235  0.24319321  0.49407752
   0.50770803  0.00107707  0.74808606
   0.99819912  0.00159662  0.25136793
   0.50318995  0.24194451  0.00355597
   0.25813740  0.74981547  0.24801109
   0.24176468  0.50056998  0.99585611
   0.00191589  0.74283872  0.00373507
   0.74376509  0.75000711  0.25260232
   0.76158150  0.49715796  0.00499456
   0.49639879  0.49965627  0.25191203
   0.24997513  0.24679224  0.74840258
   0.25937909  0.99905457  0.51015651
   0.00349657  0.24887581  0.50091857
   0.24343274  0.75669231  0.75181904
   0.25470551  0.50147591  0.50018414
   0.00270473  0.75562534  0.50174208
   0.00075207  0.50048019  0.75390889
   0.74807062  0.75902749  0.74896792
   0.74772300  0.49653722  0.50275870
   0.49691568  0.76225771  0.48925370
   0.50011463  0.50306426  0.74536019
   0.52438682  0.01176586  0.97988441
   0.99754078  0.51110282  0.97953360
   0.49750610  0.72956031  0.26087164
   0.22923798  0.01289904  0.74632508
   0.47679703  0.98795588  0.49776050
   0.72973573  0.97769102  0.77976073
   0.00567397  0.77128690  0.25544179
   0.73148774  0.50966109  0.25293473
   0.02440070  0.00200086  0.49947035
   0.50726179  0.52066450  0.48968075
   0.75093585  0.51926009  0.76194590
   0.74592554  0.73614569  0.49273470
HECN                                    
           1
     8.752039    0.029303   -0.006406
     0.035548    8.781322   -0.001306
     0.024981   -0.016460    8.747613
   Hf   Ta   Ti   N    C    Cr   Mo
   7   6   7  13  19   6   6
Direct configuration=     9
   0.99800256  0.99730010  0.99573248
   0.26638314 -0.00002953  0.24266082
   0.24504895  0.49671882  0.24710527
   0.50097257  0.49784424  0.00116241
   0.50324442  0.24144972  0.74746932
  -0.00094533  0.50139541  0.50047965
   0.49413733  0.76009787  0.75142836
   0.99367811  0.23844506  0.25332517
   0.75324280  0.74680506  0.00818684
   0.00268502  0.25078896  0.74947559
   0.74907207  0.24469785  0.50289138
  -0.00050306  0.74869582  0.75179510
   0.25192435  0.49595796  0.74936474
   0.25480089  0.24534965  0.99173467
   0.50963675  0.25070079  0.24914166
   0.73767366  0.99132831  0.26569574
   0.74696847  0.25087826  0.99769144
   0.24581778  0.74808305  0.00136757
   0.25427869  0.24437491  0.50442964
   0.24888181  0.75324418  0.49834947
   0.25172155  0.24734681  0.24825727
   0.25552923  0.00164848  0.99386228
   0.00193362  0.25037652 -0.00021385
   0.74741190  0.24217911  0.24996245
   0.74594120  0.00148401  0.00162046
   0.51042999  0.00244239  0.24972185
   0.99739258  0.48896277  0.24600269
   0.50144557  0.75935200  0.00270963
   0.99079470  0.00368680  0.74658660
   0.75308666  0.24466844  0.75160681
   0.74722051  0.00600699  0.49856441
   0.50043048  0.24224465  0.49405115
   0.50717776  0.00123391  0.74725961
   0.99788859  0.00113126  0.25125143
   0.50346433  0.24212675  0.00365094
   0.25783747  0.74982819  0.24808937
   0.24183485  0.50070692  0.99588485
   0.00216786  0.74275022  0.00357711
   0.74426965  0.74998149  0.25266846
   0.76155691  0.49712846  0.00462555
   0.49667376  0.50000311  0.25207952
   0.25007857  0.24688425  0.74835957
   0.25922256  0.99887004  0.50997948
   0.00348697  0.24899277  0.50100421
   0.24364423  0.75649016  0.75169804
   0.25451296  0.50143755  0.50001006
   0.00266653  0.75551160  0.50199820
   0.00038703  0.50041484  0.75387384
   0.74813095  0.75902310  0.74907041
   0.74779611  0.49658254  0.50261176
   0.49688922  0.76228147  0.48954810
   0.49976271  0.50288303  0.74561809
   0.52395966  0.01215793  0.98013252
   0.99782374  0.51086616  0.97993926
   0.49812817  0.73033640  0.26057913
   0.23016968  0.01296325  0.74640707
   0.47678272  0.98751101  0.49756336
   0.73068969  0.97762665  0.77864711
   0.00540904  0.77180919  0.25535128
   0.73176061  0.50933581  0.25303518
   0.02405178  0.00196583  0.49953752
   0.50685510  0.52092336  0.49016492
   0.75018309  0.51919057  0.76072652
   0.74639909  0.73652649  0.49283860
HECN                                    
           1
     8.769162    0.026170   -0.008327
     0.032414    8.800163    0.002486
     0.023115   -0.012717    8.761938
   Hf   Ta   Ti   N    C    Cr   Mo
   7   6   7  13  19   6   6
Direct configuration=    10
   0.99877606  0.99767922  0.99701498
   0.26667338  0.00045249  0.24370054
   0.24516492  0.49592421  0.24761919
   0.50026645  0.49889176  0.00150646
   0.50429065  0.24324028  0.74561534
  -0.00253741  0.50203959  0.50045276
   0.49492807  0.75990705  0.74936356
   0.99317499  0.23794913  0.25281513
   0.75337423  0.74747434  0.00871934
   0.00192445  0.25048936  0.74948332
   0.74942893  0.24479336  0.50259967
  -0.00038146  0.74937112  0.75042766
   0.25261403  0.49621321  0.74840351
   0.25560675  0.24399768  0.99149096
   0.50892226  0.25118675  0.24980646
   0.73828898  0.99047802  0.26426942
   0.74532168  0.24836850  0.99831113
   0.24550905  0.74778034  0.00103131
   0.25423529  0.24495925  0.50472459
   0.24995238  0.75274986  0.49823651
   0.25136902  0.24752112  0.24787444
   0.25450805  0.00162085  0.99421388
   0.00171520  0.25143409 -0.00007284
   0.74779501  0.24233349  0.24940582
   0.74788157  0.00159120  0.00279931
   0.50956178  0.00423239  0.24937349
   0.99689873  0.49038500  0.24678937
   0.50112446  0.75926931  0.00233927
   0.99156465  0.00360818  0.74578676
   0.75308733  0.24416834  0.75113030
   0.75084828  0.00716639  0.49594607
   0.50114588  0.24542018  0.49406701
   0.50871517  0.00069779  0.74925175
   0.99864548  0.00347270  0.25184290
   0.50242219  0.24157798  0.00310358
   0.25846345  0.74917320  0.24810804
   0.24183216  0.50016576  0.99590333
   0.00170419  0.74277703  0.00386137
   0.74316039  0.74995414  0.25138870
   0.76155798  0.49715093  0.00674408
   0.49491609  0.49805254  0.25069343
   0.24966924  0.24675343  0.74860277
   0.26081498  0.99909360  0.51025611
   0.00334184  0.24801908  0.50062900
   0.24298202  0.75703847  0.75175766
   0.25500213  0.50155045  0.50053138
   0.00148732  0.75651469  0.50109581
   0.00097744  0.50082896  0.75372018
   0.74806629  0.76049942  0.74888005
   0.74777948  0.49497703  0.50416144
   0.49753723  0.76269694  0.48856691
   0.50170277  0.50301718  0.74471915
   0.52401628  0.01094369  0.97914379
   0.99662523  0.51194070  0.97931126
   0.49542468  0.72826118  0.26156740
   0.22705947  0.01271850  0.74604526
   0.47721964  0.98966421  0.49949915
   0.72807298  0.97693221  0.78098093
   0.00623468  0.76876214  0.25657763
   0.73267178  0.51009743  0.25374114
   0.02319616  0.00140192  0.49918161
   0.50716468  0.51828203  0.48928915
   0.75313662  0.51803954  0.76307971
   0.74536669  0.73624882  0.49252078
HECN                                    
           1
     8.769056    0.026190   -0.008315
     0.032434    8.800046    0.002463
     0.023126   -0.012740    8.761849
   Hf   Ta   Ti   N    C    Cr   Mo
   7   6   7  13  19   6   6
Direct configuration=    11
   0.99877127  0.99767688  0.99700704
   0.26667158  0.00044950  0.24369409
   0.24516420  0.49592913  0.24761600
   0.50027082  0.49888528  0.00150433
   0.50428417  0.24322918  0.74562682
  -0.00252755  0.50203560  0.50045293
   0.49492317  0.75990822  0.74937635
   0.99317811  0.23795220  0.25281829
   0.75337341  0.74747019  0.00871604
   0.00192916  0.25049122  0.74948327
   0.74942672  0.24479276  0.50260148
  -0.00038221  0.74936694  0.75043614
   0.25260976  0.49621162  0.74840946
   0.25560176  0.24400605  0.99149247
   0.50892668  0.25118374  0.24980234
   0.73828517  0.99048328  0.26427825
   0.74533188  0.24838405  0.99830728
   0.24551096  0.74778221  0.00103339
   0.25423556  0.24495563  0.50472277
   0.24994575  0.75275292  0.49823721
   0.25137120  0.24752004  0.24787681
   0.25451438  0.00162102  0.99421170
   0.00171655  0.25142754 -0.00007371
   0.74779264  0.24233254  0.24940926
   0.74786955  0.00159053  0.00279200
   0.50956715  0.00422131  0.24937565
   0.99690178  0.49037620  0.24678450
   0.50112645  0.75926982  0.00234156
   0.99155988  0.00360866  0.74579172
   0.75308733  0.24417143  0.75113325
   0.75082582  0.00715919  0.49596229
   0.50114144  0.24540051  0.49406692
   0.50870565  0.00070111  0.74923940
   0.99864078  0.00345820  0.25183924
   0.50242865  0.24158138  0.00310697
   0.25845957  0.74917726  0.24810792
   0.24183218  0.50016911  0.99590322
   0.00170706  0.74277686  0.00385961
   0.74316726  0.74995431  0.25139663
   0.76155797  0.49715080  0.00673095
   0.49492698  0.49806462  0.25070201
   0.24967178  0.24675424  0.74860126
   0.26080512  0.99909221  0.51025439
   0.00334275  0.24802510  0.50063133
   0.24298612  0.75703507  0.75175729
   0.25499909  0.50154976  0.50052815
   0.00149463  0.75650848  0.50110140
   0.00097379  0.50082639  0.75372113
   0.74806669  0.76049028  0.74888123
   0.74777959  0.49498697  0.50415183
   0.49753322  0.76269437  0.48857299
   0.50169075  0.50301635  0.74472472
   0.52401593  0.01095121  0.97914991
   0.99663265  0.51193405  0.97931515
   0.49544143  0.72827404  0.26156128
   0.22707873  0.01272002  0.74604751
   0.47721693  0.98965088  0.49948717
   0.72808918  0.97693652  0.78096647
   0.00622957  0.76878101  0.25657002
   0.73266614  0.51009272  0.25373677
   0.02320146  0.00140542  0.49918381
   0.50716277  0.51829838  0.48929457
   0.75311832  0.51804666  0.76306512
   0.74537308  0.73625054  0.49252275
HECN                                    
           1
     8.771061    0.026381   -0.009707
     0.032673    8.786708    0.002353
     0.021748   -0.012826    8.770220
   Hf   Ta   Ti   N    C    Cr   Mo
   7   6   7  13  19   6   6
Direct configuration=    12
   0.99961693  0.99738952  0.99733114
   0.26655947 -0.00003211  0.24468215
   0.24446774  0.49584621  0.24747614