 running   28 mpi-ranks, on    1 nodes
 distrk:  each k-point on   28 cores,    1 groups
 distr:  one band on    1 cores,   28 groups
 vasp.6.4.3 19Mar24 (build Sep 18 2024 11:30:23) complex                        
  
 POSCAR found type information on POSCAR TiTaNbN C ZrW 
 POSCAR found :  7 types and      64 ions
 Reading from existing POTCAR
 scaLAPACK will be used
 -----------------------------------------------------------------------------
|                                                                             |
|           W    W    AA    RRRRR   N    N  II  N    N   GGGG   !!!           |
|           W    W   A  A   R    R  NN   N  II  NN   N  G    G  !!!           |
|           W    W  A    A  R    R  N N  N  II  N N  N  G       !!!           |
|           W WW W  AAAAAA  RRRRR   N  N N  II  N  N N  G  GGG   !            |
|           WW  WW  A    A  R   R   N   NN  II  N   NN  G    G                |
|           W    W  A    A  R    R  N    N  II  N    N   GGGG   !!!           |
|                                                                             |
|     For optimal performance we recommend to set                             |
|       NCORE = 2 up to number-of-cores-per-socket                            |
|     NCORE specifies how many cores store one orbital (NPAR=cpu/NCORE).      |
|     This setting can greatly improve the performance of VASP for DFT.       |
|     The default, NCORE=1 might be grossly inefficient on modern             |
|     multi-core architectures or massively parallel machines. Do your        |
|     own testing! More info at https://www.vasp.at/wiki/index.php/NCORE      |
|     Unfortunately you need to use the default for GW and RPA                |
|     calculations (for HF NCORE is supported but not extensively tested      |
|     yet).                                                                   |
|                                                                             |
 -----------------------------------------------------------------------------

 Reading from existing POTCAR
 -----------------------------------------------------------------------------
|                                                                             |
|               ----> ADVICE to this user running VASP <----                  |
|                                                                             |
|     You have a (more or less) 'large supercell' and for larger cells it     |
|     might be more efficient to use real-space projection operators.         |
|     Therefore, try LREAL= Auto in the INCAR file.                           |
|     Mind: If you want to do very accurate calculations, keep the            |
|     reciprocal projection scheme (i.e. LREAL=.FALSE.).                      |
|                                                                             |
 -----------------------------------------------------------------------------

 LDA part: xc-table for (Slater+PW92), standard interpolation
 POSCAR, INCAR and KPOINTS ok, starting setup
 FFT: planning ... GRIDC
 FFT: planning ... GRID_SOFT
 FFT: planning ... GRID
 WAVECAR not read
 entering main loop
       N       E                     dE             d eps       ncg     rms          rms(c)
DAV:   1     0.588785928257E+04    0.58879E+04   -0.22317E+05  9408   0.143E+03
DAV:   2     0.145421994103E+03   -0.57424E+04   -0.55333E+04  9408   0.581E+02
DAV:   3    -0.694807874124E+03   -0.84023E+03   -0.80618E+03 14700   0.178E+02
DAV:   4    -0.780759682370E+03   -0.85952E+02   -0.84744E+02 16184   0.658E+01
DAV:   5    -0.789751893063E+03   -0.89922E+01   -0.89522E+01 18256   0.185E+01    0.607E+01
RMM:   6    -0.648512504109E+03    0.14124E+03   -0.58121E+02 13233   0.412E+01    0.182E+01
RMM:   7    -0.654857803361E+03   -0.63453E+01   -0.13988E+02 14045   0.252E+01    0.138E+01
RMM:   8    -0.656462793182E+03   -0.16050E+01   -0.62344E+01 15064   0.135E+01    0.922E+00
RMM:   9    -0.656823066737E+03   -0.36027E+00   -0.16766E+01 14808   0.759E+00    0.614E+00
RMM:  10    -0.657137773211E+03   -0.31471E+00   -0.85541E+00 14629   0.469E+00    0.335E+00
RMM:  11    -0.657565009731E+03   -0.42724E+00   -0.44671E+00 15496   0.333E+00    0.281E+00
RMM:  12    -0.657727573743E+03   -0.16256E+00   -0.33420E+00 15238   0.279E+00    0.169E+00
RMM:  13    -0.657942277237E+03   -0.21470E+00   -0.24326E+00 16165   0.222E+00    0.154E+00
RMM:  14    -0.658071522285E+03   -0.12925E+00   -0.16029E+00 14801   0.183E+00    0.143E+00
RMM:  15    -0.658112399944E+03   -0.40878E-01   -0.93189E-01 14782   0.164E+00    0.683E-01
RMM:  16    -0.658176744975E+03   -0.64345E-01   -0.83660E-01 16342   0.132E+00    0.328E-01
RMM:  17    -0.658231986672E+03   -0.55242E-01   -0.62377E-01 16731   0.114E+00    0.295E-01
RMM:  18    -0.658274507483E+03   -0.42521E-01   -0.47962E-01 16643   0.102E+00    0.304E-01
WARNING in EDDRMM: call to ZHEGV failed, returncode =   8  4      5
RMM:  19    -0.658307635654E+03   -0.33128E-01   -0.37642E-01 16589   0.924E-01    0.203E-01
RMM:  20    -0.658333183194E+03   -0.25548E-01   -0.30560E-01 16133   0.850E-01    0.246E-01
RMM:  21    -0.658355788301E+03   -0.22605E-01   -0.26047E-01 16531   0.769E-01    0.203E-01
RMM:  22    -0.658373899762E+03   -0.18111E-01   -0.21039E-01 16592   0.708E-01    0.155E-01
RMM:  23    -0.658389459767E+03   -0.15560E-01   -0.18005E-01 16691   0.649E-01    0.151E-01
RMM:  24    -0.658402629141E+03   -0.13169E-01   -0.15281E-01 16544   0.600E-01    0.382E-02
RMM:  25    -0.658413531632E+03   -0.10902E-01   -0.12748E-01 16623   0.547E-01    0.803E-02
RMM:  26    -0.658422712738E+03   -0.91811E-02   -0.10751E-01 16536   0.506E-01    0.590E-02
RMM:  27    -0.658430639764E+03   -0.79270E-02   -0.92860E-02 16492   0.467E-01    0.384E-02
RMM:  28    -0.658437330000E+03   -0.66902E-02   -0.78720E-02 15976   0.431E-01    0.113E-01
RMM:  29    -0.658444157131E+03   -0.68271E-02   -0.74276E-02 16417   0.427E-01    0.511E-01
RMM:  30    -0.658449201389E+03   -0.50443E-02   -0.60787E-02 16284   0.379E-01    0.536E-01
RMM:  31    -0.658453680028E+03   -0.44786E-02   -0.53387E-02 15953   0.350E-01    0.594E-01
RMM:  32    -0.658457611688E+03   -0.39317E-02   -0.46006E-02 15839   0.325E-01    0.657E-01
RMM:  33    -0.658460092917E+03   -0.24812E-02   -0.39570E-02 16271   0.304E-01    0.483E-01
RMM:  34    -0.658462577513E+03   -0.24846E-02   -0.33790E-02 16090   0.280E-01    0.406E-01
RMM:  35    -0.658464952227E+03   -0.23747E-02   -0.30100E-02 16036   0.256E-01    0.383E-01
RMM:  36    -0.658467101723E+03   -0.21495E-02   -0.25606E-02 16005   0.236E-01    0.433E-01
RMM:  37    -0.658468983344E+03   -0.18816E-02   -0.23111E-02 15531   0.217E-01    0.451E-01
RMM:  38    -0.658470418474E+03   -0.14351E-02   -0.19837E-02 15826   0.204E-01    0.401E-01
RMM:  39    -0.658471889158E+03   -0.14707E-02   -0.17925E-02 15407   0.187E-01    0.424E-01
RMM:  40    -0.658473108861E+03   -0.12197E-02   -0.15452E-02 15171   0.174E-01    0.430E-01
WARNING in EDDRMM: call to ZHEGV failed, returncode =   6  3      4
RMM:  41    -0.658474250024E+03   -0.11412E-02   -0.14067E-02 15029   0.162E-01    0.447E-01
RMM:  42    -0.658475269605E+03   -0.10196E-02   -0.12317E-02 14961   0.151E-01    0.475E-01
RMM:  43    -0.658475936159E+03   -0.66655E-03   -0.11257E-02 15554   0.144E-01    0.381E-01
RMM:  44    -0.658476557726E+03   -0.62157E-03   -0.98507E-03 15593   0.135E-01    0.293E-01
RMM:  45    -0.658477230536E+03   -0.67281E-03   -0.89967E-03 15126   0.122E-01    0.255E-01
RMM:  46    -0.658477843406E+03   -0.61287E-03   -0.76839E-03 14490   0.112E-01    0.256E-01
RMM:  47    -0.658478422177E+03   -0.57877E-03   -0.71208E-03 14355   0.103E-01    0.262E-01
RMM:  48    -0.658478917284E+03   -0.49511E-03   -0.62321E-03 14256   0.964E-02    0.266E-01
RMM:  49    -0.658479361069E+03   -0.44378E-03   -0.57584E-03 14196   0.900E-02    0.263E-01
RMM:  50    -0.658479768132E+03   -0.40706E-03   -0.50746E-03 14066   0.848E-02    0.268E-01
RMM:  51    -0.658480134183E+03   -0.36605E-03   -0.46857E-03 13956   0.792E-02    0.271E-01
RMM:  52    -0.658480468839E+03   -0.33466E-03   -0.42163E-03 13887   0.744E-02    0.279E-01
RMM:  53    -0.658480767126E+03   -0.29829E-03   -0.38750E-03 13766   0.695E-02    0.276E-01
RMM:  54    -0.658481056660E+03   -0.28953E-03   -0.35026E-03 13586   0.660E-02    0.292E-01
RMM:  55    -0.658481304735E+03   -0.24807E-03   -0.31828E-03 13455   0.611E-02    0.295E-01
RMM:  56    -0.658481576856E+03   -0.27212E-03   -0.29068E-03 13703   0.599E-02    0.328E-01
RMM:  57    -0.658481792539E+03   -0.21568E-03   -0.26431E-03 13456   0.561E-02    0.338E-01
RMM:  58    -0.658481979935E+03   -0.18740E-03   -0.23988E-03 12754   0.521E-02    0.341E-01
RMM:  59    -0.658482151722E+03   -0.17179E-03   -0.21858E-03 12979   0.494E-02    0.345E-01
RMM:  60    -0.658482311207E+03   -0.15949E-03   -0.19987E-03 12506   0.467E-02
 -----------------------------------------------------------------------------
|                                                                             |
|           W    W    AA    RRRRR   N    N  II  N    N   GGGG   !!!           |
|           W    W   A  A   R    R  NN   N  II  NN   N  G    G  !!!           |
|           W    W  A    A  R    R  N N  N  II  N N  N  G       !!!           |
|           W WW W  AAAAAA  RRRRR   N  N N  II  N  N N  G  GGG   !            |
|           WW  WW  A    A  R   R   N   NN  II  N   NN  G    G                |
|           W    W  A    A  R    R  N    N  II  N    N   GGGG   !!!           |
|                                                                             |
|     The electronic self-consistency was not achieved in the given           |
|     number of steps (NELM). The forces and other quantities evaluated       |
|     might not be reliable so examine the results carefully. If you find     |
|     spurious results, we suggest increasing NELM, if you were close to      |
|     convergence or switching to a different ALGO or adjusting the           |
|     density mixing parameters otherwise.                                    |
|                                                                             |
 -----------------------------------------------------------------------------

   1 F= -.65848231E+03 E0= -.65840007E+03  d E =-.658482E+03
 curvature:   0.00 expect dE= 0.000E+00 dE for cont linesearch  0.000E+00
 trial: gam= 0.00000 g(F)=  0.249E+01 g(S)=  0.210E+00 ort = 0.000E+00 (trialstep = 0.100E+01)
 search vector abs. value=  0.270E+01
 bond charge predicted
       N       E                     dE             d eps       ncg     rms          rms(c)
DAV:   1    -0.657073806143E+03    0.14083E+01   -0.40322E+02 10444   0.547E+01    0.644E+00
RMM:   2    -0.659606772909E+03   -0.25330E+01   -0.38449E+01 14086   0.168E+01    0.347E+00
RMM:   3    -0.660100863316E+03   -0.49409E+00   -0.73393E+00 15322   0.707E+00    0.357E+00
RMM:   4    -0.659950778557E+03    0.15008E+00   -0.14317E+00 14905   0.314E+00    0.144E+00
RMM:   5    -0.659970067340E+03   -0.19289E-01   -0.82619E-01 14917   0.162E+00    0.886E-01
RMM:   6    -0.659983103752E+03   -0.13036E-01   -0.27990E-01 15941   0.110E+00    0.631E-01
RMM:   7    -0.659994247399E+03   -0.11144E-01   -0.18455E-01 16441   0.716E-01    0.296E-01
RMM:   8    -0.660005909134E+03   -0.11662E-01   -0.12840E-01 16725   0.542E-01    0.239E-01
RMM:   9    -0.660013676029E+03   -0.77669E-02   -0.84535E-02 16700   0.443E-01    0.171E-01
RMM:  10    -0.660019469335E+03   -0.57933E-02   -0.62296E-02 16697   0.375E-01    0.114E-01
RMM:  11    -0.660023521934E+03   -0.40526E-02   -0.44540E-02 16707   0.319E-01    0.616E-02
RMM:  12    -0.660026503425E+03   -0.29815E-02   -0.32901E-02 16646   0.274E-01    0.529E-02
RMM:  13    -0.660028725421E+03   -0.22220E-02   -0.24545E-02 16161   0.237E-01    0.299E-02
RMM:  14    -0.660030338394E+03   -0.16130E-02   -0.17908E-02 16104   0.209E-01    0.241E-02
RMM:  15    -0.660031571004E+03   -0.12326E-02   -0.13700E-02 16081   0.183E-01    0.154E-02
RMM:  16    -0.660032488458E+03   -0.91745E-03   -0.10241E-02 15975   0.162E-01    0.174E-02
RMM:  17    -0.660033183269E+03   -0.69481E-03   -0.77703E-03 15976   0.143E-01    0.101E-02
RMM:  18    -0.660033711297E+03   -0.52803E-03   -0.59345E-03 15986   0.128E-01    0.792E-03
RMM:  19    -0.660034118078E+03   -0.40678E-03   -0.45897E-03 15899   0.114E-01    0.122E-02
RMM:  20    -0.660034427247E+03   -0.30917E-03   -0.35041E-03 15861   0.102E-01    0.684E-03
RMM:  21    -0.660034666439E+03   -0.23919E-03   -0.27183E-03 15816   0.919E-02    0.750E-03
RMM:  22    -0.660034850975E+03   -0.18454E-03   -0.21139E-03 15728   0.826E-02    0.785E-03
RMM:  23    -0.660034998696E+03   -0.14772E-03   -0.16841E-03 15664   0.752E-02    0.217E-02
RMM:  24    -0.660035110165E+03   -0.11147E-03   -0.13016E-03 15574   0.679E-02    0.241E-02
RMM:  25    -0.660035200202E+03   -0.90037E-04   -0.10645E-03 15412   0.620E-02    0.226E-02
RMM:  26    -0.660035268319E+03   -0.68118E-04   -0.82985E-04 15201   0.569E-02    0.176E-02
RMM:  27    -0.660035322672E+03   -0.54352E-04   -0.66869E-04 15015   0.524E-02    0.107E-02
RMM:  28    -0.660035367287E+03   -0.44615E-04   -0.55107E-04 14838   0.486E-02    0.691E-03
RMM:  29    -0.660035404362E+03   -0.37075E-04   -0.46198E-04 14608   0.450E-02    0.951E-03
RMM:  30    -0.660035432464E+03   -0.28102E-04   -0.36767E-04 14469   0.417E-02    0.896E-03
RMM:  31    -0.660035456849E+03   -0.24385E-04   -0.31957E-04 14183   0.389E-02    0.109E-02
RMM:  32    -0.660035476419E+03   -0.19569E-04   -0.26661E-04 14041   0.367E-02    0.104E-02
RMM:  33    -0.660035493300E+03   -0.16881E-04   -0.23611E-04 13757   0.344E-02    0.122E-02
RMM:  34    -0.660035506085E+03   -0.12786E-04   -0.19142E-04 13490   0.325E-02    0.120E-02
WARNING in EDDRMM: call to ZHEGV failed, returncode =   6  3      4
RMM:  35    -0.660035518764E+03   -0.12679E-04   -0.18604E-04 13053   0.308E-02    0.135E-02
RMM:  36    -0.660035527104E+03   -0.83401E-05   -0.14360E-04 12669   0.295E-02    0.123E-02
RMM:  37    -0.660035536202E+03   -0.90976E-05   -0.14666E-04 12201   0.283E-02    0.135E-02
RMM:  38    -0.660035541938E+03   -0.57365E-05   -0.11532E-04 11828   0.274E-02    0.122E-02
RMM:  39    -0.660035547567E+03   -0.56283E-05   -0.11156E-04 11501   0.267E-02    0.134E-02
RMM:  40    -0.660035551766E+03   -0.41992E-05   -0.95139E-05 11431   0.259E-02
   2 F= -.66003555E+03 E0= -.65996699E+03  d E =-.155324E+01
 trial-energy change:   -1.553241  1 .order   -1.518874   -2.702222   -0.335526
 step:   1.1291(harm=  1.1418)  dis= 0.07083  next Energy=  -660.057279 (dE=-0.157E+01)
 bond charge predicted
       N       E                     dE             d eps       ncg     rms          rms(c)
DAV:   1    -0.660002430725E+03    0.33117E-01   -0.67459E+00 12460   0.711E+00    0.838E-01
RMM:   2    -0.660046075064E+03   -0.43644E-01   -0.65993E-01 14048   0.222E+00    0.470E-01
RMM:   3    -0.660056432135E+03   -0.10357E-01   -0.14236E-01 15313   0.944E-01    0.499E-01
RMM:   4    -0.660054096611E+03    0.23355E-02   -0.26329E-02 15160   0.420E-01    0.212E-01
RMM:   5    -0.660054334145E+03   -0.23753E-03   -0.14026E-02 14958   0.213E-01    0.147E-01
RMM:   6    -0.660054449355E+03   -0.11521E-03   -0.51339E-03 15613   0.154E-01    0.945E-02
RMM:   7    -0.660054634772E+03   -0.18542E-03   -0.35438E-03 15953   0.104E-01    0.406E-02
RMM:   8    -0.660054856276E+03   -0.22150E-03   -0.24327E-03 15767   0.785E-02    0.326E-02
WARNING in EDDRMM: call to ZHEGV failed, returncode =   8  4      5
RMM:   9    -0.660055006714E+03   -0.15044E-03   -0.16313E-03 15106   0.660E-02    0.244E-02
RMM:  10    -0.660055120604E+03   -0.11389E-03   -0.11771E-03 14981   0.543E-02    0.186E-02
RMM:  11    -0.660055200883E+03   -0.80279E-04   -0.83692E-04 14652   0.472E-02    0.988E-03
RMM:  12    -0.660055257396E+03   -0.56512E-04   -0.61911E-04 14330   0.417E-02    0.745E-03
RMM:  13    -0.660055299004E+03   -0.41608E-04   -0.46775E-04 13981   0.358E-02    0.486E-03
RMM:  14    -0.660055329331E+03   -0.30327E-04   -0.34207E-04 13560   0.314E-02    0.417E-03
RMM:  15    -0.660055351809E+03   -0.22477E-04   -0.25242E-04 13223   0.279E-02    0.160E-03
RMM:  16    -0.660055367909E+03   -0.16100E-04   -0.18707E-04 12841   0.249E-02    0.212E-03
RMM:  17    -0.660055380367E+03   -0.12458E-04   -0.14487E-04 12509   0.222E-02    0.189E-03
RMM:  18    -0.660055389703E+03   -0.93361E-05   -0.11047E-04 12301   0.202E-02    0.319E-03
RMM:  19    -0.660055397051E+03   -0.73484E-05   -0.89296E-05 11920   0.183E-02
   3 F= -.66005540E+03 E0= -.65998949E+03  d E =-.157309E+01
 curvature:  -0.57 expect dE=-0.107E+01 dE for cont linesearch -0.118E-03
 trial: gam= 0.71035 g(F)=  0.397E+00 g(S)=  0.150E+01 ort =-0.237E-01 (trialstep = 0.859E+00)
 search vector abs. value=  0.323E+01
 bond charge predicted
       N       E                     dE             d eps       ncg     rms          rms(c)
DAV:   1    -0.659237791933E+03    0.81760E+00   -0.39783E+02 11116   0.605E+01    0.118E+01
RMM:   2    -0.660700958619E+03   -0.14632E+01   -0.51946E+01 13901   0.219E+01    0.805E+00
RMM:   3    -0.660546605232E+03    0.15435E+00   -0.14390E+01 14673   0.988E+00    0.532E+00
RMM:   4    -0.660302172883E+03    0.24443E+00   -0.36273E+00 15170   0.487E+00    0.258E+00
RMM:   5    -0.660256692837E+03    0.45480E-01   -0.12764E+00 15121   0.258E+00    0.198E+00
RMM:   6    -0.660239113870E+03    0.17579E-01   -0.57358E-01 15683   0.172E+00    0.106E+00
RMM:   7    -0.660243253890E+03   -0.41400E-02   -0.27553E-01 16302   0.106E+00    0.436E-01
RMM:   8    -0.660257787673E+03   -0.14534E-01   -0.17801E-01 16719   0.738E-01    0.329E-01
RMM:   9    -0.660266525005E+03   -0.87373E-02   -0.10680E-01 16639   0.597E-01    0.220E-01
RMM:  10    -0.660273893547E+03   -0.73685E-02   -0.84675E-02 16712   0.502E-01    0.129E-01
RMM:  11    -0.660278686134E+03   -0.47926E-02   -0.54430E-02 16721   0.428E-01    0.896E-02
RMM:  12    -0.660282446024E+03   -0.37599E-02   -0.42357E-02 16702   0.371E-01    0.786E-02
RMM:  13    -0.660285221247E+03   -0.27752E-02   -0.31256E-02 16438   0.324E-01    0.580E-02
RMM:  14    -0.660287303951E+03   -0.20827E-02   -0.23610E-02 16141   0.288E-01    0.415E-02
RMM:  15    -0.660288834476E+03   -0.15305E-02   -0.17450E-02 16170   0.258E-01    0.261E-02
RMM:  16    -0.660290067636E+03   -0.12332E-02   -0.13890E-02 16074   0.230E-01    0.244E-02
RMM:  17    -0.660291004198E+03   -0.93656E-03   -0.10621E-02 16040   0.207E-01    0.246E-02
RMM:  18    -0.660291762266E+03   -0.75807E-03   -0.86015E-03 15979   0.188E-01    0.382E-02
RMM:  19    -0.660292395858E+03   -0.63359E-03   -0.69724E-03 16000   0.171E-01    0.690E-02
RMM:  20    -0.660292873672E+03   -0.47781E-03   -0.55143E-03 15972   0.155E-01    0.710E-02
RMM:  21    -0.660293238536E+03   -0.36486E-03   -0.43023E-03 15954   0.142E-01    0.724E-02
WARNING in EDDRMM: call to ZHEGV failed, returncode =   6  3      2
RMM:  22    -0.660293548492E+03   -0.30996E-03   -0.36401E-03 15948   0.131E-01    0.793E-02
RMM:  23    -0.660293796324E+03   -0.24783E-03   -0.29716E-03 15932   0.121E-01    0.842E-02
RMM:  24    -0.660294010780E+03   -0.21446E-03   -0.27808E-03 15976   0.113E-01    0.589E-02
RMM:  25    -0.660294167751E+03   -0.15697E-03   -0.20118E-03 15923   0.106E-01    0.501E-02
RMM:  26    -0.660294322707E+03   -0.15496E-03   -0.19480E-03 15863   0.979E-02    0.471E-02
RMM:  27    -0.660294461164E+03   -0.13846E-03   -0.17104E-03 15687   0.915E-02    0.555E-02
RMM:  28    -0.660294570180E+03   -0.10902E-03   -0.14066E-03 15599   0.855E-02    0.598E-02
RMM:  29    -0.660294674730E+03   -0.10455E-03   -0.13649E-03 15393   0.805E-02    0.650E-02
RMM:  30    -0.660294762533E+03   -0.87804E-04   -0.11819E-03 15217   0.762E-02    0.655E-02
RMM:  31    -0.660294852392E+03   -0.89858E-04   -0.11757E-03 15078   0.723E-02    0.707E-02
RMM:  32    -0.660294922199E+03   -0.69807E-04   -0.96684E-04 14771   0.691E-02    0.735E-02
RMM:  33    -0.660294979696E+03   -0.57497E-04   -0.89651E-04 14387   0.662E-02    0.747E-02
RMM:  34    -0.660295046624E+03   -0.66929E-04   -0.97221E-04 13943   0.637E-02    0.725E-02
RMM:  35    -0.660295102232E+03   -0.55608E-04   -0.82020E-04 13694   0.610E-02    0.761E-02
RMM:  36    -0.660295154121E+03   -0.51889E-04   -0.81808E-04 13345   0.590E-02    0.738E-02
RMM:  37    -0.660295199359E+03   -0.45238E-04   -0.71529E-04 12619   0.571E-02    0.774E-02
RMM:  38    -0.660295242066E+03   -0.42706E-04   -0.70095E-04 12813   0.558E-02    0.771E-02
RMM:  39    -0.660295278582E+03   -0.36517E-04   -0.64170E-04 12086   0.539E-02    0.794E-02
RMM:  40    -0.660295316698E+03   -0.38116E-04   -0.67611E-04 12718   0.537E-02    0.751E-02
RMM:  41    -0.660295348137E+03   -0.31438E-04   -0.58094E-04 11398   0.520E-02    0.786E-02
RMM:  42    -0.660295376572E+03   -0.28435E-04   -0.56790E-04 11900   0.508E-02    0.782E-02
WARNING in EDDRMM: call to ZHEGV failed, returncode =   8  4      7
RMM:  43    -0.660295410946E+03   -0.34375E-04   -0.61665E-04 11723   0.496E-02    0.816E-02
RMM:  44    -0.660295433823E+03   -0.22877E-04   -0.53327E-04 11527   0.491E-02    0.807E-02
RMM:  45    -0.660295458183E+03   -0.24360E-04   -0.52137E-04 11459   0.483E-02    0.840E-02
RMM:  46    -0.660295479926E+03   -0.21743E-04   -0.49536E-04 11195   0.473E-02    0.830E-02
RMM:  47    -0.660295497654E+03   -0.17728E-04   -0.46144E-04 11826   0.472E-02    0.844E-02
RMM:  48    -0.660295516220E+03   -0.18565E-04   -0.47137E-04 10858   0.461E-02    0.835E-02
RMM:  49    -0.660295533153E+03   -0.16934E-04   -0.45079E-04 11159   0.456E-02    0.870E-02
RMM:  50    -0.660295547225E+03   -0.14072E-04   -0.43350E-04 10895   0.449E-02    0.854E-02
RMM:  51    -0.660295562568E+03   -0.15343E-04   -0.43887E-04 10790   0.446E-02    0.893E-02
RMM:  52    -0.660295582174E+03   -0.19606E-04   -0.47964E-04 10656   0.441E-02    0.885E-02
WARNING in EDDRMM: call to ZHEGV failed, returncode =   8  4      4
RMM:  53    -0.660295593358E+03   -0.11184E-04   -0.41895E-04 10359   0.433E-02    0.920E-02
RMM:  54    -0.660295604631E+03   -0.11273E-04   -0.40279E-04 10464   0.433E-02    0.907E-02
RMM:  55    -0.660295618099E+03   -0.13468E-04   -0.42630E-04 10160   0.428E-02    0.941E-02
RMM:  56    -0.660295627951E+03   -0.98517E-05   -0.40062E-04 10066   0.423E-02    0.927E-02
WARNING in EDDRMM: call to ZHEGV failed, returncode =   8  4      4
RMM:  57    -0.660295638420E+03   -0.10468E-04   -0.40867E-04 10032   0.422E-02    0.953E-02
RMM:  58    -0.660295645096E+03   -0.66760E-05   -0.36746E-04  9999   0.417E-02    0.941E-02
RMM:  59    -0.660295653714E+03   -0.86184E-05   -0.39226E-04 10141   0.414E-02    0.971E-02
RMM:  60    -0.660295657685E+03   -0.39711E-05   -0.34094E-04  9693   0.411E-02
 -----------------------------------------------------------------------------
|                                                                             |
|           W    W    AA    RRRRR   N    N  II  N    N   GGGG   !!!           |
|           W    W   A  A   R    R  NN   N  II  NN   N  G    G  !!!           |
|           W    W  A    A  R    R  N N  N  II  N N  N  G       !!!           |
|           W WW W  AAAAAA  RRRRR   N  N N  II  N  N N  G  GGG   !            |
|           WW  WW  A    A  R   R   N   NN  II  N   NN  G    G                |
|           W    W  A    A  R    R  N    N  II  N    N   GGGG   !!!           |
|                                                                             |
|     The electronic self-consistency was not achieved in the given           |
|     number of steps (NELM). The forces and other quantities evaluated       |
|     might not be reliable so examine the results carefully. If you find     |
|     spurious results, we suggest increasing NELM, if you were close to      |
|     convergence or switching to a different ALGO or adjusting the           |
|     density mixing parameters otherwise.                                    |
|                                                                             |
 -----------------------------------------------------------------------------

   4 F= -.66029566E+03 E0= -.66024050E+03  d E =-.240261E+00
 trial-energy change:   -0.240261  1 .order   -0.242794   -1.614697    1.129109
 step:   0.5057(harm=  0.5057)  dis= 0.03786  next Energy=  -660.530512 (dE=-0.475E+00)
 bond charge predicted
       N       E                     dE             d eps       ncg     rms          rms(c)
DAV:   1    -0.660393123267E+03   -0.97470E-01   -0.65864E+01 11760   0.247E+01    0.469E+00
RMM:   2    -0.660530749524E+03   -0.13763E+00   -0.81699E+00 13655   0.869E+00    0.289E+00
RMM:   3    -0.660596987887E+03   -0.66238E-01   -0.22370E+00 15089   0.404E+00    0.239E+00
RMM:   4    -0.660523884947E+03    0.73103E-01   -0.52384E-01 14936   0.191E+00    0.995E-01
RMM:   5    -0.660518764674E+03    0.51203E-02   -0.22679E-01 15104   0.991E-01    0.668E-01
RMM:   6    -0.660518542077E+03    0.22260E-03   -0.78094E-02 15547   0.654E-01    0.406E-01
RMM:   7    -0.660519362300E+03   -0.82022E-03   -0.41837E-02 16322   0.401E-01    0.172E-01
RMM:   8    -0.660521671874E+03   -0.23096E-02   -0.27567E-02 16704   0.279E-01    0.120E-01
RMM:   9    -0.660523102679E+03   -0.14308E-02   -0.16444E-02 16684   0.225E-01    0.821E-02
RMM:  10    -0.660524274803E+03   -0.11721E-02   -0.12611E-02 16657   0.187E-01    0.500E-02
RMM:  11    -0.660525056460E+03   -0.78166E-03   -0.86011E-03 16582   0.160E-01    0.408E-02
RMM:  12    -0.660525647244E+03   -0.59078E-03   -0.65720E-03 16245   0.137E-01    0.323E-02
RMM:  13    -0.660526083413E+03   -0.43617E-03   -0.48352E-03 15927   0.119E-01    0.247E-02
RMM:  14    -0.660526405805E+03   -0.32239E-03   -0.35638E-03 15877   0.105E-01    0.119E-02
RMM:  15    -0.660526644401E+03   -0.23860E-03   -0.26817E-03 15831   0.921E-02    0.119E-02
RMM:  16    -0.660526827813E+03   -0.18341E-03   -0.20567E-03 15759   0.811E-02    0.122E-02
RMM:  17    -0.660526970658E+03   -0.14285E-03   -0.15983E-03 15659   0.719E-02    0.215E-02
RMM:  18    -0.660527082214E+03   -0.11156E-03   -0.12570E-03 15576   0.639E-02    0.303E-02
RMM:  19    -0.660527166341E+03   -0.84127E-04   -0.95399E-04 15496   0.571E-02    0.354E-02
RMM:  20    -0.660527226516E+03   -0.60174E-04   -0.69604E-04 15346   0.514E-02    0.375E-02
RMM:  21    -0.660527270072E+03   -0.43557E-04   -0.49496E-04 15202   0.475E-02    0.412E-02
RMM:  22    -0.660527326355E+03   -0.56282E-04   -0.60384E-04 14932   0.427E-02    0.437E-02
RMM:  23    -0.660527358011E+03   -0.31656E-04   -0.36774E-04 14649   0.381E-02    0.464E-02
RMM:  24    -0.660527383851E+03   -0.25840E-04   -0.30051E-04 14334   0.343E-02    0.488E-02
RMM:  25    -0.660527401738E+03   -0.17887E-04   -0.21963E-04 14051   0.315E-02    0.484E-02
RMM:  26    -0.660527415858E+03   -0.14121E-04   -0.18757E-04 13509   0.291E-02    0.458E-02
RMM:  27    -0.660527424832E+03   -0.89733E-05   -0.15571E-04 13202   0.273E-02    0.390E-02
RMM:  28    -0.660527432138E+03   -0.73068E-05   -0.12356E-04 12627   0.257E-02    0.327E-02
RMM:  29    -0.660527439097E+03   -0.69588E-05   -0.10865E-04 12142   0.242E-02    0.293E-02
RMM:  30    -0.660527445286E+03   -0.61893E-05   -0.88634E-05 11472   0.232E-02
   5 F= -.66052745E+03 E0= -.66046969E+03  d E =-.472048E+00
 curvature:  -0.43 expect dE=-0.157E+00 dE for cont linesearch -0.122E-04
 trial: gam= 0.11301 g(F)=  0.346E+00 g(S)=  0.156E-01 ort =-0.950E-02 (trialstep = 0.789E+00)
 search vector abs. value=  0.400E+00
 bond charge predicted
       N       E                     dE             d eps       ncg     rms          rms(c)
DAV:   1    -0.660256300990E+03    0.27114E+00   -0.35941E+01 10360   0.171E+01    0.140E+00
RMM:   2    -0.660662688338E+03   -0.40639E+00   -0.46922E+00 14188   0.535E+00    0.695E-01
RMM:   3    -0.660730521721E+03   -0.67833E-01   -0.70194E-01 15167   0.192E+00    0.685E-01
RMM:   4    -0.660731696148E+03   -0.11744E-02   -0.10866E-01 15362   0.765E-01    0.407E-01
RMM:   5    -0.660731733375E+03   -0.37227E-04   -0.53231E-02 15133   0.447E-01    0.281E-01
RMM:   6    -0.660733076511E+03   -0.13431E-02   -0.33308E-02 14933   0.336E-01    0.143E-01
RMM:   7    -0.660734353361E+03   -0.12769E-02   -0.19304E-02 15972   0.226E-01    0.923E-02
RMM:   8    -0.660735363551E+03   -0.10102E-02   -0.13437E-02 16019   0.168E-01    0.574E-02
RMM:   9    -0.660736178038E+03   -0.81449E-03   -0.93284E-03 15732   0.139E-01    0.423E-02
RMM:  10    -0.660736702312E+03   -0.52427E-03   -0.59936E-03 15575   0.114E-01    0.331E-02
RMM:  11    -0.660737092623E+03   -0.39031E-03   -0.44920E-03 15290   0.976E-02    0.206E-02
RMM:  12    -0.660737377223E+03   -0.28460E-03   -0.31942E-03 15021   0.837E-02    0.132E-02
RMM:  13    -0.660737583173E+03   -0.20595E-03   -0.23259E-03 14814   0.728E-02    0.878E-03
RMM:  14    -0.660737741994E+03   -0.15882E-03   -0.17753E-03 14706   0.636E-02    0.811E-03
RMM:  15    -0.660737854709E+03   -0.11272E-03   -0.12746E-03 14599   0.558E-02    0.382E-03
RMM:  16    -0.660737941531E+03   -0.86822E-04   -0.97777E-04 14497   0.495E-02    0.384E-03
RMM:  17    -0.660738006787E+03   -0.65256E-04   -0.73909E-04 14311   0.438E-02    0.263E-03
RMM:  18    -0.660738056657E+03   -0.49870E-04   -0.56674E-04 14119   0.393E-02    0.233E-03
RMM:  19    -0.660738094158E+03   -0.37501E-04   -0.43001E-04 13842   0.350E-02    0.173E-03
RMM:  20    -0.660738123314E+03   -0.29156E-04   -0.33522E-04 13617   0.315E-02    0.193E-03
RMM:  21    -0.660738145616E+03   -0.22302E-04   -0.26021E-04 13287   0.284E-02    0.217E-03
RMM:  22    -0.660738162950E+03   -0.17334E-04   -0.20265E-04 13131   0.261E-02    0.590E-03
RMM:  23    -0.660738176976E+03   -0.14026E-04   -0.16655E-04 12813   0.237E-02    0.654E-03
RMM:  24    -0.660738187125E+03   -0.10149E-04   -0.12774E-04 12551   0.218E-02    0.605E-03
RMM:  25    -0.660738195847E+03   -0.87216E-05   -0.10909E-04 12182   0.203E-02    0.504E-03
RMM:  26    -0.660738202316E+03   -0.64693E-05   -0.84341E-05 11775   0.190E-02
   6 F= -.66073820E+03 E0= -.66068234E+03  d E =-.210757E+00
 trial-energy change:   -0.210757  1 .order   -0.209414   -0.284126   -0.134702
 step:   1.4360(harm=  1.4995)  dis= 0.04379  next Energy=  -660.794232 (dE=-0.267E+00)
 bond charge predicted
       N       E                     dE             d eps       ncg     rms          rms(c)
DAV:   1    -0.660468951712E+03    0.26924E+00   -0.24163E+01 10752   0.141E+01    0.115E+00
RMM:   2    -0.660744290538E+03   -0.27534E+00   -0.31843E+00 14220   0.440E+00    0.572E-01
RMM:   3    -0.660789444023E+03   -0.45153E-01   -0.47182E-01 15205   0.157E+00    0.550E-01
RMM:   4    -0.660790578615E+03   -0.11346E-02   -0.75148E-02 15376   0.632E-01    0.334E-01
RMM:   5    -0.660790679239E+03   -0.10062E-03   -0.36865E-02 15207   0.374E-01    0.226E-01
RMM:   6    -0.660791718739E+03   -0.10395E-02   -0.23334E-02 14983   0.279E-01    0.116E-01
WARNING in EDDRMM: call to ZHEGV failed, returncode =   6  3      5
RMM:   7    -0.660792636858E+03   -0.91812E-03   -0.13728E-02 15959   0.189E-01    0.761E-02
RMM:   8    -0.660793366287E+03   -0.72943E-03   -0.96235E-03 15921   0.143E-01    0.463E-02
RMM:   9    -0.660793946022E+03   -0.57974E-03   -0.65962E-03 15669   0.118E-01    0.356E-02
RMM:  10    -0.660794319865E+03   -0.37384E-03   -0.42971E-03 15371   0.975E-02    0.265E-02
RMM:  11    -0.660794598792E+03   -0.27893E-03   -0.32090E-03 14976   0.839E-02    0.176E-02
RMM:  12    -0.660794804442E+03   -0.20565E-03   -0.23181E-03 14832   0.719E-02    0.976E-03
RMM:  13    -0.660794953682E+03   -0.14924E-03   -0.16889E-03 14558   0.630E-02    0.777E-03
RMM:  14    -0.660795068769E+03   -0.11509E-03   -0.12925E-03 14466   0.551E-02    0.646E-03
RMM:  15    -0.660795151204E+03   -0.82434E-04   -0.93579E-04 14283   0.487E-02    0.330E-03
RMM:  16    -0.660795215024E+03   -0.63820E-04   -0.72170E-04 14192   0.433E-02    0.299E-03
RMM:  17    -0.660795263397E+03   -0.48373E-04   -0.55141E-04 13993   0.386E-02    0.233E-03
RMM:  18    -0.660795299859E+03   -0.36462E-04   -0.41914E-04 13779   0.345E-02    0.191E-03
RMM:  19    -0.660795328493E+03   -0.28634E-04   -0.32949E-04 13471   0.310E-02    0.153E-03
WARNING in EDDRMM: call to ZHEGV failed, returncode =   6  3      4
RMM:  20    -0.660795349906E+03   -0.21413E-04   -0.25170E-04 13161   0.282E-02    0.171E-03
RMM:  21    -0.660795367233E+03   -0.17327E-04   -0.20328E-04 12946   0.256E-02    0.271E-03
RMM:  22    -0.660795380783E+03   -0.13550E-04   -0.16107E-04 12653   0.236E-02    0.542E-03
RMM:  23    -0.660795391143E+03   -0.10359E-04   -0.12788E-04 12336   0.216E-02    0.607E-03
RMM:  24    -0.660795399456E+03   -0.83134E-05   -0.10360E-04 11974   0.200E-02    0.639E-03
RMM:  25    -0.660795406350E+03   -0.68940E-05   -0.87586E-05 11558   0.186E-02
   7 F= -.66079541E+03 E0= -.66074141E+03  d E =-.267961E+00
 curvature:  -0.83 expect dE=-0.118E+00 dE for cont linesearch -0.140E-05
 trial: gam= 0.35687 g(F)=  0.114E+00 g(S)=  0.283E-01 ort = 0.823E-03 (trialstep = 0.918E+00)
 search vector abs. value=  0.194E+00
 bond charge predicted
       N       E                     dE             d eps       ncg     rms          rms(c)
DAV:   1    -0.660602265561E+03    0.19313E+00   -0.24131E+01 10192   0.137E+01    0.152E+00
RMM:   2    -0.660836279177E+03   -0.23401E+00   -0.30453E+00 14098   0.433E+00    0.870E-01
RMM:   3    -0.660877290275E+03   -0.41011E-01   -0.49511E-01 14990   0.169E+00    0.829E-01
RMM:   4    -0.660869542960E+03    0.77473E-02   -0.79599E-02 15150   0.710E-01    0.349E-01
RMM:   5    -0.660870565327E+03   -0.10224E-02   -0.44201E-02 14722   0.394E-01    0.256E-01
RMM:   6    -0.660870980628E+03   -0.41530E-03   -0.19542E-02 15113   0.277E-01    0.958E-02
RMM:   7    -0.660872295754E+03   -0.13151E-02   -0.15464E-02 16044   0.183E-01    0.556E-02
RMM:   8    -0.660873119742E+03   -0.82399E-03   -0.93934E-03 15917   0.142E-01    0.404E-02
RMM:   9    -0.660873755256E+03   -0.63551E-03   -0.69598E-03 15376   0.117E-01    0.296E-02
RMM:  10    -0.660874192224E+03   -0.43697E-03   -0.48352E-03 14844   0.981E-02    0.205E-02
RMM:  11    -0.660874519714E+03   -0.32749E-03   -0.36388E-03 14397   0.840E-02    0.125E-02
RMM:  12    -0.660874751888E+03   -0.23217E-03   -0.25889E-03 14135   0.721E-02    0.108E-02
WARNING in EDDRMM: call to ZHEGV failed, returncode =   8  4      5
RMM:  13    -0.660874923602E+03   -0.17171E-03   -0.19203E-03 13976   0.625E-02    0.742E-03
RMM:  14    -0.660875051450E+03   -0.12785E-03   -0.14347E-03 13863   0.544E-02    0.547E-03
RMM:  15    -0.660875146642E+03   -0.95193E-04   -0.10747E-03 13729   0.477E-02    0.270E-03
RMM:  16    -0.660875217210E+03   -0.70568E-04   -0.79974E-04 13566   0.419E-02    0.345E-03
RMM:  17    -0.660875270425E+03   -0.53215E-04   -0.60239E-04 13370   0.368E-02    0.229E-03
RMM:  18    -0.660875311158E+03   -0.40733E-04   -0.46170E-04 13092   0.329E-02    0.180E-03
RMM:  19    -0.660875341687E+03   -0.30528E-04   -0.34888E-04 12882   0.292E-02    0.176E-03
RMM:  20    -0.660875365037E+03   -0.23350E-04   -0.27005E-04 12588   0.261E-02    0.109E-03
RMM:  21    -0.660875382749E+03   -0.17712E-04   -0.20632E-04 12344   0.235E-02    0.139E-03
RMM:  22    -0.660875396350E+03   -0.13601E-04   -0.16210E-04 12063   0.215E-02    0.180E-03
RMM:  23    -0.660875406984E+03   -0.10634E-04   -0.12760E-04 11700   0.195E-02    0.195E-03
RMM:  24    -0.660875415356E+03   -0.83713E-05   -0.10225E-04 11461   0.180E-02    0.286E-03
RMM:  25    -0.660875421702E+03   -0.63465E-05   -0.80268E-05 11026   0.164E-02
   8 F= -.66087542E+03 E0= -.66082311E+03  d E =-.800154E-01
 trial-energy change:   -0.080015  1 .order   -0.078765   -0.131189   -0.026341
 step:   1.1301(harm=  1.1487)  dis= 0.02383  next Energy=  -660.878478 (dE=-0.831E-01)
 bond charge predicted
       N       E                     dE             d eps       ncg     rms          rms(c)
DAV:   1    -0.660863706936E+03    0.11708E-01   -0.12845E+00 11760   0.318E+00    0.353E-01
RMM:   2    -0.660876378481E+03   -0.12672E-01   -0.16487E-01 14122   0.101E+00    0.204E-01
RMM:   3    -0.660878630271E+03   -0.22518E-02   -0.27473E-02 15063   0.396E-01    0.194E-01
RMM:   4    -0.660878243261E+03    0.38701E-03   -0.45069E-03 15139   0.166E-01    0.820E-02
RMM:   5    -0.660878320911E+03   -0.77650E-04   -0.25771E-03 14607   0.953E-02    0.627E-02
RMM:   6    -0.660878352556E+03   -0.31645E-04   -0.12102E-03 14537   0.692E-02    0.217E-02
RMM:   7    -0.660878441168E+03   -0.88612E-04   -0.10121E-03 13453   0.490E-02    0.130E-02
RMM:   8    -0.660878495917E+03   -0.54749E-04   -0.61679E-04 12669   0.395E-02    0.961E-03
RMM:   9    -0.660878538870E+03   -0.42953E-04   -0.46097E-04 12277   0.318E-02    0.719E-03
RMM:  10    -0.660878568072E+03   -0.29202E-04   -0.31883E-04 12109   0.272E-02    0.509E-03
RMM:  11    -0.660878589743E+03   -0.21670E-04   -0.23959E-04 11872   0.232E-02    0.300E-03
RMM:  12    -0.660878604916E+03   -0.15173E-04   -0.17113E-04 11489   0.202E-02    0.243E-03
RMM:  13    -0.660878616144E+03   -0.11228E-04   -0.12857E-04 11229   0.178E-02    0.170E-03
RMM:  14    -0.660878624231E+03   -0.80871E-05   -0.95085E-05 10845   0.159E-02
   9 F= -.66087862E+03 E0= -.66082669E+03  d E =-.832179E-01
 curvature:  -0.78 expect dE=-0.571E-01 dE for cont linesearch -0.111E-05
 trial: gam= 0.46433 g(F)=  0.400E-01 g(S)=  0.336E-01 ort = 0.528E-03 (trialstep = 0.960E+00)
 search vector abs. value=  0.116E+00
 bond charge predicted
       N       E                     dE             d eps       ncg     rms          rms(c)
DAV:   1    -0.660782243529E+03    0.96373E-01   -0.16135E+01 11172   0.121E+01    0.179E+00
RMM:   2    -0.660886201239E+03   -0.10396E+00   -0.20473E+00 13942   0.403E+00    0.106E+00
RMM:   3    -0.660911806618E+03   -0.25605E-01   -0.45155E-01 14951   0.178E+00    0.990E-01
RMM:   4    -0.660903427902E+03    0.83787E-02   -0.10446E-01 14905   0.826E-01    0.414E-01
RMM:   5    -0.660903823211E+03   -0.39531E-03   -0.47583E-02 14705   0.416E-01    0.291E-01
RMM:   6    -0.660903926197E+03   -0.10299E-03   -0.16707E-02 15164   0.283E-01    0.181E-01
RMM:   7    -0.660904209838E+03   -0.28364E-03   -0.10347E-02 16082   0.178E-01    0.612E-02
RMM:   8    -0.660904799171E+03   -0.58933E-03   -0.69693E-03 16416   0.127E-01    0.432E-02
RMM:   9    -0.660905162891E+03   -0.36372E-03   -0.42445E-03 15945   0.101E-01    0.298E-02
RMM:  10    -0.660905444465E+03   -0.28157E-03   -0.32450E-03 15642   0.844E-02    0.171E-02
RMM:  11    -0.660905636563E+03   -0.19210E-03   -0.21786E-03 15265   0.703E-02    0.117E-02
RMM:  12    -0.660905780847E+03   -0.14428E-03   -0.16114E-03 14671   0.611E-02    0.878E-03
RMM:  13    -0.660905886370E+03   -0.10552E-03   -0.11834E-03 14406   0.529E-02    0.622E-03
RMM:  14    -0.660905964708E+03   -0.78338E-04   -0.87721E-04 14158   0.463E-02    0.477E-03
RMM:  15    -0.660906021963E+03   -0.57255E-04   -0.64569E-04 13929   0.407E-02    0.324E-03
WARNING in EDDRMM: call to ZHEGV failed, returncode =   6  3      3
RMM:  16    -0.660906065909E+03   -0.43946E-04   -0.49026E-04 13714   0.361E-02    0.231E-03
RMM:  17    -0.660906098892E+03   -0.32983E-04   -0.37144E-04 13460   0.321E-02    0.191E-03
RMM:  18    -0.660906123800E+03   -0.24907E-04   -0.28282E-04 13152   0.287E-02    0.124E-03
RMM:  19    -0.660906142841E+03   -0.19041E-04   -0.21932E-04 12844   0.259E-02    0.123E-03
RMM:  20    -0.660906157802E+03   -0.14961E-04   -0.17403E-04 12489   0.235E-02    0.996E-04
RMM:  21    -0.660906169176E+03   -0.11374E-04   -0.13595E-04 12271   0.216E-02    0.131E-03
RMM:  22    -0.660906178493E+03   -0.93171E-05   -0.11127E-04 11975   0.199E-02    0.282E-03
RMM:  23    -0.660906185620E+03   -0.71267E-05   -0.87808E-05 11574   0.182E-02
  10 F= -.66090619E+03 E0= -.66085395E+03  d E =-.275614E-01
 trial-energy change:   -0.027561  1 .order   -0.027168   -0.070971    0.016635
 step:   0.7820(harm=  0.7781)  dis= 0.01131  next Energy=  -660.907729 (dE=-0.291E-01)
 bond charge predicted
       N       E                     dE             d eps       ncg     rms          rms(c)
DAV:   1    -0.660903556153E+03    0.26223E-02   -0.55622E-01 11536   0.224E+00    0.332E-01
RMM:   2    -0.660907013857E+03   -0.34577E-02   -0.69582E-02 13916   0.743E-01    0.195E-01
RMM:   3    -0.660907908283E+03   -0.89443E-03   -0.15293E-02 14958   0.330E-01    0.184E-01
RMM:   4    -0.660907600480E+03    0.30780E-03   -0.33843E-03 14743   0.151E-01    0.758E-02
RMM:   5    -0.660907612645E+03   -0.12165E-04   -0.15195E-03 14298   0.756E-02    0.514E-02
RMM:   6    -0.660907624225E+03   -0.11580E-04   -0.49494E-04 13931   0.507E-02    0.329E-02
RMM:   7    -0.660907634152E+03   -0.99272E-05   -0.27622E-04 12463   0.338E-02    0.113E-02
RMM:   8    -0.660907654015E+03   -0.19863E-04   -0.18027E-04 11369   0.241E-02    0.760E-03
RMM:   9    -0.663577283094E+03   -0.26696E+01   -0.26696E+01 11162   0.199E-02    0.888E-01
RMM:  10    -0.659796328594E+03    0.37810E+01   -0.76349E-05 10794   0.187E-02    0.135E-01
RMM:  11    -0.659796050605E+03    0.27799E-03   -0.45418E-05  9988   0.167E-02    0.133E-01
RMM:  12    -0.659796052653E+03   -0.20480E-05   -0.30815E-05  8289   0.126E-02
  11 F= -.65979605E+03 E0= -.65974409E+03  d E =0.108257E+01
 curvature:  -0.61 expect dE=-0.165E-01 dE for cont linesearch -0.370E-03
 ZBRENT: interpolating
 opt :   0.8402  next Energy=  -659.796297 (dE= 0.108E+01)
 bond charge predicted
       N       E                     dE             d eps       ncg     rms          rms(c)
DAV:   1    -0.659795998139E+03    0.52466E-04   -0.59435E-02 12208   0.731E-01    0.190E-01
RMM:   2    -0.659862274428E+03   -0.66276E-01   -0.11631E-02 13673   0.275E-01    0.194E-01
RMM:   3    -0.660395250498E+03   -0.53298E+00   -0.53143E+00 13624   0.204E-01    0.986E-02
RMM:   4    -0.660766646898E+03   -0.37140E+00   -0.37338E+00 14246   0.967E-02    0.759E-02
RMM:   5    -0.660846430952E+03   -0.79784E-01   -0.82573E-01 12699   0.640E-02    0.464E-02
RMM:   6    -0.660871612861E+03   -0.25182E-01   -0.26303E-01 12280   0.446E-02    0.284E-02
RMM:   7    -0.660884114163E+03   -0.12501E-01   -0.13103E-01 11750   0.352E-02    0.177E-02
RMM:   8    -0.660889798202E+03   -0.56840E-02   -0.61193E-02 10320   0.256E-02    0.104E-02
WARNING in EDDRMM: call to ZHEGV failed, returncode =   6  3      8
RMM:   9    -0.660892750855E+03   -0.29527E-02   -0.32211E-02  8757   0.206E-02    0.554E-03
RMM:  10    -0.660894888587E+03   -0.21377E-02   -0.23581E-02  6641   0.175E-02    0.387E-03
RMM:  11    -0.660896301649E+03   -0.14131E-02   -0.16048E-02  6173   0.153E-02    0.314E-03
RMM:  12    -0.660897438414E+03   -0.11368E-02   -0.13181E-02  5847   0.138E-02    0.235E-03
RMM:  13    -0.660898305263E+03   -0.86685E-03   -0.10355E-02  5902   0.120E-02    0.131E-03
RMM:  14    -0.660899001077E+03   -0.69581E-03   -0.85397E-03  5807   0.115E-02    0.988E-04
RMM:  15    -0.660899596852E+03   -0.59578E-03   -0.74393E-03  5655   0.102E-02    0.833E-04
RMM:  16    -0.660900081355E+03   -0.48450E-03   -0.62546E-03  5351   0.957E-03    0.751E-04
RMM:  17    -0.660900545542E+03   -0.46419E-03   -0.59867E-03  5054   0.846E-03    0.717E-04
RMM:  18    -0.660900917859E+03   -0.37232E-03   -0.50081E-03  4713   0.804E-03    0.661E-04
RMM:  19    -0.660901312606E+03   -0.39475E-03   -0.51835E-03  4395   0.721E-03    0.877E-04
RMM:  20    -0.660901620501E+03   -0.30789E-03   -0.42580E-03  4108   0.700E-03    0.191E-03
RMM:  21    -0.660901976214E+03   -0.35571E-03   -0.46977E-03  3790   0.638E-03    0.156E-03
RMM:  22    -0.660902244539E+03   -0.26832E-03   -0.37677E-03  3627   0.617E-03    0.109E-03
RMM:  23    -0.660902576702E+03   -0.33216E-03   -0.43713E-03  3450   0.567E-03    0.110E-03
RMM:  24    -0.660902819275E+03   -0.24257E-03   -0.34182E-03  3224   0.560E-03    0.129E-03
RMM:  25    -0.660903135210E+03   -0.31594E-03   -0.41201E-03  3421   0.513E-03    0.802E-04
RMM:  26    -0.660903359472E+03   -0.22426E-03   -0.31437E-03  3255   0.529E-03    0.105E-03
RMM:  27    -0.660903661854E+03   -0.30238E-03   -0.38950E-03  2767   0.469E-03    0.117E-03
RMM:  28    -0.660903871309E+03   -0.20946E-03   -0.29049E-03  2706   0.469E-03    0.144E-03
RMM:  29    -0.660904159720E+03   -0.28841E-03   -0.36664E-03  2526   0.437E-03    0.179E-03
RMM:  30    -0.660904355622E+03   -0.19590E-03   -0.26793E-03  2849   0.437E-03    0.160E-03
RMM:  31    -0.660904628075E+03   -0.27245E-03   -0.34181E-03  2729   0.427E-03    0.192E-03
RMM:  32    -0.660904810259E+03   -0.18218E-03   -0.24537E-03  2421   0.405E-03    0.213E-03
RMM:  33    -0.660905063859E+03   -0.25360E-03   -0.31428E-03  2345   0.388E-03    0.252E-03
RMM:  34    -0.660905231519E+03   -0.16766E-03   -0.22231E-03  2248   0.377E-03    0.284E-03
RMM:  35    -0.660905463263E+03   -0.23174E-03   -0.28406E-03  2221   0.362E-03    0.314E-03
RMM:  36    -0.660905615439E+03   -0.15218E-03   -0.19876E-03  2320   0.357E-03    0.327E-03
RMM:  37    -0.660905822795E+03   -0.20736E-03   -0.25179E-03  2350   0.346E-03    0.357E-03
RMM:  38    -0.660905958703E+03   -0.13591E-03   -0.17503E-03  2226   0.334E-03    0.399E-03
RMM:  39    -0.660906140068E+03   -0.18136E-03   -0.21854E-03  2168   0.318E-03    0.425E-03
RMM:  40    -0.660906259447E+03   -0.11938E-03   -0.15177E-03  2155   0.310E-03    0.463E-03
RMM:  41    -0.660906414426E+03   -0.15498E-03   -0.18561E-03  2107   0.297E-03    0.496E-03
RMM:  42    -0.660906517528E+03   -0.10310E-03   -0.12955E-03  2115   0.293E-03    0.525E-03
RMM:  43    -0.660906646947E+03   -0.12942E-03   -0.15429E-03  2085   0.277E-03    0.557E-03
RMM:  44    -0.660906734566E+03   -0.87618E-04   -0.10893E-03  2114   0.273E-03    0.583E-03
RMM:  45    -0.660906840340E+03   -0.10577E-03   -0.12569E-03  2088   0.260E-03    0.613E-03
RMM:  46    -0.660906913632E+03   -0.73292E-04   -0.90259E-04  2096   0.255E-03    0.640E-03
RMM:  47    -0.660906998431E+03   -0.84800E-04   -0.10056E-03  2098   0.245E-03    0.664E-03
RMM:  48    -0.660907058886E+03   -0.60454E-04   -0.73810E-04  2097   0.239E-03    0.697E-03
RMM:  49    -0.660907125737E+03   -0.66851E-04   -0.79151E-04  2094   0.229E-03    0.720E-03
RMM:  50    -0.660907174910E+03   -0.49173E-04   -0.59575E-04  2093   0.224E-03    0.740E-03
RMM:  51    -0.660907226870E+03   -0.51960E-04   -0.61448E-04  2095   0.215E-03    0.762E-03
RMM:  52    -0.660907266343E+03   -0.39473E-04   -0.47482E-04  2090   0.210E-03    0.786E-03
RMM:  53    -0.660907306234E+03   -0.39891E-04   -0.47128E-04  2096   0.204E-03    0.798E-03
RMM:  54    -0.660907337490E+03   -0.31256E-04   -0.37356E-04  2084   0.198E-03    0.816E-03
RMM:  55    -0.660907367767E+03   -0.30277E-04   -0.35725E-04  2093   0.192E-03    0.831E-03
RMM:  56    -0.660907392181E+03   -0.24415E-04   -0.29009E-04  2090   0.187E-03    0.846E-03
RMM:  57    -0.660907414913E+03   -0.22732E-04   -0.26780E-04  2125   0.179E-03    0.908E-03
RMM:  58    -0.660907433724E+03   -0.18811E-04   -0.22231E-04  2111   0.176E-03    0.922E-03
RMM:  59    -0.660907450609E+03   -0.16884E-04   -0.19862E-04  2095   0.170E-03    0.939E-03
RMM:  60    -0.660907464883E+03   -0.14274E-04   -0.16786E-04  2089   0.165E-03
 -----------------------------------------------------------------------------
|                                                                             |
|           W    W    AA    RRRRR   N    N  II  N    N   GGGG   !!!           |
|           W    W   A  A   R    R  NN   N  II  NN   N  G    G  !!!           |
|           W    W  A    A  R    R  N N  N  II  N N  N  G       !!!           |
|           W WW W  AAAAAA  RRRRR   N  N N  II  N  N N  G  GGG   !            |
|           WW  WW  A    A  R   R   N   NN  II  N   NN  G    G                |
|           W    W  A    A  R    R  N    N  II  N    N   GGGG   !!!           |
|                                                                             |
|     The electronic self-consistency was not achieved in the given           |
|     number of steps (NELM). The forces and other quantities evaluated       |
|     might not be reliable so examine the results carefully. If you find     |
|     spurious results, we suggest increasing NELM, if you were close to      |
|     convergence or switching to a different ALGO or adjusting the           |
|     density mixing parameters otherwise.                                    |
|                                                                             |
 -----------------------------------------------------------------------------

  12 F= -.66090746E+03 E0= -.66085528E+03  d E =-.288407E-01
 curvature:  -0.40 expect dE=-0.196E-01 dE for cont linesearch -0.111E-03
 trial: gam= 0.73827 g(F)=  0.202E-01 g(S)=  0.285E-01 ort =-0.566E-02 (trialstep = 0.936E+00)
 search vector abs. value=  0.104E+00
 bond charge predicted
       N       E                     dE             d eps       ncg     rms          rms(c)
DAV:   1    -0.660774218721E+03    0.13323E+00   -0.13578E+01 10192   0.107E+01    0.130E+00
RMM:   2    -0.660897571808E+03   -0.12335E+00   -0.17476E+00 13952   0.343E+00    0.761E-01
RMM:   3    -0.660922927574E+03   -0.25356E-01   -0.32843E-01 15053   0.146E+00    0.749E-01
RMM:   4    -0.660918135319E+03    0.47923E-02   -0.63633E-02 14962   0.630E-01    0.312E-01
RMM:   5    -0.660918901753E+03   -0.76643E-03   -0.31619E-02 14885   0.326E-01    0.224E-01
RMM:   6    -0.660919092381E+03   -0.19063E-03   -0.12126E-02 15034   0.235E-01    0.119E-01
RMM:   7    -0.660919630479E+03   -0.53810E-03   -0.84743E-03 16009   0.151E-01    0.445E-02
RMM:   8    -0.660920130880E+03   -0.50040E-03   -0.54158E-03 16035   0.110E-01    0.332E-02
RMM:   9    -0.660920460002E+03   -0.32912E-03   -0.35350E-03 15290   0.904E-02    0.247E-02
RMM:  10    -0.660920707737E+03   -0.24773E-03   -0.26290E-03 15047   0.746E-02    0.118E-02
RMM:  11    -0.660920872946E+03   -0.16521E-03   -0.18067E-03 14473   0.632E-02    0.106E-02
RMM:  12    -0.660920992134E+03   -0.11919E-03   -0.13250E-03 14161   0.550E-02    0.701E-03
RMM:  13    -0.660921081499E+03   -0.89365E-04   -0.99327E-04 13878   0.480E-02    0.632E-03
RMM:  14    -0.660921147595E+03   -0.66097E-04   -0.73789E-04 13666   0.421E-02    0.284E-03
RMM:  15    -0.660921196637E+03   -0.49042E-04   -0.55594E-04 13437   0.373E-02    0.306E-03
RMM:  16    -0.660921233576E+03   -0.36939E-04   -0.42166E-04 13087   0.331E-02    0.198E-03
RMM:  17    -0.660921262180E+03   -0.28604E-04   -0.32800E-04 12755   0.299E-02    0.227E-03
RMM:  18    -0.660921283980E+03   -0.21799E-04   -0.25320E-04 12373   0.270E-02    0.195E-03
RMM:  19    -0.660921301345E+03   -0.17366E-04   -0.20461E-04 12155   0.245E-02    0.442E-03
RMM:  20    -0.660921314758E+03   -0.13413E-04   -0.16064E-04 11903   0.223E-02    0.385E-03
RMM:  21    -0.660921325395E+03   -0.10636E-04   -0.12861E-04 11679   0.205E-02    0.348E-03
RMM:  22    -0.660921334052E+03   -0.86571E-05   -0.10667E-04 11325   0.188E-02    0.292E-03
RMM:  23    -0.660921340693E+03   -0.66408E-05   -0.85256E-05 11035   0.175E-02
  13 F= -.66092134E+03 E0= -.66086977E+03  d E =-.138758E-01
 trial-energy change:   -0.013876  1 .order   -0.013524   -0.041674    0.014625
 step:   0.6998(harm=  0.6932)  dis= 0.01243  next Energy=  -660.923183 (dE=-0.157E-01)
 bond charge predicted
       N       E                     dE             d eps       ncg     rms          rms(c)
DAV:   1    -0.660913909209E+03    0.74248E-02   -0.86884E-01 10920   0.270E+00    0.331E-01
RMM:   2    -0.660921673086E+03   -0.77639E-02   -0.11087E-01 13874   0.873E-01    0.196E-01
RMM:   3    -0.660923388727E+03   -0.17156E-02   -0.22082E-02 14999   0.378E-01    0.190E-01
RMM:   4    -0.660923091506E+03    0.29722E-03   -0.41238E-03 14814   0.161E-01    0.799E-02
RMM:   5    -0.660923114077E+03   -0.22571E-04   -0.18389E-03 14592   0.812E-02    0.588E-02
WARNING in EDDRMM: call to ZHEGV failed, returncode =   8  4      7
RMM:   6    -0.660923102408E+03    0.11669E-04   -0.69745E-04 14229   0.587E-02    0.307E-02
RMM:   7    -0.660923120788E+03   -0.18380E-04   -0.45871E-04 13290   0.370E-02    0.113E-02
RMM:   8    -0.660923141907E+03   -0.21119E-04   -0.27800E-04 11739   0.292E-02    0.831E-03
RMM:   9    -0.660923154574E+03   -0.12667E-04   -0.17532E-04 11522   0.223E-02    0.612E-03
RMM:  10    -0.660923161827E+03   -0.72522E-05   -0.11177E-04 10733   0.180E-02    0.288E-03
RMM:  11    -0.660923167731E+03   -0.59046E-05   -0.75253E-05 10517   0.151E-02
  14 F= -.66092317E+03 E0= -.66087144E+03  d E =-.157028E-01
 curvature:  -0.81 expect dE=-0.159E-01 dE for cont linesearch -0.340E-05
 trial: gam= 0.25363 g(F)=  0.152E-01 g(S)=  0.460E-02 ort = 0.661E-03 (trialstep = 0.889E+00)
 search vector abs. value=  0.268E-01
 bond charge predicted
       N       E                     dE             d eps       ncg     rms          rms(c)
DAV:   1    -0.660893871063E+03    0.29291E-01   -0.31604E+00  9996   0.502E+00    0.547E-01
RMM:   2    -0.660927384814E+03   -0.33514E-01   -0.42737E-01 14064   0.158E+00    0.292E-01
RMM:   3    -0.660933789371E+03   -0.64046E-02   -0.73211E-02 15108   0.605E-01    0.270E-01
RMM:   4    -0.660933087512E+03    0.70186E-03   -0.97976E-03 15374   0.239E-01    0.127E-01
RMM:   5    -0.660933104481E+03   -0.16968E-04   -0.52824E-03 14871   0.136E-01    0.756E-02
RMM:   6    -0.660933206146E+03   -0.10166E-03   -0.27393E-03 14530   0.970E-02    0.361E-02
RMM:   7    -0.660933351147E+03   -0.14500E-03   -0.18064E-03 14665   0.698E-02    0.217E-02
RMM:   8    -0.660933457312E+03   -0.10616E-03   -0.12563E-03 13443   0.529E-02    0.141E-02
RMM:   9    -0.660933534375E+03   -0.77064E-04   -0.87207E-04 12791   0.435E-02    0.111E-02
RMM:  10    -0.660933590941E+03   -0.56566E-04   -0.63551E-04 12581   0.369E-02    0.661E-03
RMM:  11    -0.660933629568E+03   -0.38627E-04   -0.43943E-04 12611   0.318E-02    0.462E-03
RMM:  12    -0.660933658527E+03   -0.28959E-04   -0.32886E-04 12322   0.276E-02    0.307E-03
RMM:  13    -0.660933679551E+03   -0.21024E-04   -0.24025E-04 12182   0.242E-02    0.241E-03
RMM:  14    -0.660933695397E+03   -0.15846E-04   -0.18234E-04 11814   0.214E-02    0.186E-03
RMM:  15    -0.660933706997E+03   -0.11599E-04   -0.13556E-04 11492   0.194E-02    0.135E-03
RMM:  16    -0.660933716183E+03   -0.91861E-05   -0.10942E-04 11355   0.176E-02    0.555E-04
RMM:  17    -0.660933723011E+03   -0.68285E-05   -0.83197E-05 11099   0.159E-02
  15 F= -.66093372E+03 E0= -.66088257E+03  d E =-.105553E-01
 trial-energy change:   -0.010555  1 .order   -0.010541   -0.017738   -0.003345
 step:   1.0957(harm=  1.0957)  dis= 0.01068  next Energy=  -660.934098 (dE=-0.109E-01)
 bond charge predicted
       N       E                     dE             d eps       ncg     rms          rms(c)
DAV:   1    -0.660931945528E+03    0.17707E-02   -0.17051E-01 11060   0.116E+00    0.127E-01
RMM:   2    -0.660933789900E+03   -0.18444E-02   -0.23374E-02 14134   0.370E-01    0.687E-02
RMM:   3    -0.660934153533E+03   -0.36363E-03   -0.41890E-03 15139   0.144E-01    0.642E-02
RMM:   4    -0.660934119461E+03    0.34071E-04   -0.63459E-04 14255   0.590E-02    0.294E-02
RMM:   5    -0.660934129870E+03   -0.10409E-04   -0.39917E-04 12613   0.394E-02    0.175E-02
RMM:   6    -0.660934143595E+03   -0.13724E-04   -0.24121E-04 12124   0.296E-02    0.829E-03
RMM:   7    -0.660934156704E+03   -0.13109E-04   -0.15971E-04 11671   0.240E-02    0.528E-03
RMM:   8    -0.660934166467E+03   -0.97633E-05   -0.11458E-04 11272   0.178E-02    0.361E-03
RMM:   9    -0.660934172928E+03   -0.64611E-05   -0.78016E-05 10779   0.155E-02
  16 F= -.66093417E+03 E0= -.66088316E+03  d E =-.110052E-01
 curvature:  -0.74 expect dE=-0.610E-02 dE for cont linesearch -0.273E-08
 trial: gam= 0.43060 g(F)=  0.471E-02 g(S)=  0.359E-02 ort =-0.997E-05 (trialstep = 0.930E+00)
 search vector abs. value=  0.133E-01
 bond charge predicted
       N       E                     dE             d eps       ncg     rms          rms(c)
DAV:   1    -0.660918842153E+03    0.15324E-01   -0.16925E+00 10220   0.383E+00    0.518E-01
RMM:   2    -0.660934981021E+03   -0.16139E-01   -0.24269E-01 13876   0.127E+00    0.304E-01
RMM:   3    -0.660938966856E+03   -0.39858E-02   -0.52356E-02 15102   0.567E-01    0.291E-01
RMM:   4    -0.660938147663E+03    0.81919E-03   -0.90617E-03 14993   0.240E-01    0.119E-01
RMM:   5    -0.660938211182E+03   -0.63518E-04   -0.45141E-03 15129   0.128E-01    0.854E-02
RMM:   6    -0.660938222882E+03   -0.11700E-04   -0.18550E-03 15023   0.918E-02    0.498E-02
RMM:   7    -0.660938282757E+03   -0.59875E-04   -0.12853E-03 14893   0.627E-02    0.175E-02
RMM:   8    -0.660938358491E+03   -0.75735E-04   -0.90844E-04 13926   0.494E-02    0.127E-02
RMM:   9    -0.660938405885E+03   -0.47394E-04   -0.58206E-04 13288   0.396E-02    0.938E-03
RMM:  10    -0.660938441771E+03   -0.35885E-04   -0.44004E-04 13021   0.335E-02    0.544E-03
RMM:  11    -0.660938467987E+03   -0.26216E-04   -0.30869E-04 12852   0.289E-02    0.404E-03
RMM:  12    -0.660938487740E+03   -0.19753E-04   -0.22470E-04 12580   0.255E-02    0.300E-03
RMM:  13    -0.660938502421E+03   -0.14680E-04   -0.16724E-04 12256   0.223E-02    0.230E-03
RMM:  14    -0.660938512839E+03   -0.10418E-04   -0.12082E-04 11914   0.200E-02    0.146E-03
RMM:  15    -0.660938520470E+03   -0.76311E-05   -0.91365E-05 11672   0.180E-02
  17 F= -.66093852E+03 E0= -.66088746E+03  d E =-.434754E-02
 trial-energy change:   -0.004348  1 .order   -0.004152   -0.007719   -0.000586
 step:   0.9954(harm=  1.0068)  dis= 0.00846  next Energy=  -660.938541 (dE=-0.437E-02)
 bond charge predicted
       N       E                     dE             d eps       ncg     rms          rms(c)
DAV:   1    -0.660938476693E+03    0.36145E-04   -0.84677E-03 12208   0.268E-01    0.357E-02
RMM:   2    -0.660938562394E+03   -0.85700E-04   -0.12330E-03 14121   0.889E-02    0.211E-02
RMM:   3    -0.660938584644E+03   -0.22250E-04   -0.30245E-04 13640   0.405E-02    0.201E-02
WARNING in EDDRMM: call to ZHEGV failed, returncode =   8  4      6
RMM:   4    -0.660938583150E+03    0.14942E-05   -0.91261E-05 11632   0.239E-02
  18 F= -.66093858E+03 E0= -.66088752E+03  d E =-.441022E-02
 curvature:  -0.79 expect dE=-0.440E-02 dE for cont linesearch -0.133E-05
 trial: gam= 0.64692 g(F)=  0.238E-02 g(S)=  0.322E-02 ort = 0.150E-03 (trialstep = 0.943E+00)
 search vector abs. value=  0.113E-01
 bond charge predicted
       N       E                     dE             d eps       ncg     rms          rms(c)
DAV:   1    -0.660924854515E+03    0.13730E-01   -0.15200E+00 10192   0.380E+00    0.573E-01
RMM:   2    -0.660937434268E+03   -0.12580E-01   -0.22912E-01 13933   0.131E+00    0.333E-01
RMM:   3    -0.660941173709E+03   -0.37394E-02   -0.54374E-02 14955   0.599E-01    0.322E-01
RMM:   4    -0.660940227579E+03    0.94613E-03   -0.10720E-02 15025   0.265E-01    0.132E-01
RMM:   5    -0.660940280903E+03   -0.53325E-04   -0.48726E-03 14938   0.136E-01    0.922E-02
RMM:   6    -0.660940311654E+03   -0.30751E-04   -0.18880E-03 15291   0.968E-02    0.551E-02
RMM:   7    -0.660940371666E+03   -0.60012E-04   -0.12081E-03 15462   0.639E-02    0.181E-02
RMM:   8    -0.660940454298E+03   -0.82631E-04   -0.85171E-04 14435   0.477E-02    0.129E-02
RMM:   9    -0.660940507300E+03   -0.53002E-04   -0.53308E-04 13869   0.398E-02    0.971E-03
RMM:  10    -0.660940548215E+03   -0.40915E-04   -0.40635E-04 13418   0.329E-02    0.511E-03
RMM:  11    -0.660940575138E+03   -0.26923E-04   -0.27953E-04 13183   0.286E-02    0.460E-03
RMM:  12    -0.660940593676E+03   -0.18538E-04   -0.20421E-04 12836   0.249E-02    0.302E-03
RMM:  13    -0.660940607546E+03   -0.13870E-04   -0.15339E-04 12460   0.224E-02    0.257E-03
RMM:  14    -0.660940617176E+03   -0.96307E-05   -0.11004E-04 12098   0.198E-02    0.135E-03
RMM:  15    -0.660940624492E+03   -0.73159E-05   -0.83830E-05 11792   0.181E-02
  19 F= -.66094062E+03 E0= -.66088961E+03  d E =-.204134E-02
 trial-energy change:   -0.002041  1 .order   -0.001886   -0.005374    0.001602
 step:   0.7475(harm=  0.7267)  dis= 0.00603  next Energy=  -660.940789 (dE=-0.221E-02)
 bond charge predicted
       N       E                     dE             d eps       ncg     rms          rms(c)
DAV:   1    -0.660940186422E+03    0.43075E-03   -0.65929E-02 10192   0.791E-01    0.120E-01
RMM:   2    -0.660940728605E+03   -0.54218E-03   -0.98642E-03 13917   0.272E-01    0.702E-02
RMM:   3    -0.660940884283E+03   -0.15568E-03   -0.22682E-03 14732   0.123E-01    0.679E-02
RMM:   4    -0.660940834018E+03    0.50265E-04   -0.43248E-04 14261   0.542E-02    0.280E-02
RMM:   5    -0.660940827837E+03    0.61816E-05   -0.17087E-04 12569   0.283E-02    0.193E-02
RMM:   6    -0.660940822043E+03    0.57939E-05   -0.58677E-05 10778   0.198E-02
  20 F= -.66094082E+03 E0= -.66088978E+03  d E =-.223889E-02
 curvature:  -0.72 expect dE=-0.249E-02 dE for cont linesearch -0.115E-05
 trial: gam= 0.67136 g(F)=  0.165E-02 g(S)=  0.182E-02 ort = 0.135E-03 (trialstep = 0.904E+00)
 search vector abs. value=  0.876E-02
 bond charge predicted
       N       E                     dE             d eps       ncg     rms          rms(c)
DAV:   1    -0.660925834164E+03    0.14994E-01   -0.10651E+00 10192   0.310E+00    0.251E-01
RMM:   2    -0.660939955243E+03   -0.14121E-01   -0.16106E-01 14179   0.972E-01    0.116E-01
RMM:   3    -0.660942349388E+03   -0.23941E-02   -0.23344E-02 15192   0.347E-01    0.125E-01
RMM:   4    -0.660942381384E+03   -0.31996E-04   -0.31529E-03 15192   0.135E-01    0.713E-02
RMM:   5    -0.660942397714E+03   -0.16330E-04   -0.15505E-03 14512   0.752E-02    0.481E-02
RMM:   6    -0.660942421840E+03   -0.24125E-04   -0.88618E-04 14212   0.606E-02    0.293E-02
RMM:   7    -0.660942454586E+03   -0.32747E-04   -0.52617E-04 13329   0.404E-02    0.157E-02
RMM:   8    -0.660942478587E+03   -0.24001E-04   -0.36162E-04 12516   0.329E-02    0.890E-03
RMM:   9    -0.660942498522E+03   -0.19935E-04   -0.25615E-04 12190   0.258E-02    0.641E-03
RMM:  10    -0.660942511839E+03   -0.13317E-04   -0.16190E-04 11736   0.217E-02    0.402E-03
RMM:  11    -0.660942521428E+03   -0.95892E-05   -0.11616E-04 11490   0.178E-02    0.281E-03
RMM:  12    -0.660942527901E+03   -0.64726E-05   -0.80093E-05 10794   0.158E-02
  21 F= -.66094253E+03 E0= -.66089144E+03  d E =-.170586E-02
 trial-energy change:   -0.001706  1 .order   -0.001750   -0.003220   -0.000281
 step:   1.0002(harm=  0.9906)  dis= 0.00696  next Energy=  -660.942543 (dE=-0.172E-02)
 bond charge predicted
       N       E                     dE             d eps       ncg     rms          rms(c)
DAV:   1    -0.660942371210E+03    0.15022E-03   -0.12106E-02 12208   0.329E-01    0.263E-02
RMM:   2    -0.660942535210E+03   -0.16400E-03   -0.18527E-03 14149   0.105E-01    0.125E-02
RMM:   3    -0.660942568052E+03   -0.32842E-04   -0.33638E-04 13546   0.402E-02    0.134E-02
RMM:   4    -0.660942570957E+03   -0.29053E-05   -0.75634E-05 10775   0.209E-02
  22 F= -.66094257E+03 E0= -.66089147E+03  d E =-.174891E-02
 curvature:  -1.20 expect dE=-0.124E-02 dE for cont linesearch -0.186E-05
 trial: gam= 0.15837 g(F)=  0.795E-03 g(S)=  0.236E-03 ort =-0.116E-03 (trialstep = 0.923E+00)
 search vector abs. value=  0.121E-02
 bond charge predicted
       N       E                     dE             d eps       ncg     rms          rms(c)
DAV:   1    -0.660942173625E+03    0.39443E-03   -0.15652E-01 11844   0.122E+00    0.192E-01
RMM:   2    -0.660942972899E+03   -0.79927E-03   -0.18826E-02 13860   0.402E-01    0.120E-01
RMM:   3    -0.660943145412E+03   -0.17251E-03   -0.43932E-03 15072   0.180E-01    0.108E-01
RMM:   4    -0.660943007754E+03    0.13766E-03   -0.10903E-03 14598   0.868E-02    0.433E-02
RMM:   5    -0.660943014424E+03   -0.66701E-05   -0.57834E-04 14084   0.474E-02    0.302E-02
WARNING in EDDRMM: call to ZHEGV failed, returncode =   6  3      8
RMM:   6    -0.660943011810E+03    0.26148E-05   -0.20578E-04 12705   0.338E-02    0.170E-02
RMM:   7    -0.660943014700E+03   -0.28905E-05   -0.14239E-04 11084   0.231E-02    0.687E-03
RMM:   8    -0.660943019903E+03   -0.52025E-05   -0.96841E-05 10975   0.199E-02
  23 F= -.66094302E+03 E0= -.66089188E+03  d E =-.448946E-03
 trial-energy change:   -0.000449  1 .order   -0.000386   -0.000935    0.000163
 step:   0.8185(harm=  0.7867)  dis= 0.00127  next Energy=  -660.943029 (dE=-0.458E-03)
 bond charge predicted
       N       E                     dE             d eps       ncg     rms          rms(c)
DAV:   1    -0.660943023028E+03   -0.83277E-05   -0.21561E-03 12376   0.142E-01    0.224E-02
RMM:   2    -0.660943034128E+03   -0.11100E-04   -0.27030E-04 13356   0.480E-02    0.144E-02
RMM:   3    -0.660943034722E+03   -0.59457E-06   -0.58935E-05 10744   0.220E-02
  24 F= -.66094303E+03 E0= -.66089190E+03  d E =-.463765E-03
 curvature:  -0.45 expect dE=-0.603E-03 dE for cont linesearch -0.545E-06
 trial: gam= 1.38128 g(F)=  0.314E-03 g(S)=  0.104E-02 ort =-0.385E-04 (trialstep = 0.308E+00)
 search vector abs. value=  0.356E-02
 bond charge predicted
       N       E                     dE             d eps       ncg     rms          rms(c)
DAV:   1    -0.660942661258E+03    0.37287E-03   -0.49272E-02 10976   0.682E-01    0.719E-02
RMM:   2    -0.660943123688E+03   -0.46243E-03   -0.62376E-03 14016   0.211E-01    0.381E-02
RMM:   3    -0.660943224408E+03   -0.10072E-03   -0.12040E-03 15114   0.877E-02    0.381E-02
RMM:   4    -0.660943220984E+03    0.34236E-05   -0.22310E-04 13413   0.374E-02    0.183E-02
RMM:   5    -0.660943226165E+03   -0.51810E-05   -0.12280E-04 11209   0.240E-02    0.133E-02
WARNING in EDDRMM: call to ZHEGV failed, returncode =   8  4      6
RMM:   6    -0.660943229975E+03   -0.38103E-05   -0.60581E-05 10772   0.191E-02
  25 F= -.66094323E+03 E0= -.66089210E+03  d E =-.195253E-03
 trial-energy change:   -0.000195  1 .order   -0.000238   -0.000399   -0.000076
 step:   0.3802(harm=  0.3802)  dis= 0.00094  next Energy=  -660.943282 (dE=-0.247E-03)
 bond charge predicted
       N       E                     dE             d eps       ncg     rms          rms(c)
DAV:   1    -0.660943210394E+03    0.15771E-04   -0.27897E-03 11228   0.161E-01    0.165E-02
RMM:   2    -0.662104885452E+03   -0.11617E+01   -0.11617E+01 13517   0.513E-02    0.662E-01
RMM:   3    -0.659284984952E+03    0.28199E+01   -0.10744E-04 12246   0.278E-02    0.174E-01
RMM:   4    -0.659284773529E+03    0.21142E-03   -0.45033E-05  9974   0.206E-02    0.172E-01
RMM:   5    -0.659284767544E+03    0.59851E-05   -0.23227E-05  8056   0.136E-02
  26 F= -.65928477E+03 E0= -.65923379E+03  d E =0.165827E+01
 curvature:  -0.52 expect dE=-0.228E-02 dE for cont linesearch -0.536E-04
 ZBRENT: interpolating
 opt :   0.3287  next Energy=  -660.943233 (dE=-0.198E-03)
 bond charge predicted
       N       E                     dE             d eps       ncg     rms          rms(c)
DAV:   1    -0.659284788963E+03   -0.15433E-04   -0.14042E-03 10304   0.115E-01    0.174E-01
RMM:   2    -0.659283167990E+03    0.16210E-02   -0.78447E-03 13210   0.126E-01    0.920E-02
RMM:   3    -0.659283267113E+03   -0.99123E-04   -0.24320E-03 13398   0.949E-02    0.817E-02
RMM:   4    -0.659283220171E+03    0.46942E-04   -0.10324E-03 12278   0.569E-02    0.421E-02
RMM:   5    -0.659283216666E+03    0.35055E-05   -0.34922E-04 11294   0.315E-02    0.340E-02
RMM:   6    -0.659283182882E+03    0.33784E-04   -0.15778E-04 11241   0.221E-02    0.141E-02
RMM:   7    -0.659283186226E+03   -0.33443E-05   -0.96867E-05 10593   0.165E-02
  27 F= -.65928319E+03 E0= -.65923222E+03  d E =0.165985E+01
 curvature:  -0.03 expect dE=-0.243E-04 dE for cont linesearch -0.952E-10
 trial: gam= 0.96539 g(F)=  0.723E-03 g(S)=  0.234E-03 ort = 0.365E-05 (trialstep = 0.259E+00)
 search vector abs. value=  0.428E-02
 bond charge predicted
       N       E                     dE             d eps       ncg     rms          rms(c)
DAV:   1    -0.660053605559E+03   -0.77042E+00   -0.77466E+00 11032   0.618E-01    0.189E-01
RMM:   2    -0.660056770315E+03   -0.31648E-02   -0.58464E-02 13967   0.242E-01    0.110E-01
RMM:   3    -0.660058108704E+03   -0.13384E-02   -0.14992E-02 14709   0.126E-01    0.100E-01
RMM:   4    -0.660058334094E+03   -0.22539E-03   -0.43692E-03 13702   0.708E-02    0.540E-02
RMM:   5    -0.660058515145E+03   -0.18105E-03   -0.24660E-03 12307   0.388E-02    0.397E-02
RMM:   6    -0.660058604742E+03   -0.89597E-04   -0.13496E-03 12380   0.319E-02    0.160E-02
WARNING in EDDRMM: call to ZHEGV failed, returncode =   8  4      7
WARNING in EDDRMM: call to ZHEGV failed, returncode =   6  3      6
RMM:   7    -0.660058700447E+03   -0.95704E-04   -0.11169E-03 11307   0.208E-02    0.118E-02
RMM:   8    -0.660058754504E+03   -0.54058E-04   -0.74444E-04  9678   0.161E-02    0.613E-03
RMM:   9    -0.660058814499E+03   -0.59995E-04   -0.76280E-04  9768   0.142E-02    0.345E-03
RMM:  10    -0.660058854688E+03   -0.40189E-04   -0.53774E-04  7968   0.131E-02    0.345E-03
RMM:  11    -0.660058899803E+03   -0.45115E-04   -0.58991E-04  7922   0.113E-02    0.243E-03
RMM:  12    -0.660058931070E+03   -0.31267E-04   -0.43951E-04  7197   0.112E-02    0.786E-04
RMM:  13    -0.660058969653E+03   -0.38583E-04   -0.50992E-04  6957   0.998E-03    0.572E-04
RMM:  14    -0.660058997311E+03   -0.27658E-04   -0.39368E-04  6447   0.983E-03    0.451E-04
RMM:  15    -0.660059031615E+03   -0.34304E-04   -0.45810E-04  6298   0.892E-03    0.385E-04
RMM:  16    -0.660059057195E+03   -0.25580E-04   -0.36278E-04  5751   0.895E-03    0.296E-04
RMM:  17    -0.660059088246E+03   -0.31052E-04   -0.41577E-04  5490   0.796E-03    0.234E-04
RMM:  18    -0.660059112118E+03   -0.23872E-04   -0.33668E-04  5273   0.785E-03    0.199E-04
RMM:  19    -0.660059140833E+03   -0.28715E-04   -0.38278E-04  5255   0.745E-03    0.224E-04
RMM:  20    -0.660059163661E+03   -0.22828E-04   -0.31708E-04  5109   0.753E-03    0.192E-04
RMM:  21    -0.660059190089E+03   -0.26428E-04   -0.35068E-04  4993   0.684E-03    0.234E-04
RMM:  22    -0.660059211698E+03   -0.21609E-04   -0.29569E-04  4831   0.656E-03    0.484E-04
RMM:  23    -0.660059235896E+03   -0.24198E-04   -0.31874E-04  4711   0.614E-03    0.660E-04
RMM:  24    -0.660059256297E+03   -0.20401E-04   -0.27443E-04  4641   0.619E-03    0.762E-04
RMM:  25    -0.660059278397E+03   -0.22101E-04   -0.28869E-04  4515   0.587E-03    0.867E-04
RMM:  26    -0.660059297300E+03   -0.18903E-04   -0.25079E-04  4351   0.570E-03    0.964E-04
RMM:  27    -0.660059317121E+03   -0.19821E-04   -0.25675E-04  4320   0.545E-03    0.108E-03
RMM:  28    -0.660059334423E+03   -0.17302E-04   -0.22633E-04  4135   0.543E-03    0.117E-03
RMM:  29    -0.660059351990E+03   -0.17567E-04   -0.22612E-04  4118   0.519E-03    0.127E-03
RMM:  30    -0.660059367454E+03   -0.15464E-04   -0.20007E-04  3962   0.508E-03    0.135E-03
RMM:  31    -0.660059382789E+03   -0.15336E-04   -0.19575E-04  3977   0.489E-03    0.145E-03
RMM:  32    -0.660059396488E+03   -0.13699E-04   -0.17521E-04  3879   0.485E-03    0.154E-03
RMM:  33    -0.660059409617E+03   -0.13129E-04   -0.16659E-04  3800   0.466E-03    0.163E-03
RMM:  34    -0.660059421431E+03   -0.11814E-04   -0.15012E-04  3764   0.470E-03    0.172E-03
RMM:  35    -0.660059432481E+03   -0.11050E-04   -0.13947E-04  3691   0.445E-03    0.180E-03
RMM:  36    -0.660059442470E+03   -0.99890E-05   -0.12637E-04  3679   0.460E-03    0.186E-03
RMM:  37    -0.660059451670E+03   -0.92003E-05   -0.11575E-04  3653   0.438E-03    0.193E-03
RMM:  38    -0.660059459968E+03   -0.82982E-05   -0.10421E-04  3554   0.435E-03    0.199E-03
RMM:  39    -0.660059467454E+03   -0.74851E-05   -0.94045E-05  3584   0.426E-03
  28 F= -.66005947E+03 E0= -.66000847E+03  d E =-.776281E+00
 trial-energy change:   -0.776281  1 .order   -0.000122   -0.000249    0.000005
 step:   0.2593(harm=  0.2542)  dis= 0.00065  next Energy=  -660.059467 (dE=-0.776E+00)
 bond charge predicted
       N       E                     dE             d eps       ncg     rms          rms(c)
DAV:   1    -0.660226890262E+03   -0.16743E+00   -0.16643E+00  9044   0.429E-03    0.119E-01
RMM:   2    -0.660226845511E+03    0.44751E-04   -0.46159E-03 12744   0.481E-02    0.768E-02
RMM:   3    -0.660226917101E+03   -0.71590E-04   -0.14710E-03 12261   0.422E-02    0.577E-02
RMM:   4    -0.660226896924E+03    0.20178E-04   -0.34031E-04 10897   0.278E-02    0.334E-02
RMM:   5    -0.660226894012E+03    0.29124E-05   -0.15208E-04  9650   0.180E-02    0.153E-02
RMM:   6    -0.660226894439E+03   -0.42780E-06   -0.61205E-05  7013   0.133E-02
  29 F= -.66022689E+03 E0= -.66017601E+03  d E =-.943708E+00
 curvature:  -0.00 expect dE=-0.684E-07 dE for cont linesearch -0.141E-09
 trial: gam= 0.75265 g(F)=  0.786E-03 g(S)=  0.321E-03 ort = 0.988E-04 (trialstep = 0.259E+00)
 search vector abs. value=  0.368E-02
 bond charge predicted
       N       E                     dE             d eps       ncg     rms          rms(c)
DAV:   1    -0.660732586876E+03   -0.50569E+00   -0.36206E-02 10864   0.600E-01    0.988E-02
RMM:   2    -0.660863729547E+03   -0.13114E+00   -0.13145E+00 14029   0.250E-01    0.664E-02
RMM:   3    -0.660913694513E+03   -0.49965E-01   -0.49934E-01 14952   0.108E-01    0.549E-02
RMM:   4    -0.660928265010E+03   -0.14570E-01   -0.14711E-01 13582   0.570E-02    0.299E-02
RMM:   5    -0.660935638401E+03   -0.73734E-02   -0.74221E-02 11768   0.350E-02    0.226E-02
RMM:   6    -0.660938722235E+03   -0.30838E-02   -0.31429E-02 11304   0.270E-02    0.107E-02
RMM:   7    -0.660940426789E+03   -0.17046E-02   -0.17536E-02  9388   0.185E-02    0.568E-03
RMM:   8    -0.660941284156E+03   -0.85737E-03   -0.90127E-03  8776   0.155E-02    0.358E-03
RMM:   9    -0.660941799182E+03   -0.51503E-03   -0.55044E-03  6825   0.137E-02    0.235E-03
RMM:  10    -0.660942098361E+03   -0.29918E-03   -0.32751E-03  7086   0.122E-02    0.139E-03
RMM:  11    -0.660942289370E+03   -0.19101E-03   -0.21264E-03  6485   0.110E-02    0.858E-04
RMM:  12    -0.660942413232E+03   -0.12386E-03   -0.14080E-03  6458   0.106E-02    0.675E-04
RMM:  13    -0.660942512979E+03   -0.99747E-04   -0.11407E-03  6007   0.931E-03    0.464E-04
RMM:  14    -0.660942589538E+03   -0.76559E-04   -0.89316E-04  5828   0.927E-03    0.357E-04
RMM:  15    -0.660942658070E+03   -0.68531E-04   -0.80014E-04  5498   0.817E-03    0.258E-04
RMM:  16    -0.660942716818E+03   -0.58748E-04   -0.69232E-04  5174   0.785E-03    0.165E-04
RMM:  17    -0.660942767857E+03   -0.51039E-04   -0.60550E-04  5189   0.698E-03    0.161E-04
RMM:  18    -0.660942812813E+03   -0.44956E-04   -0.53541E-04  5079   0.689E-03    0.169E-04
RMM:  19    -0.660942851302E+03   -0.38490E-04   -0.46278E-04  4963   0.624E-03    0.252E-04
RMM:  20    -0.660942886588E+03   -0.35286E-04   -0.42313E-04  4772   0.604E-03    0.491E-04
RMM:  21    -0.660942916673E+03   -0.30085E-04   -0.36473E-04  4652   0.553E-03    0.596E-04
RMM:  22    -0.660942945345E+03   -0.28672E-04   -0.34443E-04  4538   0.537E-03    0.656E-04
RMM:  23    -0.660942969463E+03   -0.24117E-04   -0.29338E-04  4276   0.492E-03    0.719E-04
RMM:  24    -0.660942993156E+03   -0.23694E-04   -0.28456E-04  4185   0.484E-03    0.813E-04
RMM:  25    -0.660943012796E+03   -0.19639E-04   -0.23926E-04  4037   0.448E-03    0.825E-04
RMM:  26    -0.660943032446E+03   -0.19650E-04   -0.23555E-04  3940   0.444E-03    0.903E-04
RMM:  27    -0.660943048497E+03   -0.16051E-04   -0.19539E-04  3767   0.408E-03    0.967E-04
RMM:  28    -0.660943064669E+03   -0.16172E-04   -0.19320E-04  3600   0.401E-03    0.102E-03
RMM:  29    -0.660943077695E+03   -0.13026E-04   -0.15851E-04  3539   0.378E-03    0.109E-03
RMM:  30    -0.660943090924E+03   -0.13229E-04   -0.15758E-04  3404   0.373E-03    0.115E-03
RMM:  31    -0.660943101420E+03   -0.10496E-04   -0.12740E-04  3294   0.346E-03    0.120E-03
RMM:  32    -0.660943112107E+03   -0.10687E-04   -0.12714E-04  3254   0.348E-03    0.126E-03
RMM:  33    -0.660943120452E+03   -0.83452E-05   -0.10113E-04  3117   0.322E-03    0.132E-03
RMM:  34    -0.660943128828E+03   -0.83754E-05   -0.99768E-05  3100   0.327E-03
  30 F= -.66094313E+03 E0= -.66089200E+03  d E =-.716234E+00
 trial-energy change:   -0.716234  1 .order   -0.000063   -0.000306    0.000180
 step:   0.2593(harm=  0.1632)  dis= 0.00067  next Energy=  -660.943129 (dE=-0.716E+00)
 bond charge predicted
       N       E                     dE             d eps       ncg     rms          rms(c)
DAV:   1    -0.660943180675E+03   -0.60223E-04   -0.53251E-04  9072   0.311E-03    0.254E-03
RMM:   2    -0.660943180875E+03   -0.19924E-06   -0.18402E-06  2995   0.159E-03
  31 F= -.66094318E+03 E0= -.66089205E+03  d E =-.716286E+00
 curvature:  -0.00 expect dE=-0.641E-07 dE for cont linesearch -0.742E-08
 ZBRENT: interpolating
 opt :   0.1638  next Energy=  -660.943214 (dE=-0.716E+00)
 bond charge predicted
       N       E                     dE             d eps       ncg     rms          rms(c)
DAV:   1    -0.660943177594E+03    0.30810E-05   -0.49017E-03 10976   0.221E-01    0.263E-02
RMM:   2    -0.660943219698E+03   -0.42104E-04   -0.64312E-04 13864   0.696E-02    0.156E-02
RMM:   3    -0.660943229103E+03   -0.94043E-05   -0.13133E-04 12703   0.303E-02    0.154E-02
RMM:   4    -0.660943228314E+03    0.78825E-06   -0.32124E-05  9484   0.181E-02
  32 F= -.66094323E+03 E0= -.66089210E+03  d E =-.716334E+00
 curvature:  -0.26 expect dE=-0.253E-03 dE for cont linesearch -0.942E-05
 ZBRENT: interpolating
 opt :   0.0800  next Energy=  -660.943247 (dE=-0.716E+00)
 bond charge predicted
       N       E                     dE             d eps       ncg     rms          rms(c)
DAV:   1    -0.660943211628E+03    0.17475E-04   -0.37798E-03 10976   0.193E-01    0.254E-02
RMM:   2    -0.660943247883E+03   -0.36255E-04   -0.51917E-04 13828   0.633E-02    0.183E-02
RMM:   3    -0.660943253482E+03   -0.55991E-05   -0.10974E-04 12536   0.278E-02    0.146E-02
RMM:   4    -0.660943253904E+03   -0.42245E-06   -0.37711E-05  9798   0.178E-02
  33 F= -.66094325E+03 E0= -.66089212E+03  d E =-.716359E+00
 curvature:  -0.52 expect dE=-0.396E-03 dE for cont linesearch -0.423E-05
 ZBRENT: bisectioning
 opt :   0.0400  next Energy=  -660.943259 (dE=-0.716E+00)
 bond charge predicted
       N       E                     dE             d eps       ncg     rms          rms(c)
DAV:   1    -0.660943249890E+03    0.35920E-05   -0.87103E-04 11368   0.916E-02    0.124E-02
RMM:   2    -0.660943259698E+03   -0.98081E-05   -0.12366E-04 12767   0.310E-02    0.103E-02
RMM:   3    -0.660943261374E+03   -0.16766E-05   -0.33709E-05  9364   0.157E-02
  34 F= -.66094326E+03 E0= -.66089213E+03  d E =-.716367E+00
 curvature:  -0.62 expect dE=-0.429E-03 dE for cont linesearch -0.114E-05
 trial: gam= 0.64398 g(F)=  0.357E-03 g(S)=  0.333E-03 ort =-0.823E-04 (trialstep = 0.215E+00)
 search vector abs. value=  0.211E-02
 bond charge predicted
       N       E                     dE             d eps       ncg     rms          rms(c)
DAV:   1    -0.660943155773E+03    0.10392E-03   -0.14201E-02 10752   0.362E-01    0.308E-02
RMM:   2    -0.660943315095E+03   -0.15932E-03   -0.19016E-03 14016   0.108E-01    0.145E-02
RMM:   3    -0.660943341076E+03   -0.25981E-04   -0.27302E-04 13792   0.398E-02    0.139E-02
RMM:   4    -0.660943342126E+03   -0.10501E-05   -0.42715E-05 10299   0.183E-02
  35 F= -.66094334E+03 E0= -.66089222E+03  d E =-.807514E-04
 trial-energy change:   -0.000081  1 .order   -0.000083   -0.000137   -0.000029
 step:   0.2733(harm=  0.2733)  dis= 0.00068  next Energy=  -660.943349 (dE=-0.871E-04)
 bond charge predicted
       N       E                     dE             d eps       ncg     rms          rms(c)
DAV:   1    -0.660943340635E+03    0.44076E-06   -0.10472E-03 10920   0.957E-02    0.101E-02
RMM:   2    -0.660943354313E+03   -0.13678E-04   -0.15060E-04 12662   0.312E-02    0.723E-03
RMM:   3    -0.660943356990E+03   -0.26769E-05   -0.35058E-05  8884   0.149E-02
  36 F= -.66094336E+03 E0= -.66089225E+03  d E =-.956159E-04
 curvature:  -0.45 expect dE=-0.158E-03 dE for cont linesearch -0.246E-05
 ZBRENT: increasing intervall
 opt :   0.3891  next Energy=  -660.943366 (dE=-0.105E-03)
 bond charge predicted
       N       E                     dE             d eps       ncg     rms          rms(c)
DAV:   1    -0.660943306126E+03    0.48187E-04   -0.41373E-03 10752   0.194E-01    0.160E-02
RMM:   2    -0.660943358420E+03   -0.52294E-04   -0.59692E-04 13898   0.603E-02    0.823E-03
RMM:   3    -0.660943367816E+03   -0.93961E-05   -0.99451E-05 11674   0.229E-02
  37 F= -.66094337E+03 E0= -.66089227E+03  d E =-.106441E-03
 curvature:  -1.69 expect dE=-0.565E-03 dE for cont linesearch -0.625E-05
 ZBRENT: bracketing found
 ZBRENT: interpolating
 opt :   0.3367  next Energy=  -660.943370 (dE=-0.109E-03)
 bond charge predicted
       N       E                     dE             d eps       ncg     rms          rms(c)
DAV:   1    -0.660943359564E+03   -0.11445E-05   -0.85728E-04 10976   0.904E-02    0.868E-03
RMM:   2    -0.660943369390E+03   -0.98257E-05   -0.12230E-04 10760   0.266E-02    0.399E-03
RMM:   3    -0.660943369532E+03   -0.14267E-06   -0.15087E-05  5952   0.148E-02
  38 F= -.66094337E+03 E0= -.66089226E+03  d E =-.108158E-03
 curvature:  -0.62 expect dE=-0.171E-03 dE for cont linesearch -0.112E-04
 ZBRENT: interpolating
 opt :   0.3727  next Energy=  -660.943369 (dE=-0.107E-03)
 bond charge predicted
       N       E                     dE             d eps       ncg     rms          rms(c)
DAV:   1    -0.660943366663E+03    0.27272E-05   -0.38041E-04 10920   0.604E-02    0.512E-03
RMM:   2    -0.660943370992E+03   -0.43293E-05   -0.52363E-05 10265   0.179E-02
  39 F= -.66094337E+03 E0= -.66089227E+03  d E =-.109617E-03
 curvature:  -0.04 expect dE=-0.117E-04 dE for cont linesearch -0.104E-06
 ZBRENT: bisectioning
 opt :   0.3547  next Energy=  -660.943372 (dE=-0.111E-03)
 bond charge predicted
       N       E                     dE             d eps       ncg     rms          rms(c)
DAV:   1    -0.660943370872E+03   -0.42091E-05   -0.95303E-05 11760   0.310E-02    0.301E-03
RMM:   2    -0.660943371808E+03   -0.93624E-06   -0.90705E-06  5501   0.783E-03
  40 F= -.66094337E+03 E0= -.66089226E+03  d E =-.110433E-03
 curvature:  -0.46 expect dE=-0.124E-03 dE for cont linesearch -0.429E-05
 ZBRENT: interpolating
 opt :   0.3665  next Energy=  -660.943371 (dE=-0.110E-03)
 bond charge predicted
       N       E                     dE             d eps       ncg     rms          rms(c)
DAV:   1    -0.660943371798E+03   -0.92679E-06   -0.40682E-05  9380   0.213E-02    0.169E-03
RMM:   2    -0.660943372344E+03   -0.54602E-06   -0.53567E-06  5040   0.726E-03
  41 F= -.66094337E+03 E0= -.66089227E+03  d E =-.110970E-03
 curvature:  -0.02 expect dE=-0.675E-05 dE for cont linesearch -0.351E-12
 trial: gam=-0.02944 g(F)=  0.236E-03 g(S)=  0.402E-04 ort = 0.174E-06 (trialstep = 0.246E+00)
 search vector abs. value=  0.278E-03
 bond charge predicted
       N       E                     dE             d eps       ncg     rms          rms(c)
DAV:   1    -0.660943403139E+03   -0.31340E-04   -0.24965E-03 11452   0.153E-01    0.203E-02
RMM:   2    -0.660943421251E+03   -0.18112E-04   -0.30969E-04 13226   0.497E-02    0.126E-02
RMM:   3    -0.660943423432E+03   -0.21810E-05   -0.60043E-05 10586   0.225E-02
  42 F= -.66094342E+03 E0= -.66089232E+03  d E =-.510877E-04
 trial-energy change:   -0.000051  1 .order   -0.000055   -0.000068   -0.000041
 step:   0.6279(harm=  0.6279)  dis= 0.00040  next Energy=  -660.943459 (dE=-0.868E-04)
 bond charge predicted
       N       E                     dE             d eps       ncg     rms          rms(c)
DAV:   1    -0.660943413530E+03    0.77217E-05   -0.61164E-03 11676   0.237E-01    0.339E-02
RMM:   2    -0.660943454245E+03   -0.40716E-04   -0.73717E-04 13841   0.772E-02    0.198E-02
RMM:   3    -0.660943463951E+03   -0.97059E-05   -0.16390E-04 13416   0.340E-02    0.195E-02
RMM:   4    -0.660943461843E+03    0.21081E-05   -0.43680E-05 10905   0.199E-02
  43 F= -.66094346E+03 E0= -.66089235E+03  d E =-.894988E-04
 curvature:  -0.32 expect dE=-0.955E-05 dE for cont linesearch -0.189E-05
 trial: gam=-0.05065 g(F)=  0.287E-04 g(S)=  0.152E-05 ort = 0.408E-04 (trialstep = 0.322E+00)
 search vector abs. value=  0.268E-04
 reached required accuracy - stopping structural energy minimisation
