       N       E                     dE             d eps       ncg     rms          rms(c)
DAV:   1     0.422322415705E+04    0.42232E+04   -0.20924E+05  9408   0.131E+03
DAV:   2     0.162611677838E+03   -0.40606E+04   -0.39797E+04  8448   0.439E+02
DAV:   3    -0.528832887494E+03   -0.69144E+03   -0.66225E+03 12456   0.130E+02
DAV:   4    -0.616951381524E+03   -0.88118E+02   -0.85005E+02 12696   0.510E+01
DAV:   5    -0.626806806577E+03   -0.98554E+01   -0.94319E+01 13536   0.153E+01    0.764E+01
RMM:   6    -0.657128239242E+03   -0.30321E+02   -0.30835E+03 11731   0.863E+01    0.913E+01
RMM:   7    -0.507385427932E+03    0.14974E+03   -0.85153E+02 11919   0.415E+01    0.507E+01
RMM:   8    -0.468962039290E+03    0.38423E+02   -0.12633E+02 10823   0.249E+01    0.432E+01
RMM:   9    -0.458565934251E+03    0.10396E+02   -0.51671E+01 12478   0.754E+00    0.275E+01
RMM:  10    -0.457534903752E+03    0.10310E+01   -0.24133E+01 12022   0.512E+00    0.319E+01
RMM:  11    -0.454612419206E+03    0.29225E+01   -0.16246E+01 12178   0.510E+00    0.274E+01
RMM:  12    -0.452026956082E+03    0.25855E+01   -0.12512E+01 12172   0.381E+00    0.172E+01
RMM:  13    -0.452347375153E+03   -0.32042E+00   -0.90066E+00 12030   0.406E+00    0.165E+01
RMM:  14    -0.453195480856E+03   -0.84811E+00   -0.99901E+00 12060   0.422E+00    0.264E+01
RMM:  15    -0.452395035118E+03    0.80045E+00   -0.47332E+00 12090   0.311E+00    0.231E+01
RMM:  16    -0.450745670652E+03    0.16494E+01   -0.23112E+00 12095   0.212E+00    0.134E+01
RMM:  17    -0.450558606043E+03    0.18706E+00   -0.16832E+00 12191   0.145E+00    0.112E+01
RMM:  18    -0.450542178519E+03    0.16428E-01   -0.15546E+00 12154   0.133E+00    0.803E+00
RMM:  19    -0.450448933548E+03    0.93245E-01   -0.91083E-01 12168   0.926E-01    0.615E+00
RMM:  20    -0.450466209499E+03   -0.17276E-01   -0.63469E-01 12172   0.809E-01    0.684E+00
RMM:  21    -0.450448302638E+03    0.17907E-01   -0.42655E-01 12181   0.559E-01    0.628E+00
RMM:  22    -0.450340311297E+03    0.10799E+00   -0.36445E-01 12133   0.503E-01    0.356E+00
RMM:  23    -0.450313511578E+03    0.26800E-01   -0.42394E-01 12410   0.549E-01    0.197E+00
RMM:  24    -0.450326895878E+03   -0.13384E-01   -0.30892E-01 12356   0.409E-01    0.166E+00
RMM:  25    -0.450345711850E+03   -0.18816E-01   -0.17405E-01 12416   0.311E-01    0.275E+00
RMM:  26    -0.450334327760E+03    0.11384E-01   -0.12230E-01 12356   0.260E-01    0.110E+00
RMM:  27    -0.450334410143E+03   -0.82383E-04   -0.11149E-01 12335   0.281E-01    0.989E-01
RMM:  28    -0.450341913603E+03   -0.75035E-02   -0.91718E-02 12407   0.209E-01    0.126E+00
RMM:  29    -0.450344272045E+03   -0.23584E-02   -0.59550E-02 12184   0.152E-01    0.103E+00
RMM:  30    -0.450344837943E+03   -0.56590E-03   -0.44436E-02 12064   0.119E-01    0.298E-01
RMM:  31    -0.450347207196E+03   -0.23693E-02   -0.31852E-02 11653   0.906E-02    0.211E-01
RMM:  32    -0.450349462758E+03   -0.22556E-02   -0.27457E-02 11425   0.645E-02    0.116E-01
RMM:  33    -0.450351491548E+03   -0.20288E-02   -0.21103E-02 11647   0.672E-02    0.156E-01
RMM:  34    -0.450353049625E+03   -0.15581E-02   -0.17264E-02 11679   0.559E-02    0.117E-01
RMM:  35    -0.450354198463E+03   -0.11488E-02   -0.12738E-02 10783   0.422E-02    0.921E-02
RMM:  36    -0.450355141838E+03   -0.94337E-03   -0.10593E-02 10715   0.346E-02    0.689E-02
RMM:  37    -0.450355954533E+03   -0.81269E-03   -0.86302E-03 10622   0.286E-02    0.831E-02
RMM:  38    -0.450356621043E+03   -0.66651E-03   -0.72590E-03 10682   0.296E-02    0.795E-02
RMM:  39    -0.450357222622E+03   -0.60158E-03   -0.62142E-03 10506   0.259E-02    0.561E-02
RMM:  40    -0.450357697914E+03   -0.47529E-03   -0.48108E-03  8779   0.199E-02    0.672E-02
RMM:  41    -0.450358083773E+03   -0.38586E-03   -0.40444E-03  6393   0.159E-02    0.521E-02
RMM:  42    -0.450358400828E+03   -0.31705E-03   -0.34224E-03  7833   0.165E-02    0.244E-02
RMM:  43    -0.450358683712E+03   -0.28288E-03   -0.29544E-03  9133   0.163E-02    0.122E-02
RMM:  44    -0.450358923134E+03   -0.23942E-03   -0.24160E-03  7351   0.136E-02    0.101E-02
RMM:  45    -0.450359127694E+03   -0.20456E-03   -0.20623E-03  5663   0.110E-02    0.108E-02
RMM:  46    -0.450359299354E+03   -0.17166E-03   -0.17255E-03  5303   0.998E-03    0.180E-02
RMM:  47    -0.450359441155E+03   -0.14180E-03   -0.14475E-03  5649   0.832E-03    0.423E-03
RMM:  48    -0.450359565398E+03   -0.12424E-03   -0.12442E-03  5445   0.866E-03    0.633E-03
RMM:  49    -0.450359673639E+03   -0.10824E-03   -0.10873E-03  5396   0.935E-03    0.339E-03
RMM:  50    -0.450359762588E+03   -0.88949E-04   -0.89878E-04  4536   0.741E-03    0.274E-03
RMM:  51    -0.450359840611E+03   -0.78023E-04   -0.78412E-04  4377   0.636E-03    0.288E-03
RMM:  52    -0.450359907333E+03   -0.66723E-04   -0.66749E-04  4046   0.571E-03    0.450E-03
RMM:  53    -0.450359962855E+03   -0.55522E-04   -0.56596E-04  4424   0.525E-03    0.494E-03
RMM:  54    -0.450360012979E+03   -0.50124E-04   -0.50665E-04  4346   0.450E-03    0.420E-03
RMM:  55    -0.450360055430E+03   -0.42452E-04   -0.42910E-04  4171   0.463E-03    0.378E-03
RMM:  56    -0.450360092515E+03   -0.37085E-04   -0.37359E-04  4014   0.405E-03    0.379E-03
RMM:  57    -0.450360124289E+03   -0.31774E-04   -0.32028E-04  3913   0.392E-03    0.401E-03
RMM:  58    -0.450360152008E+03   -0.27718E-04   -0.27901E-04  3485   0.338E-03    0.471E-03
RMM:  59    -0.450360176220E+03   -0.24212E-04   -0.24437E-04  3498   0.337E-03    0.474E-03
RMM:  60    -0.450360196638E+03   -0.20418E-04   -0.20598E-04  3196   0.305E-03
   1 F= -.45036020E+03 E0= -.45003561E+03  d E =-.450360E+03
       N       E                     dE             d eps       ncg     rms          rms(c)
DAV:   1    -0.353901710222E+04   -0.30887E+04   -0.83893E+04  8064   0.951E+02    0.358E+02
RMM:   2    -0.140536828322E+04    0.21336E+04   -0.88706E+03 12239   0.275E+02    0.170E+02
RMM:   3    -0.669242843824E+03    0.73613E+03   -0.17703E+03  8552   0.143E+02    0.650E+01
RMM:   4    -0.634894504101E+03    0.34348E+02   -0.64684E+02  9907   0.623E+01    0.441E+01
RMM:   5    -0.613677768559E+03    0.21217E+02   -0.12745E+02 12078   0.289E+01    0.262E+01
RMM:   6    -0.603213441748E+03    0.10464E+02   -0.38393E+01 12689   0.147E+01    0.109E+01
RMM:   7    -0.605237693696E+03   -0.20243E+01   -0.17165E+01 13632   0.874E+00    0.113E+01
RMM:   8    -0.605486059085E+03   -0.24837E+00   -0.90623E+00 13698   0.639E+00    0.874E+00
RMM:   9    -0.605954454492E+03   -0.46840E+00   -0.42779E+00 13593   0.387E+00    0.556E+00
RMM:  10    -0.606464541963E+03   -0.51009E+00   -0.29590E+00 13759   0.315E+00    0.502E+00
RMM:  11    -0.606874161515E+03   -0.40962E+00   -0.22907E+00 13384   0.312E+00    0.434E+00
RMM:  12    -0.606806679325E+03    0.67482E-01   -0.95675E-01 13436   0.206E+00    0.207E+00
RMM:  13    -0.606836673889E+03   -0.29995E-01   -0.61225E-01 13622   0.165E+00    0.187E+00
RMM:  14    -0.606810957075E+03    0.25717E-01   -0.20239E-01 13532   0.103E+00    0.524E-01
RMM:  15    -0.606815047535E+03   -0.40905E-02   -0.83801E-02 13806   0.532E-01    0.494E-01
RMM:  16    -0.606814541755E+03    0.50578E-03   -0.31617E-02 13695   0.345E-01    0.239E-01
RMM:  17    -0.606814908203E+03   -0.36645E-03   -0.12994E-02 13688   0.207E-01    0.155E-01
RMM:  18    -0.606815032999E+03   -0.12480E-03   -0.52598E-03 13680   0.132E-01    0.108E-01
RMM:  19    -0.606815091702E+03   -0.58703E-04   -0.24694E-03 13286   0.936E-02    0.590E-02
RMM:  20    -0.606815138485E+03   -0.46783E-04   -0.11269E-03 12788   0.584E-02    0.317E-02
RMM:  21    -0.606815162135E+03   -0.23650E-04   -0.48472E-04 12313   0.426E-02    0.165E-02
RMM:  22    -0.606815177413E+03   -0.15278E-04   -0.24416E-04 11670   0.306E-02    0.101E-02
RMM:  23    -0.606815184591E+03   -0.71779E-05   -0.10849E-04  9715   0.221E-02    0.457E-03
RMM:  24    -0.606815189811E+03   -0.52195E-05   -0.65372E-05  8354   0.173E-02
   2 F= -.60681519E+03 E0= -.60675212E+03  d E =-.156455E+03
       N       E                     dE             d eps       ncg     rms          rms(c)
DAV:   1    -0.974078812536E+03   -0.36726E+03   -0.59678E+03  9432   0.266E+02    0.174E+02
RMM:   2    -0.132759964084E+04   -0.35352E+03   -0.31852E+03 10584   0.140E+02    0.103E+02
RMM:   3    -0.860146292022E+03    0.46745E+03   -0.10679E+03 11886   0.555E+01    0.697E+01
RMM:   4    -0.701150721760E+03    0.15900E+03   -0.18838E+02 11677   0.311E+01    0.467E+01
RMM:   5    -0.651396450755E+03    0.49754E+02   -0.13086E+02 12219   0.219E+01    0.201E+01
RMM:   6    -0.672223187373E+03   -0.20827E+02   -0.26235E+02 11918   0.258E+01    0.473E+01
RMM:   7    -0.648303745627E+03    0.23919E+02   -0.26637E+01  9934   0.139E+01    0.151E+01
RMM:   8    -0.646583253128E+03    0.17205E+01   -0.12374E+01 12202   0.638E+00    0.114E+01
RMM:   9    -0.645506455676E+03    0.10768E+01   -0.39523E+00 12214   0.370E+00    0.668E+00
RMM:  10    -0.645890317680E+03   -0.38386E+00   -0.61723E+00 12391   0.413E+00    0.801E+00
RMM:  11    -0.645758284573E+03    0.13203E+00   -0.14998E+00 12473   0.226E+00    0.731E+00
RMM:  12    -0.645307615112E+03    0.45067E+00   -0.54590E-01 11891   0.149E+00    0.413E+00
RMM:  13    -0.645180241990E+03    0.12737E+00   -0.53729E-01 12380   0.138E+00    0.226E+00
RMM:  14    -0.645168730042E+03    0.11512E-01   -0.27236E-01 12544   0.883E-01    0.158E+00
RMM:  15    -0.645180550642E+03   -0.11821E-01   -0.18989E-01 12417   0.821E-01    0.162E+00
RMM:  16    -0.645174643085E+03    0.59076E-02   -0.71715E-02 12439   0.417E-01    0.822E-01
RMM:  17    -0.645178110823E+03   -0.34677E-02   -0.35091E-02 12711   0.337E-01    0.834E-01
RMM:  18    -0.645174979526E+03    0.31313E-02   -0.18772E-02 12468   0.236E-01    0.391E-01
RMM:  19    -0.645173938751E+03    0.10408E-02   -0.77051E-03 12451   0.152E-01    0.228E-01
RMM:  20    -0.645174345458E+03   -0.40671E-03   -0.41144E-03 12247   0.102E-01    0.310E-01
RMM:  21    -0.645173799879E+03    0.54558E-03   -0.20502E-03 11854   0.772E-02    0.155E-01
RMM:  22    -0.645173739993E+03    0.59886E-04   -0.11281E-03 11658   0.521E-02    0.116E-01
RMM:  23    -0.645173819918E+03   -0.79925E-04   -0.18349E-03 11597   0.771E-02    0.113E-01
RMM:  24    -0.645173685824E+03    0.13409E-03   -0.36979E-04 10092   0.500E-02    0.297E-02
RMM:  25    -0.645173685337E+03    0.48645E-06   -0.13762E-04  9454   0.178E-02    0.268E-02
RMM:  26    -0.645173685356E+03   -0.18284E-07   -0.13214E-04 10266   0.185E-02    0.190E-02
RMM:  27    -0.645173682602E+03    0.27538E-05   -0.25305E-05  6122   0.120E-02
   3 F= -.64517368E+03 E0= -.64509044E+03  d E =-.194813E+03
       N       E                     dE             d eps       ncg     rms          rms(c)
DAV:   1    -0.647369187176E+03   -0.21955E+01   -0.37179E+01  8952   0.205E+01    0.111E+01
RMM:   2    -0.657733353858E+03   -0.10364E+02   -0.39020E+01  9632   0.143E+01    0.364E+01
RMM:   3    -0.646227026478E+03    0.11506E+02   -0.75714E+00  9396   0.735E+00    0.557E+00
RMM:   4    -0.645982659448E+03    0.24437E+00   -0.17726E+00 11737   0.245E+00    0.538E+00
RMM:   5    -0.645818135905E+03    0.16452E+00   -0.74269E-01 11127   0.171E+00    0.402E+00
RMM:   6    -0.645642500442E+03    0.17564E+00   -0.27569E-01 10609   0.126E+00    0.124E+00
RMM:   7    -0.645639640994E+03    0.28594E-02   -0.10308E-01 11919   0.768E-01    0.136E+00
RMM:   8    -0.645626061851E+03    0.13579E-01   -0.33125E-02 12014   0.413E-01    0.560E-01
RMM:   9    -0.645624096173E+03    0.19657E-02   -0.10888E-02 12407   0.195E-01    0.323E-01
RMM:  10    -0.645624683628E+03   -0.58745E-03   -0.46811E-03 12342   0.126E-01    0.347E-01
RMM:  11    -0.645624513936E+03    0.16969E-03   -0.23922E-03 12014   0.846E-02    0.208E-01
RMM:  12    -0.645625054603E+03   -0.54067E-03   -0.18507E-03 12133   0.718E-02    0.141E-01
RMM:  13    -0.645625515009E+03   -0.46041E-03   -0.18209E-03 11974   0.735E-02    0.135E-01
RMM:  14    -0.645625491290E+03    0.23719E-04   -0.95033E-04 11644   0.542E-02    0.779E-02
RMM:  15    -0.645625481172E+03    0.10118E-04   -0.45352E-04 11154   0.361E-02    0.331E-02
RMM:  16    -0.645625482755E+03   -0.15829E-05   -0.19206E-04 10451   0.251E-02    0.253E-02
RMM:  17    -0.645625483797E+03   -0.10424E-05   -0.67308E-05  8949   0.163E-02
   4 F= -.64562548E+03 E0= -.64554451E+03  d E =-.195265E+03
       N       E                     dE             d eps       ncg     rms          rms(c)
DAV:   1    -0.645904182493E+03   -0.27870E+00   -0.51322E+00  9048   0.765E+00    0.429E+00
RMM:   2    -0.647477501403E+03   -0.15733E+01   -0.51254E+00  9678   0.526E+00    0.137E+01
RMM:   3    -0.645732105777E+03    0.17454E+01   -0.11366E+00  9418   0.283E+00    0.184E+00
RMM:   4    -0.645717881732E+03    0.14224E-01   -0.26476E-01 11526   0.950E-01    0.234E+00
RMM:   5    -0.645681094793E+03    0.36787E-01   -0.10425E-01 11118   0.636E-01    0.129E+00
RMM:   6    -0.645662187406E+03    0.18907E-01   -0.37621E-02 11178   0.445E-01    0.452E-01
RMM:   7    -0.645662694444E+03   -0.50704E-03   -0.14999E-02 12104   0.280E-01    0.604E-01
RMM:   8    -0.645659869180E+03    0.28253E-02   -0.48752E-03 11584   0.161E-01    0.176E-01
RMM:   9    -0.645659727226E+03    0.14195E-03   -0.17200E-03 11906   0.743E-02    0.117E-01
RMM:  10    -0.645659808597E+03   -0.81371E-04   -0.69001E-04 11618   0.458E-02    0.119E-01
RMM:  11    -0.645659805136E+03    0.34609E-05   -0.34385E-04 10933   0.322E-02    0.734E-02
RMM:  12    -0.645659894950E+03   -0.89814E-04   -0.26972E-04 11021   0.285E-02    0.494E-02
RMM:  13    -0.645659977215E+03   -0.82266E-04   -0.26216E-04 11064   0.298E-02    0.385E-02
RMM:  14    -0.645659988703E+03   -0.11488E-04   -0.13808E-04 10256   0.220E-02    0.356E-02
RMM:  15    -0.645659984104E+03    0.45995E-05   -0.58197E-05  9024   0.165E-02
   5 F= -.64565998E+03 E0= -.64557981E+03  d E =-.195300E+03
       N       E                     dE             d eps       ncg     rms          rms(c)
DAV:   1    -0.643792535213E+03    0.18675E+01   -0.44570E+02  8160   0.737E+01    0.429E+00
RMM:   2    -0.648082763836E+03   -0.42902E+01   -0.46820E+01 12434   0.186E+01    0.446E+00
RMM:   3    -0.647846817228E+03    0.23595E+00   -0.43156E+00 12451   0.600E+00    0.468E+00
RMM:   4    -0.647629310362E+03    0.21751E+00   -0.10017E+00 13227   0.221E+00    0.199E+00
RMM:   5    -0.647621109787E+03    0.82006E-02   -0.49346E-01 12518   0.142E+00    0.224E+00
RMM:   6    -0.647599560495E+03    0.21549E-01   -0.28351E-01 12648   0.986E-01    0.179E+00
RMM:   7    -0.647566056369E+03    0.33504E-01   -0.10434E-01 12556   0.570E-01    0.705E-01
RMM:   8    -0.647567843133E+03   -0.17868E-02   -0.45909E-02 12658   0.392E-01    0.861E-01
RMM:   9    -0.647563359374E+03    0.44838E-02   -0.26552E-02 12643   0.275E-01    0.355E-01
RMM:  10    -0.647562633279E+03    0.72610E-03   -0.10321E-02 12652   0.168E-01    0.218E-01
RMM:  11    -0.647562794624E+03   -0.16134E-03   -0.43266E-03 12339   0.923E-02    0.195E-01
RMM:  12    -0.647562720389E+03    0.74235E-04   -0.21698E-03 12116   0.680E-02    0.104E-01
RMM:  13    -0.647562818666E+03   -0.98277E-04   -0.12654E-03 12071   0.533E-02    0.898E-02
RMM:  14    -0.647562863986E+03   -0.45320E-04   -0.64907E-04 11298   0.395E-02    0.837E-02
RMM:  15    -0.647562830098E+03    0.33888E-04   -0.31214E-04 10751   0.289E-02    0.242E-02
RMM:  16    -0.647563805483E+03   -0.97538E-03   -0.97980E-03  9621   0.214E-02    0.318E-02
RMM:  17    -0.647562868159E+03    0.93732E-03   -0.57191E-03  8439   0.233E-02    0.130E-02
RMM:  18    -0.647562832866E+03    0.35293E-04   -0.12229E-04  6547   0.126E-02    0.554E-03
RMM:  19    -0.647562835130E+03   -0.22641E-05   -0.55052E-05  6409   0.117E-02
   6 F= -.64756284E+03 E0= -.64749120E+03  d E =-.190285E+01
       N       E                     dE             d eps       ncg     rms          rms(c)
DAV:   1    -0.646807583597E+03    0.75525E+00   -0.11589E+02  8064   0.378E+01    0.223E+00
RMM:   2    -0.647945105543E+03   -0.11375E+01   -0.12361E+01 12187   0.979E+00    0.254E+00
RMM:   3    -0.647883026539E+03    0.62079E-01   -0.12311E+00 12364   0.317E+00    0.217E+00
RMM:   4    -0.647830037303E+03    0.52989E-01   -0.25058E-01 13093   0.109E+00    0.963E-01
RMM:   5    -0.647824090484E+03    0.59468E-02   -0.11373E-01 12517   0.627E-01    0.100E+00
RMM:   6    -0.647824735371E+03   -0.64489E-03   -0.72380E-02 12495   0.548E-01    0.109E+00
RMM:   7    -0.647813334092E+03    0.11401E-01   -0.27571E-02 12487   0.329E-01    0.285E-01
RMM:   8    -0.647813864237E+03   -0.53014E-03   -0.12087E-02 12554   0.186E-01    0.358E-01
RMM:   9    -0.647813288139E+03    0.57610E-03   -0.63436E-03 12519   0.128E-01    0.215E-01
RMM:  10    -0.647812955176E+03    0.33296E-03   -0.24884E-03 12314   0.785E-02    0.899E-02
RMM:  11    -0.647813026701E+03   -0.71525E-04   -0.10362E-03 11526   0.462E-02    0.938E-02
RMM:  12    -0.647813026955E+03   -0.25422E-06   -0.57090E-04 11095   0.359E-02    0.589E-02
RMM:  13    -0.647813043503E+03   -0.16548E-04   -0.30461E-04 10604   0.285E-02    0.384E-02
RMM:  14    -0.647813058975E+03   -0.15472E-04   -0.15581E-04  9845   0.221E-02    0.410E-02
RMM:  15    -0.647813051134E+03    0.78418E-05   -0.84151E-05  9122   0.177E-02
   7 F= -.64781305E+03 E0= -.64774697E+03  d E =-.215307E+01
       N       E                     dE             d eps       ncg     rms          rms(c)
DAV:   1    -0.647006329356E+03    0.80673E+00   -0.37329E+02  8064   0.786E+01    0.180E+01
RMM:   2    -0.670997657798E+03   -0.23991E+02   -0.10906E+02 11324   0.274E+01    0.309E+01
RMM:   3    -0.649366182254E+03    0.21631E+02   -0.19661E+01 10307   0.126E+01    0.819E+00
RMM:   4    -0.648750877366E+03    0.61530E+00   -0.63546E+00 12824   0.522E+00    0.522E+00
RMM:   5    -0.648560751032E+03    0.19013E+00   -0.19509E+00 12624   0.286E+00    0.514E+00
RMM:   6    -0.648390810111E+03    0.16994E+00   -0.72661E-01 12535   0.169E+00    0.330E+00
RMM:   7    -0.648297522682E+03    0.93287E-01   -0.42672E-01 11548   0.158E+00    0.171E+00
RMM:   8    -0.648288193036E+03    0.93296E-02   -0.15089E-01 12353   0.901E-01    0.165E+00
RMM:   9    -0.648263638474E+03    0.24555E-01   -0.65814E-02 12179   0.549E-01    0.484E-01
RMM:  10    -0.648263749723E+03   -0.11125E-03   -0.26410E-02 12522   0.281E-01    0.413E-01
RMM:  11    -0.648263592749E+03    0.15697E-03   -0.11093E-02 12766   0.170E-01    0.323E-01
RMM:  12    -0.648263455448E+03    0.13730E-03   -0.51930E-03 12708   0.114E-01    0.187E-01
RMM:  13    -0.648264023170E+03   -0.56772E-03   -0.31990E-03 12386   0.914E-02    0.215E-01
RMM:  14    -0.648264034946E+03   -0.11776E-04   -0.19026E-03 12176   0.775E-02    0.151E-01
RMM:  15    -0.648263981633E+03    0.53313E-04   -0.12392E-03 12060   0.604E-02    0.567E-02
RMM:  16    -0.648263989595E+03   -0.79618E-05   -0.60669E-04 11825   0.429E-02    0.496E-02
RMM:  17    -0.648263993815E+03   -0.42205E-05   -0.27266E-04 10970   0.256E-02    0.373E-02
RMM:  18    -0.648263992213E+03    0.16024E-05   -0.13803E-04 10646   0.217E-02    0.150E-02
RMM:  19    -0.648263994506E+03   -0.22930E-05   -0.52067E-05  8377   0.153E-02
   8 F= -.64826399E+03 E0= -.64820036E+03  d E =-.450943E+00
       N       E                     dE             d eps       ncg     rms          rms(c)
DAV:   1    -0.648232967756E+03    0.31024E-01   -0.20010E+01  8160   0.186E+01    0.368E+00
RMM:   2    -0.649580544400E+03   -0.13476E+01   -0.64505E+00 10241   0.694E+00    0.107E+01
RMM:   3    -0.648363417684E+03    0.12171E+01   -0.11291E+00 10181   0.312E+00    0.151E+00
RMM:   4    -0.648345086273E+03    0.18331E-01   -0.22016E-01 12581   0.985E-01    0.160E+00
RMM:   5    -0.648325313167E+03    0.19773E-01   -0.67612E-02 12012   0.577E-01    0.109E+00
RMM:   6    -0.648313301344E+03    0.12012E-01   -0.34566E-02 12300   0.413E-01    0.460E-01
RMM:   7    -0.648312757681E+03    0.54366E-03   -0.17851E-02 12360   0.307E-01    0.513E-01
RMM:   8    -0.648310526730E+03    0.22310E-02   -0.62541E-03 12094   0.188E-01    0.212E-01
RMM:   9    -0.648310211984E+03    0.31475E-03   -0.21727E-03 12198   0.879E-02    0.102E-01
RMM:  10    -0.648310263142E+03   -0.51157E-04   -0.10751E-03 12050   0.571E-02    0.113E-01
RMM:  11    -0.648310213473E+03    0.49669E-04   -0.44896E-04 11191   0.380E-02    0.568E-02
RMM:  12    -0.648310240865E+03   -0.27392E-04   -0.22148E-04 10601   0.246E-02    0.391E-02
RMM:  13    -0.648310278056E+03   -0.37191E-04   -0.16374E-04 10733   0.236E-02    0.355E-02
RMM:  14    -0.648310291979E+03   -0.13924E-04   -0.10863E-04 10278   0.200E-02    0.244E-02
RMM:  15    -0.648310293450E+03   -0.14707E-05   -0.45741E-05  8150   0.157E-02
   9 F= -.64831029E+03 E0= -.64824705E+03  d E =-.497242E+00
       N       E                     dE             d eps       ncg     rms          rms(c)
DAV:   1    -0.645079263439E+03    0.32310E+01   -0.26482E+02  8064   0.672E+01    0.491E+00
RMM:   2    -0.649826340531E+03   -0.47471E+01   -0.44929E+01 11629   0.186E+01    0.939E+00
RMM:   3    -0.648812025793E+03    0.10143E+01   -0.54245E+00 11354   0.738E+00    0.339E+00
RMM:   4    -0.648732395057E+03    0.79631E-01   -0.10191E+00 13105   0.207E+00    0.240E+00
RMM:   5    -0.648699713252E+03    0.32682E-01   -0.31550E-01 12515   0.118E+00    0.190E+00
RMM:   6    -0.648670906587E+03    0.28807E-01   -0.16998E-01 12608   0.818E-01    0.961E-01
RMM:   7    -0.648657851865E+03    0.13055E-01   -0.69203E-02 12575   0.547E-01    0.538E-01
RMM:   8    -0.648659823206E+03   -0.19713E-02   -0.33626E-02 12845   0.349E-01    0.645E-01
RMM:   9    -0.648657382065E+03    0.24411E-02   -0.15469E-02 12690   0.220E-01    0.234E-01
RMM:  10    -0.648657324813E+03    0.57252E-04   -0.59525E-03 12579   0.126E-01    0.175E-01
RMM:  11    -0.648657407804E+03   -0.82991E-04   -0.27450E-03 11985   0.727E-02    0.129E-01
RMM:  12    -0.648657555577E+03   -0.14777E-03   -0.13450E-03 12120   0.552E-02    0.883E-02
RMM:  13    -0.648657713553E+03   -0.15798E-03   -0.85366E-04 11932   0.484E-02    0.934E-02
RMM:  14    -0.648657708628E+03    0.49253E-05   -0.48427E-04 11518   0.397E-02    0.360E-02
RMM:  15    -0.648657706348E+03    0.22801E-05   -0.21684E-04 10450   0.256E-02    0.150E-02
RMM:  16    -0.648657709495E+03   -0.31469E-05   -0.94102E-05  9296   0.179E-02
  10 F= -.64865771E+03 E0= -.64859749E+03  d E =-.347416E+00
       N       E                     dE             d eps       ncg     rms          rms(c)
DAV:   1    -0.648605801567E+03    0.51905E-01   -0.44863E+00  8736   0.878E+00    0.655E-01
RMM:   2    -0.648683692265E+03   -0.77891E-01   -0.73963E-01 11198   0.237E+00    0.116E+00
RMM:   3    -0.648668829840E+03    0.14862E-01   -0.95223E-02 10392   0.104E+00    0.413E-01
RMM:   4    -0.648667692305E+03    0.11375E-02   -0.17150E-02 13005   0.267E-01    0.295E-01
RMM:   5    -0.648667244354E+03    0.44795E-03   -0.49553E-03 12419   0.149E-01    0.234E-01
RMM:   6    -0.648666825448E+03    0.41891E-03   -0.26593E-03 12452   0.987E-02    0.121E-01
RMM:   7    -0.648666558098E+03    0.26735E-03   -0.10601E-03 12377   0.648E-02    0.457E-02
RMM:   8    -0.648666594646E+03   -0.36548E-04   -0.48398E-04 11806   0.400E-02    0.692E-02
RMM:   9    -0.648666560197E+03    0.34449E-04   -0.20933E-04 10769   0.289E-02    0.306E-02
RMM:  10    -0.648666554202E+03    0.59945E-05   -0.73584E-05  8924   0.166E-02
  11 F= -.64866655E+03 E0= -.64860591E+03  d E =-.356261E+00
       N       E                     dE             d eps       ncg     rms          rms(c)
DAV:   1    -0.648068940380E+03    0.59762E+00   -0.10079E+02  8064   0.373E+01    0.339E+00
RMM:   2    -0.649216324924E+03   -0.11474E+01   -0.12848E+01 12186   0.966E+00    0.415E+00
RMM:   3    -0.648968874329E+03    0.24745E+00   -0.15431E+00 12195   0.362E+00    0.254E+00
RMM:   4    -0.648907558264E+03    0.61316E-01   -0.39276E-01 12853   0.137E+00    0.156E+00
RMM:   5    -0.648901258361E+03    0.62999E-02   -0.18424E-01 12236   0.829E-01    0.149E+00
RMM:   6    -0.648881067333E+03    0.20191E-01   -0.86106E-02 12369   0.567E-01    0.497E-01
RMM:   7    -0.648878094376E+03    0.29730E-02   -0.32480E-02 12506   0.330E-01    0.385E-01
RMM:   8    -0.648878272558E+03   -0.17818E-03   -0.15170E-02 12794   0.187E-01    0.320E-01
RMM:   9    -0.648877735490E+03    0.53707E-03   -0.59113E-03 12545   0.119E-01    0.131E-01
RMM:  10    -0.648877816527E+03   -0.81037E-04   -0.27741E-03 11747   0.713E-02    0.105E-01
RMM:  11    -0.648877866342E+03   -0.49815E-04   -0.13708E-03 11360   0.508E-02    0.659E-02
RMM:  12    -0.648877898538E+03   -0.32196E-04   -0.67555E-04 11304   0.388E-02    0.455E-02
RMM:  13    -0.648877915265E+03   -0.16728E-04   -0.35384E-04 10608   0.290E-02    0.390E-02
RMM:  14    -0.648877914283E+03    0.98197E-06   -0.17492E-04  9817   0.210E-02    0.159E-02
RMM:  15    -0.648877916394E+03   -0.21103E-05   -0.76508E-05  8263   0.151E-02
  12 F= -.64887792E+03 E0= -.64881910E+03  d E =-.211362E+00
       N       E                     dE             d eps       ncg     rms          rms(c)
DAV:   1    -0.648868908115E+03    0.90062E-02   -0.14156E+00  8736   0.442E+00    0.394E-01
RMM:   2    -0.648884702664E+03   -0.15795E-01   -0.17937E-01 12179   0.114E+00    0.472E-01
RMM:   3    -0.648881729424E+03    0.29732E-02   -0.21955E-02 12187   0.430E-01    0.315E-01
RMM:   4    -0.648880838544E+03    0.89088E-03   -0.58897E-03 12872   0.166E-01    0.193E-01
RMM:   5    -0.648880693370E+03    0.14517E-03   -0.26888E-03 12237   0.101E-01    0.169E-01
RMM:   6    -0.648880440700E+03    0.25267E-03   -0.12527E-03 12298   0.678E-02    0.574E-02
RMM:   7    -0.648880398508E+03    0.42192E-04   -0.47563E-04 11445   0.390E-02    0.423E-02
RMM:   8    -0.648880402550E+03   -0.40424E-05   -0.20873E-04 10163   0.242E-02    0.378E-02
RMM:   9    -0.648880393915E+03    0.86352E-05   -0.82463E-05  8998   0.178E-02
  13 F= -.64888039E+03 E0= -.64882178E+03  d E =-.213840E+00
       N       E                     dE             d eps       ncg     rms          rms(c)
DAV:   1    -0.648485548103E+03    0.39485E+00   -0.44895E+01  8064   0.258E+01    0.152E+00
RMM:   2    -0.649049187326E+03   -0.56364E+00   -0.61667E+00 12251   0.651E+00    0.136E+00
RMM:   3    -0.649022717033E+03    0.26470E-01   -0.63201E-01 12254   0.236E+00    0.175E+00
RMM:   4    -0.648997424662E+03    0.25292E-01   -0.14686E-01 13041   0.807E-01    0.524E-01
RMM:   5    -0.648998448799E+03   -0.10241E-02   -0.49085E-02 12444   0.395E-01    0.657E-01
RMM:   6    -0.648995755844E+03    0.26930E-02   -0.26162E-02 12282   0.291E-01    0.394E-01
RMM:   7    -0.648994342750E+03    0.14131E-02   -0.11945E-02 12345   0.213E-01    0.202E-01
RMM:   8    -0.648994466194E+03   -0.12344E-03   -0.53239E-03 12632   0.112E-01    0.180E-01
RMM:   9    -0.648994279780E+03    0.18641E-03   -0.21612E-03 12035   0.710E-02    0.696E-02
RMM:  10    -0.648994288066E+03   -0.82863E-05   -0.92702E-04 11223   0.456E-02    0.551E-02
RMM:  11    -0.648994302060E+03   -0.13994E-04   -0.45862E-04 10554   0.315E-02    0.371E-02
RMM:  12    -0.648994304938E+03   -0.28778E-05   -0.21517E-04  9953   0.234E-02    0.150E-02
RMM:  13    -0.648994310491E+03   -0.55533E-05   -0.93855E-05  8681   0.170E-02
  14 F= -.64899431E+03 E0= -.64893670E+03  d E =-.113917E+00
       N       E                     dE             d eps       ncg     rms          rms(c)
DAV:   1    -0.648876125451E+03    0.11818E+00   -0.11936E+01  8064   0.133E+01    0.783E-01
RMM:   2    -0.649024852384E+03   -0.14873E+00   -0.16297E+00 12250   0.334E+00    0.682E-01
RMM:   3    -0.649018339988E+03    0.65124E-02   -0.16916E-01 12216   0.123E+00    0.896E-01
RMM:   4    -0.649011687719E+03    0.66523E-02   -0.39630E-02 13001   0.416E-01    0.267E-01
RMM:   5    -0.649012043380E+03   -0.35566E-03   -0.13361E-02 12430   0.205E-01    0.340E-01
RMM:   6    -0.649011325533E+03    0.71785E-03   -0.70875E-03 12262   0.152E-01    0.201E-01
RMM:   7    -0.649010963041E+03    0.36249E-03   -0.31870E-03 12297   0.107E-01    0.975E-02
RMM:   8    -0.649011006840E+03   -0.43799E-04   -0.13825E-03 11846   0.568E-02    0.913E-02
RMM:   9    -0.649010960831E+03    0.46008E-04   -0.57960E-04 10838   0.385E-02    0.352E-02
RMM:  10    -0.649010963683E+03   -0.28513E-05   -0.24682E-04  9917   0.257E-02    0.276E-02
RMM:  11    -0.649010967773E+03   -0.40904E-05   -0.12034E-04  9221   0.185E-02    0.187E-02
RMM:  12    -0.649010967568E+03    0.20539E-06   -0.51445E-05  8190   0.143E-02
  15 F= -.64901097E+03 E0= -.64895385E+03  d E =-.130574E+00
       N       E                     dE             d eps       ncg     rms          rms(c)
DAV:   1    -0.648769039734E+03    0.24193E+00   -0.24894E+01  8064   0.192E+01    0.104E+00
RMM:   2    -0.649074560076E+03   -0.30552E+00   -0.32941E+00 11990   0.487E+00    0.865E-01
RMM:   3    -0.649069650219E+03    0.49099E-02   -0.35574E-01 11785   0.182E+00    0.103E+00
RMM:   4    -0.649060630643E+03    0.90196E-02   -0.69642E-02 13014   0.551E-01    0.393E-01
RMM:   5    -0.649060817121E+03   -0.18648E-03   -0.21314E-02 12477   0.257E-01    0.437E-01
RMM:   6    -0.649059582537E+03    0.12346E-02   -0.12025E-02 12310   0.199E-01    0.272E-01
RMM:   7    -0.649058758900E+03    0.82364E-03   -0.55091E-03 12287   0.139E-01    0.124E-01
RMM:   8    -0.649058874987E+03   -0.11609E-03   -0.23507E-03 12362   0.830E-02    0.140E-01
RMM:   9    -0.649058738468E+03    0.13652E-03   -0.99347E-04 11427   0.526E-02    0.481E-02
RMM:  10    -0.649058738070E+03    0.39789E-06   -0.41886E-04 10791   0.334E-02    0.326E-02
RMM:  11    -0.649058751833E+03   -0.13763E-04   -0.20935E-04  9991   0.230E-02    0.341E-02
RMM:  12    -0.649058749524E+03    0.23082E-05   -0.94499E-05  9079   0.172E-02
  16 F= -.64905875E+03 E0= -.64900319E+03  d E =-.477820E-01
       N       E                     dE             d eps       ncg     rms          rms(c)
DAV:   1    -0.649045975890E+03    0.12776E-01   -0.12383E+00  8736   0.429E+00    0.233E-01
RMM:   2    -0.649061491845E+03   -0.15516E-01   -0.16691E-01 12099   0.109E+00    0.192E-01
RMM:   3    -0.649061125840E+03    0.36601E-03   -0.17852E-02 11909   0.395E-01    0.232E-01
RMM:   4    -0.649060673673E+03    0.45217E-03   -0.35251E-03 12772   0.125E-01    0.877E-02
RMM:   5    -0.649060686059E+03   -0.12386E-04   -0.11232E-03 11597   0.581E-02    0.956E-02
RMM:   6    -0.649060634623E+03    0.51436E-04   -0.64536E-04 11562   0.455E-02    0.634E-02
RMM:   7    -0.649060594901E+03    0.39722E-04   -0.30633E-04 11381   0.333E-02    0.282E-02
RMM:   8    -0.649060599890E+03   -0.49883E-05   -0.12429E-04  9812   0.205E-02    0.303E-02
RMM:   9    -0.649060594508E+03    0.53820E-05   -0.54957E-05  8614   0.161E-02
  17 F= -.64906059E+03 E0= -.64900533E+03  d E =-.496269E-01
       N       E                     dE             d eps       ncg     rms          rms(c)
DAV:   1    -0.648963028560E+03    0.97571E-01   -0.11476E+01  8064   0.125E+01    0.979E-01
RMM:   2    -0.649137664030E+03   -0.17464E+00   -0.16350E+00 12195   0.328E+00    0.183E+00
RMM:   3    -0.649087473904E+03    0.50190E-01   -0.17927E-01 12206   0.126E+00    0.544E-01
RMM:   4    -0.649086240316E+03    0.12336E-02   -0.40234E-02 13044   0.421E-01    0.441E-01
RMM:   5    -0.649085218823E+03    0.10215E-02   -0.12052E-02 12570   0.192E-01    0.311E-01
RMM:   6    -0.649084350469E+03    0.86835E-03   -0.69765E-03 12460   0.153E-01    0.145E-01
RMM:   7    -0.649084065884E+03    0.28458E-03   -0.28716E-03 12467   0.101E-01    0.753E-02
RMM:   8    -0.649084140912E+03   -0.75028E-04   -0.12285E-03 12044   0.586E-02    0.905E-02
RMM:   9    -0.649084089050E+03    0.51862E-04   -0.50427E-04 10857   0.380E-02    0.324E-02
RMM:  10    -0.649084092476E+03   -0.34259E-05   -0.21174E-04  9871   0.240E-02    0.234E-02
RMM:  11    -0.649084100084E+03   -0.76085E-05   -0.11150E-04  9261   0.176E-02    0.236E-02
RMM:  12    -0.649084098230E+03    0.18541E-05   -0.57238E-05  8430   0.153E-02
  18 F= -.64908410E+03 E0= -.64902920E+03  d E =-.235037E-01
       N       E                     dE             d eps       ncg     rms          rms(c)
DAV:   1    -0.649061605708E+03    0.22494E-01   -0.24051E+00  8064   0.571E+00    0.446E-01
RMM:   2    -0.649098125260E+03   -0.36520E-01   -0.34295E-01 12220   0.150E+00    0.834E-01
RMM:   3    -0.649087752133E+03    0.10373E-01   -0.37861E-02 12237   0.575E-01    0.256E-01
RMM:   4    -0.649087465604E+03    0.28653E-03   -0.85217E-03 13020   0.193E-01    0.203E-01
RMM:   5    -0.649087248359E+03    0.21724E-03   -0.26269E-03 12213   0.897E-02    0.143E-01
RMM:   6    -0.649087070778E+03    0.17758E-03   -0.15313E-03 12345   0.713E-02    0.692E-02
RMM:   7    -0.649087012316E+03    0.58462E-04   -0.64987E-04 11915   0.487E-02    0.415E-02
RMM:   8    -0.649087021653E+03   -0.93367E-05   -0.27045E-04 10832   0.299E-02    0.426E-02
RMM:   9    -0.649228104317E+03   -0.14108E+00   -0.14110E+00  9386   0.206E-02    0.733E-01
RMM:  10    -0.648480809228E+03    0.74730E+00   -0.48122E-05  8088   0.151E-02    0.120E-01
RMM:  11    -0.648480720077E+03    0.89151E-04   -0.14294E-05  6333   0.121E-02    0.119E-01
RMM:  12    -0.648752091738E+03   -0.27137E+00   -0.35555E-05  7825   0.126E-02    0.998E-02
RMM:  13    -0.649007671642E+03   -0.25558E+00   -0.37332E+00  5708   0.377E-02    0.391E-02
RMM:  14    -0.649072228724E+03   -0.64557E-01   -0.79992E-01  7980   0.340E-02    0.178E-02
RMM:  15    -0.649081328684E+03   -0.91000E-02   -0.11769E-01  6989   0.262E-02    0.157E-02
RMM:  16    -0.649084925527E+03   -0.35968E-02   -0.39933E-02  6010   0.168E-02    0.126E-02
RMM:  17    -0.649086069801E+03   -0.11443E-02   -0.14397E-02  5964   0.142E-02    0.123E-02
RMM:  18    -0.649086595725E+03   -0.52592E-03   -0.64469E-03  5504   0.117E-02    0.131E-02
RMM:  19    -0.649086815437E+03   -0.21971E-03   -0.28453E-03  5489   0.105E-02    0.124E-02
RMM:  20    -0.649086926716E+03   -0.11128E-03   -0.14019E-03  4852   0.917E-03    0.124E-02
RMM:  21    -0.649086983897E+03   -0.57182E-04   -0.72484E-04  4841   0.840E-03    0.122E-02
RMM:  22    -0.649087003337E+03   -0.19439E-04   -0.28678E-04  4646   0.757E-03    0.120E-02
RMM:  23    -0.649087009262E+03   -0.59247E-05   -0.10192E-04  4591   0.736E-03    0.118E-02
RMM:  24    -0.649087011247E+03   -0.19857E-05   -0.39709E-05  4595   0.712E-03
  19 F= -.64908701E+03 E0= -.64903230E+03  d E =-.264167E-01
       N       E                     dE             d eps       ncg     rms          rms(c)
DAV:   1    -0.649012796726E+03    0.74213E-01   -0.11479E+01  8064   0.121E+01    0.181E+00
RMM:   2    -0.649322136161E+03   -0.30934E+00   -0.21734E+00 11292   0.389E+00    0.416E+00
RMM:   3    -0.649111766894E+03    0.21037E+00   -0.31584E-01 10934   0.169E+00    0.839E-01
RMM:   4    -0.649108636535E+03    0.31304E-02   -0.79992E-02 12649   0.588E-01    0.856E-01
RMM:   5    -0.649102333457E+03    0.63031E-02   -0.25025E-02 12262   0.331E-01    0.502E-01
RMM:   6    -0.649099673835E+03    0.26596E-02   -0.11594E-02 12451   0.228E-01    0.212E-01
RMM:   7    -0.649099272376E+03    0.40146E-03   -0.48435E-03 12551   0.153E-01    0.149E-01
RMM:   8    -0.649099163221E+03    0.10916E-03   -0.19601E-03 12500   0.894E-02    0.109E-01
RMM:   9    -0.649099118837E+03    0.44384E-04   -0.78927E-04 11414   0.479E-02    0.565E-02
RMM:  10    -0.649099124669E+03   -0.58328E-05   -0.31510E-04 10813   0.288E-02    0.411E-02
RMM:  11    -0.649099137162E+03   -0.12492E-04   -0.15858E-04 10109   0.209E-02    0.342E-02
RMM:  12    -0.649099149969E+03   -0.12807E-04   -0.80201E-05  9363   0.166E-02    0.202E-02
RMM:  13    -0.649099162664E+03   -0.12695E-04   -0.49923E-05  8604   0.158E-02    0.201E-02
RMM:  14    -0.649099164697E+03   -0.20339E-05   -0.32058E-05  7653   0.137E-02
  20 F= -.64909916E+03 E0= -.64904585E+03  d E =-.121535E-01
       N       E                     dE             d eps       ncg     rms          rms(c)
DAV:   1    -0.649098396691E+03    0.76597E-03   -0.13251E-01  8736   0.130E+00    0.198E-01
RMM:   2    -0.649102089767E+03   -0.36931E-02   -0.25688E-02 11438   0.418E-01    0.446E-01
RMM:   3    -0.649099515133E+03    0.25746E-02   -0.36912E-03 10684   0.183E-01    0.848E-02
RMM:   4    -0.649099484205E+03    0.30928E-04   -0.94815E-04 12206   0.655E-02    0.923E-02
RMM:   5    -0.649099410463E+03    0.73741E-04   -0.28164E-04 10728   0.357E-02    0.552E-02
RMM:   6    -0.649099374714E+03    0.35749E-04   -0.12928E-04 10943   0.252E-02    0.231E-02
RMM:   7    -0.649099365500E+03    0.92138E-05   -0.53311E-05  8891   0.174E-02
  21 F= -.64909937E+03 E0= -.64904589E+03  d E =-.123543E-01
       N       E                     dE             d eps       ncg     rms          rms(c)
DAV:   1    -0.649042848509E+03    0.56526E-01   -0.61397E+00  8064   0.848E+00    0.679E-01
RMM:   2    -0.649134510483E+03   -0.91662E-01   -0.88945E-01 11980   0.233E+00    0.121E+00
RMM:   3    -0.649114298544E+03    0.20212E-01   -0.94663E-02 11627   0.942E-01    0.417E-01
RMM:   4    -0.649113626696E+03    0.67185E-03   -0.21724E-02 12911   0.300E-01    0.313E-01
RMM:   5    -0.649112996127E+03    0.63057E-03   -0.58124E-03 12468   0.139E-01    0.212E-01
RMM:   6    -0.649112619272E+03    0.37685E-03   -0.31639E-03 12422   0.100E-01    0.114E-01
RMM:   7    -0.649112470401E+03    0.14887E-03   -0.14565E-03 12366   0.709E-02    0.789E-02
RMM:   8    -0.649112468895E+03    0.15059E-05   -0.62381E-04 11726   0.457E-02    0.687E-02
RMM:   9    -0.649112442738E+03    0.26157E-04   -0.26580E-04 10874   0.292E-02    0.296E-02
RMM:  10    -0.649112439743E+03    0.29943E-05   -0.10148E-04  9083   0.191E-02    0.243E-02
RMM:  11    -0.649112438256E+03    0.14873E-05   -0.51140E-05  8348   0.146E-02
  22 F= -.64911244E+03 E0= -.64905993E+03  d E =-.130728E-01
       N       E                     dE             d eps       ncg     rms          rms(c)
DAV:   1    -0.649049692158E+03    0.62748E-01   -0.59470E+00  8064   0.834E+00    0.669E-01
RMM:   2    -0.649139221341E+03   -0.89529E-01   -0.86944E-01 12003   0.230E+00    0.119E+00
RMM:   3    -0.649119232537E+03    0.19989E-01   -0.91726E-02 11690   0.917E-01    0.412E-01
RMM:   4    -0.649118542300E+03    0.69024E-03   -0.21116E-02 12885   0.295E-01    0.306E-01
RMM:   5    -0.649117969020E+03    0.57328E-03   -0.58226E-03 12450   0.136E-01    0.212E-01
RMM:   6    -0.649117603895E+03    0.36512E-03   -0.31833E-03 12381   0.996E-02    0.112E-01
RMM:   7    -0.649117459087E+03    0.14481E-03   -0.14493E-03 12352   0.701E-02    0.738E-02
RMM:   8    -0.649117467262E+03   -0.81752E-05   -0.62664E-04 11694   0.448E-02    0.693E-02
RMM:   9    -0.649117440963E+03    0.26299E-04   -0.27059E-04 10817   0.293E-02    0.300E-02
RMM:  10    -0.649117438025E+03    0.29384E-05   -0.10541E-04  9155   0.191E-02    0.239E-02
RMM:  11    -0.649117436680E+03    0.13448E-05   -0.50552E-05  8254   0.144E-02
  23 F= -.64911744E+03 E0= -.64906593E+03  d E =-.180712E-01
       N       E                     dE             d eps       ncg     rms          rms(c)
DAV:   1    -0.649092655640E+03    0.24782E-01   -0.32953E+00  8064   0.645E+00    0.445E-01
RMM:   2    -0.649133075042E+03   -0.40419E-01   -0.43490E-01 11992   0.168E+00    0.549E-01
RMM:   3    -0.649129357708E+03    0.37173E-02   -0.45176E-02 11879   0.617E-01    0.399E-01
RMM:   4    -0.649127873989E+03    0.14837E-02   -0.93241E-03 12772   0.203E-01    0.176E-01
RMM:   5    -0.649127754604E+03    0.11939E-03   -0.32071E-03 12108   0.102E-01    0.172E-01
RMM:   6    -0.649127582479E+03    0.17212E-03   -0.19922E-03 12074   0.808E-02    0.112E-01
RMM:   7    -0.649127418310E+03    0.16417E-03   -0.77934E-04 11692   0.504E-02    0.404E-02
RMM:   8    -0.649127425488E+03   -0.71777E-05   -0.33126E-04 10798   0.293E-02    0.452E-02
RMM:   9    -0.649127416867E+03    0.86208E-05   -0.15507E-04  9831   0.234E-02    0.244E-02
RMM:  10    -0.649127409971E+03    0.68963E-05   -0.49101E-05  8086   0.141E-02
  24 F= -.64912741E+03 E0= -.64907631E+03  d E =-.997329E-02
       N       E                     dE             d eps       ncg     rms          rms(c)
DAV:   1    -0.649098501837E+03    0.28915E-01   -0.31353E+00  8064   0.629E+00    0.435E-01
RMM:   2    -0.649137085417E+03   -0.38584E-01   -0.41555E-01 11996   0.163E+00    0.534E-01
RMM:   3    -0.649133462164E+03    0.36233E-02   -0.43209E-02 11929   0.601E-01    0.391E-01
RMM:   4    -0.649132052259E+03    0.14099E-02   -0.89775E-03 12757   0.199E-01    0.173E-01
RMM:   5    -0.649131928017E+03    0.12424E-03   -0.30836E-03 12111   0.994E-02    0.166E-01
RMM:   6    -0.649131782116E+03    0.14590E-03   -0.19113E-03 12077   0.786E-02    0.113E-01
RMM:   7    -0.649131619222E+03    0.16289E-03   -0.76871E-04 11719   0.500E-02    0.412E-02
RMM:   8    -0.649131626415E+03   -0.71932E-05   -0.33059E-04 10812   0.294E-02    0.466E-02
RMM:   9    -0.649131616426E+03    0.99895E-05   -0.15212E-04  9858   0.232E-02    0.238E-02
RMM:  10    -0.649131610372E+03    0.60540E-05   -0.49228E-05  8104   0.140E-02
  25 F= -.64913161E+03 E0= -.64908078E+03  d E =-.141737E-01
       N       E                     dE             d eps       ncg     rms          rms(c)
DAV:   1    -0.649101936967E+03    0.29679E-01   -0.41069E+00  8064   0.753E+00    0.942E-01
RMM:   2    -0.649197057008E+03   -0.95120E-01   -0.73242E-01 11400   0.223E+00    0.204E+00
RMM:   3    -0.649143109156E+03    0.53948E-01   -0.92453E-02 11015   0.899E-01    0.444E-01
RMM:   4    -0.649141823214E+03    0.12859E-02   -0.22440E-02 12716   0.314E-01    0.402E-01
RMM:   5    -0.649140604719E+03    0.12185E-02   -0.72894E-03 12259   0.180E-01    0.294E-01
RMM:   6    -0.649139832492E+03    0.77223E-03   -0.36903E-03 12236   0.125E-01    0.136E-01
RMM:   7    -0.649139647256E+03    0.18524E-03   -0.15717E-03 12444   0.881E-02    0.842E-02
RMM:   8    -0.649139623217E+03    0.24039E-04   -0.64682E-04 11656   0.502E-02    0.686E-02
RMM:   9    -0.649139604012E+03    0.19205E-04   -0.25579E-04 10757   0.292E-02    0.334E-02
RMM:  10    -0.649139609065E+03   -0.50529E-05   -0.11459E-04  9852   0.191E-02    0.270E-02
RMM:  11    -0.649139610344E+03   -0.12794E-05   -0.46821E-05  7941   0.143E-02
  26 F= -.64913961E+03 E0= -.64908901E+03  d E =-.799997E-02
       N       E                     dE             d eps       ncg     rms          rms(c)
DAV:   1    -0.649134219263E+03    0.53898E-02   -0.65038E-01  8640   0.300E+00    0.376E-01
RMM:   2    -0.649149431887E+03   -0.15213E-01   -0.11637E-01 11398   0.885E-01    0.808E-01
RMM:   3    -0.649140770879E+03    0.86610E-02   -0.14835E-02 11058   0.360E-01    0.172E-01
RMM:   4    -0.649140590020E+03    0.18086E-03   -0.36050E-03 12653   0.125E-01    0.157E-01
RMM:   5    -0.649140412595E+03    0.17743E-03   -0.11836E-03 11824   0.718E-02    0.116E-01
RMM:   6    -0.649140298213E+03    0.11438E-03   -0.60526E-04 12133   0.512E-02    0.531E-02
RMM:   7    -0.649140274669E+03    0.23544E-04   -0.25638E-04 11502   0.354E-02    0.315E-02
RMM:   8    -0.649140273638E+03    0.10313E-05   -0.10692E-04 10092   0.225E-02    0.258E-02
RMM:   9    -0.649140272244E+03    0.13936E-05   -0.40500E-05  7725   0.147E-02
  27 F= -.64914027E+03 E0= -.64908974E+03  d E =-.866187E-02
       N       E                     dE             d eps       ncg     rms          rms(c)
DAV:   1    -0.649120027499E+03    0.20246E-01   -0.22343E+00  8064   0.555E+00    0.440E-01
RMM:   2    -0.649156231450E+03   -0.36204E-01   -0.33697E-01 11801   0.147E+00    0.851E-01
RMM:   3    -0.649146468387E+03    0.97631E-02   -0.36433E-02 11511   0.570E-01    0.248E-01
RMM:   4    -0.649146051028E+03    0.41736E-03   -0.73378E-03 12765   0.170E-01    0.191E-01
RMM:   5    -0.649145833179E+03    0.21785E-03   -0.21371E-03 11947   0.860E-02    0.143E-01
RMM:   6    -0.649145659190E+03    0.17399E-03   -0.12357E-03 12204   0.637E-02    0.767E-02
RMM:   7    -0.649145567879E+03    0.91311E-04   -0.56897E-04 11959   0.456E-02    0.341E-02
RMM:   8    -0.649145571235E+03   -0.33556E-05   -0.22683E-04 10793   0.274E-02    0.363E-02
RMM:   9    -0.649145563092E+03    0.81429E-05   -0.97777E-05  9654   0.204E-02
  28 F= -.64914556E+03 E0= -.64909488E+03  d E =-.529085E-02
       N       E                     dE             d eps       ncg     rms          rms(c)
DAV:   1    -0.649126515249E+03    0.19056E-01   -0.18500E+00  8064   0.505E+00    0.403E-01
RMM:   2    -0.649156892713E+03   -0.30377E-01   -0.28086E-01 11840   0.134E+00    0.791E-01
RMM:   3    -0.649148431874E+03    0.84608E-02   -0.30405E-02 11552   0.516E-01    0.225E-01
RMM:   4    -0.649148090587E+03    0.34129E-03   -0.61025E-03 12703   0.157E-01    0.172E-01
RMM:   5    -0.649147916411E+03    0.17418E-03   -0.17959E-03 11839   0.780E-02    0.128E-01
RMM:   6    -0.649147780774E+03    0.13564E-03   -0.10229E-03 12170   0.571E-02    0.696E-02
RMM:   7    -0.649147706229E+03    0.74545E-04   -0.47738E-04 11712   0.414E-02    0.311E-02
RMM:   8    -0.649147708969E+03   -0.27400E-05   -0.19181E-04 10561   0.253E-02    0.326E-02
RMM:   9    -0.649147703105E+03    0.58644E-05   -0.82791E-05  9439   0.190E-02
  29 F= -.64914770E+03 E0= -.64909688E+03  d E =-.743086E-02
       N       E                     dE             d eps       ncg     rms          rms(c)
DAV:   1    -0.649145770435E+03    0.19385E-02   -0.17924E-01  8736   0.157E+00    0.126E-01
RMM:   2    -0.649148767382E+03   -0.29969E-02   -0.27677E-02 11921   0.419E-01    0.251E-01
RMM:   3    -0.649147909455E+03    0.85793E-03   -0.30119E-03 11643   0.159E-01    0.713E-02
RMM:   4    -0.649147875000E+03    0.34455E-04   -0.61552E-04 11934   0.498E-02    0.531E-02
RMM:   5    -0.649147859254E+03    0.15746E-04   -0.18573E-04 10173   0.262E-02    0.400E-02
RMM:   6    -0.649147846962E+03    0.12291E-04   -0.11448E-04 10116   0.199E-02    0.222E-02
RMM:   7    -0.649147839244E+03    0.77182E-05   -0.56486E-05  8948   0.149E-02
  30 F= -.64914784E+03 E0= -.64909698E+03  d E =-.756700E-02
       N       E                     dE             d eps       ncg     rms          rms(c)
DAV:   1    -0.649140356513E+03    0.74904E-02   -0.10941E+00  8112   0.389E+00    0.295E-01
RMM:   2    -0.649154071113E+03   -0.13715E-01   -0.15564E-01 12011   0.101E+00    0.263E-01
RMM:   3    -0.649153045276E+03    0.10258E-02   -0.16393E-02 11910   0.373E-01    0.270E-01
RMM:   4    -0.649152248664E+03    0.79661E-03   -0.35936E-03 12592   0.128E-01    0.102E-01
RMM:   5    -0.649152200346E+03    0.48319E-04   -0.14140E-03 11686   0.669E-02    0.103E-01
RMM:   6    -0.649152163248E+03    0.37098E-04   -0.87516E-04 11613   0.554E-02    0.925E-02
RMM:   7    -0.649152070637E+03    0.92610E-04   -0.33271E-04 10904   0.344E-02    0.247E-02
RMM:   8    -0.649152075524E+03   -0.48871E-05   -0.13188E-04  9681   0.203E-02    0.293E-02
RMM:   9    -0.649152071219E+03    0.43059E-05   -0.58596E-05  8357   0.154E-02
  31 F= -.64915207E+03 E0= -.64910108E+03  d E =-.423197E-02
       N       E                     dE             d eps       ncg     rms          rms(c)
DAV:   1    -0.649132341385E+03    0.19734E-01   -0.20344E+00  8136   0.531E+00    0.400E-01
RMM:   2    -0.649157885055E+03   -0.25544E-01   -0.28994E-01 12015   0.138E+00    0.349E-01
RMM:   3    -0.649155958735E+03    0.19263E-02   -0.30603E-02 11939   0.509E-01    0.364E-01
RMM:   4    -0.649154538232E+03    0.14205E-02   -0.68382E-03 12673   0.176E-01    0.142E-01
RMM:   5    -0.649154439399E+03    0.98833E-04   -0.26458E-03 12058   0.902E-02    0.141E-01
RMM:   6    -0.649154384811E+03    0.54588E-04   -0.16595E-03 11984   0.753E-02    0.132E-01
RMM:   7    -0.649154200009E+03    0.18480E-03   -0.64521E-04 11331   0.476E-02    0.343E-02
RMM:   8    -0.649154212318E+03   -0.12308E-04   -0.26220E-04 10354   0.271E-02    0.422E-02
RMM:   9    -0.649154202170E+03    0.10148E-04   -0.11153E-04  9232   0.195E-02    0.171E-02
RMM:  10    -0.649154199630E+03    0.25399E-05   -0.36440E-05  7555   0.129E-02
  32 F= -.64915420E+03 E0= -.64910305E+03  d E =-.636039E-02
       N       E                     dE             d eps       ncg     rms          rms(c)
DAV:   1    -0.649140363196E+03    0.13839E-01   -0.15602E+00  8064   0.464E+00    0.452E-01
RMM:   2    -0.649169937085E+03   -0.29574E-01   -0.25689E-01 11534   0.132E+00    0.919E-01
RMM:   3    -0.649158878127E+03    0.11059E-01   -0.29884E-02 11262   0.548E-01    0.240E-01
RMM:   4    -0.649158627933E+03    0.25019E-03   -0.74803E-03 12854   0.177E-01    0.209E-01
RMM:   5    -0.649158291702E+03    0.33623E-03   -0.20605E-03 12145   0.895E-02    0.137E-01
RMM:   6    -0.649158153740E+03    0.13796E-03   -0.10995E-03 12228   0.609E-02    0.837E-02
RMM:   7    -0.649158077506E+03    0.76234E-04   -0.58993E-04 12105   0.516E-02    0.489E-02
RMM:   8    -0.649158075521E+03    0.19848E-05   -0.23218E-04 11059   0.320E-02    0.445E-02
RMM:   9    -0.649158064825E+03    0.10697E-04   -0.92855E-05  9315   0.189E-02    0.174E-02
RMM:  10    -0.649158066064E+03   -0.12398E-05   -0.38710E-05  7520   0.139E-02
  33 F= -.64915807E+03 E0= -.64910694E+03  d E =-.386643E-02
       N       E                     dE             d eps       ncg     rms          rms(c)
DAV:   1    -0.649134588158E+03    0.23477E-01   -0.22003E+00  8064   0.551E+00    0.535E-01
RMM:   2    -0.649176359769E+03   -0.41772E-01   -0.36266E-01 11540   0.156E+00    0.109E+00
RMM:   3    -0.649160745768E+03    0.15614E-01   -0.42095E-02 11286   0.649E-01    0.284E-01
RMM:   4    -0.649160399300E+03    0.34647E-03   -0.10461E-02 12840   0.208E-01    0.247E-01
RMM:   5    -0.649159926771E+03    0.47253E-03   -0.28849E-03 12262   0.106E-01    0.161E-01
RMM:   6    -0.649159738526E+03    0.18825E-03   -0.15466E-03 12268   0.721E-02    0.998E-02
RMM:   7    -0.649159629539E+03    0.10899E-03   -0.82955E-04 12152   0.613E-02    0.568E-02
RMM:   8    -0.649159627863E+03    0.16764E-05   -0.32440E-04 11304   0.376E-02    0.523E-02
RMM:   9    -0.649159613436E+03    0.14427E-04   -0.13079E-04  9818   0.218E-02    0.207E-02
RMM:  10    -0.649159615250E+03   -0.18139E-05   -0.53539E-05  8343   0.154E-02
  34 F= -.64915962E+03 E0= -.64910854E+03  d E =-.541562E-02
       N       E                     dE             d eps       ncg     rms          rms(c)
DAV:   1    -0.649149524731E+03    0.10089E-01   -0.12105E+00  8064   0.411E+00    0.428E-01
RMM:   2    -0.649173914207E+03   -0.24389E-01   -0.20444E-01 11497   0.119E+00    0.897E-01
RMM:   3    -0.649163149681E+03    0.10765E-01   -0.23525E-02 11326   0.479E-01    0.196E-01
RMM:   4    -0.649162957808E+03    0.19187E-03   -0.56571E-03 12712   0.159E-01    0.176E-01
RMM:   5    -0.649162748955E+03    0.20885E-03   -0.16270E-03 12056   0.803E-02    0.131E-01
RMM:   6    -0.649162609015E+03    0.13994E-03   -0.91178E-04 12194   0.601E-02    0.672E-02
RMM:   7    -0.649162539898E+03    0.69117E-04   -0.40072E-04 12041   0.427E-02    0.387E-02
RMM:   8    -0.649162540931E+03   -0.10334E-05   -0.16442E-04 10522   0.258E-02    0.380E-02
RMM:   9    -0.649162529584E+03    0.11347E-04   -0.63811E-05  9039   0.166E-02    0.130E-02
RMM:  10    -0.649162527709E+03    0.18750E-05   -0.25864E-05  6651   0.124E-02
  35 F= -.64916253E+03 E0= -.64911144E+03  d E =-.291246E-02
       N       E                     dE             d eps       ncg     rms          rms(c)
DAV:   1    -0.649157879474E+03    0.46501E-02   -0.50062E-01  8352   0.264E+00    0.275E-01
RMM:   2    -0.649168035575E+03   -0.10156E-01   -0.84587E-02 11492   0.763E-01    0.581E-01
RMM:   3    -0.649163520289E+03    0.45153E-02   -0.97771E-03 11253   0.309E-01    0.124E-01
RMM:   4    -0.649163446605E+03    0.73684E-04   -0.23459E-03 12585   0.102E-01    0.111E-01
RMM:   5    -0.649163364103E+03    0.82502E-04   -0.67437E-04 11485   0.517E-02    0.834E-02
RMM:   6    -0.649163308071E+03    0.56031E-04   -0.38062E-04 11803   0.385E-02    0.441E-02
RMM:   7    -0.649163279047E+03    0.29025E-04   -0.17031E-04 11206   0.284E-02    0.267E-02
RMM:   8    -0.649163277762E+03    0.12848E-05   -0.68145E-05  9303   0.180E-02
  36 F= -.64916328E+03 E0= -.64911219E+03  d E =-.366251E-02
       N       E                     dE             d eps       ncg     rms          rms(c)
DAV:   1    -0.649162748372E+03    0.53067E-03   -0.53442E-02  8736   0.864E-01    0.904E-02
RMM:   2    -0.649163840500E+03   -0.10921E-02   -0.91504E-03 11599   0.249E-01    0.190E-01
RMM:   3    -0.649163352551E+03    0.48795E-03   -0.10860E-03 11074   0.101E-01    0.415E-02
RMM:   4    -0.649163345056E+03    0.74954E-05   -0.26542E-04 11386   0.346E-02    0.366E-02
RMM:   5    -0.649163336433E+03    0.86233E-05   -0.81579E-05  9435   0.203E-02
  37 F= -.64916334E+03 E0= -.64911223E+03  d E =-.372118E-02
       N       E                     dE             d eps       ncg     rms          rms(c)
DAV:   1    -0.649161747097E+03    0.15980E-02   -0.40578E-01  8304   0.224E+00    0.142E-01
RMM:   2    -0.649165763936E+03   -0.40168E-02   -0.45038E-02 12358   0.557E-01    0.104E-01
RMM:   3    -0.649165476071E+03    0.28786E-03   -0.44509E-03 12188   0.185E-01    0.118E-01
RMM:   4    -0.649165368156E+03    0.10791E-03   -0.10583E-03 12289   0.672E-02    0.629E-02
RMM:   5    -0.649165336163E+03    0.31993E-04   -0.37278E-04 11061   0.330E-02    0.414E-02
RMM:   6    -0.649165338487E+03   -0.23243E-05   -0.23904E-04 10885   0.280E-02    0.496E-02
RMM:   7    -0.649165316366E+03    0.22121E-04   -0.10374E-04  9614   0.203E-02    0.163E-02
RMM:   8    -0.649165314630E+03    0.17363E-05   -0.31482E-05  7447   0.126E-02
  38 F= -.64916531E+03 E0= -.64911433E+03  d E =-.197820E-02
       N       E                     dE             d eps       ncg     rms          rms(c)
DAV:   1    -0.649145015261E+03    0.20301E-01   -0.25247E+00  8064   0.560E+00    0.358E-01
RMM:   2    -0.649170014442E+03   -0.24999E-01   -0.28077E-01 12310   0.139E+00    0.274E-01
RMM:   3    -0.649168318352E+03    0.16961E-02   -0.28117E-02 12240   0.469E-01    0.314E-01
RMM:   4    -0.649167475732E+03    0.84262E-03   -0.66712E-03 12963   0.168E-01    0.149E-01
RMM:   5    -0.649167305911E+03    0.16982E-03   -0.22810E-03 12177   0.801E-02    0.109E-01
RMM:   6    -0.649167336895E+03   -0.30984E-04   -0.14576E-03 12000   0.673E-02    0.132E-01
RMM:   7    -0.649167168244E+03    0.16865E-03   -0.64890E-04 11652   0.496E-02    0.351E-02
RMM:   8    -0.649167168785E+03   -0.54082E-06   -0.23671E-04 10508   0.258E-02    0.266E-02
RMM:   9    -0.649167170477E+03   -0.16923E-05   -0.91897E-05  8902   0.184E-02
  39 F= -.64916717E+03 E0= -.64911647E+03  d E =-.383404E-02
       N       E                     dE             d eps       ncg     rms          rms(c)
DAV:   1    -0.649164361237E+03    0.28075E-02   -0.60928E-01  8064   0.262E+00    0.301E-01
RMM:   2    -0.649174569824E+03   -0.10209E-01   -0.80205E-02 11871   0.745E-01    0.652E-01
RMM:   3    -0.649168952155E+03    0.56177E-02   -0.10336E-02 11467   0.300E-01    0.138E-01
RMM:   4    -0.649168845609E+03    0.10655E-03   -0.25514E-03 12712   0.105E-01    0.125E-01
RMM:   5    -0.649168741729E+03    0.10388E-03   -0.80042E-04 11797   0.554E-02    0.960E-02
RMM:   6    -0.649168671209E+03    0.70520E-04   -0.42500E-04 11985   0.397E-02    0.515E-02
RMM:   7    -0.649168646352E+03    0.24857E-04   -0.19532E-04 11568   0.311E-02    0.252E-02
RMM:   8    -0.649168646675E+03   -0.32267E-06   -0.77875E-05  9768   0.185E-02
  40 F= -.64916865E+03 E0= -.64911814E+03  d E =-.147620E-02
       N       E                     dE             d eps       ncg     rms          rms(c)
DAV:   1    -0.649164217346E+03    0.44290E-02   -0.70963E-01  8064   0.283E+00    0.325E-01
RMM:   2    -0.649176075402E+03   -0.11858E-01   -0.93011E-02 11856   0.803E-01    0.702E-01
RMM:   3    -0.649169550388E+03    0.65250E-02   -0.11982E-02 11470   0.323E-01    0.148E-01
RMM:   4    -0.649169427067E+03    0.12332E-03   -0.29294E-03 12728   0.113E-01    0.132E-01
RMM:   5    -0.649169316662E+03    0.11041E-03   -0.92085E-04 11842   0.590E-02    0.104E-01
RMM:   6    -0.649169233731E+03    0.82931E-04   -0.49283E-04 12076   0.428E-02    0.542E-02
RMM:   7    -0.649169206328E+03    0.27403E-04   -0.22084E-04 11650   0.328E-02    0.240E-02
RMM:   8    -0.649169206374E+03   -0.46319E-07   -0.84577E-05  9858   0.188E-02
  41 F= -.64916921E+03 E0= -.64911891E+03  d E =-.203590E-02
       N       E                     dE             d eps       ncg     rms          rms(c)
DAV:   1    -0.649167839553E+03    0.13668E-02   -0.55255E-01  8064   0.244E+00    0.371E-01
RMM:   2    -0.649179453971E+03   -0.11614E-01   -0.82163E-02 11597   0.759E-01    0.809E-01
RMM:   3    -0.649170966487E+03    0.84875E-02   -0.11842E-02 11155   0.320E-01    0.154E-01
RMM:   4    -0.649170828989E+03    0.13750E-03   -0.32530E-03 12525   0.115E-01    0.164E-01
RMM:   5    -0.649170626151E+03    0.20284E-03   -0.11774E-03 12002   0.712E-02    0.118E-01
RMM:   6    -0.649170494155E+03    0.13200E-03   -0.55364E-04 12130   0.496E-02    0.493E-02
RMM:   7    -0.649170468059E+03    0.26096E-04   -0.21181E-04 11252   0.327E-02    0.386E-02
RMM:   8    -0.649170457634E+03    0.10425E-04   -0.91902E-05  9961   0.199E-02    0.241E-02
RMM:   9    -0.650864489335E+03   -0.16940E+01   -0.16940E+01  6765   0.130E-02    0.659E-01
RMM:  10    -0.648512755728E+03    0.23517E+01   -0.23151E-05  6115   0.127E-02    0.120E-01
RMM:  11    -0.648512676131E+03    0.79597E-04   -0.86544E-06  5245   0.105E-02    0.120E-01
RMM:  12    -0.648512676224E+03   -0.92856E-07   -0.83676E-06  5211   0.774E-03
  42 F= -.64851268E+03 E0= -.64846179E+03  d E =0.656530E+00
       N       E                     dE             d eps       ncg     rms          rms(c)
DAV:   1    -0.649083553442E+03   -0.57088E+00   -0.49714E+00  8112   0.733E+00    0.112E+00
RMM:   2    -0.649240959702E+03   -0.15741E+00   -0.12607E+00 11597   0.232E+00    0.242E+00
RMM:   3    -0.649167920403E+03    0.73039E-01   -0.19333E-01 11059   0.974E-01    0.447E-01
RMM:   4    -0.649166518162E+03    0.14022E-02   -0.34949E-02 12603   0.346E-01    0.467E-01
RMM:   5    -0.649165658900E+03    0.85926E-03   -0.16923E-02 12181   0.209E-01    0.361E-01
RMM:   6    -0.649164472568E+03    0.11863E-02   -0.57879E-03 12253   0.146E-01    0.150E-01
RMM:   7    -0.649164269153E+03    0.20342E-03   -0.23371E-03 12426   0.950E-02    0.103E-01
RMM:   8    -0.649164231429E+03    0.37723E-04   -0.97719E-04 11734   0.522E-02    0.758E-02
RMM:   9    -0.649164202864E+03    0.28566E-04   -0.41131E-04 10850   0.304E-02    0.329E-02
RMM:  10    -0.649164201027E+03    0.18363E-05   -0.16490E-04 10125   0.214E-02    0.238E-02
RMM:  11    -0.649164202221E+03   -0.11932E-05   -0.68407E-05  8334   0.149E-02
  43 F= -.64916420E+03 E0= -.64911407E+03  d E =0.500415E-02
       N       E                     dE             d eps       ncg     rms          rms(c)
DAV:   1    -0.649157810449E+03    0.63906E-02   -0.25972E+00  8064   0.530E+00    0.790E-01
RMM:   2    -0.649210086041E+03   -0.52276E-01   -0.37595E-01 11502   0.164E+00    0.172E+00
RMM:   3    -0.649172644453E+03    0.37442E-01   -0.52670E-02 11096   0.677E-01    0.345E-01
RMM:   4    -0.649171937009E+03    0.70744E-03   -0.14125E-02 12613   0.242E-01    0.361E-01
RMM:   5    -0.649170946666E+03    0.99034E-03   -0.51842E-03 12152   0.153E-01    0.254E-01
RMM:   6    -0.649170327220E+03    0.61945E-03   -0.24311E-03 12213   0.105E-01    0.102E-01
RMM:   7    -0.649170247604E+03    0.79616E-04   -0.91870E-04 12383   0.677E-02    0.840E-02
RMM:   8    -0.649170200235E+03    0.47368E-04   -0.37295E-04 11387   0.373E-02    0.487E-02
RMM:   9    -0.649170189854E+03    0.10381E-04   -0.14158E-04  9995   0.213E-02    0.210E-02
RMM:  10    -0.649170193397E+03   -0.35426E-05   -0.59747E-05  8620   0.160E-02
  44 F= -.64917019E+03 E0= -.64911999E+03  d E =-.987023E-03
       N       E                     dE             d eps       ncg     rms          rms(c)
DAV:   1    -0.649170158155E+03    0.31700E-04   -0.48541E-02  8736   0.725E-01    0.112E-01
RMM:   2    -0.649171242651E+03   -0.10845E-02   -0.73393E-03 11564   0.226E-01    0.249E-01
RMM:   3    -0.649170447225E+03    0.79543E-03   -0.10886E-03 10836   0.967E-02    0.458E-02
RMM:   4    -0.649170442237E+03    0.49883E-05   -0.30768E-04 11386   0.353E-02    0.493E-02
RMM:   5    -0.649170427107E+03    0.15130E-04   -0.11539E-04 10216   0.230E-02    0.344E-02
RMM:   6    -0.649170419446E+03    0.76606E-05   -0.56185E-05  9316   0.161E-02
  45 F= -.64917042E+03 E0= -.64912020E+03  d E =-.121307E-02
       N       E                     dE             d eps       ncg     rms          rms(c)
DAV:   1    -0.649170288944E+03    0.13816E-03   -0.38448E-02  8640   0.646E-01    0.976E-02
RMM:   2    -0.649171114686E+03   -0.82574E-03   -0.57095E-03 11541   0.200E-01    0.215E-01
RMM:   3    -0.649170515212E+03    0.59947E-03   -0.82701E-04 10751   0.844E-02    0.414E-02
RMM:   4    -0.649170513034E+03    0.21778E-05   -0.24050E-04 11260   0.320E-02    0.474E-02
RMM:   5    -0.649170496511E+03    0.16523E-04   -0.89405E-05  9758   0.210E-02    0.287E-02
RMM:   6    -0.649170490725E+03    0.57867E-05   -0.40335E-05  7195   0.146E-02
  46 F= -.64917049E+03 E0= -.64912026E+03  d E =-.128435E-02
       N       E                     dE             d eps       ncg     rms          rms(c)
DAV:   1    -0.649168649999E+03    0.18465E-02   -0.33667E-01  8064   0.190E+00    0.119E-01
RMM:   2    -0.649171695055E+03   -0.30451E-02   -0.32193E-02 12143   0.472E-01    0.148E-01
RMM:   3    -0.649171368999E+03    0.32606E-03   -0.32302E-03 11882   0.161E-01    0.982E-02
RMM:   4    -0.649171285393E+03    0.83606E-04   -0.65502E-04 11991   0.545E-02    0.487E-02
RMM:   5    -0.649171278046E+03    0.73473E-05   -0.22586E-04 10465   0.290E-02    0.477E-02
RMM:   6    -0.649171264055E+03    0.13991E-04   -0.13412E-04 10227   0.214E-02    0.304E-02
RMM:   7    -0.649171254174E+03    0.98812E-05   -0.64134E-05  9807   0.161E-02
  47 F= -.64917125E+03 E0= -.64912115E+03  d E =-.763449E-03
       N       E                     dE             d eps       ncg     rms          rms(c)
DAV:   1    -0.649169173075E+03    0.20910E-02   -0.30033E-01  8064   0.179E+00    0.114E-01
RMM:   2    -0.649171943748E+03   -0.27707E-02   -0.29084E-02 12166   0.445E-01    0.152E-01
RMM:   3    -0.649171604503E+03    0.33925E-03   -0.30081E-03 11928   0.153E-01    0.942E-02
RMM:   4    -0.649171531481E+03    0.73023E-04   -0.63245E-04 11927   0.529E-02    0.467E-02
RMM:   5    -0.649171526315E+03    0.51659E-05   -0.22195E-04 10353   0.280E-02    0.441E-02
RMM:   6    -0.649171514194E+03    0.12120E-04   -0.12778E-04  9953   0.205E-02    0.272E-02
RMM:   7    -0.649171507347E+03    0.68470E-05   -0.63813E-05  9476   0.155E-02
  48 F= -.64917151E+03 E0= -.64912151E+03  d E =-.101662E-02
       N       E                     dE             d eps       ncg     rms          rms(c)
DAV:   1    -0.649171215391E+03    0.29880E-03   -0.73801E-02  8208   0.953E-01    0.101E-01
RMM:   2    -0.649172382437E+03   -0.11670E-02   -0.10269E-02 11780   0.264E-01    0.196E-01
RMM:   3    -0.649171850305E+03    0.53213E-03   -0.12129E-03 11634   0.106E-01    0.502E-02
RMM:   4    -0.649171837550E+03    0.12755E-04   -0.32248E-04 11523   0.377E-02    0.427E-02
RMM:   5    -0.649171828138E+03    0.94121E-05   -0.11785E-04  9980   0.238E-02    0.356E-02
RMM:   6    -0.649171819501E+03    0.86369E-05   -0.61230E-05  9460   0.163E-02
  49 F= -.64917182E+03 E0= -.64912185E+03  d E =-.312153E-03
       N       E                     dE             d eps       ncg     rms          rms(c)
DAV:   1    -0.649171646328E+03    0.18181E-03   -0.26148E-02  8736   0.568E-01    0.624E-02
RMM:   2    -0.649172096788E+03   -0.45046E-03   -0.37884E-03 11870   0.159E-01    0.126E-01
RMM:   3    -0.649171875000E+03    0.22179E-03   -0.46948E-04 11407   0.644E-02    0.310E-02
RMM:   4    -0.649171873663E+03    0.13371E-05   -0.13231E-04 10362   0.244E-02    0.298E-02
RMM:   5    -0.649171868250E+03    0.54128E-05   -0.52146E-05  8445   0.172E-02
  50 F= -.64917187E+03 E0= -.64912196E+03  d E =-.360903E-03
       N       E                     dE             d eps       ncg     rms          rms(c)
DAV:   1    -0.649171765731E+03    0.10793E-03   -0.68843E-02  8400   0.961E-01    0.158E-01
RMM:   2    -0.649173828227E+03   -0.20625E-02   -0.13165E-02 11023   0.310E-01    0.358E-01
RMM:   3    -0.649172166352E+03    0.16619E-02   -0.20201E-03 10501   0.133E-01    0.647E-02
RMM:   4    -0.649172138906E+03    0.27446E-04   -0.49319E-04 11774   0.486E-02    0.675E-02
RMM:   5    -0.649172103146E+03    0.35760E-04   -0.17323E-04 10361   0.291E-02    0.471E-02
RMM:   6    -0.649172079137E+03    0.24008E-04   -0.76320E-05  9630   0.208E-02    0.202E-02
RMM:   7    -0.649172074067E+03    0.50698E-05   -0.33619E-05  6102   0.152E-02
  51 F= -.64917207E+03 E0= -.64912214E+03  d E =-.205817E-03
       N       E                     dE             d eps       ncg     rms          rms(c)
DAV:   1    -0.649172074233E+03    0.49039E-05   -0.60491E-04  9408   0.927E-02    0.195E-02
RMM:   2    -0.649172113539E+03   -0.39306E-04   -0.17569E-04  9994   0.335E-02    0.596E-02
RMM:   3    -0.649172075305E+03    0.38234E-04   -0.35309E-05  5542   0.178E-02    0.654E-03
RMM:   4    -0.649172074824E+03    0.48162E-06   -0.78883E-06  4427   0.888E-03
  52 F= -.64917207E+03 E0= -.64912215E+03  d E =-.206573E-03
       N       E                     dE             d eps       ncg     rms          rms(c)
DAV:   1    -0.649172069796E+03    0.55095E-05   -0.23491E-03  8712   0.177E-01    0.301E-02
RMM:   2    -0.649172135037E+03   -0.65241E-04   -0.44064E-04 10511   0.571E-02    0.648E-02
RMM:   3    -0.649172081687E+03    0.53350E-04   -0.72043E-05  8268   0.257E-02    0.132E-02
RMM:   4    -0.649172079696E+03    0.19912E-05   -0.14947E-05  4807   0.113E-02
  53 F= -.64917208E+03 E0= -.64912215E+03  d E =-.211446E-03
       N       E                     dE             d eps       ncg     rms          rms(c)
DAV:   1    -0.649171874180E+03    0.20751E-03   -0.38376E-02  8160   0.683E-01    0.534E-02
RMM:   2    -0.649172295619E+03   -0.42144E-03   -0.43790E-03 12274   0.176E-01    0.783E-02
RMM:   3    -0.649172205790E+03    0.89829E-04   -0.47495E-04 11590   0.609E-02    0.356E-02
RMM:   4    -0.649172193078E+03    0.12713E-04   -0.97256E-05 10125   0.226E-02    0.216E-02
RMM:   5    -0.649172193376E+03   -0.29885E-06   -0.47463E-05  7957   0.160E-02
  54 F= -.64917219E+03 E0= -.64912228E+03  d E =-.113680E-03
