HECN                                    
           1
    11.240000    0.000000    0.000000
     0.000000   11.240000    0.000000
     0.000000    0.000000   11.240000
   Ti   Mo   Hf   N    C    W    V 
   7   6   7  13  19   6   6
Direct configuration=     1
   0.00000000  0.00000000  0.00000000
   0.25000000  0.00000000  0.25000000
   0.25000000  0.50000000  0.25000000
   0.50000000  0.50000000  0.00000000
   0.50000000  0.25000000  0.75000004
   0.00000000  0.50000000  0.50000000
   0.50000000  0.75000004  0.75000004
   0.00000000  0.25000000  0.25000000
   0.75000004  0.75000004  0.00000000
   0.00000000  0.25000000  0.75000004
   0.75000004  0.25000000  0.50000000
   0.00000000  0.75000004  0.75000004
   0.25000000  0.50000000  0.75000004
   0.25000000  0.25000000  0.00000000
   0.50000000  0.25000000  0.25000000
   0.75000004  0.00000000  0.25000000
   0.75000004  0.25000000  0.00000000
   0.25000000  0.75000004  0.00000000
   0.25000000  0.25000000  0.50000000
   0.25000000  0.75000004  0.50000000
   0.25000000  0.25000000  0.25000000
   0.25000000  0.00000000  0.00000000
   0.00000000  0.25000000  0.00000000
   0.75000004  0.25000000  0.25000000
   0.75000004  0.00000000  0.00000000
   0.50000000  0.00000000  0.25000000
   0.00000000  0.50000000  0.25000000
   0.50000000  0.75000004  0.00000000
   0.00000000  0.00000000  0.75000004
   0.75000004  0.25000000  0.75000004
   0.75000004  0.00000000  0.50000000
   0.50000000  0.25000000  0.50000000
   0.50000000  0.00000000  0.75000004
   0.00000000  0.00000000  0.25000000
   0.50000000  0.25000000  0.00000000
   0.25000000  0.75000004  0.25000000
   0.25000000  0.50000000  0.00000000
   0.00000000  0.75000004  0.00000000
   0.75000004  0.75000004  0.25000000
   0.75000004  0.50000000  0.00000000
   0.50000000  0.50000000  0.25000000
   0.25000000  0.25000000  0.75000004
   0.25000000  0.00000000  0.50000000
   0.00000000  0.25000000  0.50000000
   0.25000000  0.75000004  0.75000004
   0.25000000  0.50000000  0.50000000
   0.00000000  0.75000004  0.50000000
   0.00000000  0.50000000  0.75000004
   0.75000004  0.75000004  0.75000004
   0.75000004  0.50000000  0.50000000
   0.50000000  0.75000004  0.50000000
   0.50000000  0.50000000  0.75000004
   0.50000000  0.00000000  0.00000000
   0.00000000  0.50000000  0.00000000
   0.50000000  0.75000004  0.25000000
   0.25000000  0.00000000  0.75000004
   0.50000000  0.00000000  0.50000000
   0.75000004  0.00000000  0.75000004
   0.00000000  0.75000004  0.25000000
   0.75000004  0.50000000  0.25000000
   0.00000000  0.00000000  0.50000000
   0.50000000  0.50000000  0.50000000
   0.75000004  0.50000000  0.75000004
   0.75000004  0.75000004  0.50000000
HECN                                    
           1
     8.112225   -0.002697    0.001074
    -0.002697    8.098854    0.001089
     0.001074    0.001089    8.121685
   Ti   Mo   Hf   N    C    W    V 
   7   6   7  13  19   6   6
Direct configuration=     2
  -0.00017277 -0.00151841  0.00040692
   0.24876881 -0.00172112  0.25155418
   0.25050912  0.50162952  0.25016294
   0.50017452  0.49937378 -0.00021707
   0.49916403  0.25043334  0.75041465
  -0.00034284  0.49995347  0.50090484
   0.50020509  0.74936187  0.74884444
  -0.00061747  0.24786256  0.25220238
   0.75249992  0.74758339 -0.00030087
   0.00186697  0.25181702  0.74739541
   0.75265061  0.25205992  0.50108025
  -0.00057375  0.74819103  0.74972353
   0.25014647  0.50018635  0.75003295
   0.24985290  0.25100045 -0.00190446
   0.50049880  0.25130256  0.24984797
   0.75090682 -0.00144733  0.25074363
   0.74984513  0.25134505 -0.00093181
   0.24932289  0.74907969 -0.00033899
   0.24889595  0.24995733  0.50182654
   0.24991874  0.75006899  0.50039602
   0.25263862  0.24982864  0.24980475
   0.25126112  0.00013969 -0.00087187
   0.00015647  0.25100450  0.00009036
   0.74762169  0.24709872  0.24785517
   0.74864323  0.00233555  0.00064932
   0.50233777  0.00124059  0.25000924
   0.00021258  0.49902393  0.24827876
   0.49777708  0.75139970  0.00109098
  -0.00049091  0.00015876  0.75067267
   0.74984505  0.24774002  0.75207421
   0.74814112  0.00082546  0.49959920
   0.49793766  0.24810250  0.49778508
   0.50033631  0.00011963  0.75001262
  -0.00192397  0.00143261  0.24960445
   0.50014985  0.24753429  0.00188137
   0.25253733  0.75019501  0.24962291
   0.24780934  0.49978157 -0.00017164
   0.00042874  0.74777368 -0.00106361
   0.74748205  0.75188160  0.24891790
   0.75230040  0.49920972  0.00014862
   0.50008083  0.50054475  0.24987268
   0.24925195  0.24840092  0.75028081
   0.25252688  0.00030460  0.50210050
   0.00024520  0.25021266  0.50009388
   0.24941500  0.75162586  0.75027814
   0.24960431  0.49971569  0.50023996
   0.00151921  0.74979267  0.50129962
   0.00055976  0.49994480  0.75249463
   0.75082746  0.75292020  0.75106150
   0.75032431  0.49861145  0.49991881
   0.49853945  0.75272157  0.49774488
   0.49926748  0.49999439  0.75007989
   0.50056888  0.00175193 -0.00061630
  -0.00045423  0.50251230 -0.00222285
   0.50068093  0.74767105  0.25209382
   0.24973496 -0.00029150  0.74749386
   0.49834199 -0.00236171  0.50058558
   0.75031132 -0.00262904  0.74944445
  -0.00040937  0.75141533  0.25026945
   0.74904625  0.50214488  0.25016122
   0.00102478  0.00015934  0.49927714
   0.50031313  0.50142512  0.50035961
   0.74970434  0.50170258  0.74979516
   0.75025437  0.74836520  0.50006029
HECN                                    
           1
     8.834442   -0.002074    0.000826
    -0.002074    8.824158    0.000838
     0.000826    0.000838    8.841718
   Ti   Mo   Hf   N    C    W    V 
   7   6   7  13  19   6   6
Direct configuration=     3
  -0.00011732 -0.00103179  0.00027681
   0.24916296 -0.00116937  0.25105740
   0.25034607  0.50110728  0.25011096
   0.50011874  0.49957443 -0.00014772
   0.49943146  0.25029458  0.75028214
  -0.00023311  0.49996846  0.50061567
   0.50013949  0.74956631  0.74921371
  -0.00041960  0.24854768  0.25149847
   0.75170037  0.74835755 -0.00020472
   0.00126936  0.25123442  0.74822790
   0.75180244  0.25139956  0.50073525
  -0.00039001  0.74877079  0.74981179
   0.25009959  0.50012662  0.75002245
   0.24989978  0.25067978 -0.00129583
   0.50033908  0.25088508  0.24989663
   0.75061689 -0.00098359  0.25050597
   0.74989451  0.25091399 -0.00063399
   0.24953960  0.74937468 -0.00023073
   0.24924926  0.24997120  0.50124280
   0.24994475  0.75004692  0.50026947
   0.25179445  0.24988326  0.24986725
   0.25085760  0.00009475 -0.00059319
   0.00010631  0.25068259  0.00006153
   0.74838282  0.24802863  0.24854035
   0.74907709  0.00158727  0.00044187
   0.50158971  0.00084278  0.25000644
   0.00014460  0.49933663  0.24882877
   0.49848816  0.75095145  0.00074231
  -0.00033384  0.00010796  0.75045771
   0.74989497  0.24846436  0.75141128
   0.74873575  0.00056111  0.49972724
   0.49859758  0.24871070  0.49849271
   0.50022870  0.00008126  0.75000862
  -0.00130860  0.00097370  0.24973083
   0.50010225  0.24832452  0.00128006
   0.25172552  0.75013224  0.24974353
   0.24851022  0.49985179 -0.00011689
   0.00029176  0.74848705 -0.00072380
   0.74828739  0.75127886  0.24926367
   0.75156453  0.49946274  0.00010119
   0.50005491  0.50037017  0.24991339
   0.24949146  0.24891345  0.75019099
   0.25171851  0.00020681  0.50142939
   0.00016673  0.25014449  0.50006390
   0.24960200  0.75110493  0.75018932
   0.24973094  0.49980685  0.50016325
   0.00103324  0.74985902  0.50088437
   0.00038079  0.49996254  0.75169748
   0.75056248  0.75198436  0.75072246
   0.75022071  0.49905639  0.49994471
   0.49900634  0.75184948  0.49846558
   0.49950184  0.49999627  0.75005434
   0.50038666  0.00119042 -0.00041926
  -0.00030927  0.50170716 -0.00151242
   0.50046342  0.74841742  0.25142465
   0.24981968 -0.00019816  0.74829471
   0.49887272 -0.00160467  0.50039828
   0.75021199 -0.00178659  0.74962189
  -0.00027854  0.75096184  0.25018339
   0.74935118  0.50145764  0.25010976
   0.00069687  0.00010814  0.49950819
   0.50021281  0.50096841  0.50024477
   0.74979876  0.50115699  0.74986069
   0.75017318  0.74888908  0.50004096
HECN                                    
           1
     8.773639   -0.002126    0.000847
    -0.002126    8.763095    0.000859
     0.000847    0.000859    8.781099
   Ti   Mo   Hf   N    C    W    V 
   7   6   7  13  19   6   6
Direct configuration=     4
  -0.00012160 -0.00106939  0.00028687
   0.24913249 -0.00121200  0.25109582
   0.25035867  0.50114763  0.25011498
   0.50012306  0.49955893 -0.00015309
   0.49941078  0.25030531  0.75029239
  -0.00024159  0.49996730  0.50063803
   0.50014456  0.74955051  0.74918515
  -0.00043489  0.24849475  0.25155290
   0.75176219  0.74829773 -0.00021216
   0.00131555  0.25127943  0.74816353
   0.75186800  0.25145058  0.50076193
  -0.00040421  0.74872600  0.74980496
   0.25010321  0.50013123  0.75002326
   0.24989615  0.25070456 -0.00134290
   0.50035142  0.25091734  0.24989287
   0.75063931 -0.00101942  0.25052435
   0.74989069  0.25094730 -0.00065702
   0.24952285  0.74935189 -0.00023910
   0.24922195  0.24997013  0.50128794
   0.24994274  0.75004863  0.50027925
   0.25185971  0.24987904  0.24986242
   0.25088879  0.00009822 -0.00061474
   0.00011018  0.25070746  0.00006377
   0.74832399  0.24795678  0.24848735
   0.74904355  0.00164510  0.00045791
   0.50164753  0.00087351  0.25000666
   0.00014986  0.49931246  0.24878623
   0.49843318  0.75098609  0.00076927
  -0.00034599  0.00011189  0.75047434
   0.74989111  0.24840839  0.75146255
   0.74868978  0.00058154  0.49971733
   0.49854657  0.24866370  0.49843798
   0.50023702  0.00008422  0.75000893
  -0.00135618  0.00100917  0.24972106
   0.50010594  0.24826346  0.00132656
   0.25178828  0.75013709  0.24973420
   0.24845604  0.49984637 -0.00012113
   0.00030235  0.74843193 -0.00075008
   0.74822512  0.75132544  0.24923693
   0.75162142  0.49944318  0.00010486
   0.50005691  0.50038365  0.24991024
   0.24947295  0.24887385  0.75019793
   0.25178100  0.00021436  0.50148129
   0.00017280  0.25014976  0.50006622
   0.24958754  0.75114518  0.75019619
   0.24972115  0.49979981  0.50016918
   0.00107081  0.74985389  0.50091648
   0.00039462  0.49996117  0.75175913
   0.75058296  0.75205667  0.75074868
   0.75022872  0.49902201  0.49994271
   0.49897024  0.75191687  0.49840985
   0.49948373  0.49999613  0.75005632
   0.50040074  0.00123380 -0.00043449
  -0.00032048  0.50176937 -0.00156736
   0.50048024  0.74835975  0.25147640
   0.24981313 -0.00020538  0.74823278
   0.49883170 -0.00166316  0.50041276
   0.75021967 -0.00185169  0.74960817
  -0.00028866  0.75099688  0.25019004
   0.74932760  0.50151074  0.25011374
   0.00072222  0.00011209  0.49949032
   0.50022057  0.50100370  0.50025365
   0.74979145  0.50119915  0.74985563
   0.75017946  0.74884860  0.50004246
HECN                                    
           1
     8.751147   -0.002146    0.000854
    -0.002146    8.740507    0.000867
     0.000854    0.000867    8.758675
   Ti   Mo   Hf   N    C    W    V 
   7   6   7  13  19   6   6
Direct configuration=     5
  -0.00012320 -0.00108339  0.00029062
   0.24912115 -0.00122788  0.25111013
   0.25036337  0.50116266  0.25011648
   0.50012466  0.49955315 -0.00015508
   0.49940308  0.25030930  0.75029621
  -0.00024475  0.49996687  0.50064636
   0.50014645  0.74954462  0.74917451
  -0.00044059  0.24847503  0.25157318
   0.75178521  0.74827544 -0.00021493
   0.00133276  0.25129620  0.74813955
   0.75189242  0.25146959  0.50077187
  -0.00040950  0.74870931  0.74980242
   0.25010456  0.50013295  0.75002356
   0.24989480  0.25071379 -0.00136043
   0.50035602  0.25092936  0.24989147
   0.75064766 -0.00103277  0.25053120
   0.74988926  0.25095970 -0.00066560
   0.24951661  0.74934340 -0.00024222
   0.24921177  0.24996973  0.50130475
   0.24994199  0.75004926  0.50028290
   0.25188402  0.24987746  0.24986062
   0.25090041  0.00009951 -0.00062277
   0.00011162  0.25071673  0.00006460
   0.74830207  0.24793002  0.24846762
   0.74903105  0.00166663  0.00046389
   0.50166907  0.00088496  0.25000674
   0.00015182  0.49930346  0.24877039
   0.49841271  0.75099899  0.00077931
  -0.00035051  0.00011335  0.75048053
   0.74988968  0.24838755  0.75148164
   0.74867265  0.00058915  0.49971365
   0.49852756  0.24864620  0.49841760
   0.50024012  0.00008533  0.75000904
  -0.00137390  0.00102238  0.24971742
   0.50010731  0.24824071  0.00134388
   0.25181165  0.75013889  0.24973073
   0.24843585  0.49984435 -0.00012271
   0.00030630  0.74841140 -0.00075987
   0.74820193  0.75134279  0.24922697
   0.75164261  0.49943590  0.00010623
   0.50005766  0.50038868  0.24990907
   0.24946605  0.24885910  0.75020052
   0.25180428  0.00021717  0.50150062
   0.00017506  0.25015172  0.50006708
   0.24958216  0.75116017  0.75019874
   0.24971751  0.49979718  0.50017139
   0.00108481  0.74985198  0.50092844
   0.00039978  0.49996066  0.75178209
   0.75059058  0.75208361  0.75075845
   0.75023171  0.49900920  0.49994196
   0.49895679  0.75194197  0.49838909
   0.49947698  0.49999607  0.75005706
   0.50040599  0.00124996 -0.00044017
  -0.00032466  0.50179254 -0.00158782
   0.50048650  0.74833827  0.25149567
   0.24981069 -0.00020806  0.74820971
   0.49881642 -0.00168495  0.50041815
   0.75022254 -0.00187594  0.74960306
  -0.00029243  0.75100993  0.25019252
   0.74931882  0.50153052  0.25011522
   0.00073166  0.00011357  0.49948367
   0.50022345  0.50101684  0.50025696
   0.74978873  0.50121486  0.74985374
   0.75018180  0.74883352  0.50004301
HECN                                    
           1
     8.711017    0.001430   -0.003371
     0.001442    8.767590   -0.000256
    -0.003374   -0.000251    8.708239
   Ti   Mo   Hf   N    C    W    V 
   7   6   7  13  19   6   6
Direct configuration=     6
  -0.00001539 -0.00396221  0.00217263
   0.24646414 -0.00312409  0.25285057
   0.25102235  0.50364089  0.25069569
   0.50117244  0.49746810 -0.00129066
   0.49900085  0.25144489  0.74971678
  -0.00269252  0.50042890  0.50004472
   0.50270059  0.74714340  0.74642514
  -0.00203355  0.24283201  0.25591572
   0.75768155  0.74232167 -0.00058432
   0.00407601  0.25531098  0.74365285
   0.75663609  0.25831634  0.50332526
  -0.00366999  0.74431065  0.74835307
   0.25315748  0.50058512  0.74935261
   0.24579080  0.24846822 -0.00046099
   0.50021897  0.25507979  0.25224901
   0.75438263 -0.00362396  0.25365985
   0.75262584  0.25385316 -0.00335147
   0.24923789  0.75101180  0.00030722
   0.24876407  0.25096540  0.50058488
   0.24842591  0.74914166  0.49986842
   0.25175612  0.24961570  0.25009529
   0.24876753 -0.00009606  0.00250009
   0.00048792  0.24904013  0.00043704
   0.74905600  0.25281553  0.25001086
   0.75180958  0.00068483 -0.00171236
   0.49761877 -0.00065876  0.25005261
  -0.00128566  0.50262587  0.25025433
   0.49897267  0.74830002 -0.00172807
  -0.00100395  0.00009550  0.74954322
   0.74571261  0.25118492  0.74949575
   0.75180887 -0.00360511  0.50278894
   0.49981893  0.25177114  0.50312106
   0.50058167  0.00006370  0.74965423
   0.00446632 -0.00262568  0.25150612
   0.50023647  0.25009292 -0.00438731
   0.24994040  0.75046452  0.24974277
   0.24874085  0.49986733  0.00357210
  -0.00386944  0.74959158  0.00315283
   0.75096987  0.74272480  0.25263700
   0.75050974  0.50455363  0.00063743
   0.50243864  0.50596637  0.25178459
   0.25223167  0.24824113  0.75007593
   0.24897701  0.00005584  0.49999013
  -0.00440823  0.24943855  0.50051563
   0.25206689  0.75198548  0.74989892
   0.25045224  0.49975432  0.49723810
  -0.00674021  0.75146978  0.49828089
  -0.00454192  0.50021819  0.74992153
   0.74753609  0.74933994  0.74698202
   0.74925396  0.50243493  0.49968249
   0.50618842  0.74848936  0.50029861
   0.50371313  0.50039198  0.74784879
   0.50071539  0.00607380 -0.00153070
  -0.00247088  0.50632819 -0.00336490
   0.50234445  0.74186898  0.25619848
   0.24767131 -0.00083457  0.74493342
   0.49542736 -0.00647998  0.50123454
   0.75236297 -0.00756016  0.74657641
  -0.00132740  0.75541289  0.25130389
   0.74687399  0.50625989  0.25100188
   0.00288083  0.00034680  0.49703775
   0.50200739  0.50446887  0.50117383
   0.74660131  0.50548233  0.74866812
   0.75170481  0.74272856  0.49938940
HECN                                    
           1
     8.690570    0.003252   -0.005524
     0.003270    8.781390   -0.000828
    -0.005528   -0.000821    8.682540
   Ti   Mo   Hf   N    C    W    V 
   7   6   7  13  19   6   6
Direct configuration=     7
   0.00004087 -0.00542445  0.00313699
   0.24510487 -0.00408664  0.25374175
   0.25135931  0.50489965  0.25099285
   0.50170894  0.49640866 -0.00187251
   0.49879458  0.25202178  0.74941981
  -0.00394576  0.50066407  0.49973580
   0.50400785  0.74592294  0.74501658
  -0.00284671  0.23996614  0.25814049
   0.76070099  0.73929608 -0.00077255
   0.00547830  0.25734950  0.74135439
   0.75906353  0.26179346  0.50463549
  -0.00533845  0.74207686  0.74760919
   0.25471999  0.50081413  0.74900954
   0.24369069  0.24732846 -0.00000119
   0.50014854  0.25718826  0.25345748
   0.75629585 -0.00494078  0.25526402
   0.75402539  0.25532221 -0.00472710
   0.24909501  0.75185939  0.00058885
   0.24853451  0.25147121  0.50021591
   0.24764993  0.74868091  0.49965557
   0.25169077  0.24948277  0.25021551
   0.24767654 -0.00019476  0.00409999
   0.00068098  0.24818841  0.00062790
   0.74944129  0.25529716  0.25080227
   0.75323154  0.00018539 -0.00282705
   0.49554579 -0.00144208  0.25007501
  -0.00202182  0.50431394  0.25101470
   0.49925925  0.74692875 -0.00301313
  -0.00133867  0.00008651  0.74906269
   0.74357334  0.25260664  0.74847714
   0.75341591 -0.00573612  0.50436551
   0.50048047  0.25335856  0.50553209
   0.50075642  0.00005262  0.74947247
   0.00745708 -0.00447989  0.25242403
   0.50030077  0.25103338 -0.00732437
   0.24898246  0.75063032  0.24974849
   0.24889788  0.49987917  0.00546575
  -0.00600624  0.75019220  0.00515710
   0.75238940  0.73834678  0.25438474
   0.74992889  0.50715355  0.00090971
   0.50365673  0.50879929  0.25274674
   0.25364747  0.24792664  0.75001273
   0.24752942 -0.00002561  0.49921530
  -0.00675411  0.24907726  0.50074432
   0.25333855  0.75240417  0.74974594
   0.25082763  0.49973221  0.49573499
  -0.01074676  0.75229303  0.49692220
  -0.00707204  0.50034992  0.74896679
   0.74597216  0.74794663  0.74504568
   0.74875268  0.50417528  0.49954950
   0.50989142  0.74673416  0.50127880
   0.50588094  0.50059207  0.74671814
   0.50087249  0.00852403 -0.00208920
  -0.00357090  0.50863249 -0.00427587
   0.50329804  0.73858270  0.25860869
   0.24657549 -0.00115258  0.74325377
   0.49369375 -0.00891495  0.50165179
   0.75345908 -0.01044821  0.74502543
  -0.00185784  0.75764974  0.25187349
   0.74562173  0.50866283  0.25145599
   0.00398031  0.00046467  0.49578478
   0.50292007  0.50622208  0.50164439
   0.74496851  0.50765065  0.74805999
   0.75248555  0.73962706  0.49905441
HECN                                    
           1
     8.790708    0.000945   -0.002164
     0.000957    8.831942   -0.000644
    -0.002166   -0.000633    8.790374
   Ti   Mo   Hf   N    C    W    V 
   7   6   7  13  19   6   6
Direct configuration=     8
  -0.00058462 -0.00929894  0.00480321
   0.24491855 -0.00530624  0.25576857
   0.25100780  0.50728563  0.25105704
   0.50049038  0.49315496 -0.00406160
   0.49651842  0.25314821  0.74990657
  -0.00580318  0.50124282  0.49782049
   0.50559336  0.74386191  0.74307310
  -0.00426102  0.23345887  0.26205477
   0.76198577  0.73670982 -0.00032842
   0.00878851  0.26233259  0.73877828
   0.75865033  0.26909290  0.50599249
  -0.00859392  0.73736118  0.74927269
   0.25780487  0.50109572  0.74901749
   0.24434906  0.24728366  0.00100881
   0.50283216  0.25951126  0.25237526
   0.75449416 -0.00681308  0.25735327
   0.75510613  0.25716247 -0.00618381
   0.24952222  0.75181546 -0.00049500
   0.24745064  0.25196819  0.49980195
   0.24671139  0.74864001  0.50078085
   0.25150469  0.24914639  0.25104816
   0.24653302 -0.00026624  0.00609989
  -0.00084344  0.24782290  0.00124063
   0.75032264  0.25631681  0.25186130
   0.75431981  0.00033448 -0.00260592
   0.49542543 -0.00169389  0.24896953
  -0.00337709  0.50378266  0.25086606
   0.50088912  0.74813208 -0.00343883
  -0.00205124  0.00101956  0.74859246
   0.74215650  0.25359402  0.74660889
   0.75454212 -0.00701496  0.50533488
   0.50236332  0.25336410  0.50734957
   0.50134703  0.00012560  0.74961824
   0.00777164 -0.00745671  0.25364629
   0.50056827  0.25329487 -0.00720292
   0.24873863  0.75067298  0.25027803
   0.24833718  0.50000865  0.00636098
  -0.00282908  0.75192674  0.00682444
   0.75451031  0.73761941  0.25514278
   0.74839884  0.50542493  0.00091278
   0.50444997  0.50592106  0.25317050
   0.25529187  0.24816675  0.74959855
   0.24491098 -0.00063839  0.49753821
  -0.00477413  0.24883455  0.50115021
   0.25369794  0.75271293  0.74930026
   0.25122539  0.50003353  0.49483574
  -0.01298076  0.75324227  0.49584962
  -0.00894957  0.49929554  0.74715329
   0.74425537  0.74595384  0.74365703
   0.74873032  0.50572095  0.49951722
   0.51043494  0.74482411  0.50317168
   0.50759231  0.50088900  0.74575068
   0.50153872  0.01443144 -0.00309077
  -0.00351969  0.51513994 -0.00500535
   0.50593952  0.73700804  0.26247195
   0.24231604 -0.00241423  0.74186750
   0.49057737 -0.01367584  0.50112698
   0.75665116 -0.01720320  0.74212450
  -0.00258645  0.76241738  0.25321421
   0.74328282  0.51248141  0.25233446
   0.00789495  0.00067618  0.49259205
   0.50441010  0.51141163  0.50247419
   0.73963422  0.51311310  0.74620782
   0.75436858  0.73179689  0.49768689
HECN                                    
           1
     8.767371    0.001483   -0.002947
     0.001496    8.820161   -0.000687
    -0.002950   -0.000677    8.765243
   Ti   Mo   Hf   N    C    W    V 
   7   6   7  13  19   6   6
Direct configuration=     9
  -0.00044012 -0.00840111  0.00441958
   0.24496174 -0.00502361  0.25530200
   0.25108865  0.50673278  0.25104224
   0.50077113  0.49390895 -0.00355782
   0.49704281  0.25288734  0.74979432
  -0.00537545  0.50110882  0.49826121
   0.50522802  0.74433938  0.74352060
  -0.00393442  0.23496681  0.26115358
   0.76168996  0.73730902 -0.00043056
   0.00802532  0.26117772  0.73937160
   0.75874520  0.26740154  0.50568012
  -0.00784343  0.73845408  0.74888945
   0.25709411  0.50103029  0.74901594
   0.24419747  0.24729401  0.00077638
   0.50221363  0.25897282  0.25262463
   0.75490956 -0.00637912  0.25687217
   0.75485689  0.25673598 -0.00584839
   0.24942370  0.75182561 -0.00024547
   0.24770029  0.25185310  0.49989714
   0.24692773  0.74864955  0.50052174
   0.25154765  0.24922435  0.25085648
   0.24679666 -0.00024959  0.00563943
  -0.00049215  0.24790769  0.00109944
   0.75011961  0.25608049  0.25161761
   0.75406909  0.00029987 -0.00265673
   0.49545307 -0.00163554  0.24922399
  -0.00306482  0.50390585  0.25090015
   0.50051350  0.74785315 -0.00334069
  -0.00188717  0.00080340  0.74870064
   0.74248271  0.25336531  0.74703882
   0.75428282 -0.00671870  0.50511183
   0.50192968  0.25336271  0.50693137
   0.50121096  0.00010866  0.74958474
   0.00769946 -0.00676695  0.25336495
   0.50050652  0.25277083 -0.00723084
   0.24879485  0.75066311  0.25015612
   0.24846644  0.49997869  0.00615486
  -0.00356104  0.75152464  0.00644093
   0.75402178  0.73778782  0.25496847
   0.74875146  0.50582557  0.00091193
   0.50426743  0.50658794  0.25307301
   0.25491296  0.24811101  0.74969404
   0.24551414 -0.00049625  0.49792403
  -0.00523025  0.24889067  0.50105696
   0.25361508  0.75264136  0.74940289
   0.25113365  0.49996368  0.49504277
  -0.01246621  0.75302245  0.49609632
  -0.00851709  0.49953996  0.74757057
   0.74465091  0.74641570  0.74397652
   0.74873537  0.50536279  0.49952466
   0.51031000  0.74526667  0.50273600
   0.50719792  0.50082009  0.74597353
   0.50138477  0.01306256 -0.00286013
  -0.00353195  0.51363206 -0.00483739
   0.50533138  0.73737277  0.26158289
   0.24329735 -0.00212163  0.74218622
   0.49129561 -0.01257248  0.50124748
   0.75591588 -0.01563818  0.74279252
  -0.00241875  0.76131270  0.25290554
   0.74382154  0.51159673  0.25213206
   0.00699274  0.00062692  0.49332734
   0.50406656  0.51020904  0.50228333
   0.74086271  0.51184768  0.74663372
   0.75393510  0.73361114  0.49800181
HECN                                    
           1
     8.734501   -0.003413    0.004777
    -0.003430    8.788699   -0.002397
     0.004774   -0.002376    8.736239
   Ti   Mo   Hf   N    C    W    V 
   7   6   7  13  19   6   6
Direct configuration=    10
  -0.00196508 -0.01206198  0.00544442
   0.24634629 -0.00583484  0.25658288
   0.25054587  0.50856485  0.25085989
   0.49845325  0.49123111 -0.00565162
   0.49408584  0.25362090  0.75063130
  -0.00597439  0.50161201  0.49532875
   0.50527250  0.74322375  0.74288121
  -0.00547385  0.22952943  0.26493195
   0.76163636  0.73718088  0.00027983
   0.01236228  0.26618496  0.73753991
   0.75726643  0.27399738  0.50580544
  -0.01039266  0.73466532  0.75208344
   0.25966336  0.50122357  0.74916972
   0.24484131  0.24811047  0.00149868
   0.50496448  0.25887695  0.25154048
   0.75129363 -0.00721675  0.25860047
   0.75519624  0.25675441 -0.00762049
   0.25206177  0.75144221 -0.00111459
   0.24885423  0.25234969  0.49977849
   0.24542546  0.74849505  0.50171426
   0.25138708  0.24869026  0.25155289
   0.24716801  0.00005678  0.00627036
  -0.00140691  0.24820810  0.00204870
   0.75155231  0.25473879  0.25199744
   0.75337787  0.00083834 -0.00180011
   0.49704780 -0.00177836  0.24806396
  -0.00390686  0.50120993  0.24925972
   0.50244184  0.75099606 -0.00226004
  -0.00294931  0.00212275  0.74868234
   0.74325188  0.25273658  0.74595412
   0.75353050 -0.00624356  0.50550831
   0.50368406  0.25113972  0.50614513
   0.50234676  0.00019877  0.74952759
   0.00453601 -0.00860609  0.25373323
   0.50091744  0.25509167 -0.00438388
   0.25006532  0.75043721  0.25069698
   0.24721931  0.50042391  0.00527867
   0.00084805  0.75314635  0.00650068
   0.75487847  0.74095695  0.25391228
   0.74850737  0.50306542  0.00044714
   0.50391489  0.50302835  0.25282174
   0.25511400  0.24852863  0.74950179
   0.24459835 -0.00109458  0.49766539
  -0.00272032  0.24886142  0.50179410
   0.25258288  0.75279559  0.74935628
   0.25141379  0.50044982  0.49559042
  -0.01115448  0.75327032  0.49677761
  -0.00848373  0.49812648  0.74718350
   0.74423177  0.74544744  0.74437755
   0.74919391  0.50525996  0.49954009
   0.50778738  0.74490524  0.50358633
   0.50652859  0.50099933  0.74585717
   0.50234226  0.01763781 -0.00416777
  -0.00264841  0.51878743 -0.00474793
   0.50765637  0.73818215  0.26422344
   0.23765947 -0.00341975  0.74129044
   0.48832794 -0.01608057  0.50046340
   0.75948329 -0.02265810  0.74058828
  -0.00279208  0.76517276  0.25430694
   0.74152266  0.51346704  0.25236131
   0.01090039  0.00061743  0.49049270
   0.50457804  0.51477004  0.50279028
   0.73523208  0.51676685  0.74492311
   0.75577131  0.72680063  0.49600460
HECN                                    
           1
     8.738773   -0.002776    0.003773
    -0.002790    8.792789   -0.002175
     0.003770   -0.002155    8.740009
   Ti   Mo   Hf   N    C    W    V 
   7   6   7  13  19   6   6
Direct configuration=    11
  -0.00176572 -0.01158432  0.00531068
   0.24616584 -0.00572915  0.25641601
   0.25061654  0.50832589  0.25088356
   0.49875564  0.49158066 -0.00537874
   0.49447170  0.25352540  0.75052178
  -0.00589662  0.50154649  0.49571111
   0.50526670  0.74336930  0.74296463
  -0.00527216  0.23023877  0.26443914
   0.76164344  0.73719758  0.00018718
   0.01179583  0.26553148  0.73777917
   0.75745891  0.27313703  0.50578875
  -0.01005940  0.73515968  0.75166669
   0.25932813  0.50119817  0.74914996
   0.24475732  0.24800390  0.00140453
   0.50460544  0.25888929  0.25168219
   0.75176569 -0.00710726  0.25837467
   0.75515176  0.25675203 -0.00738933
   0.25171749  0.75149205 -0.00100092
   0.24870361  0.25228483  0.49979408
   0.24562162  0.74851528  0.50155856
   0.25140815  0.24875993  0.25146206
   0.24711961  0.00001677  0.00618811
  -0.00128747  0.24816896  0.00192478
   0.75136552  0.25491371  0.25194810
   0.75346811  0.00076812 -0.00191192
   0.49683960 -0.00175981  0.24821543
  -0.00379698  0.50156172  0.24947363
   0.50219013  0.75058589 -0.00240083
  -0.00281082  0.00195072  0.74868457
   0.74315144  0.25281857  0.74609569
   0.75362867 -0.00630550  0.50545650
   0.50345522  0.25142961  0.50624793
   0.50219855  0.00018694  0.74953517
   0.00494895 -0.00836595  0.25368488
   0.50086398  0.25478880 -0.00475519
   0.24989963  0.75046658  0.25062659
   0.24738190  0.50036594  0.00539278
   0.00027265  0.75293447  0.00649335
   0.75476634  0.74054349  0.25405004
   0.74853936  0.50342552  0.00050780
   0.50396112  0.50349274  0.25285456
   0.25508772  0.24847414  0.74952688
   0.24471785 -0.00101645  0.49769903
  -0.00304772  0.24886503  0.50169825
   0.25271754  0.75277555  0.74936224
   0.25137726  0.50038636  0.49551902
  -0.01132557  0.75323787  0.49668890
  -0.00848802  0.49831088  0.74723402
   0.74428657  0.74557377  0.74432523
   0.74913409  0.50527334  0.49953813
   0.50811665  0.74495255  0.50347515
   0.50661589  0.50097600  0.74587226
   0.50221684  0.01704092 -0.00399723
  -0.00276406  0.51811483 -0.00475963
   0.50735326  0.73807633  0.26387931
   0.23839508 -0.00324998  0.74140665
   0.48871532 -0.01562269  0.50056541
   0.75901809 -0.02174253  0.74087635
  -0.00274349  0.76466919  0.25412403
   0.74182250  0.51322321  0.25233110
   0.01039020  0.00061845  0.49086284
   0.50451103  0.51417499  0.50272410
   0.73596619  0.51612558  0.74514544
   0.75553200  0.72768900  0.49626546
HECN                                    
           1
     8.730727   -0.006005    0.009555
    -0.006016    8.855816   -0.005442
     0.009558   -0.005423    8.720588
   Ti   Mo   Hf   N    C    W    V 
   7   6   7  13  19   6   6
Direct configuration=    12
  -0.00347994 -0.01274849  0.00493456
   0.24774021 -0.00591391  0.25578950
   0.25054068  0.50846902  0.25060567