  64  64   0   0
  0.1129557E+02  0.8932500E-09  0.9055600E-09  0.8937200E-09  0.5000000E-15
  1.000000000000000E-004
  CAR 
 HECN                                    
     14.62599379    -60.01767608  301      8.40408069      1.00000000
    -60.018  0.0000E+00  0.0000E+00
    -59.769  0.0000E+00  0.0000E+00
    -59.520  0.0000E+00  0.0000E+00
    -59.271  0.0000E+00  0.0000E+00
    -59.022  0.0000E+00  0.0000E+00
    -58.774  0.0000E+00  0.0000E+00
    -58.525  0.0000E+00  0.0000E+00
    -58.276  0.0000E+00  0.0000E+00
    -58.027  0.0000E+00  0.0000E+00
    -57.778  0.0000E+00  0.0000E+00
    -57.530  0.0000E+00  0.0000E+00
    -57.281  0.0000E+00  0.0000E+00
    -57.032  0.3421E-09  0.8512E-10
    -56.783  0.1044E-02  0.2596E-03
    -56.534  0.2053E+00  0.5134E-01
    -56.285  0.3521E+00  0.1390E+00
    -56.037  0.4200E-02  0.1400E+00
    -55.788  0.4576E-08  0.1400E+00
    -55.539  0.0000E+00  0.1400E+00
    -55.290  0.0000E+00  0.1400E+00
    -55.041  0.0000E+00  0.1400E+00
    -54.793  0.0000E+00  0.1400E+00
    -54.544  0.0000E+00  0.1400E+00
    -54.295  0.0000E+00  0.1400E+00
    -54.046  0.0000E+00  0.1400E+00
    -53.797  0.0000E+00  0.1400E+00
    -53.549  0.0000E+00  0.1400E+00
    -53.300  0.0000E+00  0.1400E+00
    -53.051  0.0000E+00  0.1400E+00
    -52.802  0.0000E+00  0.1400E+00
    -52.553  0.0000E+00  0.1400E+00
    -52.304  0.0000E+00  0.1400E+00
    -52.056  0.0000E+00  0.1400E+00
    -51.807  0.0000E+00  0.1400E+00
    -51.558  0.0000E+00  0.1400E+00
    -51.309  0.0000E+00  0.1400E+00
    -51.060  0.0000E+00  0.1400E+00
    -50.812  0.0000E+00  0.1400E+00
    -50.563  0.0000E+00  0.1400E+00
    -50.314  0.0000E+00  0.1400E+00
    -50.065  0.0000E+00  0.1400E+00
    -49.816  0.5527E-09  0.1400E+00
    -49.568  0.1270E-02  0.1403E+00
    -49.319  0.1257E+00  0.1716E+00
    -49.070  0.1402E+00  0.2065E+00
    -48.821  0.1992E+00  0.2560E+00
    -48.572  0.8756E-01  0.2778E+00
    -48.324  0.8744E-02  0.2800E+00
    -48.075  0.8102E-07  0.2800E+00
    -47.826  0.0000E+00  0.2800E+00
    -47.577  0.0000E+00  0.2800E+00
    -47.328  0.0000E+00  0.2800E+00
    -47.079  0.0000E+00  0.2800E+00
    -46.831  0.0000E+00  0.2800E+00
    -46.582  0.0000E+00  0.2800E+00
    -46.333  0.0000E+00  0.2800E+00
    -46.084  0.0000E+00  0.2800E+00
    -45.835  0.0000E+00  0.2800E+00
    -45.587  0.0000E+00  0.2800E+00
    -45.338  0.0000E+00  0.2800E+00
    -45.089  0.0000E+00  0.2800E+00
    -44.840  0.0000E+00  0.2800E+00
    -44.591  0.0000E+00  0.2800E+00
    -44.343  0.0000E+00  0.2800E+00
    -44.094  0.0000E+00  0.2800E+00
    -43.845  0.0000E+00  0.2800E+00
    -43.596  0.0000E+00  0.2800E+00
    -43.347  0.0000E+00  0.2800E+00
    -43.098  0.0000E+00  0.2800E+00
    -42.850  0.0000E+00  0.2800E+00
    -42.601  0.0000E+00  0.2800E+00
    -42.352  0.0000E+00  0.2800E+00
    -42.103  0.0000E+00  0.2800E+00
    -41.854  0.0000E+00  0.2800E+00
    -41.606  0.0000E+00  0.2800E+00
    -41.357  0.0000E+00  0.2800E+00
    -41.108  0.0000E+00  0.2800E+00
    -40.859  0.0000E+00  0.2800E+00
    -40.610  0.0000E+00  0.2800E+00
    -40.362  0.0000E+00  0.2800E+00
    -40.113  0.0000E+00  0.2800E+00
    -39.864  0.0000E+00  0.2800E+00
    -39.615  0.0000E+00  0.2800E+00
    -39.366  0.0000E+00  0.2800E+00
    -39.117  0.0000E+00  0.2800E+00
    -38.869  0.0000E+00  0.2800E+00
    -38.620  0.0000E+00  0.2800E+00
    -38.371  0.0000E+00  0.2800E+00
    -38.122  0.0000E+00  0.2800E+00
    -37.873  0.0000E+00  0.2800E+00
    -37.625  0.0000E+00  0.2800E+00
    -37.376  0.0000E+00  0.2800E+00
    -37.127  0.0000E+00  0.2800E+00
    -36.878  0.0000E+00  0.2800E+00
    -36.629  0.0000E+00  0.2800E+00
    -36.381  0.0000E+00  0.2800E+00
    -36.132  0.0000E+00  0.2800E+00
    -35.883  0.4169E-09  0.2800E+00
    -35.634  0.1226E-02  0.2803E+00
    -35.385  0.2522E+00  0.3431E+00
    -35.136  0.9559E+00  0.5809E+00
    -34.888  0.2359E+00  0.6396E+00
    -34.639  0.1631E-02  0.6400E+00
    -34.390  0.9422E-09  0.6400E+00
    -34.141  0.0000E+00  0.6400E+00
    -33.892  0.0000E+00  0.6400E+00
    -33.644  0.0000E+00  0.6400E+00
    -33.395  0.0000E+00  0.6400E+00
    -33.146  0.0000E+00  0.6400E+00
    -32.897  0.0000E+00  0.6400E+00
    -32.648  0.0000E+00  0.6400E+00
    -32.400  0.0000E+00  0.6400E+00
    -32.151  0.0000E+00  0.6400E+00
    -31.902  0.0000E+00  0.6400E+00
    -31.653  0.4517E-15  0.6400E+00
    -31.404  0.1355E-05  0.6400E+00
    -31.155  0.4374E-01  0.6509E+00
    -30.907  0.6583E+00  0.8147E+00
    -30.658  0.7529E+00  0.1002E+01
    -30.409  0.1159E+01  0.1290E+01
    -30.160  0.5153E+00  0.1419E+01
    -29.911  0.5949E-02  0.1420E+01
    -29.663  0.8718E-08  0.1420E+01
    -29.414  0.0000E+00  0.1420E+01
    -29.165  0.0000E+00  0.1420E+01
    -28.916  0.0000E+00  0.1420E+01
    -28.667  0.0000E+00  0.1420E+01
    -28.419  0.0000E+00  0.1420E+01
    -28.170  0.0000E+00  0.1420E+01
    -27.921  0.4114E-13  0.1420E+01
    -27.672  0.1269E-04  0.1420E+01
    -27.423  0.6035E-01  0.1435E+01
    -27.174  0.3829E+00  0.1530E+01
    -26.926  0.4038E+00  0.1631E+01
    -26.677  0.3469E+00  0.1717E+01
    -26.428  0.2185E+00  0.1771E+01
    -26.179  0.3441E-01  0.1780E+01
    -25.930  0.2417E-01  0.1786E+01
    -25.682  0.3996E+00  0.1885E+01
    -25.433  0.4194E+00  0.1990E+01
    -25.184  0.5790E+00  0.2134E+01
    -24.935  0.2583E+00  0.2198E+01
    -24.686  0.7515E-02  0.2200E+01
    -24.438  0.1309E-07  0.2200E+01
    -24.189  0.0000E+00  0.2200E+01
    -23.940  0.0000E+00  0.2200E+01
    -23.691  0.0000E+00  0.2200E+01
    -23.442  0.0000E+00  0.2200E+01
    -23.193  0.0000E+00  0.2200E+01
    -22.945  0.0000E+00  0.2200E+01
    -22.696  0.0000E+00  0.2200E+01
    -22.447  0.0000E+00  0.2200E+01
    -22.198  0.0000E+00  0.2200E+01
    -21.949  0.0000E+00  0.2200E+01
    -21.701  0.0000E+00  0.2200E+01
    -21.452  0.0000E+00  0.2200E+01
    -21.203  0.0000E+00  0.2200E+01
    -20.954  0.0000E+00  0.2200E+01
    -20.705  0.0000E+00  0.2200E+01
    -20.457  0.0000E+00  0.2200E+01
    -20.208  0.0000E+00  0.2200E+01
    -19.959  0.0000E+00  0.2200E+01
    -19.710  0.0000E+00  0.2200E+01
    -19.461  0.0000E+00  0.2200E+01
    -19.212  0.0000E+00  0.2200E+01
    -18.964  0.0000E+00  0.2200E+01
    -18.715  0.0000E+00  0.2200E+01
    -18.466  0.0000E+00  0.2200E+01
    -18.217  0.0000E+00  0.2200E+01
    -17.968  0.0000E+00  0.2200E+01
    -17.720  0.0000E+00  0.2200E+01
    -17.471  0.0000E+00  0.2200E+01
    -17.222  0.0000E+00  0.2200E+01
    -16.973  0.0000E+00  0.2200E+01
    -16.724  0.0000E+00  0.2200E+01
    -16.476  0.0000E+00  0.2200E+01
    -16.227  0.0000E+00  0.2200E+01
    -15.978  0.0000E+00  0.2200E+01
    -15.729  0.0000E+00  0.2200E+01
    -15.480  0.0000E+00  0.2200E+01
    -15.231  0.0000E+00  0.2200E+01
    -14.983  0.0000E+00  0.2200E+01
    -14.734  0.0000E+00  0.2200E+01
    -14.485  0.0000E+00  0.2200E+01
    -14.236  0.0000E+00  0.2200E+01
    -13.987  0.0000E+00  0.2200E+01
    -13.739  0.0000E+00  0.2200E+01
    -13.490  0.0000E+00  0.2200E+01
    -13.241  0.0000E+00  0.2200E+01
    -12.992  0.0000E+00  0.2200E+01
    -12.743  0.0000E+00  0.2200E+01
    -12.495  0.0000E+00  0.2200E+01
    -12.246  0.0000E+00  0.2200E+01
    -11.997  0.0000E+00  0.2200E+01
    -11.748  0.0000E+00  0.2200E+01
    -11.499  0.0000E+00  0.2200E+01
    -11.250  0.0000E+00  0.2200E+01
    -11.002  0.0000E+00  0.2200E+01
    -10.753  0.0000E+00  0.2200E+01
    -10.504  0.0000E+00  0.2200E+01
    -10.255  0.0000E+00  0.2200E+01
    -10.006  0.0000E+00  0.2200E+01
     -9.758  0.0000E+00  0.2200E+01
     -9.509  0.0000E+00  0.2200E+01
     -9.260  0.0000E+00  0.2200E+01
     -9.011  0.0000E+00  0.2200E+01
     -8.762  0.3580E-12  0.2200E+01
     -8.514  0.8007E-05  0.2200E+01
     -8.265  0.8724E-02  0.2202E+01
     -8.016  0.6382E-01  0.2218E+01
     -7.767  0.5988E-01  0.2233E+01
     -7.518  0.8250E-01  0.2253E+01
     -7.269  0.1174E+00  0.2283E+01
     -7.021  0.1762E+00  0.2327E+01
     -6.772  0.2211E+00  0.2382E+01
     -6.523  0.1841E+00  0.2427E+01
     -6.274  0.8331E-01  0.2448E+01
     -6.025  0.4796E-01  0.2460E+01
     -5.777  0.4492E-04  0.2460E+01
     -5.528  0.1401E-08  0.2460E+01
     -5.279  0.4561E-03  0.2460E+01
     -5.030  0.3337E-01  0.2468E+01
     -4.781  0.4504E-01  0.2480E+01
     -4.533  0.4063E-01  0.2490E+01
     -4.284  0.8647E-01  0.2511E+01
     -4.035  0.1081E+00  0.2538E+01
     -3.786  0.1539E+00  0.2576E+01
     -3.537  0.1990E+00  0.2626E+01
     -3.288  0.1932E+00  0.2674E+01
     -3.040  0.1899E+00  0.2721E+01
     -2.791  0.2352E+00  0.2780E+01
     -2.542  0.1254E+00  0.2811E+01
     -2.293  0.1023E+00  0.2836E+01
     -2.044  0.1431E-01  0.2840E+01
     -1.796  0.1054E-04  0.2840E+01
     -1.547  0.5150E-12  0.2840E+01
     -1.298  0.0000E+00  0.2840E+01
     -1.049  0.0000E+00  0.2840E+01
     -0.800  0.0000E+00  0.2840E+01
     -0.552  0.8095E-12  0.2840E+01
     -0.303  0.1307E-04  0.2840E+01
     -0.054  0.5500E-02  0.2841E+01
      0.195  0.1574E-01  0.2845E+01
      0.444  0.9103E-01  0.2868E+01
      0.693  0.7879E-01  0.2888E+01
      0.941  0.1322E+00  0.2920E+01
      1.190  0.1910E+00  0.2968E+01
      1.439  0.2871E+00  0.3039E+01
      1.688  0.2662E+00  0.3106E+01
      1.937  0.2750E+00  0.3174E+01
      2.185  0.3099E+00  0.3251E+01
      2.434  0.3090E+00  0.3328E+01
      2.683  0.3947E+00  0.3426E+01
      2.932  0.4867E+00  0.3547E+01
      3.181  0.5531E+00  0.3685E+01
      3.429  0.5866E+00  0.3831E+01
      3.678  0.5651E+00  0.3972E+01
      3.927  0.5765E+00  0.4115E+01
      4.176  0.5621E+00  0.4255E+01
      4.425  0.4636E+00  0.4370E+01
      4.674  0.3650E+00  0.4461E+01
      4.922  0.3267E+00  0.4542E+01
      5.171  0.3081E+00  0.4619E+01
      5.420  0.2387E+00  0.4678E+01
      5.669  0.1672E+00  0.4720E+01
      5.918  0.1183E+00  0.4749E+01
      6.166  0.6711E-01  0.4766E+01
      6.415  0.1252E+00  0.4797E+01
      6.664  0.2036E+00  0.4848E+01
      6.913  0.1828E+00  0.4893E+01
      7.162  0.1851E+00  0.4939E+01
      7.410  0.2030E+00  0.4990E+01
      7.659  0.2228E+00  0.5045E+01
      7.908  0.3044E+00  0.5121E+01
      8.157  0.2787E+00  0.5190E+01
      8.406  0.2812E+00  0.5260E+01
      8.655  0.3454E+00  0.5346E+01
      8.903  0.4676E+00  0.5463E+01
      9.152  0.5631E+00  0.5603E+01
      9.401  0.5863E+00  0.5749E+01
      9.650  0.5852E+00  0.5894E+01
      9.899  0.5391E+00  0.6028E+01
     10.147  0.5921E+00  0.6176E+01
     10.396  0.6016E+00  0.6325E+01
     10.645  0.5650E+00  0.6466E+01
     10.894  0.5065E+00  0.6592E+01
     11.143  0.4213E+00  0.6697E+01
     11.391  0.9261E-01  0.6720E+01
     11.640  0.2899E-03  0.6720E+01
     11.889  0.6293E-10  0.6720E+01
     12.138  0.0000E+00  0.6720E+01
     12.387  0.0000E+00  0.6720E+01
     12.635  0.0000E+00  0.6720E+01
     12.884  0.0000E+00  0.6720E+01
     13.133  0.0000E+00  0.6720E+01
     13.382  0.0000E+00  0.6720E+01
     13.631  0.0000E+00  0.6720E+01
     13.880  0.0000E+00  0.6720E+01
     14.128  0.0000E+00  0.6720E+01
     14.377  0.0000E+00  0.6720E+01
     14.626  0.0000E+00  0.6720E+01
