 running on   24 total cores
 distrk:  each k-point on   24 cores,    1 groups
 distr:  one band on    1 cores,   24 groups
 using from now: INCAR     
 vasp.5.4.4.18Apr17-6-g9f103f2a35 (build Oct 18 2021 20:38:43) complex          
  
 POSCAR found type information on POSCAR  V  Ta Ti N  C  Cr W 
 POSCAR found :  7 types and      64 ions
 scaLAPACK will be used

 ----------------------------------------------------------------------------- 
|                                                                             |
|           W    W    AA    RRRRR   N    N  II  N    N   GGGG   !!!           |
|           W    W   A  A   R    R  NN   N  II  NN   N  G    G  !!!           |
|           W    W  A    A  R    R  N N  N  II  N N  N  G       !!!           |
|           W WW W  AAAAAA  RRRRR   N  N N  II  N  N N  G  GGG   !            |
|           WW  WW  A    A  R   R   N   NN  II  N   NN  G    G                |
|           W    W  A    A  R    R  N    N  II  N    N   GGGG   !!!           |
|                                                                             |
|      For optimal performance we recommend to set                            |
|        NCORE= 4 - approx SQRT( number of cores)                             |
|      NCORE specifies how many cores store one orbital (NPAR=cpu/NCORE).     |
|      This setting can  greatly improve the performance of VASP for DFT.     |
|      The default,   NCORE=1            might be grossly inefficient         |
|      on modern multi-core architectures or massively parallel machines.     |
|      Do your own testing !!!!                                               |
|      Unfortunately you need to use the default for GW and RPA calculations. |
|      (for HF NCORE is supported but not extensively tested yet)             |
|                                                                             |
 ----------------------------------------------------------------------------- 


 ----------------------------------------------------------------------------- 
|                                                                             |
|  ADVICE TO THIS USER RUNNING 'VASP/VAMP'   (HEAR YOUR MASTER'S VOICE ...):  |
|                                                                             |
|      You have a (more or less) 'large supercell' and for larger cells       |
|      it might be more efficient to use real space projection operators      |
|      So try LREAL= Auto  in the INCAR   file.                               |
|      Mind: If you want to do a very accurate calculations keep the          |
|      reciprocal projection scheme          (i.e. LREAL=.FALSE.)             |
|                                                                             |
 ----------------------------------------------------------------------------- 

 LDA part: xc-table for Pade appr. of Perdew
 POSCAR, INCAR and KPOINTS ok, starting setup
 FFT: planning ...
 WAVECAR not read
 entering main loop
       N       E                     dE             d eps       ncg     rms          rms(c)
DAV:   1     0.708166148596E+04    0.70817E+04   -0.22145E+05  9408   0.152E+03
DAV:   2     0.330103845586E+03   -0.67516E+04   -0.65364E+04  9408   0.576E+02
DAV:   3    -0.656843759792E+03   -0.98695E+03   -0.90941E+03 14112   0.193E+02
DAV:   4    -0.783706927022E+03   -0.12686E+03   -0.12270E+03 16608   0.827E+01
DAV:   5    -0.795082610305E+03   -0.11376E+02   -0.11108E+02 17208   0.208E+01    0.797E+01
RMM:   6    -0.901203240997E+03   -0.10612E+03   -0.22887E+03 12517   0.122E+02    0.127E+02
RMM:   7    -0.661897061506E+03    0.23931E+03   -0.27908E+02 14410   0.445E+01    0.589E+01
RMM:   8    -0.649950401307E+03    0.11947E+02   -0.58983E+01 14661   0.166E+01    0.415E+01
RMM:   9    -0.641938502588E+03    0.80119E+01   -0.29198E+01 14372   0.122E+01    0.385E+01
RMM:  10    -0.633045252522E+03    0.88933E+01   -0.90170E+00 14481   0.756E+00    0.168E+01
RMM:  11    -0.633128839240E+03   -0.83587E-01   -0.48814E+00 14811   0.467E+00    0.211E+01
RMM:  12    -0.632500705139E+03    0.62813E+00   -0.33313E+00 14447   0.454E+00    0.192E+01
RMM:  13    -0.631205910226E+03    0.12948E+01   -0.30652E+00 14811   0.349E+00    0.107E+01
RMM:  14    -0.632188163888E+03   -0.98225E+00   -0.27552E+00 14740   0.364E+00    0.178E+01
RMM:  15    -0.631640365443E+03    0.54780E+00   -0.29644E+00 14639   0.369E+00    0.135E+01
RMM:  16    -0.631144128098E+03    0.49624E+00   -0.10694E+00 14592   0.238E+00    0.945E+00
RMM:  17    -0.631017880896E+03    0.12625E+00   -0.58384E-01 14399   0.203E+00    0.873E+00
RMM:  18    -0.630837991481E+03    0.17989E+00   -0.38250E-01 14448   0.139E+00    0.528E+00
RMM:  19    -0.630728457058E+03    0.10953E+00   -0.25604E-01 14479   0.113E+00    0.497E+00
RMM:  20    -0.630662788044E+03    0.65669E-01   -0.16106E-01 14758   0.834E-01    0.240E+00
RMM:  21    -0.630691891754E+03   -0.29104E-01   -0.12176E-01 14758   0.631E-01    0.351E+00
RMM:  22    -0.630676834809E+03    0.15057E-01   -0.99769E-02 14658   0.710E-01    0.284E+00
RMM:  23    -0.630657382408E+03    0.19452E-01   -0.55077E-02 14548   0.438E-01    0.120E+00
RMM:  24    -0.630649634727E+03    0.77477E-02   -0.31055E-02 14491   0.334E-01    0.631E-01
RMM:  25    -0.630652837213E+03   -0.32025E-02   -0.21466E-02 14581   0.242E-01    0.907E-01
RMM:  26    -0.630649382009E+03    0.34552E-02   -0.12873E-02 14688   0.203E-01    0.298E-01
RMM:  27    -0.630649361266E+03    0.20743E-04   -0.60819E-03 14019   0.114E-01    0.153E-01
RMM:  28    -0.630649636034E+03   -0.27477E-03   -0.29658E-03 13469   0.773E-02    0.186E-01
RMM:  29    -0.630649601915E+03    0.34120E-04   -0.18308E-03 12623   0.512E-02    0.585E-02
RMM:  30    -0.630649668235E+03   -0.66320E-04   -0.10900E-03 12101   0.383E-02    0.434E-02
RMM:  31    -0.630649716001E+03   -0.47766E-04   -0.71013E-04 11869   0.305E-02    0.252E-02
RMM:  32    -0.630649748782E+03   -0.32782E-04   -0.43348E-04 10659   0.238E-02    0.170E-02
WARNING in EDDRMM: call to ZHEGV failed, returncode =   6  3      8
RMM:  33    -0.630649770160E+03   -0.21378E-04   -0.29203E-04 10213   0.197E-02    0.748E-03
RMM:  34    -0.630649786867E+03   -0.16706E-04   -0.18973E-04  9280   0.166E-02    0.376E-03
RMM:  35    -0.630649797422E+03   -0.10555E-04   -0.11498E-04  8600   0.148E-02    0.297E-03
RMM:  36    -0.630649804124E+03   -0.67016E-05   -0.74398E-05  8269   0.122E-02
   1 F= -.63064980E+03 E0= -.63050901E+03  d E =-.630650E+03
 curvature:   0.00 expect dE= 0.000E+00 dE for cont linesearch  0.000E+00
 trial: gam= 0.00000 g(F)=  0.413E+01 g(S)=  0.364E+02 ort = 0.000E+00 (trialstep = 0.100E+01)
 search vector abs. value=  0.406E+02
 bond charge predicted
       N       E                     dE             d eps       ncg     rms          rms(c)
DAV:   1    -0.979700175441E+03   -0.34905E+03   -0.10269E+04 13104   0.434E+02    0.130E+02
RMM:   2    -0.832884703097E+03    0.14682E+03   -0.23682E+03 11395   0.180E+02    0.917E+01
RMM:   3    -0.731393226473E+03    0.10149E+03   -0.29659E+02 14240   0.449E+01    0.780E+01
RMM:   4    -0.662946366797E+03    0.68447E+02   -0.13443E+02 12896   0.338E+01    0.493E+01
RMM:   5    -0.637045274033E+03    0.25901E+02   -0.87570E+01 11751   0.320E+01    0.368E+01
RMM:   6    -0.624215823367E+03    0.12829E+02   -0.32270E+01 12324   0.211E+01    0.252E+01
RMM:   7    -0.622950017544E+03    0.12658E+01   -0.16059E+01 14469   0.991E+00    0.208E+01
RMM:   8    -0.620831174222E+03    0.21188E+01   -0.47677E+00 14473   0.649E+00    0.118E+01
RMM:   9    -0.620565535637E+03    0.26564E+00   -0.21773E+00 13902   0.411E+00    0.102E+01
RMM:  10    -0.620127666724E+03    0.43787E+00   -0.98376E-01 13980   0.317E+00    0.497E+00
RMM:  11    -0.620277388407E+03   -0.14972E+00   -0.73044E-01 15057   0.197E+00    0.485E+00
RMM:  12    -0.620341934964E+03   -0.64547E-01   -0.52419E-01 14830   0.192E+00    0.445E+00
RMM:  13    -0.620445804389E+03   -0.10387E+00   -0.42453E-01 14229   0.179E+00    0.513E+00
RMM:  14    -0.620333857805E+03    0.11195E+00   -0.27661E-01 14465   0.137E+00    0.194E+00
RMM:  15    -0.620341266097E+03   -0.74083E-02   -0.16886E-01 14764   0.845E-01    0.145E+00
RMM:  16    -0.620337385741E+03    0.38804E-02   -0.88018E-02 14982   0.570E-01    0.736E-01
RMM:  17    -0.620342508722E+03   -0.51230E-02   -0.48549E-02 14852   0.433E-01    0.755E-01
RMM:  18    -0.620343028553E+03   -0.51983E-03   -0.27299E-02 14599   0.341E-01    0.600E-01
RMM:  19    -0.620343445406E+03   -0.41685E-03   -0.15737E-02 14473   0.263E-01    0.547E-01
RMM:  20    -0.620342288953E+03    0.11565E-02   -0.90430E-03 14352   0.201E-01    0.262E-01
RMM:  21    -0.620342215767E+03    0.73186E-04   -0.48915E-03 14021   0.130E-01    0.952E-02
RMM:  22    -0.620342380791E+03   -0.16502E-03   -0.24506E-03 13434   0.887E-02    0.900E-02
RMM:  23    -0.620342440430E+03   -0.59639E-04   -0.13323E-03 12796   0.615E-02    0.692E-02
RMM:  24    -0.620342471180E+03   -0.30749E-04   -0.76424E-04 12422   0.469E-02    0.285E-02
RMM:  25    -0.620342501153E+03   -0.29973E-04   -0.40279E-04 11904   0.333E-02    0.273E-02
RMM:  26    -0.620342517323E+03   -0.16170E-04   -0.25548E-04 11871   0.276E-02    0.819E-03
RMM:  27    -0.620342528795E+03   -0.11472E-04   -0.14204E-04 10698   0.195E-02    0.929E-03
RMM:  28    -0.620342534951E+03   -0.61561E-05   -0.85260E-05 10409   0.185E-02
   2 F= -.62034253E+03 E0= -.62025949E+03  d E =0.103073E+02
 trial-energy change:   10.307269  1 .order   15.723448  -40.563778   72.010674
 step:   0.4311(harm=  0.3603)  dis= 0.03919  next Energy=  -639.827895 (dE=-0.918E+01)
 bond charge predicted
       N       E                     dE             d eps       ncg     rms          rms(c)
DAV:   1    -0.822477032913E+03   -0.20213E+03   -0.39438E+03 12192   0.253E+02    0.136E+02
RMM:   2    -0.126189058438E+04   -0.43941E+03   -0.11379E+03 13953   0.861E+01    0.125E+02
RMM:   3    -0.752911104343E+03    0.50898E+03   -0.52151E+02 13758   0.796E+01    0.660E+01
RMM:   4    -0.671320062788E+03    0.81591E+02   -0.16895E+02 13596   0.419E+01    0.478E+01
RMM:   5    -0.657973404211E+03    0.13347E+02   -0.50765E+01 13218   0.243E+01    0.389E+01
RMM:   6    -0.650831430789E+03    0.71420E+01   -0.50690E+01 13617   0.184E+01    0.370E+01
RMM:   7    -0.644619571210E+03    0.62119E+01   -0.25474E+01 13780   0.131E+01    0.275E+01
RMM:   8    -0.647961651642E+03   -0.33421E+01   -0.12866E+01 13295   0.940E+00    0.345E+01
RMM:   9    -0.641012945308E+03    0.69487E+01   -0.37615E+00 12838   0.651E+00    0.120E+01
RMM:  10    -0.640771089343E+03    0.24186E+00   -0.19612E+00 14728   0.326E+00    0.100E+01
RMM:  11    -0.640459452855E+03    0.31164E+00   -0.80815E-01 14156   0.252E+00    0.754E+00
RMM:  12    -0.640340626620E+03    0.11883E+00   -0.55370E-01 14537   0.183E+00    0.649E+00
RMM:  13    -0.640264556154E+03    0.76070E-01   -0.45278E-01 14439   0.165E+00    0.510E+00
RMM:  14    -0.640215033049E+03    0.49523E-01   -0.28017E-01 14505   0.127E+00    0.312E+00
RMM:  15    -0.640316243124E+03   -0.10121E+00   -0.25766E-01 14904   0.106E+00    0.464E+00
RMM:  16    -0.640231111908E+03    0.85131E-01   -0.96784E-02 14360   0.874E-01    0.243E+00
RMM:  17    -0.640210599175E+03    0.20513E-01   -0.90972E-02 14849   0.637E-01    0.219E+00
RMM:  18    -0.640185869527E+03    0.24730E-01   -0.82609E-02 14748   0.658E-01    0.785E-01
RMM:  19    -0.640197750053E+03   -0.11881E-01   -0.68978E-02 14794   0.446E-01    0.114E+00
RMM:  20    -0.640198291500E+03   -0.54145E-03   -0.33770E-02 14817   0.401E-01    0.789E-01
RMM:  21    -0.640196150252E+03    0.21412E-02   -0.17093E-02 14692   0.249E-01    0.597E-01
RMM:  22    -0.640194931104E+03    0.12191E-02   -0.91183E-03 14297   0.196E-01    0.351E-01
RMM:  23    -0.640194269147E+03    0.66196E-03   -0.10323E-02 14614   0.186E-01    0.164E-01
WARNING in EDDRMM: call to ZHEGV failed, returncode =   6  3      9
RMM:  24    -0.640194662596E+03   -0.39345E-03   -0.37105E-03 13449   0.131E-01    0.186E-01
RMM:  25    -0.640194637328E+03    0.25268E-04   -0.16377E-03 12712   0.676E-02    0.144E-01
RMM:  26    -0.640194465081E+03    0.17225E-03   -0.13893E-03 13348   0.672E-02    0.640E-02
RMM:  27    -0.640194500395E+03   -0.35313E-04   -0.76615E-04 12632   0.546E-02    0.506E-02
RMM:  28    -0.640194530174E+03   -0.29779E-04   -0.47833E-04 12656   0.393E-02    0.304E-02
RMM:  29    -0.640194534695E+03   -0.45212E-05   -0.21402E-04 11800   0.299E-02    0.227E-02
RMM:  30    -0.640194535719E+03   -0.10239E-05   -0.12890E-04 11177   0.211E-02    0.605E-03
RMM:  31    -0.640194542115E+03   -0.63957E-05   -0.80865E-05 10711   0.185E-02
   3 F= -.64019454E+03 E0= -.64008108E+03  d E =-.954474E+01
 curvature:  -0.18 expect dE=-0.140E+01 dE for cont linesearch -0.297E-01
 ZBRENT: interpolating
 opt :   0.4510  next Energy=  -640.220346 (dE=-0.957E+01)
 bond charge predicted
       N       E                     dE             d eps       ncg     rms          rms(c)
DAV:   1    -0.640407436598E+03   -0.21290E+00   -0.44235E+00 13344   0.858E+00    0.371E+00
RMM:   2    -0.641327427744E+03   -0.91999E+00   -0.20653E+00 12326   0.495E+00    0.131E+01
RMM:   3    -0.640662779730E+03    0.66465E+00   -0.57459E-01 12142   0.280E+00    0.852E+00
RMM:   4    -0.640291471389E+03    0.37131E+00   -0.21577E-01 12447   0.156E+00    0.328E+00
RMM:   5    -0.640289675008E+03    0.17964E-02   -0.96246E-02 12951   0.103E+00    0.338E+00
RMM:   6    -0.640252174764E+03    0.37500E-01   -0.52929E-02 12824   0.664E-01    0.223E+00
RMM:   7    -0.640230959719E+03    0.21215E-01   -0.23167E-02 12799   0.466E-01    0.113E+00
RMM:   8    -0.640230691582E+03    0.26814E-03   -0.14771E-02 12408   0.380E-01    0.129E+00
RMM:   9    -0.640223422483E+03    0.72691E-02   -0.65298E-03 13019   0.244E-01    0.519E-01
RMM:  10    -0.640224882526E+03   -0.14600E-02   -0.32413E-03 13188   0.168E-01    0.823E-01
RMM:  11    -0.640222177135E+03    0.27054E-02   -0.14686E-03 12072   0.130E-01    0.238E-01
RMM:  12    -0.640222111291E+03    0.65843E-04   -0.90200E-04 13180   0.690E-02    0.186E-01
RMM:  13    -0.640222053246E+03    0.58045E-04   -0.35305E-04 12249   0.569E-02    0.174E-01
RMM:  14    -0.640221979554E+03    0.73692E-04   -0.19469E-04 11691   0.418E-02    0.997E-02
RMM:  15    -0.640222034758E+03   -0.55203E-04   -0.20780E-04 12433   0.330E-02    0.879E-02
RMM:  16    -0.640222037675E+03   -0.29173E-05   -0.13097E-04 11887   0.305E-02    0.683E-02
RMM:  17    -0.640222068162E+03   -0.30487E-04   -0.10020E-04 11329   0.279E-02    0.805E-02
RMM:  18    -0.640222048549E+03    0.19613E-04   -0.71669E-05 11027   0.213E-02    0.200E-02
RMM:  19    -0.640222054585E+03   -0.60363E-05   -0.42020E-05  9773   0.160E-02
   4 F= -.64022205E+03 E0= -.64010978E+03  d E =-.957225E+01
 curvature:  -0.15 expect dE=-0.130E+01 dE for cont linesearch -0.126E-02
 trial: gam= 0.19364 g(F)=  0.778E+01 g(S)=  0.650E+00 ort = 0.576E+00 (trialstep = 0.890E+00)
 search vector abs. value=  0.102E+02
 bond charge predicted
       N       E                     dE             d eps       ncg     rms          rms(c)
DAV:   1    -0.624193479077E+03    0.16029E+02   -0.13187E+03  9480   0.153E+02    0.981E+00
RMM:   2    -0.650528784494E+03   -0.26335E+02   -0.21821E+02 15298   0.436E+01    0.325E+01
RMM:   3    -0.644695226781E+03    0.58336E+01   -0.19161E+01 12823   0.160E+01    0.123E+01
RMM:   4    -0.645279425653E+03   -0.58420E+00   -0.58713E+00 15045   0.628E+00    0.158E+01
RMM:   5    -0.644006770623E+03    0.12727E+01   -0.18702E+00 14574   0.441E+00    0.652E+00
RMM:   6    -0.643988181769E+03    0.18589E-01   -0.11869E+00 14904   0.245E+00    0.690E+00
RMM:   7    -0.644057997414E+03   -0.69816E-01   -0.92208E-01 14699   0.233E+00    0.857E+00
RMM:   8    -0.643744451726E+03    0.31355E+00   -0.53541E-01 14677   0.203E+00    0.340E+00
RMM:   9    -0.643804677146E+03   -0.60225E-01   -0.33309E-01 14640   0.144E+00    0.488E+00
RMM:  10    -0.643685953588E+03    0.11872E+00   -0.16726E-01 14815   0.103E+00    0.145E+00
RMM:  11    -0.643695509760E+03   -0.95562E-02   -0.10930E-01 14894   0.583E-01    0.162E+00
RMM:  12    -0.643692616910E+03    0.28928E-02   -0.56629E-02 14775   0.485E-01    0.106E+00
RMM:  13    -0.643691098500E+03    0.15184E-02   -0.37832E-02 14491   0.350E-01    0.641E-01
RMM:  14    -0.643691332442E+03   -0.23394E-03   -0.23806E-02 14684   0.249E-01    0.391E-01
RMM:  15    -0.643691514343E+03   -0.18190E-03   -0.11345E-02 14271   0.168E-01    0.206E-01
RMM:  16    -0.643692551211E+03   -0.10369E-02   -0.64839E-03 14169   0.134E-01    0.368E-01
RMM:  17    -0.643692586420E+03   -0.35209E-04   -0.41685E-03 13813   0.123E-01    0.279E-01
RMM:  18    -0.643692606679E+03   -0.20259E-04   -0.28486E-03 13464   0.966E-02    0.166E-01
RMM:  19    -0.643692601771E+03    0.49088E-05   -0.16614E-03 13337   0.699E-02    0.700E-02
RMM:  20    -0.643692663956E+03   -0.62185E-04   -0.88951E-04 12452   0.501E-02    0.673E-02
RMM:  21    -0.643692682016E+03   -0.18061E-04   -0.55223E-04 12236   0.367E-02    0.321E-02
RMM:  22    -0.643692712737E+03   -0.30721E-04   -0.33464E-04 12047   0.308E-02    0.437E-02
RMM:  23    -0.643692715176E+03   -0.24391E-05   -0.19798E-04 11382   0.239E-02    0.175E-02
RMM:  24    -0.643692721019E+03   -0.58431E-05   -0.10752E-04 10037   0.201E-02    0.148E-02
RMM:  25    -0.643692725190E+03   -0.41702E-05   -0.71833E-05  9770   0.187E-02
   5 F= -.64369273E+03 E0= -.64359606E+03  d E =-.347067E+01
 trial-energy change:   -3.470671  1 .order   -3.621540   -7.604205    0.361126
 step:   0.8450(harm=  0.8498)  dis= 0.11119  next Energy=  -643.701921 (dE=-0.348E+01)
 bond charge predicted
       N       E                     dE             d eps       ncg     rms          rms(c)
DAV:   1    -0.643650700233E+03    0.42021E-01   -0.33983E+00 10080   0.778E+00    0.556E-01
RMM:   2    -0.643724359369E+03   -0.73659E-01   -0.58551E-01 15378   0.223E+00    0.214E+00
RMM:   3    -0.643705207747E+03    0.19152E-01   -0.51176E-02 13814   0.732E-01    0.738E-01
RMM:   4    -0.643705569062E+03   -0.36131E-03   -0.14677E-02 14319   0.360E-01    0.759E-01
RMM:   5    -0.643703920675E+03    0.16484E-02   -0.49972E-03 14422   0.231E-01    0.604E-01
RMM:   6    -0.643702152696E+03    0.17680E-02   -0.27291E-03 14291   0.124E-01    0.223E-01
RMM:   7    -0.643702307305E+03   -0.15461E-03   -0.20836E-03 13936   0.112E-01    0.286E-01
RMM:   8    -0.643702783800E+03   -0.47650E-03   -0.15322E-03 13371   0.116E-01    0.467E-01
RMM:   9    -0.643701806120E+03    0.97768E-03   -0.88035E-04 13226   0.870E-02    0.953E-02
RMM:  10    -0.643701815269E+03   -0.91490E-05   -0.53650E-04 13007   0.458E-02    0.102E-01
RMM:  11    -0.643701782519E+03    0.32750E-04   -0.20936E-04 12193   0.364E-02    0.704E-02
RMM:  12    -0.643701784084E+03   -0.15651E-05   -0.15136E-04 11751   0.246E-02    0.553E-02
RMM:  13    -0.643701780247E+03    0.38375E-05   -0.10050E-04 11144   0.194E-02    0.347E-02
RMM:  14    -0.643701778889E+03    0.13575E-05   -0.52194E-05  9771   0.169E-02
   6 F= -.64370178E+03 E0= -.64360432E+03  d E =-.347972E+01
 curvature:  -0.50 expect dE=-0.122E+01 dE for cont linesearch -0.113E-04
 trial: gam= 0.16679 g(F)=  0.166E+01 g(S)=  0.773E+00 ort = 0.152E-01 (trialstep = 0.881E+00)
 search vector abs. value=  0.273E+01
 bond charge predicted
       N       E                     dE             d eps       ncg     rms          rms(c)
DAV:   1    -0.644039571212E+03   -0.33779E+00   -0.43847E+02 13368   0.114E+02    0.231E+01
RMM:   2    -0.685222617945E+03   -0.41183E+02   -0.12334E+02 14697   0.349E+01    0.535E+01
RMM:   3    -0.647907240370E+03    0.37315E+02   -0.24749E+01 12431   0.187E+01    0.189E+01
RMM:   4    -0.647701627193E+03    0.20561E+00   -0.75585E+00 14413   0.786E+00    0.214E+01
RMM:   5    -0.645823278001E+03    0.18783E+01   -0.30260E+00 13487   0.585E+00    0.145E+01
RMM:   6    -0.644914963273E+03    0.90831E+00   -0.14541E+00 13984   0.348E+00    0.814E+00
RMM:   7    -0.645102327208E+03   -0.18736E+00   -0.10399E+00 13973   0.288E+00    0.111E+01
RMM:   8    -0.644544915980E+03    0.55741E+00   -0.53096E-01 13915   0.213E+00    0.395E+00
RMM:   9    -0.644681319029E+03   -0.13640E+00   -0.39567E-01 14179   0.172E+00    0.652E+00
RMM:  10    -0.644491047155E+03    0.19027E+00   -0.21445E-01 13855   0.143E+00    0.324E+00
RMM:  11    -0.644463844714E+03    0.27202E-01   -0.11791E-01 14853   0.836E-01    0.199E+00
RMM:  12    -0.644462184520E+03    0.16602E-02   -0.68389E-02 14842   0.591E-01    0.191E+00
RMM:  13    -0.644449202547E+03    0.12982E-01   -0.35515E-02 14460   0.456E-01    0.922E-01
RMM:  14    -0.644451210244E+03   -0.20077E-02   -0.24787E-02 14742   0.301E-01    0.913E-01
RMM:  15    -0.644450559086E+03    0.65116E-03   -0.14737E-02 14589   0.260E-01    0.739E-01
RMM:  16    -0.644449716967E+03    0.84212E-03   -0.91167E-03 14135   0.196E-01    0.430E-01
RMM:  17    -0.644449933775E+03   -0.21681E-03   -0.59679E-03 14065   0.144E-01    0.289E-01
RMM:  18    -0.644450241835E+03   -0.30806E-03   -0.39490E-03 13786   0.116E-01    0.243E-01
RMM:  19    -0.644450423221E+03   -0.18139E-03   -0.30712E-03 14153   0.104E-01    0.116E-01
RMM:  20    -0.644450562080E+03   -0.13886E-03   -0.17036E-03 13332   0.799E-02    0.122E-01
RMM:  21    -0.644450519533E+03    0.42547E-04   -0.91897E-04 12880   0.538E-02    0.519E-02
RMM:  22    -0.644450553568E+03   -0.34035E-04   -0.54985E-04 12336   0.402E-02    0.529E-02
RMM:  23    -0.644450562856E+03   -0.92879E-05   -0.31464E-04 12027   0.306E-02    0.271E-02
RMM:  24    -0.644450577734E+03   -0.14878E-04   -0.18109E-04 11779   0.245E-02    0.193E-02
RMM:  25    -0.644450583861E+03   -0.61264E-05   -0.97491E-05 10774   0.190E-02
   7 F= -.64445058E+03 E0= -.64435393E+03  d E =-.748805E+00
 trial-energy change:   -0.748805  1 .order   -0.792217   -2.149703    0.565270
 step:   0.6829(harm=  0.6977)  dis= 0.04516  next Energy=  -644.514651 (dE=-0.813E+00)
 bond charge predicted
       N       E                     dE             d eps       ncg     rms          rms(c)
DAV:   1    -0.644438142349E+03    0.12435E-01   -0.21393E+01 13080   0.265E+01    0.463E+00
RMM:   2    -0.646425909812E+03   -0.19878E+01   -0.67433E+00 13177   0.935E+00    0.161E+01
RMM:   3    -0.645074061264E+03    0.13518E+01   -0.13354E+00 12916   0.415E+00    0.973E+00
RMM:   4    -0.644620816304E+03    0.45324E+00   -0.41318E-01 13738   0.199E+00    0.388E+00
RMM:   5    -0.644602693906E+03    0.18122E-01   -0.15724E-01 13786   0.117E+00    0.357E+00
RMM:   6    -0.644545673358E+03    0.57021E-01   -0.84455E-02 13954   0.796E-01    0.223E+00
RMM:   7    -0.644527294135E+03    0.18379E-01   -0.38687E-02 13878   0.558E-01    0.150E+00
RMM:   8    -0.644530752713E+03   -0.34586E-02   -0.32105E-02 13745   0.554E-01    0.174E+00
RMM:   9    -0.644517663937E+03    0.13089E-01   -0.19537E-02 13583   0.419E-01    0.905E-01
RMM:  10    -0.644519328612E+03   -0.16647E-02   -0.10003E-02 13486   0.309E-01    0.118E+00
RMM:  11    -0.644513382543E+03    0.59461E-02   -0.46797E-03 13196   0.210E-01    0.321E-01
RMM:  12    -0.644513574335E+03   -0.19179E-03   -0.34096E-03 13741   0.122E-01    0.343E-01
RMM:  13    -0.644513403968E+03    0.17037E-03   -0.16506E-03 13070   0.100E-01    0.281E-01
RMM:  14    -0.644513128475E+03    0.27549E-03   -0.10161E-03 13122   0.667E-02    0.105E-01
RMM:  15    -0.644513252127E+03   -0.12365E-03   -0.73242E-04 13023   0.485E-02    0.106E-01
RMM:  16    -0.644513266577E+03   -0.14450E-04   -0.38891E-04 12495   0.450E-02    0.881E-02
RMM:  17    -0.644513306628E+03   -0.40051E-04   -0.27372E-04 12218   0.369E-02    0.102E-01
RMM:  18    -0.644513280309E+03    0.26319E-04   -0.17331E-04 12122   0.292E-02    0.288E-02
RMM:  19    -0.644513292201E+03   -0.11892E-04   -0.12102E-04 11442   0.201E-02    0.214E-02
RMM:  20    -0.644513297735E+03   -0.55341E-05   -0.67496E-05 11097   0.190E-02
   8 F= -.64451330E+03 E0= -.64441658E+03  d E =-.811519E+00
 curvature:  -0.39 expect dE=-0.434E+00 dE for cont linesearch -0.180E-04
 trial: gam= 0.47415 g(F)=  0.489E+00 g(S)=  0.632E+00 ort =-0.113E-01 (trialstep = 0.842E+00)
 search vector abs. value=  0.172E+01
 bond charge predicted
       N       E                     dE             d eps       ncg     rms          rms(c)
DAV:   1    -0.639855415928E+03    0.46579E+01   -0.25627E+02 12168   0.101E+02    0.906E+00
RMM:   2    -0.651972718324E+03   -0.12117E+02   -0.75004E+01 14329   0.273E+01    0.295E+01
RMM:   3    -0.646238437421E+03    0.57343E+01   -0.86449E+00 13241   0.102E+01    0.143E+01
RMM:   4    -0.645310956446E+03    0.92748E+00   -0.24809E+00 14903   0.424E+00    0.628E+00
RMM:   5    -0.645287082941E+03    0.23874E-01   -0.65899E-01 14009   0.255E+00    0.755E+00
RMM:   6    -0.645016016750E+03    0.27107E+00   -0.38937E-01 14103   0.184E+00    0.379E+00
RMM:   7    -0.645027822410E+03   -0.11806E-01   -0.29131E-01 14836   0.139E+00    0.431E+00
RMM:   8    -0.645002569494E+03    0.25253E-01   -0.21695E-01 14211   0.143E+00    0.397E+00
RMM:   9    -0.644960165945E+03    0.42404E-01   -0.13086E-01 14093   0.101E+00    0.297E+00
RMM:  10    -0.644931301635E+03    0.28864E-01   -0.65558E-02 14075   0.767E-01    0.185E+00
RMM:  11    -0.644913494239E+03    0.17807E-01   -0.38214E-02 14895   0.446E-01    0.491E-01
RMM:  12    -0.644917540410E+03   -0.40462E-02   -0.23365E-02 14538   0.273E-01    0.818E-01
RMM:  13    -0.644915737917E+03    0.18025E-02   -0.12462E-02 14276   0.241E-01    0.476E-01
RMM:  14    -0.644915533548E+03    0.20437E-03   -0.77763E-03 13997   0.153E-01    0.237E-01
RMM:  15    -0.644916072043E+03   -0.53849E-03   -0.47976E-03 13795   0.111E-01    0.201E-01
RMM:  16    -0.644916245009E+03   -0.17297E-03   -0.28287E-03 13441   0.913E-02    0.147E-01
WARNING in EDDRMM: call to ZHEGV failed, returncode =   6  3      6
WARNING in EDDRMM: call to ZHEGV failed, returncode =   8  4      9
RMM:  17    -0.644916369338E+03   -0.12433E-03   -0.17425E-03 13363   0.738E-02    0.118E-01
RMM:  18    -0.644916470345E+03   -0.10101E-03   -0.10004E-03 12851   0.651E-02    0.131E-01
RMM:  19    -0.644916481419E+03   -0.11074E-04   -0.66984E-04 12757   0.482E-02    0.684E-02
RMM:  20    -0.644916490604E+03   -0.91853E-05   -0.40239E-04 12232   0.369E-02    0.367E-02
RMM:  21    -0.644916505979E+03   -0.15375E-04   -0.23013E-04 11756   0.273E-02    0.320E-02
RMM:  22    -0.644916511085E+03   -0.51056E-05   -0.14667E-04 11722   0.239E-02    0.187E-02
RMM:  23    -0.644916512599E+03   -0.15140E-05   -0.72832E-05 10251   0.177E-02
   9 F= -.64491651E+03 E0= -.64482724E+03  d E =-.403215E+00
 trial-energy change:   -0.403215  1 .order   -0.382775   -0.938872    0.173323
 step:   0.7217(harm=  0.7104)  dis= 0.04021  next Energy=  -644.928792 (dE=-0.415E+00)
 bond charge predicted
       N       E                     dE             d eps       ncg     rms          rms(c)
DAV:   1    -0.644835774676E+03    0.80736E-01   -0.53152E+00 12912   0.144E+01    0.137E+00
RMM:   2    -0.645105776813E+03   -0.27000E+00   -0.14446E+00 14675   0.353E+00    0.522E+00
RMM:   3    -0.644967209907E+03    0.13857E+00   -0.15843E-01 12919   0.153E+00    0.253E+00
RMM:   4    -0.644941392020E+03    0.25818E-01   -0.50961E-02 14107   0.709E-01    0.136E+00
RMM:   5    -0.644937947220E+03    0.34448E-02   -0.17702E-02 14076   0.390E-01    0.117E+00
RMM:   6    -0.644931844385E+03    0.61028E-02   -0.10089E-02 13965   0.286E-01    0.673E-01
RMM:   7    -0.644930335698E+03    0.15087E-02   -0.58637E-03 14028   0.209E-01    0.492E-01
RMM:   8    -0.644931332569E+03   -0.99687E-03   -0.43568E-03 13797   0.199E-01    0.683E-01
RMM:   9    -0.644929632864E+03    0.16997E-02   -0.26627E-03 13393   0.157E-01    0.395E-01
RMM:  10    -0.644929253821E+03    0.37904E-03   -0.15762E-03 13289   0.113E-01    0.287E-01
RMM:  11    -0.644928823489E+03    0.43033E-03   -0.86091E-04 13162   0.722E-02    0.116E-01
RMM:  12    -0.644928873125E+03   -0.49637E-04   -0.48892E-04 12572   0.518E-02    0.140E-01
WARNING in EDDRMM: call to ZHEGV failed, returncode =   8  4      6
RMM:  13    -0.644928814005E+03    0.59121E-04   -0.27903E-04 12200   0.377E-02    0.586E-02
RMM:  14    -0.644928810481E+03    0.35230E-05   -0.17965E-04 11622   0.243E-02    0.355E-02
RMM:  15    -0.644928817244E+03   -0.67623E-05   -0.10634E-04 11267   0.195E-02    0.307E-02
RMM:  16    -0.644928817913E+03   -0.66889E-06   -0.64000E-05 10604   0.168E-02
  10 F= -.64492882E+03 E0= -.64483856E+03  d E =-.415520E+00
 curvature:  -0.54 expect dE=-0.189E+00 dE for cont linesearch -0.151E-06
 trial: gam= 0.30698 g(F)=  0.317E+00 g(S)=  0.299E-01 ort = 0.692E-03 (trialstep = 0.818E+00)
 search vector abs. value=  0.510E+00
 bond charge predicted
       N       E                     dE             d eps       ncg     rms          rms(c)
DAV:   1    -0.643190541424E+03    0.17383E+01   -0.72109E+01  9912   0.531E+01    0.251E+00
RMM:   2    -0.645413339232E+03   -0.22228E+01   -0.20133E+01 15330   0.121E+01    0.787E+00
RMM:   3    -0.645192249498E+03    0.22109E+00   -0.14136E+00 14490   0.358E+00    0.381E+00
RMM:   4    -0.645200157042E+03   -0.79075E-02   -0.30358E-01 14365   0.174E+00    0.341E+00
RMM:   5    -0.645149292498E+03    0.50865E-01   -0.98534E-02 14680   0.935E-01    0.184E+00
RMM:   6    -0.645135091994E+03    0.14201E-01   -0.50139E-02 14913   0.503E-01    0.988E-01
RMM:   7    -0.645134239360E+03    0.85263E-03   -0.26624E-02 14465   0.320E-01    0.849E-01
RMM:   8    -0.645133820354E+03    0.41901E-03   -0.20370E-02 14788   0.337E-01    0.969E-01
RMM:   9    -0.645129840857E+03    0.39795E-02   -0.12350E-02 14859   0.277E-01    0.646E-01
RMM:  10    -0.645129868340E+03   -0.27482E-04   -0.70126E-03 14303   0.201E-01    0.583E-01
RMM:  11    -0.645128717426E+03    0.11509E-02   -0.43475E-03 14565   0.153E-01    0.320E-01
RMM:  12    -0.645128678001E+03    0.39424E-04   -0.25287E-03 13142   0.109E-01    0.267E-01
WARNING in EDDRMM: call to ZHEGV failed, returncode =   6  3      9
RMM:  13    -0.645128493132E+03    0.18487E-03   -0.15377E-03 13170   0.754E-02    0.119E-01
RMM:  14    -0.645128494169E+03   -0.10376E-05   -0.94381E-04 12751   0.546E-02    0.781E-02
RMM:  15    -0.645128545206E+03   -0.51036E-04   -0.53140E-04 12345   0.450E-02    0.105E-01
RMM:  16    -0.645128519344E+03    0.25861E-04   -0.31227E-04 11876   0.351E-02    0.446E-02
RMM:  17    -0.645128535152E+03   -0.15808E-04   -0.19639E-04 11613   0.251E-02    0.412E-02
RMM:  18    -0.645128533845E+03    0.13073E-05   -0.11941E-04 11059   0.206E-02    0.160E-02
RMM:  19    -0.645128538470E+03   -0.46253E-05   -0.55899E-05  9712   0.161E-02
  11 F= -.64512854E+03 E0= -.64504014E+03  d E =-.199721E+00
 trial-energy change:   -0.199721  1 .order   -0.199460   -0.283759   -0.115161
 step:   1.3760(harm=  1.3760)  dis= 0.06055  next Energy=  -645.167608 (dE=-0.239E+00)
 bond charge predicted
       N       E                     dE             d eps       ncg     rms          rms(c)
DAV:   1    -0.644239958080E+03    0.88858E+00   -0.33449E+01  9744   0.364E+01    0.172E+00
RMM:   2    -0.645269051553E+03   -0.10291E+01   -0.95436E+00 15304   0.837E+00    0.490E+00
RMM:   3    -0.645202500977E+03    0.66551E-01   -0.71178E-01 14534   0.244E+00    0.282E+00
RMM:   4    -0.645200053655E+03    0.24473E-02   -0.14266E-01 14346   0.119E+00    0.231E+00
RMM:   5    -0.645178710882E+03    0.21343E-01   -0.46231E-02 14482   0.646E-01    0.137E+00
RMM:   6    -0.645170440922E+03    0.82700E-02   -0.23923E-02 14888   0.360E-01    0.655E-01
RMM:   7    -0.645170351335E+03    0.89587E-04   -0.13158E-02 14343   0.222E-01    0.604E-01
RMM:   8    -0.645170370545E+03   -0.19210E-04   -0.98258E-03 14720   0.238E-01    0.726E-01
RMM:   9    -0.645168329793E+03    0.20408E-02   -0.57340E-03 14493   0.195E-01    0.466E-01
RMM:  10    -0.645168088409E+03    0.24138E-03   -0.36856E-03 14330   0.143E-01    0.353E-01
RMM:  11    -0.645167660194E+03    0.42821E-03   -0.21471E-03 14189   0.106E-01    0.200E-01
RMM:  12    -0.645167679188E+03   -0.18994E-04   -0.12073E-03 12913   0.808E-02    0.183E-01
RMM:  13    -0.645167576184E+03    0.10300E-03   -0.74918E-04 12684   0.519E-02    0.714E-02
RMM:  14    -0.645167591254E+03   -0.15070E-04   -0.46662E-04 12135   0.385E-02    0.552E-02
RMM:  15    -0.645167607230E+03   -0.15976E-04   -0.26557E-04 11775   0.314E-02    0.637E-02
RMM:  16    -0.645167601625E+03    0.56053E-05   -0.15783E-04 11237   0.250E-02    0.289E-02
WARNING in EDDRMM: call to ZHEGV failed, returncode =   8  4      7
RMM:  17    -0.645167608218E+03   -0.65936E-05   -0.92313E-05 10460   0.190E-02
  12 F= -.64516761E+03 E0= -.64508028E+03  d E =-.238790E+00
 curvature:  -1.01 expect dE=-0.171E+00 dE for cont linesearch -0.157E-04
 trial: gam= 0.40060 g(F)=  0.157E+00 g(S)=  0.117E-01 ort =-0.282E-02 (trialstep = 0.929E+00)
 search vector abs. value=  0.248E+00
 bond charge predicted
       N       E                     dE             d eps       ncg     rms          rms(c)
DAV:   1    -0.644259865368E+03    0.90774E+00   -0.44757E+01 10128   0.401E+01    0.297E+00
RMM:   2    -0.645851710528E+03   -0.15918E+01   -0.12128E+01 15123   0.939E+00    0.915E+00
RMM:   3    -0.645426661452E+03    0.42505E+00   -0.96033E-01 13092   0.341E+00    0.560E+00
RMM:   4    -0.645316565460E+03    0.11010E+00   -0.28224E-01 14148   0.163E+00    0.267E+00
RMM:   5    -0.645305118703E+03    0.11447E-01   -0.98676E-02 14317   0.898E-01    0.255E+00
RMM:   6    -0.645273485124E+03    0.31634E-01   -0.44307E-02 14229   0.585E-01    0.139E+00
RMM:   7    -0.645270719875E+03    0.27652E-02   -0.27011E-02 14521   0.399E-01    0.118E+00
RMM:   8    -0.645273038553E+03   -0.23187E-02   -0.19981E-02 14109   0.399E-01    0.136E+00
RMM:   9    -0.645265008966E+03    0.80296E-02   -0.14335E-02 14298   0.329E-01    0.726E-01
RMM:  10    -0.645264288583E+03    0.72038E-03   -0.86120E-03 14068   0.247E-01    0.646E-01
RMM:  11    -0.645262015608E+03    0.22730E-02   -0.46457E-03 14276   0.163E-01    0.199E-01
RMM:  12    -0.645262458540E+03   -0.44293E-03   -0.29520E-03 13647   0.101E-01    0.314E-01
RMM:  13    -0.645262115863E+03    0.34268E-03   -0.15005E-03 12913   0.852E-02    0.131E-01
RMM:  14    -0.645262137532E+03   -0.21669E-04   -0.10042E-03 12817   0.499E-02    0.846E-02
RMM:  15    -0.645262156429E+03   -0.18897E-04   -0.55129E-04 12387   0.395E-02    0.540E-02
RMM:  16    -0.645262174120E+03   -0.17691E-04   -0.27909E-04 11993   0.311E-02    0.519E-02
WARNING in EDDRMM: call to ZHEGV failed, returncode =   6  3      8
RMM:  17    -0.645262190413E+03   -0.16292E-04   -0.18405E-04 11509   0.267E-02    0.578E-02
RMM:  18    -0.645262185897E+03    0.45159E-05   -0.11457E-04 11058   0.226E-02    0.261E-02
RMM:  19    -0.645262188549E+03   -0.26521E-05   -0.66660E-05 10150   0.167E-02
  13 F= -.64526219E+03 E0= -.64517533E+03  d E =-.945803E-01
 trial-energy change:   -0.094580  1 .order   -0.094807   -0.155934   -0.033680
 step:   1.1852(harm=  1.1852)  dis= 0.03898  next Energy=  -645.267055 (dE=-0.994E-01)
 bond charge predicted
       N       E                     dE             d eps       ncg     rms          rms(c)
DAV:   1    -0.645191042006E+03    0.71144E-01   -0.33952E+00 10464   0.110E+01    0.818E-01
RMM:   2    -0.645312621990E+03   -0.12158E+00   -0.92560E-01 15074   0.262E+00    0.264E+00
RMM:   3    -0.645282141165E+03    0.30481E-01   -0.75234E-02 13080   0.975E-01    0.172E+00
RMM:   4    -0.645270960539E+03    0.11181E-01   -0.22278E-02 14024   0.466E-01    0.713E-01
RMM:   5    -0.645270601411E+03    0.35913E-03   -0.81158E-03 14019   0.254E-01    0.755E-01
RMM:   6    -0.645268066872E+03    0.25345E-02   -0.36306E-03 13543   0.170E-01    0.429E-01
RMM:   7    -0.645267537140E+03    0.52973E-03   -0.21462E-03 13363   0.115E-01    0.295E-01
RMM:   8    -0.645267831659E+03   -0.29452E-03   -0.16936E-03 13421   0.117E-01    0.370E-01
RMM:   9    -0.645267207131E+03    0.62453E-03   -0.12018E-03 13988   0.962E-02    0.199E-01
RMM:  10    -0.645267156274E+03    0.50858E-04   -0.67932E-04 12881   0.720E-02    0.183E-01
RMM:  11    -0.645266976912E+03    0.17936E-03   -0.36778E-04 12453   0.491E-02    0.536E-02
WARNING in EDDRMM: call to ZHEGV failed, returncode =   6  3      9
RMM:  12    -0.645267010228E+03   -0.33316E-04   -0.24754E-04 11928   0.318E-02    0.834E-02
RMM:  13    -0.645266986625E+03    0.23603E-04   -0.12132E-04 11140   0.258E-02    0.365E-02
RMM:  14    -0.645266987794E+03   -0.11688E-05   -0.84914E-05 10248   0.167E-02
  14 F= -.64526699E+03 E0= -.64518025E+03  d E =-.993796E-01
 curvature:  -0.88 expect dE=-0.907E-01 dE for cont linesearch -0.261E-05
 trial: gam= 0.58574 g(F)=  0.548E-01 g(S)=  0.485E-01 ort = 0.860E-03 (trialstep = 0.980E+00)
 search vector abs. value=  0.190E+00
 bond charge predicted
       N       E                     dE             d eps       ncg     rms          rms(c)
DAV:   1    -0.644634387512E+03    0.63260E+00   -0.41181E+01 12888   0.407E+01    0.434E+00
RMM:   2    -0.646679315727E+03   -0.20449E+01   -0.11965E+01 13813   0.110E+01    0.132E+01
RMM:   3    -0.645701348966E+03    0.97797E+00   -0.14983E+00 12836   0.445E+00    0.798E+00
RMM:   4    -0.645407884886E+03    0.29346E+00   -0.46561E-01 13721   0.211E+00    0.379E+00
RMM:   5    -0.645388035943E+03    0.19849E-01   -0.16429E-01 13633   0.116E+00    0.338E+00
RMM:   6    -0.645322307531E+03    0.65728E-01   -0.88730E-02 13563   0.854E-01    0.172E+00
RMM:   7    -0.645326633679E+03   -0.43261E-02   -0.42714E-02 13043   0.648E-01    0.213E+00
RMM:   8    -0.645315172930E+03    0.11461E-01   -0.36413E-02 13643   0.568E-01    0.130E+00
RMM:   9    -0.645310436851E+03    0.47361E-02   -0.21584E-02 13766   0.396E-01    0.111E+00
RMM:  10    -0.645306315170E+03    0.41217E-02   -0.91198E-03 13099   0.298E-01    0.722E-01
RMM:  11    -0.645303376768E+03    0.29384E-02   -0.51092E-03 13861   0.174E-01    0.219E-01
RMM:  12    -0.645304200465E+03   -0.82370E-03   -0.29333E-03 13069   0.119E-01    0.411E-01
RMM:  13    -0.645303470967E+03    0.72950E-03   -0.14305E-03 12517   0.908E-02    0.103E-01
RMM:  14    -0.645303659711E+03   -0.18874E-03   -0.10318E-03 12886   0.559E-02    0.143E-01
RMM:  15    -0.645303690651E+03   -0.30939E-04   -0.55716E-04 12755   0.540E-02    0.128E-01
RMM:  16    -0.645303667483E+03    0.23167E-04   -0.37032E-04 12558   0.412E-02    0.575E-02
RMM:  17    -0.645303679357E+03   -0.11874E-04   -0.23997E-04 12120   0.297E-02    0.282E-02
WARNING in EDDRMM: call to ZHEGV failed, returncode =   8  4      6
RMM:  18    -0.645303695271E+03   -0.15914E-04   -0.12893E-04 11540   0.222E-02    0.343E-02
RMM:  19    -0.645303694363E+03    0.90792E-06   -0.75018E-05 10707   0.185E-02
  15 F= -.64530369E+03 E0= -.64521847E+03  d E =-.367066E-01
 trial-energy change:   -0.036707  1 .order   -0.035990   -0.101788    0.029809
 step:   0.7639(harm=  0.7583)  dis= 0.01899  next Energy=  -645.306979 (dE=-0.400E-01)
 bond charge predicted
       N       E                     dE             d eps       ncg     rms          rms(c)
DAV:   1    -0.645275661056E+03    0.28034E-01   -0.20239E+00 13368   0.896E+00    0.979E-01
RMM:   2    -0.645377115914E+03   -0.10145E+00   -0.58150E-01 14025   0.230E+00    0.297E+00
RMM:   3    -0.645326995769E+03    0.50120E-01   -0.71824E-02 12768   0.979E-01    0.184E+00
RMM:   4    -0.645313701938E+03    0.13294E-01   -0.21538E-02 13443   0.454E-01    0.989E-01
RMM:   5    -0.645311295597E+03    0.24063E-02   -0.86024E-03 13220   0.271E-01    0.743E-01
RMM:   6    -0.645308773641E+03    0.25220E-02   -0.45828E-03 13405   0.196E-01    0.522E-01
RMM:   7    -0.645308023155E+03    0.75049E-03   -0.19412E-03 12293   0.139E-01    0.377E-01
RMM:   8    -0.645307848649E+03    0.17451E-03   -0.18162E-03 13034   0.122E-01    0.318E-01
RMM:   9    -0.645307569390E+03    0.27926E-03   -0.95449E-04 12346   0.983E-02    0.255E-01
RMM:  10    -0.645307348393E+03    0.22100E-03   -0.58424E-04 12245   0.726E-02    0.158E-01
RMM:  11    -0.645307189017E+03    0.15938E-03   -0.26748E-04 12214   0.435E-02    0.587E-02
RMM:  12    -0.645307217302E+03   -0.28286E-04   -0.13141E-04 10763   0.315E-02    0.893E-02
RMM:  13    -0.645307179127E+03    0.38175E-04   -0.66651E-05  9523   0.217E-02    0.246E-02
RMM:  14    -0.645307183926E+03   -0.47993E-05   -0.55393E-05  8953   0.161E-02
  16 F= -.64530718E+03 E0= -.64522163E+03  d E =-.401961E-01
 curvature:  -0.69 expect dE=-0.434E-01 dE for cont linesearch -0.198E-05
 trial: gam= 0.61729 g(F)=  0.358E-01 g(S)=  0.270E-01 ort =-0.736E-03 (trialstep = 0.937E+00)
 search vector abs. value=  0.134E+00
 bond charge predicted
       N       E                     dE             d eps       ncg     rms          rms(c)
DAV:   1    -0.644642376313E+03    0.66480E+00   -0.26424E+01 10272   0.333E+01    0.194E+00
RMM:   2    -0.645504263798E+03   -0.86189E+00   -0.77350E+00 15228   0.709E+00    0.525E+00
RMM:   3    -0.645416158516E+03    0.88105E-01   -0.51031E-01 13259   0.246E+00    0.397E+00
RMM:   4    -0.645368000417E+03    0.48158E-01   -0.14882E-01 14334   0.114E+00    0.197E+00
RMM:   5    -0.645363996948E+03    0.40035E-02   -0.46619E-02 14086   0.654E-01    0.202E+00
RMM:   6    -0.645342957575E+03    0.21039E-01   -0.21391E-02 14303   0.402E-01    0.703E-01
RMM:   7    -0.645345839181E+03   -0.28816E-02   -0.13355E-02 14258   0.288E-01    0.106E+00
RMM:   8    -0.645342596199E+03    0.32430E-02   -0.11228E-02 14691   0.274E-01    0.668E-01
RMM:   9    -0.645340255553E+03    0.23406E-02   -0.67133E-03 14538   0.206E-01    0.415E-01
RMM:  10    -0.645339875549E+03    0.38000E-03   -0.36620E-03 14106   0.154E-01    0.335E-01
RMM:  11    -0.645339428349E+03    0.44720E-03   -0.20098E-03 13776   0.993E-02    0.177E-01
RMM:  12    -0.645339536327E+03   -0.10798E-03   -0.12336E-03 12895   0.716E-02    0.204E-01
RMM:  13    -0.645339385055E+03    0.15127E-03   -0.67986E-04 12736   0.539E-02    0.779E-02
RMM:  14    -0.645339401521E+03   -0.16466E-04   -0.44751E-04 12315   0.365E-02    0.571E-02
RMM:  15    -0.645339407015E+03   -0.54944E-05   -0.24604E-04 11797   0.291E-02    0.397E-02
RMM:  16    -0.645339415956E+03   -0.89410E-05   -0.13443E-04 11351   0.241E-02    0.422E-02
RMM:  17    -0.645339419935E+03   -0.39788E-05   -0.90121E-05 10715   0.202E-02
  17 F= -.64533942E+03 E0= -.64525353E+03  d E =-.322360E-01
 trial-energy change:   -0.032236  1 .order   -0.032400   -0.058413   -0.006387
 step:   1.0547(harm=  1.0522)  dis= 0.02498  next Energy=  -645.339820 (dE=-0.326E-01)
 bond charge predicted
       N       E                     dE             d eps       ncg     rms          rms(c)
DAV:   1    -0.645328782076E+03    0.10634E-01   -0.41450E-01 10872   0.421E+00    0.245E-01
RMM:   2    -0.645342996995E+03   -0.14215E-01   -0.12334E-01 15170   0.901E-01    0.731E-01
RMM:   3    -0.645341148385E+03    0.18486E-02   -0.85249E-03 13148   0.322E-01    0.521E-01
RMM:   4    -0.645340264505E+03    0.88388E-03   -0.25245E-03 13779   0.153E-01    0.241E-01
RMM:   5    -0.645340184337E+03    0.80167E-04   -0.84433E-04 12808   0.874E-02    0.232E-01
RMM:   6    -0.645339904516E+03    0.27982E-03   -0.40746E-04 12809   0.533E-02    0.971E-02
RMM:   7    -0.645339915654E+03   -0.11138E-04   -0.22181E-04 12121   0.387E-02    0.109E-01
RMM:   8    -0.645339924987E+03   -0.93329E-05   -0.20674E-04 12327   0.396E-02    0.113E-01
RMM:   9    -0.645339858382E+03    0.66605E-04   -0.12241E-04 11803   0.333E-02    0.567E-02
RMM:  10    -0.645339852721E+03    0.56616E-05   -0.79191E-05 10968   0.233E-02
  18 F= -.64533985E+03 E0= -.64525393E+03  d E =-.326688E-01
 curvature:  -1.13 expect dE=-0.377E-01 dE for cont linesearch -0.203E-06
 trial: gam= 0.45575 g(F)=  0.309E-01 g(S)=  0.244E-02 ort = 0.155E-03 (trialstep = 0.961E+00)
 search vector abs. value=  0.613E-01
 bond charge predicted
       N       E                     dE             d eps       ncg     rms          rms(c)
DAV:   1    -0.644989518252E+03    0.35034E+00   -0.13681E+01 10416   0.243E+01    0.100E+00
RMM:   2    -0.645357190172E+03   -0.36767E+00   -0.38159E+00 15034   0.480E+00    0.117E+00
RMM:   3    -0.645388397122E+03   -0.31207E-01   -0.23994E-01 14695   0.145E+00    0.228E+00
RMM:   4    -0.645369168821E+03    0.19228E-01   -0.50200E-02 13809   0.710E-01    0.801E-01
RMM:   5    -0.645365655977E+03    0.35128E-02   -0.16906E-02 14944   0.290E-01    0.467E-01
RMM:   6    -0.645365728859E+03   -0.72882E-04   -0.62417E-03 14244   0.173E-01    0.478E-01
RMM:   7    -0.645365810347E+03   -0.81489E-04   -0.42780E-03 14348   0.156E-01    0.524E-01
RMM:   8    -0.645364790811E+03    0.10195E-02   -0.32339E-03 14287   0.144E-01    0.345E-01
RMM:   9    -0.645364327145E+03    0.46367E-03   -0.19813E-03 13940   0.109E-01    0.200E-01
RMM:  10    -0.645364385903E+03   -0.58759E-04   -0.10766E-03 13024   0.799E-02    0.216E-01
RMM:  11    -0.645364184750E+03    0.20115E-03   -0.53736E-04 12184   0.626E-02    0.868E-02
RMM:  12    -0.645364223400E+03   -0.38650E-04   -0.47571E-04 11882   0.397E-02    0.110E-01
RMM:  13    -0.645364192091E+03    0.31308E-04   -0.24186E-04 11674   0.361E-02    0.598E-02
WARNING in EDDRMM: call to ZHEGV failed, returncode =   6  3      9
RMM:  14    -0.645364188417E+03    0.36741E-05   -0.18050E-04 11238   0.232E-02    0.284E-02
RMM:  15    -0.645364187384E+03    0.10335E-05   -0.86847E-05  9991   0.181E-02
  19 F= -.64536419E+03 E0= -.64527885E+03  d E =-.243347E-01
 trial-energy change:   -0.024335  1 .order   -0.024109   -0.032061   -0.016157
 step:   1.8021(harm=  1.9365)  dis= 0.03427  next Energy=  -645.371415 (dE=-0.316E-01)
 bond charge predicted
       N       E                     dE             d eps       ncg     rms          rms(c)
DAV:   1    -0.645072433974E+03    0.29175E+00   -0.10379E+01 10152   0.214E+01    0.884E-01
RMM:   2    -0.645364705568E+03   -0.29227E+00   -0.30279E+00 15053   0.431E+00    0.992E-01
RMM:   3    -0.645390895377E+03   -0.26190E-01   -0.21013E-01 14784   0.123E+00    0.200E+00
RMM:   4    -0.645376348906E+03    0.14546E-01   -0.39088E-02 13776   0.612E-01    0.762E-01
RMM:   5    -0.645373556512E+03    0.27924E-02   -0.12788E-02 14804   0.274E-01    0.500E-01
RMM:   6    -0.645373184934E+03    0.37158E-03   -0.53169E-03 14118   0.154E-01    0.380E-01
RMM:   7    -0.645373357373E+03   -0.17244E-03   -0.32996E-03 14233   0.133E-01    0.438E-01
RMM:   8    -0.645372532992E+03    0.82438E-03   -0.26019E-03 14246   0.128E-01    0.280E-01
RMM:   9    -0.645372245463E+03    0.28753E-03   -0.15731E-03 13818   0.956E-02    0.181E-01
RMM:  10    -0.645372269735E+03   -0.24272E-04   -0.87814E-04 12941   0.744E-02    0.181E-01
RMM:  11    -0.645372118392E+03    0.15134E-03   -0.42762E-04 11990   0.582E-02    0.726E-02
RMM:  12    -0.645372126698E+03   -0.83060E-05   -0.38369E-04 11835   0.337E-02    0.590E-02
RMM:  13    -0.645372130098E+03   -0.33998E-05   -0.20114E-04 11461   0.301E-02    0.624E-02
RMM:  14    -0.645372126800E+03    0.32982E-05   -0.12483E-04 11130   0.237E-02    0.372E-02
RMM:  15    -0.645372126625E+03    0.17488E-06   -0.79646E-05 10196   0.164E-02
  20 F= -.64537213E+03 E0= -.64528740E+03  d E =-.322739E-01
 curvature:  -1.74 expect dE=-0.498E-01 dE for cont linesearch -0.536E-04
 trial: gam= 0.77985 g(F)=  0.247E-01 g(S)=  0.391E-02 ort = 0.137E-02 (trialstep = 0.102E+01)
 search vector abs. value=  0.680E-01
 bond charge predicted
       N       E                     dE             d eps       ncg     rms          rms(c)
DAV:   1    -0.644871062030E+03    0.50106E+00   -0.16997E+01 10128   0.274E+01    0.166E+00
RMM:   2    -0.645567030700E+03   -0.69597E+00   -0.57323E+00 15209   0.581E+00    0.551E+00
RMM:   3    -0.645445428938E+03    0.12160E+00   -0.45982E-01 13057   0.212E+00    0.329E+00
RMM:   4    -0.645406208210E+03    0.39221E-01   -0.12139E-01 14242   0.950E-01    0.152E+00
RMM:   5    -0.645402301414E+03    0.39068E-02   -0.35219E-02 14287   0.518E-01    0.137E+00
RMM:   6    -0.645392512557E+03    0.97889E-02   -0.14912E-02 14600   0.313E-01    0.711E-01
RMM:   7    -0.645391916440E+03    0.59612E-03   -0.77094E-03 14016   0.220E-01    0.637E-01
RMM:   8    -0.645391985195E+03   -0.68755E-04   -0.60586E-03 14296   0.229E-01    0.636E-01
RMM:   9    -0.645390347432E+03    0.16378E-02   -0.44632E-03 14279   0.188E-01    0.452E-01
RMM:  10    -0.645389853570E+03    0.49386E-03   -0.27673E-03 13843   0.150E-01    0.348E-01
RMM:  11    -0.645389177274E+03    0.67630E-03   -0.14227E-03 13813   0.915E-02    0.893E-02
RMM:  12    -0.645389325569E+03   -0.14830E-03   -0.84299E-04 13007   0.568E-02    0.166E-01
RMM:  13    -0.645389237949E+03    0.87620E-04   -0.42473E-04 12421   0.458E-02    0.721E-02
RMM:  14    -0.645389248193E+03   -0.10244E-04   -0.28838E-04 12143   0.284E-02    0.490E-02
RMM:  15    -0.645389268636E+03   -0.20443E-04   -0.17494E-04 11592   0.260E-02    0.542E-02
RMM:  16    -0.645389265009E+03    0.36268E-05   -0.88313E-05 11233   0.224E-02
  21 F= -.64538927E+03 E0= -.64530537E+03  d E =-.171384E-01
 trial-energy change:   -0.017138  1 .order   -0.016921   -0.030167   -0.003676
 step:   1.1517(harm=  1.1591)  dis= 0.02695  next Energy=  -645.389507 (dE=-0.174E-01)
 bond charge predicted
       N       E                     dE             d eps       ncg     rms          rms(c)
DAV:   1    -0.645380523495E+03    0.87451E-02   -0.29309E-01 10776   0.355E+00    0.216E-01
RMM:   2    -0.645391518420E+03   -0.10995E-01   -0.97625E-02 15165   0.748E-01    0.556E-01
RMM:   3    -0.645390442844E+03    0.10756E-02   -0.74844E-03 12835   0.278E-01    0.445E-01
RMM:   4    -0.645389758047E+03    0.68480E-03   -0.20242E-03 13705   0.123E-01    0.190E-01
RMM:   5    -0.645389691241E+03    0.66805E-04   -0.57422E-04 12588   0.703E-02    0.176E-01
RMM:   6    -0.645389538941E+03    0.15230E-03   -0.26573E-04 12462   0.458E-02    0.909E-02
RMM:   7    -0.645389536313E+03    0.26279E-05   -0.15304E-04 11895   0.306E-02    0.867E-02
RMM:   8    -0.645389548248E+03   -0.11935E-04   -0.11298E-04 11229   0.332E-02    0.962E-02
RMM:   9    -0.645389510714E+03    0.37534E-04   -0.89162E-05 11423   0.286E-02    0.557E-02
RMM:  10    -0.645389506422E+03    0.42922E-05   -0.58244E-05 10073   0.226E-02
  22 F= -.64538951E+03 E0= -.64530570E+03  d E =-.173798E-01
 curvature:  -1.33 expect dE=-0.348E-01 dE for cont linesearch -0.646E-06
 trial: gam= 0.89458 g(F)=  0.104E-01 g(S)=  0.158E-01 ort = 0.182E-03 (trialstep = 0.877E+00)
 search vector abs. value=  0.810E-01
 bond charge predicted
       N       E                     dE             d eps       ncg     rms          rms(c)
DAV:   1    -0.644974036868E+03    0.41547E+00   -0.15706E+01 11376   0.257E+01    0.203E+00
RMM:   2    -0.645580836886E+03   -0.60680E+00   -0.51279E+00 15078   0.558E+00    0.476E+00
RMM:   3    -0.645474056977E+03    0.10678E+00   -0.46309E-01 13123   0.212E+00    0.365E+00
RMM:   4    -0.645423857306E+03    0.50200E-01   -0.12323E-01 14195   0.930E-01    0.184E+00
RMM:   5    -0.645422505132E+03    0.13522E-02   -0.40333E-02 13712   0.620E-01    0.187E+00
RMM:   6    -0.645403939316E+03    0.18566E-01   -0.18727E-02 14029   0.381E-01    0.783E-01
RMM:   7    -0.645404984500E+03   -0.10452E-02   -0.94976E-03 13603   0.286E-01    0.964E-01
RMM:   8    -0.645403037761E+03    0.19467E-02   -0.87560E-03 14122   0.267E-01    0.703E-01
RMM:   9    -0.645401654437E+03    0.13833E-02   -0.52461E-03 13496   0.209E-01    0.587E-01
RMM:  10    -0.645400818764E+03    0.83567E-03   -0.35050E-03 13790   0.172E-01    0.417E-01
RMM:  11    -0.645399890373E+03    0.92839E-03   -0.18967E-03 13838   0.987E-02    0.146E-01
RMM:  12    -0.645400071011E+03   -0.18064E-03   -0.11197E-03 12739   0.698E-02    0.216E-01
RMM:  13    -0.645399879926E+03    0.19109E-03   -0.54165E-04 12232   0.495E-02    0.658E-02
RMM:  14    -0.645399900595E+03   -0.20669E-04   -0.36160E-04 11994   0.314E-02    0.588E-02
RMM:  15    -0.645399927365E+03   -0.26770E-04   -0.18714E-04 11697   0.304E-02    0.755E-02
WARNING in EDDRMM: call to ZHEGV failed, returncode =   6  3      7
RMM:  16    -0.645399908053E+03    0.19312E-04   -0.12023E-04 11445   0.238E-02    0.268E-02
RMM:  17    -0.645399912737E+03   -0.46839E-05   -0.73222E-05 10791   0.163E-02
  23 F= -.64539991E+03 E0= -.64531587E+03  d E =-.104063E-01
 trial-energy change:   -0.010406  1 .order   -0.010099   -0.023147    0.002950
 step:   0.7840(harm=  0.7781)  dis= 0.02028  next Energy=  -645.400069 (dE=-0.106E-01)
 bond charge predicted
       N       E                     dE             d eps       ncg     rms          rms(c)
DAV:   1    -0.645395301649E+03    0.46064E-02   -0.17685E-01 12480   0.273E+00    0.218E-01
RMM:   2    -0.645402986362E+03   -0.76847E-02   -0.58842E-02 14806   0.596E-01    0.646E-01
RMM:   3    -0.645401134948E+03    0.18514E-02   -0.56461E-03 12517   0.240E-01    0.443E-01
RMM:   4    -0.645400388709E+03    0.74624E-03   -0.15177E-03 12872   0.115E-01    0.204E-01
RMM:   5    -0.645400323752E+03    0.64957E-04   -0.50571E-04 11769   0.704E-02    0.182E-01
RMM:   6    -0.645400148964E+03    0.17479E-03   -0.22640E-04 11491   0.445E-02    0.997E-02
RMM:   7    -0.645400127918E+03    0.21047E-04   -0.96777E-05  9906   0.331E-02    0.846E-02
RMM:   8    -0.645400127085E+03    0.83272E-06   -0.10668E-04  9625   0.320E-02    0.795E-02
RMM:   9    -0.645400105418E+03    0.21667E-04   -0.59012E-05  7888   0.286E-02    0.627E-02
RMM:  10    -0.645400096122E+03    0.92962E-05   -0.35644E-05  6581   0.235E-02
  24 F= -.64540010E+03 E0= -.64531605E+03  d E =-.105897E-01
 curvature:  -1.19 expect dE=-0.152E-01 dE for cont linesearch -0.645E-05
 trial: gam= 0.45692 g(F)=  0.104E-01 g(S)=  0.243E-02 ort =-0.662E-03 (trialstep = 0.859E+00)
 search vector abs. value=  0.291E-01
 bond charge predicted
       N       E                     dE             d eps       ncg     rms          rms(c)
DAV:   1    -0.645199663386E+03    0.20044E+00   -0.51444E+00 10032   0.154E+01    0.706E-01
RMM:   2    -0.645407137618E+03   -0.20747E+00   -0.20124E+00 15120   0.326E+00    0.167E+00
RMM:   3    -0.645412449822E+03   -0.53122E-02   -0.19258E-01 14319   0.924E-01    0.107E+00
RMM:   4    -0.645411719610E+03    0.73021E-03   -0.22331E-02 14358   0.400E-01    0.844E-01
RMM:   5    -0.645408456195E+03    0.32634E-02   -0.51995E-03 13481   0.227E-01    0.402E-01
RMM:   6    -0.645407995238E+03    0.46096E-03   -0.29643E-03 13515   0.111E-01    0.267E-01
RMM:   7    -0.645408096335E+03   -0.10110E-03   -0.15219E-03 13174   0.944E-02    0.314E-01
RMM:   8    -0.645407902098E+03    0.19424E-03   -0.13955E-03 14051   0.935E-02    0.280E-01
RMM:   9    -0.645407592534E+03    0.30956E-03   -0.85073E-04 13144   0.863E-02    0.183E-01
RMM:  10    -0.645407516983E+03    0.75551E-04   -0.59360E-04 13240   0.595E-02    0.136E-01
RMM:  11    -0.645407464286E+03    0.52696E-04   -0.27242E-04 12342   0.458E-02    0.955E-02
RMM:  12    -0.645407451518E+03    0.12768E-04   -0.17061E-04 11544   0.330E-02    0.655E-02
RMM:  13    -0.645407435548E+03    0.15970E-04   -0.11753E-04 10856   0.215E-02    0.282E-02
WARNING in EDDRMM: call to ZHEGV failed, returncode =   6  3      8
RMM:  14    -0.645407438611E+03   -0.30631E-05   -0.73387E-05  9716   0.181E-02
  25 F= -.64540744E+03 E0= -.64532381E+03  d E =-.734249E-02
 trial-energy change:   -0.007342  1 .order   -0.007286   -0.010720   -0.003853
 step:   1.3068(harm=  1.3404)  dis= 0.01593  next Energy=  -645.408452 (dE=-0.836E-02)
 bond charge predicted
       N       E                     dE             d eps       ncg     rms          rms(c)
DAV:   1    -0.645350454994E+03    0.56981E-01   -0.13866E+00 10416   0.806E+00    0.372E-01
RMM:   2    -0.645408642909E+03   -0.58188E-01   -0.55914E-01 15119   0.171E+00    0.936E-01
RMM:   3    -0.645409854273E+03   -0.12114E-02   -0.57293E-02 14266   0.487E-01    0.547E-01
RMM:   4    -0.645409852254E+03    0.20187E-05   -0.59137E-03 14088   0.212E-01    0.473E-01
RMM:   5    -0.645408846454E+03    0.10058E-02   -0.15251E-03 13049   0.123E-01    0.217E-01
RMM:   6    -0.645408705590E+03    0.14086E-03   -0.86153E-04 12917   0.612E-02    0.139E-01
RMM:   7    -0.645408745933E+03   -0.40343E-04   -0.47805E-04 12442   0.522E-02    0.166E-01
RMM:   8    -0.645408694729E+03    0.51204E-04   -0.40543E-04 12856   0.528E-02    0.147E-01
RMM:   9    -0.645408596139E+03    0.98589E-04   -0.25718E-04 12189   0.475E-02    0.880E-02
RMM:  10    -0.645408594728E+03    0.14112E-05   -0.16480E-04 11955   0.325E-02    0.813E-02
RMM:  11    -0.645408573936E+03    0.20793E-04   -0.82884E-05 10796   0.264E-02    0.479E-02
RMM:  12    -0.645408571065E+03    0.28704E-05   -0.54353E-05  9809   0.195E-02
  26 F= -.64540857E+03 E0= -.64532515E+03  d E =-.847494E-02
 curvature:  -1.55 expect dE=-0.113E-01 dE for cont linesearch -0.576E-05
 trial: gam= 0.47929 g(F)=  0.686E-02 g(S)=  0.419E-03 ort = 0.328E-03 (trialstep = 0.948E+00)
 search vector abs. value=  0.143E-01
 bond charge predicted
       N       E                     dE             d eps       ncg     rms          rms(c)
DAV:   1    -0.645305388690E+03    0.10319E+00   -0.29779E+00 10464   0.120E+01    0.507E-01
RMM:   2    -0.645421677475E+03   -0.11629E+00   -0.10496E+00 14935   0.254E+00    0.177E+00
RMM:   3    -0.645415380323E+03    0.62972E-02   -0.11669E-01 13907   0.738E-01    0.540E-01
RMM:   4    -0.645416956345E+03   -0.15760E-02   -0.11666E-02 14112   0.289E-01    0.679E-01
RMM:   5    -0.645414696203E+03    0.22601E-02   -0.27533E-03 13200   0.168E-01    0.268E-01
RMM:   6    -0.645414499122E+03    0.19708E-03   -0.15472E-03 13148   0.780E-02    0.170E-01
RMM:   7    -0.645414700294E+03   -0.20117E-03   -0.84294E-04 12689   0.723E-02    0.278E-01
RMM:   8    -0.645414391025E+03    0.30927E-03   -0.64464E-04 12787   0.695E-02    0.135E-01
RMM:   9    -0.645414382457E+03    0.85677E-05   -0.46364E-04 12541   0.527E-02    0.150E-01
RMM:  10    -0.645414314337E+03    0.68120E-04   -0.21058E-04 11654   0.417E-02    0.824E-02
RMM:  11    -0.645414302787E+03    0.11550E-04   -0.15840E-04 11277   0.279E-02    0.505E-02
RMM:  12    -0.645414300898E+03    0.18890E-05   -0.92037E-05 10483   0.223E-02
  27 F= -.64541430E+03 E0= -.64533096E+03  d E =-.572983E-02
 trial-energy change:   -0.005730  1 .order   -0.005706   -0.007056   -0.004355
 step:   2.4774(harm=  2.4774)  dis= 0.02566  next Energy=  -645.417789 (dE=-0.922E-02)
 bond charge predicted
       N       E                     dE             d eps       ncg     rms          rms(c)
DAV:   1    -0.645131427444E+03    0.28288E+00   -0.77108E+00 10344   0.194E+01    0.827E-01
RMM:   2    -0.645440098543E+03   -0.30867E+00   -0.27731E+00 14949   0.420E+00    0.293E+00
RMM:   3    -0.645420557194E+03    0.19541E-01   -0.29813E-01 13990   0.119E+00    0.866E-01
RMM:   4    -0.645425303885E+03   -0.47467E-02   -0.32069E-02 14147   0.477E-01    0.113E+00
RMM:   5    -0.645418917090E+03    0.63868E-02   -0.74559E-03 13730   0.278E-01    0.430E-01
RMM:   6    -0.645418411633E+03    0.50546E-03   -0.42648E-03 13722   0.121E-01    0.274E-01
RMM:   7    -0.645418955432E+03   -0.54380E-03   -0.22824E-03 13399   0.117E-01    0.453E-01
RMM:   8    -0.645418079087E+03    0.87635E-03   -0.17201E-03 13528   0.110E-01    0.203E-01
RMM:   9    -0.645418131873E+03   -0.52786E-04   -0.11985E-03 13328   0.801E-02    0.255E-01
RMM:  10    -0.645417925402E+03    0.20647E-03   -0.54961E-04 12298   0.667E-02    0.130E-01
RMM:  11    -0.645417901200E+03    0.24202E-04   -0.41996E-04 12133   0.415E-02    0.824E-02
RMM:  12    -0.645417898816E+03    0.23834E-05   -0.24213E-04 11395   0.336E-02    0.744E-02
RMM:  13    -0.645417878534E+03    0.20283E-04   -0.12856E-04 10964   0.268E-02    0.342E-02
RMM:  14    -0.645417884074E+03   -0.55400E-05   -0.91560E-05  9952   0.167E-02
  28 F= -.64541788E+03 E0= -.64533455E+03  d E =-.931301E-02
 curvature:  -2.38 expect dE=-0.321E-01 dE for cont linesearch -0.166E-05
 trial: gam= 1.90778 g(F)=  0.124E-01 g(S)=  0.116E-02 ort =-0.999E-04 (trialstep = 0.275E+00)
 search vector abs. value=  0.651E-01
 bond charge predicted
       N       E                     dE             d eps       ncg     rms          rms(c)
DAV:   1    -0.645372431473E+03    0.45447E-01   -0.11796E+00  9672   0.768E+00    0.384E-01
RMM:   2    -0.645426239747E+03   -0.53808E-01   -0.47981E-01 15104   0.171E+00    0.129E+00
RMM:   3    -0.645422961709E+03    0.32780E-02   -0.52962E-02 13648   0.496E-01    0.534E-01
RMM:   4    -0.645422560517E+03    0.40119E-03   -0.63683E-03 14088   0.212E-01    0.377E-01
RMM:   5    -0.645422041884E+03    0.51863E-03   -0.15651E-03 13175   0.118E-01    0.300E-01
RMM:   6    -0.645421624604E+03    0.41728E-03   -0.67555E-04 12480   0.685E-02    0.125E-01
RMM:   7    -0.645421660277E+03   -0.35673E-04   -0.42035E-04 12214   0.457E-02    0.154E-01
RMM:   8    -0.645421690424E+03   -0.30147E-04   -0.38044E-04 12303   0.551E-02    0.176E-01
RMM:   9    -0.645421525058E+03    0.16537E-03   -0.28278E-04 12578   0.440E-02    0.816E-02
RMM:  10    -0.645421533600E+03   -0.85411E-05   -0.14130E-04 11270   0.321E-02    0.857E-02
RMM:  11    -0.645421511089E+03    0.22511E-04   -0.81827E-05 10620   0.240E-02    0.402E-02
RMM:  12    -0.645421505925E+03    0.51638E-05   -0.48275E-05  9567   0.175E-02
  29 F= -.64542151E+03 E0= -.64533800E+03  d E =-.362185E-02
 ZBRENT: can't locate minimum, use default step
 trial-energy change:   -0.003622  1 .order   -0.003560   -0.003666   -0.003453
 step:   1.1002(harm=  4.7417)  dis= 0.03113  next Energy=  -645.449484 (dE=-0.316E-01)
 bond charge predicted
       N       E                     dE             d eps       ncg     rms          rms(c)
DAV:   1    -0.644990745870E+03    0.43077E+00   -0.10632E+01  9504   0.229E+01    0.117E+00
RMM:   2    -0.645500350561E+03   -0.50960E+00   -0.43845E+00 15132   0.510E+00    0.447E+00
RMM:   3    -0.645441461147E+03    0.58889E-01   -0.46203E-01 13549   0.152E+00    0.137E+00
RMM:   4    -0.645442825991E+03   -0.13648E-02   -0.58898E-02 14425   0.639E-01    0.131E+00
RMM:   5    -0.645436171448E+03    0.66545E-02   -0.13672E-02 13734   0.366E-01    0.901E-01
RMM:   6    -0.645432434070E+03    0.37374E-02   -0.65492E-03 14052   0.194E-01    0.394E-01
RMM:   7    -0.645432610375E+03   -0.17631E-03   -0.35448E-03 13278   0.128E-01    0.456E-01
RMM:   8    -0.645432813948E+03   -0.20357E-03   -0.34115E-03 14188   0.147E-01    0.491E-01
RMM:   9    -0.645431572812E+03    0.12411E-02   -0.23836E-03 14085   0.129E-01    0.292E-01
RMM:  10    -0.645431392818E+03    0.17999E-03   -0.12139E-03 12981   0.904E-02    0.207E-01
RMM:  11    -0.645431357299E+03    0.35519E-04   -0.72230E-04 12857   0.620E-02    0.161E-01
RMM:  12    -0.645431239969E+03    0.11733E-03   -0.35412E-04 12256   0.465E-02    0.626E-02
RMM:  13    -0.645431245395E+03   -0.54256E-05   -0.25309E-04 11674   0.281E-02    0.495E-02
RMM:  14    -0.645431241654E+03    0.37413E-05   -0.13554E-04 10981   0.244E-02    0.311E-02
RMM:  15    -0.645431250849E+03   -0.91949E-05   -0.79496E-05 10440   0.196E-02
  30 F= -.64543125E+03 E0= -.64534731E+03  d E =-.133668E-01
 curvature:  -3.88 expect dE=-0.729E-01 dE for cont linesearch -0.676E-02
 ZBRENT: increasing intervall
 opt :   2.7504  next Energy=  -645.445655 (dE=-0.278E-01)
 bond charge predicted
       N       E                     dE             d eps       ncg     rms          rms(c)
DAV:   1    -0.643722885846E+03    0.17084E+01   -0.43103E+01  9504   0.455E+01    0.235E+00
RMM:   2    -0.645891883969E+03   -0.21690E+01   -0.17918E+01 15185   0.103E+01    0.104E+01
RMM:   3    -0.645475051970E+03    0.41683E+00   -0.17578E+00 13375   0.313E+00    0.221E+00
RMM:   4    -0.645498758901E+03   -0.23707E-01   -0.25441E-01 14554   0.127E+00    0.298E+00
RMM:   5    -0.645468281916E+03    0.30477E-01   -0.58786E-02 13950   0.757E-01    0.195E+00
RMM:   6    -0.645451209116E+03    0.17073E-01   -0.28820E-02 14502   0.378E-01    0.845E-01
RMM:   7    -0.645450930148E+03    0.27897E-03   -0.14444E-02 13958   0.262E-01    0.849E-01
RMM:   8    -0.645451569667E+03   -0.63952E-03   -0.13128E-02 14624   0.263E-01    0.890E-01
RMM:   9    -0.645447547983E+03    0.40217E-02   -0.93640E-03 14538   0.262E-01    0.636E-01
RMM:  10    -0.645446599813E+03    0.94817E-03   -0.48461E-03 14005   0.174E-01    0.410E-01
RMM:  11    -0.645446093315E+03    0.50650E-03   -0.27455E-03 14007   0.110E-01    0.180E-01
RMM:  12    -0.645446017857E+03    0.75457E-04   -0.14045E-03 13206   0.733E-02    0.132E-01
RMM:  13    -0.645446026263E+03   -0.84057E-05   -0.78058E-04 12656   0.547E-02    0.123E-01
RMM:  14    -0.645445997855E+03    0.28408E-04   -0.43710E-04 12256   0.427E-02    0.693E-02
RMM:  15    -0.645446019961E+03   -0.22106E-04   -0.28977E-04 11883   0.319E-02    0.707E-02
RMM:  16    -0.645446002351E+03    0.17609E-04   -0.15348E-04 11469   0.265E-02    0.301E-02
RMM:  17    -0.645446009362E+03   -0.70111E-05   -0.10154E-04 10865   0.178E-02    0.250E-02
RMM:  18    -0.645446009224E+03    0.13832E-06   -0.60545E-05  9840   0.159E-02
  31 F= -.64544601E+03 E0= -.64536266E+03  d E =-.281252E-01
 curvature:  -8.28 expect dE=-0.576E+00 dE for cont linesearch -0.506E-02
 ZBRENT: increasing intervall
 opt :   6.0510  next Energy=  -645.452503 (dE=-0.346E-01)
 bond charge predicted
       N       E                     dE             d eps       ncg     rms          rms(c)
DAV:   1    -0.639685270580E+03    0.57607E+01   -0.18696E+02 10128   0.900E+01    0.473E+00
RMM:   2    -0.648504867334E+03   -0.88196E+01   -0.68598E+01 15199   0.204E+01    0.218E+01
RMM:   3    -0.645469229196E+03    0.30356E+01   -0.53322E+00 12573   0.699E+00    0.365E+00
RMM:   4    -0.645764927769E+03   -0.29570E+00   -0.11728E+00 14672   0.260E+00    0.829E+00
RMM:   5    -0.645504296201E+03    0.26063E+00   -0.28428E-01 13956   0.161E+00    0.362E+00
RMM:   6    -0.645446719192E+03    0.57577E-01   -0.14648E-01 14912   0.734E-01    0.177E+00
RMM:   7    -0.645440126022E+03    0.65932E-02   -0.62451E-02 14425   0.523E-01    0.148E+00
RMM:   8    -0.645446879538E+03   -0.67535E-02   -0.51093E-02 14737   0.514E-01    0.192E+00
RMM:   9    -0.645429306805E+03    0.17573E-01   -0.35005E-02 14059   0.555E-01    0.112E+00
RMM:  10    -0.645426779266E+03    0.25275E-02   -0.23009E-02 14645   0.317E-01    0.833E-01
RMM:  11    -0.645425619985E+03    0.11593E-02   -0.11176E-02 14356   0.280E-01    0.623E-01
RMM:  12    -0.645423768954E+03    0.18510E-02   -0.63800E-03 14093   0.176E-01    0.217E-01
RMM:  13    -0.645423864499E+03   -0.95545E-04   -0.38515E-03 13730   0.104E-01    0.194E-01
RMM:  14    -0.645423930060E+03   -0.65561E-04   -0.18839E-03 13579   0.899E-02    0.190E-01
RMM:  15    -0.645423963831E+03   -0.33771E-04   -0.12882E-03 12923   0.704E-02    0.152E-01
RMM:  16    -0.645423871467E+03    0.92364E-04   -0.73757E-04 12574   0.463E-02    0.474E-02
RMM:  17    -0.645423911853E+03   -0.40386E-04   -0.40524E-04 11817   0.342E-02    0.526E-02
RMM:  18    -0.645423912649E+03   -0.79582E-06   -0.23870E-04 11671   0.264E-02    0.226E-02
RMM:  19    -0.645423920808E+03   -0.81584E-05   -0.12090E-04 10820   0.202E-02    0.146E-02
RMM:  20    -0.645423925446E+03   -0.46387E-05   -0.68729E-05  9814   0.171E-02
  32 F= -.64542393E+03 E0= -.64534583E+03  d E =-.604137E-02
 curvature: -10.64 expect dE=-0.296E+01 dE for cont linesearch -0.123E+00
 ZBRENT: bracketing found
 ZBRENT: interpolating
 opt :   3.3664  next Energy=  -645.447951 (dE=-0.301E-01)
 bond charge predicted
       N       E                     dE             d eps       ncg     rms          rms(c)
DAV:   1    -0.641652775747E+03    0.37711E+01   -0.12188E+02 10152   0.730E+01    0.420E+00
RMM:   2    -0.648724496032E+03   -0.70717E+01   -0.48068E+01 14851   0.178E+01    0.219E+01
RMM:   3    -0.645529199705E+03    0.31953E+01   -0.39684E+00 12523   0.602E+00    0.379E+00
RMM:   4    -0.645593361061E+03   -0.64161E-01   -0.82823E-01 14552   0.219E+00    0.494E+00
RMM:   5    -0.645510253530E+03    0.83108E-01   -0.18288E-01 14050   0.126E+00    0.292E+00
RMM:   6    -0.645465373979E+03    0.44880E-01   -0.84116E-02 14769   0.637E-01    0.137E+00
RMM:   7    -0.645462672654E+03    0.27013E-02   -0.36022E-02 14493   0.395E-01    0.129E+00
RMM:   8    -0.645469936286E+03   -0.72636E-02   -0.34075E-02 14425   0.485E-01    0.189E+00
RMM:   9    -0.645454826723E+03    0.15110E-01   -0.30136E-02 14168   0.469E-01    0.111E+00
RMM:  10    -0.645450253449E+03    0.45733E-02   -0.15976E-02 14525   0.285E-01    0.563E-01
RMM:  11    -0.645450175821E+03    0.77628E-04   -0.70946E-03 14337   0.189E-01    0.532E-01
RMM:  12    -0.645449087853E+03    0.10880E-02   -0.40094E-03 13582   0.141E-01    0.220E-01
RMM:  13    -0.645449073296E+03    0.14557E-04   -0.25093E-03 13714   0.913E-02    0.162E-01
RMM:  14    -0.645449071440E+03    0.18556E-05   -0.14093E-03 13336   0.666E-02    0.108E-01
RMM:  15    -0.645449146109E+03   -0.74669E-04   -0.69130E-04 12627   0.523E-02    0.134E-01
RMM:  16    -0.645449082225E+03    0.63884E-04   -0.40906E-04 12141   0.401E-02    0.442E-02
WARNING in EDDRMM: call to ZHEGV failed, returncode =   6  3      9
RMM:  17    -0.645449109721E+03   -0.27496E-04   -0.26291E-04 11649   0.268E-02    0.443E-02
WARNING in EDDRMM: call to ZHEGV failed, returncode =   6  3     11
RMM:  18    -0.645449109848E+03   -0.12763E-06   -0.14927E-04 11203   0.222E-02    0.179E-02
RMM:  19    -0.645449115524E+03   -0.56757E-05   -0.71906E-05 10076   0.171E-02
  33 F= -.64544912E+03 E0= -.64536655E+03  d E =-.312315E-01
 curvature:  -0.17 expect dE=-0.171E-01 dE for cont linesearch -0.304E-04
 ZBRENT: interpolating
 opt :   4.0234  next Energy=  -645.450371 (dE=-0.325E-01)
 bond charge predicted
       N       E                     dE             d eps       ncg     rms          rms(c)
DAV:   1    -0.645186650799E+03    0.26246E+00   -0.68853E+00  9840   0.183E+01    0.847E-01
RMM:   2    -0.645456406989E+03   -0.26976E+00   -0.26091E+00 15143   0.384E+00    0.198E+00
RMM:   3    -0.645461247113E+03   -0.48401E-02   -0.23681E-01 13921   0.109E+00    0.151E+00
RMM:   4    -0.645456754305E+03    0.44928E-02   -0.30182E-02 14089   0.500E-01    0.102E+00
RMM:   5    -0.645453437314E+03    0.33170E-02   -0.82403E-03 13836   0.278E-01    0.774E-01
RMM:   6    -0.645450664529E+03    0.27728E-02   -0.37668E-03 13616   0.151E-01    0.272E-01
RMM:   7    -0.645450743382E+03   -0.78854E-04   -0.21952E-03 13228   0.996E-02    0.319E-01
RMM:   8    -0.645450873278E+03   -0.12990E-03   -0.19618E-03 13742   0.122E-01    0.385E-01
RMM:   9    -0.645449995972E+03    0.87731E-03   -0.13980E-03 14089   0.955E-02    0.131E-01
RMM:  10    -0.645450139805E+03   -0.14383E-03   -0.71115E-04 13379   0.648E-02    0.205E-01
RMM:  11    -0.645449973179E+03    0.16663E-03   -0.31667E-04 11938   0.530E-02    0.889E-02
RMM:  12    -0.645449966877E+03    0.63018E-05   -0.23387E-04 11866   0.333E-02    0.711E-02
RMM:  13    -0.645449950933E+03    0.15944E-04   -0.12507E-04 11343   0.261E-02    0.402E-02
RMM:  14    -0.645449949158E+03    0.17751E-05   -0.80916E-05 10551   0.179E-02
  34 F= -.64544995E+03 E0= -.64536843E+03  d E =-.320651E-01
 curvature:  -6.91 expect dE=-0.965E+00 dE for cont linesearch -0.297E-03
 trial: gam=10.07342 g(F)=  0.929E-01 g(S)=  0.468E-01 ort =-0.167E-02 (trialstep = 0.994E-02)
 search vector abs. value=  0.671E+01
 bond charge predicted
       N       E                     dE             d eps       ncg     rms          rms(c)
DAV:   1    -0.645444672512E+03    0.52784E-02   -0.16875E-01 11544   0.285E+00    0.118E-01
RMM:   2    -0.645451399910E+03   -0.67274E-02   -0.61637E-02 14826   0.580E-01    0.385E-01
RMM:   3    -0.645451282108E+03    0.11780E-03   -0.74155E-03 13223   0.171E-01    0.165E-01
RMM:   4    -0.645451362052E+03   -0.79944E-04   -0.64623E-04 12758   0.764E-02    0.181E-01
RMM:   5    -0.645451215710E+03    0.14634E-03   -0.17622E-04 10880   0.449E-02    0.790E-02
WARNING in EDDRMM: call to ZHEGV failed, returncode =   6  3      9
RMM:   6    -0.645451189659E+03    0.26051E-04   -0.99296E-05 10366   0.223E-02    0.398E-02
RMM:   7    -0.645451194453E+03   -0.47945E-05   -0.51162E-05  9162   0.214E-02
  35 F= -.64545119E+03 E0= -.64536989E+03  d E =-.124530E-02
 ZBRENT: can't locate minimum, use default step
 trial-energy change:   -0.001245  1 .order   -0.001190   -0.001221   -0.001158
 step:   0.0398(harm=  0.1927)  dis= 0.01225  next Energy=  -645.461788 (dE=-0.118E-01)
 bond charge predicted
       N       E                     dE             d eps       ncg     rms          rms(c)
DAV:   1    -0.645401185096E+03    0.50005E-01   -0.15681E+00 11328   0.855E+00    0.326E-01
RMM:   2    -0.645456310990E+03   -0.55126E-01   -0.51673E-01 14645   0.164E+00    0.102E+00
RMM:   3    -0.645455528683E+03    0.78231E-03   -0.53367E-02 13486   0.499E-01    0.502E-01
RMM:   4    -0.645455754204E+03   -0.22552E-03   -0.55505E-03 13683   0.207E-01    0.424E-01
RMM:   5    -0.645454888302E+03    0.86590E-03   -0.13010E-03 12841   0.111E-01    0.248E-01
RMM:   6    -0.645454662506E+03    0.22580E-03   -0.62387E-04 12257   0.559E-02    0.111E-01
RMM:   7    -0.645454745099E+03   -0.82593E-04   -0.43234E-04 12095   0.499E-02    0.171E-01
RMM:   8    -0.645454624083E+03    0.12102E-03   -0.30149E-04 11891   0.484E-02    0.102E-01
RMM:   9    -0.645454579245E+03    0.44837E-04   -0.19605E-04 11558   0.338E-02    0.501E-02
RMM:  10    -0.645454599688E+03   -0.20443E-04   -0.10488E-04 10237   0.264E-02    0.688E-02
RMM:  11    -0.645454581299E+03    0.18389E-04   -0.53534E-05  9348   0.208E-02    0.361E-02
RMM:  12    -0.645454576251E+03    0.50477E-05   -0.39904E-05  8422   0.152E-02
  36 F= -.64545458E+03 E0= -.64537389E+03  d E =-.462709E-02
 curvature:  -1.58 expect dE=-0.238E+00 dE for cont linesearch -0.254E-02
 ZBRENT: increasing intervall
 opt :   0.0994  next Energy=  -645.460033 (dE=-0.101E-01)
 bond charge predicted
       N       E                     dE             d eps       ncg     rms          rms(c)
DAV:   1    -0.645244886161E+03    0.20970E+00   -0.62790E+00 11256   0.170E+01    0.650E-01
RMM:   2    -0.645457289018E+03   -0.21240E+00   -0.20769E+00 14668   0.330E+00    0.150E+00
RMM:   3    -0.645464956701E+03   -0.76677E-02   -0.21118E-01 13778   0.971E-01    0.116E+00
RMM:   4    -0.645464061398E+03    0.89530E-03   -0.20737E-02 13796   0.413E-01    0.832E-01
RMM:   5    -0.645460447284E+03    0.36141E-02   -0.50881E-03 13483   0.216E-01    0.412E-01
RMM:   6    -0.645459864600E+03    0.58268E-03   -0.24751E-03 13140   0.102E-01    0.223E-01
RMM:   7    -0.645460023741E+03   -0.15914E-03   -0.13327E-03 12775   0.833E-02    0.294E-01
RMM:   8    -0.645459797549E+03    0.22619E-03   -0.11171E-03 13132   0.858E-02    0.224E-01
RMM:   9    -0.645459520521E+03    0.27703E-03   -0.79044E-04 12955   0.692E-02    0.101E-01
RMM:  10    -0.645459601812E+03   -0.81291E-04   -0.40964E-04 12055   0.531E-02    0.140E-01
RMM:  11    -0.645459531187E+03    0.70626E-04   -0.21543E-04 11277   0.386E-02    0.752E-02
RMM:  12    -0.645459508553E+03    0.22633E-04   -0.12826E-04 10375   0.258E-02    0.369E-02
RMM:  13    -0.645459511509E+03   -0.29551E-05   -0.88151E-05  9437   0.197E-02
  37 F= -.64545951E+03 E0= -.64538009E+03  d E =-.956235E-02
 curvature:  -3.39 expect dE=-0.579E+00 dE for cont linesearch -0.154E-02
 ZBRENT: increasing intervall
 opt :   0.2187  next Energy=  -645.460292 (dE=-0.103E-01)
 bond charge predicted
       N       E                     dE             d eps       ncg     rms          rms(c)
DAV:   1    -0.644537801364E+03    0.92171E+00   -0.24623E+01 10584   0.339E+01    0.136E+00
RMM:   2    -0.645429538873E+03   -0.89174E+00   -0.89013E+00 14912   0.703E+00    0.239E+00
RMM:   3    -0.645481126790E+03   -0.51588E-01   -0.84768E-01 14288   0.186E+00    0.232E+00
RMM:   4    -0.645479418289E+03    0.17085E-02   -0.96121E-02 13804   0.855E-01    0.196E+00
RMM:   5    -0.645461218428E+03    0.18200E-01   -0.23078E-02 13583   0.476E-01    0.779E-01
RMM:   6    -0.645459209327E+03    0.20091E-02   -0.11470E-02 14127   0.190E-01    0.441E-01
RMM:   7    -0.645459863479E+03   -0.65415E-03   -0.54509E-03 13673   0.161E-01    0.627E-01
RMM:   8    -0.645458446903E+03    0.14166E-02   -0.42873E-03 13954   0.168E-01    0.411E-01
RMM:   9    -0.645457715640E+03    0.73126E-03   -0.32254E-03 13875   0.136E-01    0.256E-01
RMM:  10    -0.645458013604E+03   -0.29796E-03   -0.18030E-03 13081   0.111E-01    0.314E-01
RMM:  11    -0.645457607761E+03    0.40584E-03   -0.10282E-03 12838   0.803E-02    0.154E-01
RMM:  12    -0.645457519785E+03    0.87976E-04   -0.52487E-04 11812   0.500E-02    0.755E-02
RMM:  13    -0.645457529496E+03   -0.97105E-05   -0.34042E-04 11449   0.351E-02    0.595E-02
RMM:  14    -0.645457521055E+03    0.84411E-05   -0.19765E-04 10896   0.266E-02    0.316E-02
RMM:  15    -0.645457531220E+03   -0.10166E-04   -0.11958E-04 10084   0.214E-02    0.444E-02
RMM:  16    -0.645457525413E+03    0.58077E-05   -0.69859E-05  9559   0.188E-02
  38 F= -.64545753E+03 E0= -.64538055E+03  d E =-.757625E-02
 curvature:  -1.71 expect dE=-0.356E+00 dE for cont linesearch -0.288E-02
 ZBRENT: bracketing found
 ZBRENT: interpolating
 opt :   0.1402  next Energy=  -645.460640 (dE=-0.107E-01)
 bond charge predicted
       N       E                     dE             d eps       ncg     rms          rms(c)
DAV:   1    -0.645058148667E+03    0.39938E+00   -0.10555E+01 10872   0.221E+01    0.899E-01
RMM:   2    -0.645456243252E+03   -0.39809E+00   -0.38393E+00 14670   0.451E+00    0.224E+00
RMM:   3    -0.645469323111E+03   -0.13080E-01   -0.45903E-01 13624   0.130E+00    0.143E+00
RMM:   4    -0.645469248705E+03    0.74406E-04   -0.34689E-02 13714   0.536E-01    0.112E+00
RMM:   5    -0.645463178130E+03    0.60706E-02   -0.89245E-03 13685   0.285E-01    0.626E-01
RMM:   6    -0.645461640145E+03    0.15380E-02   -0.41448E-03 13426   0.135E-01    0.300E-01
RMM:   7    -0.645461821102E+03   -0.18096E-03   -0.21987E-03 13062   0.100E-01    0.377E-01
RMM:   8    -0.645461655283E+03    0.16582E-03   -0.17515E-03 12696   0.121E-01    0.346E-01
RMM:   9    -0.645460937390E+03    0.71789E-03   -0.16502E-03 13532   0.930E-02    0.126E-01
RMM:  10    -0.645461121560E+03   -0.18417E-03   -0.70328E-04 12228   0.691E-02    0.209E-01
RMM:  11    -0.645460929912E+03    0.19165E-03   -0.32471E-04 11079   0.505E-02    0.722E-02
RMM:  12    -0.645460914229E+03    0.15684E-04   -0.24029E-04 10554   0.273E-02    0.413E-02
WARNING in EDDRMM: call to ZHEGV failed, returncode =   6  3      6
WARNING in EDDRMM: call to ZHEGV failed, returncode =   6  3      8
RMM:  13    -0.645460922976E+03   -0.87470E-05   -0.12232E-04  9611   0.253E-02    0.493E-02
RMM:  14    -0.645460916246E+03    0.67292E-05   -0.77568E-05  9172   0.184E-02
  39 F= -.64546092E+03 E0= -.64538234E+03  d E =-.109671E-01
 curvature:  -0.67 expect dE=-0.122E+00 dE for cont linesearch -0.185E-04
 trial: gam= 0.18466 g(F)=  0.134E+00 g(S)=  0.472E-01 ort = 0.136E-01 (trialstep = 0.360E-01)
 search vector abs. value=  0.415E+00
 bond charge predicted
       N       E                     dE             d eps       ncg     rms          rms(c)
DAV:   1    -0.645462142528E+03   -0.12196E-02   -0.13805E-01 12144   0.247E+00    0.187E-01
RMM:   2    -0.645469374202E+03   -0.72317E-02   -0.58130E-02 14648   0.530E-01    0.557E-01
RMM:   3    -0.645467994411E+03    0.13798E-02   -0.65733E-03 12095   0.203E-01    0.322E-01
RMM:   4    -0.645467705910E+03    0.28850E-03   -0.10757E-03 12230   0.971E-02    0.217E-01
RMM:   5    -0.645467557666E+03    0.14824E-03   -0.34917E-04 11060   0.591E-02    0.134E-01
RMM:   6    -0.645467453212E+03    0.10445E-03   -0.16098E-04 11222   0.352E-02    0.749E-02
RMM:   7    -0.645467447157E+03    0.60547E-05   -0.75767E-05  9094   0.282E-02
[...]
 search vector abs. value=  0.406E-02
 bond charge predicted
       N       E                     dE             d eps       ncg     rms          rms(c)
DAV:   1    -0.645783645046E+03    0.12615E-01   -0.69108E-01 11832   0.519E+00    0.447E-01
RMM:   2    -0.645810333369E+03   -0.26688E-01   -0.19376E-01 14615   0.122E+00    0.123E+00
RMM:   3    -0.645800780465E+03    0.95529E-02   -0.20770E-02 12671   0.498E-01    0.692E-01
RMM:   4    -0.645798712176E+03    0.20683E-02   -0.57451E-03 13830   0.216E-01    0.377E-01
RMM:   5    -0.645798614303E+03    0.97873E-04   -0.18461E-03 12625   0.136E-01    0.374E-01
RMM:   6    -0.645797805574E+03    0.80873E-03   -0.99245E-04 13200   0.858E-02    0.136E-01
RMM:   7    -0.645797962714E+03   -0.15714E-03   -0.59616E-04 12325   0.730E-02    0.226E-01
RMM:   8    -0.645797768401E+03    0.19431E-03   -0.43026E-04 11950   0.672E-02    0.128E-01
RMM:   9    -0.645797728259E+03    0.40143E-04   -0.26941E-04 12352   0.450E-02    0.105E-01
RMM:  10    -0.645797703448E+03    0.24810E-04   -0.11891E-04 10746   0.370E-02    0.825E-02
RMM:  11    -0.645797671856E+03    0.31592E-04   -0.74866E-05 10044   0.226E-02    0.246E-02
RMM:  12    -0.645797680483E+03   -0.86264E-05   -0.48051E-05  8604   0.175E-02
  61 F= -.64579768E+03 E0= -.64572619E+03  d E =-.141968E-02
 trial-energy change:   -0.001420  1 .order   -0.001306   -0.002158   -0.000455
 step:   1.0358(harm=  1.1109)  dis= 0.00279  next Energy=  -645.797722 (dE=-0.146E-02)
 bond charge predicted
       N       E                     dE             d eps       ncg     rms          rms(c)
DAV:   1    -0.645797266634E+03    0.40522E-03   -0.22933E-02 13104   0.946E-01    0.862E-02
RMM:   2    -0.645798256012E+03   -0.98938E-03   -0.63232E-03 14519   0.224E-01    0.261E-01
RMM:   3    -0.645797829227E+03    0.42678E-03   -0.73997E-04 11286   0.961E-02    0.130E-01
RMM:   4    -0.645797756087E+03    0.73140E-04   -0.21567E-04 11732   0.481E-02    0.726E-02
RMM:   5    -0.645797750512E+03    0.55747E-05   -0.68617E-05  8896   0.293E-02
  62 F= -.64579775E+03 E0= -.64572635E+03  d E =-.148971E-02
 curvature:  -0.82 expect dE=-0.753E-03 dE for cont linesearch -0.152E-04
 ZBRENT: increasing intervall
 opt :   1.3542  next Energy=  -645.797760 (dE=-0.150E-02)
 bond charge predicted
       N       E                     dE             d eps       ncg     rms          rms(c)
DAV:   1    -0.645795862930E+03    0.18932E-02   -0.91314E-02 12864   0.189E+00    0.175E-01
RMM:   2    -0.645799753935E+03   -0.38910E-02   -0.25204E-02 14402   0.448E-01    0.525E-01
RMM:   3    -0.645798029262E+03    0.17247E-02   -0.30473E-03 12179   0.197E-01    0.243E-01
RMM:   4    -0.645797737432E+03    0.29183E-03   -0.86600E-04 13241   0.855E-02    0.121E-01
RMM:   5    -0.645797753276E+03   -0.15844E-04   -0.26741E-04 11095   0.560E-02    0.149E-01
RMM:   6    -0.645797634537E+03    0.11874E-03   -0.14319E-04 11215   0.374E-02    0.583E-02
RMM:   7    -0.645797665251E+03   -0.30715E-04   -0.97846E-05  9995   0.334E-02    0.981E-02
RMM:   8    -0.645797624684E+03    0.40568E-04   -0.71639E-05  9508   0.288E-02    0.383E-02
RMM:   9    -0.645797629878E+03   -0.51943E-05   -0.41428E-05  8080   0.218E-02
  63 F= -.64579763E+03 E0= -.64572630E+03  d E =-.136908E-02
 curvature:  -0.50 expect dE=-0.143E-02 dE for cont linesearch -0.593E-04
 ZBRENT: bracketing found
 ZBRENT: interpolating
 opt :   1.1262  next Energy=  -645.797763 (dE=-0.150E-02)
 bond charge predicted
       N       E                     dE             d eps       ncg     rms          rms(c)
DAV:   1    -0.645796792044E+03    0.83264E-03   -0.46852E-02 12408   0.135E+00    0.121E-01
RMM:   2    -0.645798772168E+03   -0.19801E-02   -0.13568E-02 14336   0.322E-01    0.357E-01
RMM:   3    -0.645797961813E+03    0.81035E-03   -0.14749E-03 12033   0.130E-01    0.189E-01
RMM:   4    -0.645797809454E+03    0.15236E-03   -0.40058E-04 11736   0.653E-02    0.107E-01
RMM:   5    -0.645797798515E+03    0.10939E-04   -0.13875E-04  9871   0.406E-02    0.102E-01
RMM:   6    -0.645797740110E+03    0.58405E-04   -0.66520E-05  9089   0.264E-02    0.423E-02
RMM:   7    -0.645797739753E+03    0.35653E-06   -0.38320E-05  7040   0.217E-02
  64 F= -.64579774E+03 E0= -.64572634E+03  d E =-.147895E-02
 curvature:  -0.10 expect dE=-0.262E-03 dE for cont linesearch -0.197E-05
 trial: gam= 1.28134 g(F)=  0.988E-03 g(S)=  0.151E-02 ort =-0.276E-03 (trialstep = 0.445E+00)
 search vector abs. value=  0.845E-02
 bond charge predicted
       N       E                     dE             d eps       ncg     rms          rms(c)
DAV:   1    -0.645788266102E+03    0.94740E-02   -0.37483E-01 10080   0.394E+00    0.209E-01
RMM:   2    -0.645798969208E+03   -0.10703E-01   -0.10666E-01 15083   0.823E-01    0.318E-01
RMM:   3    -0.645798747668E+03    0.22154E-03   -0.74457E-03 13850   0.260E-01    0.286E-01
RMM:   4    -0.645798665675E+03    0.81993E-04   -0.14595E-03 13344   0.124E-01    0.236E-01
RMM:   5    -0.645798413750E+03    0.25192E-03   -0.49417E-04 12873   0.654E-02    0.125E-01
RMM:   6    -0.645798342145E+03    0.71605E-04   -0.21138E-04 12103   0.406E-02    0.794E-02
RMM:   7    -0.645798348825E+03   -0.66798E-05   -0.14309E-04 11773   0.331E-02    0.829E-02
RMM:   8    -0.645798325354E+03    0.23471E-04   -0.11789E-04 11699   0.304E-02    0.688E-02
RMM:   9    -0.645798308404E+03    0.16950E-04   -0.65617E-05 10348   0.247E-02    0.461E-02
RMM:  10    -0.645798302512E+03    0.58921E-05   -0.36493E-05  8569   0.189E-02
  65 F= -.64579830E+03 E0= -.64572704E+03  d E =-.562759E-03
 trial-energy change:   -0.000563  1 .order   -0.000633   -0.000953   -0.000313
 step:   0.6619(harm=  0.6619)  dis= 0.00260  next Energy=  -645.798449 (dE=-0.710E-03)
 bond charge predicted
       N       E                     dE             d eps       ncg     rms          rms(c)
DAV:   1    -0.645795975929E+03    0.23325E-02   -0.89328E-02 10320   0.193E+00    0.104E-01
RMM:   2    -0.645798762004E+03   -0.27861E-02   -0.25733E-02 15037   0.405E-01    0.262E-01
RMM:   3    -0.645798528214E+03    0.23379E-03   -0.19212E-03 12827   0.142E-01    0.169E-01
RMM:   4    -0.645798442748E+03    0.85466E-04   -0.46663E-04 13057   0.665E-02    0.930E-02
RMM:   5    -0.645798421187E+03    0.21561E-04   -0.15092E-04 11445   0.387E-02    0.832E-02
RMM:   6    -0.645798388283E+03    0.32904E-04   -0.70329E-05 10640   0.241E-02    0.344E-02
RMM:   7    -0.645798393351E+03   -0.50681E-05   -0.53809E-05 10088   0.184E-02
  66 F= -.64579839E+03 E0= -.64572720E+03  d E =-.653598E-03
 curvature:  -1.30 expect dE=-0.141E-02 dE for cont linesearch -0.524E-06
 trial: gam=-0.04969 g(F)=  0.742E-03 g(S)=  0.342E-03 ort = 0.582E-04 (trialstep = 0.488E+00)
 search vector abs. value=  0.110E-02
 bond charge predicted
       N       E                     dE             d eps       ncg     rms          rms(c)
DAV:   1    -0.645798220856E+03    0.16743E-03   -0.50982E-02 13128   0.133E+00    0.183E-01
RMM:   2    -0.645800681625E+03   -0.24608E-02   -0.13716E-02 14151   0.379E-01    0.479E-01
RMM:   3    -0.645799214965E+03    0.14667E-02   -0.20738E-03 12055   0.173E-01    0.298E-01
RMM:   4    -0.645798816747E+03    0.39822E-03   -0.69180E-04 12643   0.863E-02    0.149E-01
RMM:   5    -0.645798839839E+03   -0.23092E-04   -0.32131E-04 11406   0.595E-02    0.171E-01
RMM:   6    -0.645798670020E+03    0.16982E-03   -0.19934E-04 11503   0.429E-02    0.635E-02
RMM:   7    -0.645798667837E+03    0.21836E-05   -0.11915E-04 10925   0.332E-02    0.658E-02
RMM:   8    -0.645798659609E+03    0.82282E-05   -0.62575E-05  8672   0.282E-02
  67 F= -.64579866E+03 E0= -.64572741E+03  d E =-.266258E-03
 trial-energy change:   -0.000266  1 .order   -0.000276   -0.000527   -0.000025
 step:   0.5124(harm=  0.5124)  dis= 0.00092  next Energy=  -645.798670 (dE=-0.277E-03)
 bond charge predicted
       N       E                     dE             d eps       ncg     rms          rms(c)
DAV:   1    -0.645798643554E+03    0.24283E-04   -0.20877E-04 15288   0.933E-02    0.285E-02
RMM:   2    -0.645798846521E+03   -0.20297E-03   -0.18186E-04  9216   0.430E-02    0.193E-01
RMM:   3    -0.645798647140E+03    0.19938E-03   -0.65090E-05  7148   0.366E-02    0.292E-02
RMM:   4    -0.645798640620E+03    0.65201E-05   -0.10871E-05  5718   0.131E-02
  68 F= -.64579864E+03 E0= -.64572736E+03  d E =-.247269E-03
 curvature:  -0.26 expect dE=-0.109E-03 dE for cont linesearch -0.219E-05
 ZBRENT: increasing intervall
 opt :   0.5609  next Energy=  -645.798647 (dE=-0.254E-03)
 bond charge predicted
       N       E                     dE             d eps       ncg     rms          rms(c)
DAV:   1    -0.645798640596E+03    0.65443E-05   -0.52436E-04 13320   0.134E-01    0.228E-02
RMM:   2    -0.645798685733E+03   -0.45137E-04   -0.15306E-04  9773   0.415E-02    0.802E-02
RMM:   3    -0.645798651037E+03    0.34696E-04   -0.29765E-05  6308   0.272E-02    0.380E-02
RMM:   4    -0.645798643241E+03    0.77959E-05   -0.97031E-06  5158   0.153E-02
  69 F= -.64579864E+03 E0= -.64572735E+03  d E =-.249890E-03
 curvature:  -0.81 expect dE=-0.316E-03 dE for cont linesearch -0.768E-06
 trial: gam= 0.31969 g(F)=  0.196E-03 g(S)=  0.193E-03 ort = 0.322E-04 (trialstep = 0.503E+00)
 search vector abs. value=  0.522E-03
 bond charge predicted
       N       E                     dE             d eps       ncg     rms          rms(c)
DAV:   1    -0.645798697488E+03   -0.46450E-04   -0.25095E-02 13008   0.830E-01    0.136E-01
RMM:   2    -0.645800334037E+03   -0.16365E-02   -0.60971E-03 13382   0.273E-01    0.448E-01
RMM:   3    -0.645799085430E+03    0.12486E-02   -0.12171E-03 11817   0.134E-01    0.199E-01
RMM:   4    -0.645798902141E+03    0.18329E-03   -0.36849E-04 12218   0.646E-02    0.117E-01
RMM:   5    -0.645798874752E+03    0.27389E-04   -0.14057E-04 10431   0.411E-02    0.925E-02
RMM:   6    -0.645798818001E+03    0.56751E-04   -0.80411E-05 10491   0.253E-02    0.356E-02
RMM:   7    -0.645798828097E+03   -0.10096E-04   -0.39636E-05  7129   0.232E-02    0.594E-02
RMM:   8    -0.645798814264E+03    0.13833E-04   -0.27611E-05  6356   0.232E-02    0.309E-02
RMM:   9    -0.645798811440E+03    0.28233E-05   -0.15242E-05  5939   0.157E-02
  70 F= -.64579881E+03 E0= -.64572754E+03  d E =-.168199E-03
 trial-energy change:   -0.000168  1 .order   -0.000166   -0.000201   -0.000132
 step:   1.4600(harm=  1.4600)  dis= 0.00139  next Energy=  -645.798935 (dE=-0.292E-03)
 bond charge predicted
       N       E                     dE             d eps       ncg     rms          rms(c)
DAV:   1    -0.645798355967E+03    0.45830E-03   -0.89546E-02 12648   0.157E+00    0.257E-01
RMM:   2    -0.645803272036E+03   -0.49161E-02   -0.22532E-02 13664   0.514E-01    0.722E-01
RMM:   3    -0.645799852629E+03    0.34194E-02   -0.42000E-03 12490   0.239E-01    0.398E-01
RMM:   4    -0.645799083975E+03    0.76865E-03   -0.12477E-03 12882   0.107E-01    0.202E-01
RMM:   5    -0.645799063893E+03    0.20082E-04   -0.49713E-04 11510   0.755E-02    0.196E-01
RMM:   6    -0.645798822340E+03    0.24155E-03   -0.27875E-04 12256   0.464E-02    0.626E-02
RMM:   7    -0.645798871538E+03   -0.49198E-04   -0.16995E-04 11532   0.409E-02    0.119E-01
RMM:   8    -0.645798820273E+03    0.51266E-04   -0.95617E-05 10065   0.347E-02    0.696E-02
RMM:   9    -0.645798806635E+03    0.13637E-04   -0.59123E-05  9676   0.231E-02    0.436E-02
RMM:  10    -0.645798803018E+03    0.36170E-05   -0.24149E-05  6690   0.184E-02
  71 F= -.64579880E+03 E0= -.64572756E+03  d E =-.159777E-03
 curvature:  -0.95 expect dE=-0.755E-03 dE for cont linesearch -0.105E-03
 ZBRENT: interpolating
 opt :   1.0030  next Energy=  -645.798858 (dE=-0.214E-03)
 bond charge predicted
       N       E                     dE             d eps       ncg     rms          rms(c)
DAV:   1    -0.645798793795E+03    0.12840E-04   -0.20725E-02 12648   0.751E-01    0.123E-01
RMM:   2    -0.645799897189E+03   -0.11034E-02   -0.50657E-03 13545   0.245E-01    0.349E-01
RMM:   3    -0.645799115537E+03    0.78165E-03   -0.89292E-04 11544   0.113E-01    0.194E-01
RMM:   4    -0.645798940015E+03    0.17552E-03   -0.29119E-04 11420   0.603E-02    0.100E-01
RMM:   5    -0.645798934962E+03    0.50532E-05   -0.12062E-04  9759   0.396E-02    0.967E-02
RMM:   6    -0.645798871330E+03    0.63632E-04   -0.61359E-05  9033   0.243E-02    0.297E-02
RMM:   7    -0.645798882988E+03   -0.11658E-04   -0.31330E-05  6355   0.215E-02    0.624E-02
RMM:   8    -0.645798867826E+03    0.15162E-04   -0.23542E-05  6173   0.231E-02    0.328E-02
RMM:   9    -0.645798864432E+03    0.33940E-05   -0.11211E-05  5618   0.146E-02
  72 F= -.64579886E+03 E0= -.64572761E+03  d E =-.221190E-03
 curvature:  -0.50 expect dE=-0.167E-03 dE for cont linesearch -0.570E-06
 trial: gam= 0.90897 g(F)=  0.176E-03 g(S)=  0.160E-03 ort =-0.244E-04 (trialstep = 0.436E+00)
 search vector abs. value=  0.722E-03
 bond charge predicted
       N       E                     dE             d eps       ncg     rms          rms(c)
DAV:   1    -0.645798373697E+03    0.49413E-03   -0.25976E-02  9936   0.953E-01    0.490E-02
RMM:   2    -0.645799054524E+03   -0.68083E-03   -0.61809E-03 14942   0.222E-01    0.145E-01
RMM:   3    -0.645798977078E+03    0.77446E-04   -0.53434E-04 12852   0.678E-02    0.503E-02
RMM:   4    -0.645798992157E+03   -0.15079E-04   -0.10601E-04 11529   0.366E-02    0.658E-02
RMM:   5    -0.645798970380E+03    0.21777E-04   -0.31604E-05  6678   0.232E-02    0.337E-02
RMM:   6    -0.645798966022E+03    0.43581E-05   -0.18205E-05  6193   0.190E-02
  73 F= -.64579897E+03 E0= -.64572768E+03  d E =-.101590E-03
 trial-energy change:   -0.000102  1 .order   -0.000100   -0.000136   -0.000064
 step:   0.8248(harm=  0.8248)  dis= 0.00114  next Energy=  -645.798994 (dE=-0.129E-03)
 bond charge predicted
       N       E                     dE             d eps       ncg     rms          rms(c)
DAV:   1    -0.645798521186E+03    0.44919E-03   -0.20565E-02  9960   0.849E-01    0.430E-02
RMM:   2    -0.645799059053E+03   -0.53787E-03   -0.50216E-03 14933   0.200E-01    0.120E-01
RMM:   3    -0.645799020227E+03    0.38826E-04   -0.46358E-04 13019   0.623E-02    0.582E-02
RMM:   4    -0.645799020151E+03    0.76318E-07   -0.96439E-05 11681   0.346E-02
  74 F= -.64579902E+03 E0= -.64572771E+03  d E =-.155719E-03
 curvature:  -0.95 expect dE=-0.153E-03 dE for cont linesearch -0.497E-06
 trial: gam= 0.24324 g(F)=  0.127E-03 g(S)=  0.341E-04 ort =-0.194E-04 (trialstep = 0.513E+00)
 search vector abs. value=  0.195E-03
 bond charge predicted
       N       E                     dE             d eps       ncg     rms          rms(c)
DAV:   1    -0.645798857592E+03    0.16264E-03   -0.90176E-03 10320   0.569E-01    0.570E-02
RMM:   2    -0.645799298135E+03   -0.44054E-03   -0.26994E-03 14954   0.144E-01    0.206E-01
RMM:   3    -0.645799072720E+03    0.22541E-03   -0.32943E-04 10543   0.607E-02    0.599E-02
RMM:   4    -0.645799069960E+03    0.27608E-05   -0.96843E-05 10428   0.350E-02
  75 F= -.64579907E+03 E0= -.64572776E+03  d E =-.498091E-04
 trial-energy change:   -0.000050  1 .order   -0.000066   -0.000080   -0.000051
 step:   1.3990(harm=  1.3990)  dis= 0.00068  next Energy=  -645.799130 (dE=-0.110E-03)
 bond charge predicted
       N       E                     dE             d eps       ncg     rms          rms(c)
DAV:   1    -0.645798478405E+03    0.59432E-03   -0.26958E-02 10536   0.977E-01    0.106E-01
RMM:   2    -0.645800164015E+03   -0.16856E-02   -0.81361E-03 15081   0.254E-01    0.456E-01
RMM:   3    -0.645799132939E+03    0.10311E-02   -0.11294E-03 11939   0.112E-01    0.129E-01
RMM:   4    -0.645799069677E+03    0.63262E-04   -0.33796E-04 12512   0.527E-02    0.900E-02
RMM:   5    -0.645799092663E+03   -0.22986E-04   -0.15668E-04 10946   0.414E-02    0.118E-01
RMM:   6    -0.645799008848E+03    0.83815E-04   -0.87231E-05 10535   0.302E-02    0.409E-02
RMM:   7    -0.645799014320E+03   -0.54720E-05   -0.62203E-05  9532   0.234E-02
  76 F= -.64579901E+03 E0= -.64572771E+03  d E =0.583092E-05
 curvature:  -0.87 expect dE=-0.628E-03 dE for cont linesearch -0.561E-04
 ZBRENT: interpolating
 opt :   0.9290  next Energy=  -645.799091 (dE=-0.704E-04)
 bond charge predicted
       N       E                     dE             d eps       ncg     rms          rms(c)
DAV:   1    -0.645798882393E+03    0.12645E-03   -0.77545E-03 10272   0.524E-01    0.534E-02
RMM:   2    -0.645799373669E+03   -0.49128E-03   -0.23428E-03 14488   0.137E-01    0.229E-01
RMM:   3    -0.645799068813E+03    0.30486E-03   -0.30239E-04  9714   0.594E-02    0.568E-02
RMM:   4    -0.645799059277E+03    0.95364E-05   -0.67344E-05  7994   0.309E-02
  77 F= -.64579906E+03 E0= -.64572773E+03  d E =-.391260E-04
 curvature:  -0.32 expect dE=-0.187E-03 dE for cont linesearch -0.861E-05
 ZBRENT: interpolating
 opt :   0.7535  next Energy=  -645.799066 (dE=-0.455E-04)
 bond charge predicted
       N       E                     dE             d eps       ncg     rms          rms(c)
DAV:   1    -0.645799051252E+03    0.17561E-04   -0.11861E-03 14544   0.203E-01    0.529E-02
RMM:   2    -0.645799690044E+03   -0.63879E-03   -0.68774E-04 10867   0.884E-02    0.335E-01
RMM:   3    -0.645799077665E+03    0.61238E-03   -0.22461E-04  8292   0.625E-02    0.628E-02
RMM:   4    -0.645799053329E+03    0.24336E-04   -0.32198E-05  6327   0.246E-02    0.370E-02
RMM:   5    -0.645799048880E+03    0.44488E-05   -0.14510E-05  5848   0.184E-02
  78 F= -.64579905E+03 E0= -.64572772E+03  d E =-.287294E-04
 curvature:  -0.24 expect dE=-0.970E-04 dE for cont linesearch -0.178E-05
 ZBRENT: interpolating
 opt :   0.6110  next Energy=  -645.799052 (dE=-0.322E-04)
 bond charge predicted
       N       E                     dE             d eps       ncg     rms          rms(c)
DAV:   1    -0.645799038771E+03    0.14557E-04   -0.71717E-04 13728   0.162E-01    0.319E-02
RMM:   2    -0.645799290128E+03   -0.25136E-03   -0.34003E-04 11046   0.581E-02    0.206E-01
RMM:   3    -0.645799057096E+03    0.23303E-03   -0.90840E-05  7513   0.414E-02    0.397E-02
RMM:   4    -0.645799047578E+03    0.95182E-05   -0.17095E-05  5940   0.177E-02
  79 F= -.64579905E+03 E0= -.64572774E+03  d E =-.274273E-04
 curvature:  -0.46 expect dE=-0.132E-03 dE for cont linesearch -0.819E-06
 trial: gam= 1.68214 g(F)=  0.123E-03 g(S)=  0.161E-03 ort = 0.186E-04 (trialstep = 0.116E+00)
 search vector abs. value=  0.898E-03
 bond charge predicted
       N       E                     dE             d eps       ncg     rms          rms(c)
DAV:   1    -0.645798985413E+03    0.71684E-04   -0.25590E-03 11568   0.345E-01    0.229E-02
RMM:   2    -0.645799137756E+03   -0.15234E-03   -0.86659E-04 13323   0.755E-02    0.116E-01
RMM:   3    -0.645799065881E+03    0.71875E-04   -0.10756E-04  6848   0.356E-02    0.218E-02
RMM:   4    -0.645799067617E+03   -0.17360E-05   -0.16810E-05  5862   0.171E-02
  80 F= -.64579907E+03 E0= -.64572775E+03  d E =-.200392E-04
 trial-energy change:   -0.000020  1 .order   -0.000022   -0.000037   -0.000007
 step:   0.1452(harm=  0.1452)  dis= 0.00018  next Energy=  -645.799071 (dE=-0.230E-04)
 bond charge predicted
       N       E                     dE             d eps       ncg     rms          rms(c)
DAV:   1    -0.645799066436E+03   -0.55490E-06   -0.23230E-04 15216   0.964E-02    0.154E-02
RMM:   2    -0.645799125363E+03   -0.58927E-04   -0.77134E-05  7470   0.274E-02    0.986E-02
RMM:   3    -0.645799072584E+03    0.52779E-04   -0.22164E-05  6185   0.257E-02    0.251E-02
RMM:   4    -0.645799068870E+03    0.37142E-05   -0.55655E-06  4778   0.101E-02
  81 F= -.64579907E+03 E0= -.64572777E+03  d E =-.212922E-04
 curvature:  -0.21 expect dE=-0.273E-04 dE for cont linesearch -0.174E-05
 trial: gam=-0.07897 g(F)=  0.360E-04 g(S)=  0.963E-04 ort = 0.870E-04 (trialstep = 0.121E+00)
 search vector abs. value=  0.124E-03
 reached required accuracy - stopping structural energy minimisation
