HECN                                    
           1
     8.932500    0.000000    0.000000
     0.005753    9.055598    0.000000
     0.032102   -0.015743    8.937128
   V    Ta   Ti   N    C    Cr   W 
   7   6   7  13  19   6   6
Direct configuration=     1
   0.99688001  0.99204997  0.99924002
   0.25398003  0.99714995  0.24912000
   0.24803003  0.50165000  0.24955001
   0.50501006  0.49745998  0.99834003
   0.50479003  0.24631001  0.74710002
   0.99427992  0.50449999  0.49779000
   0.49950005  0.75481999  0.74817004
   0.99437004  0.23617001  0.26379999
   0.75718000  0.74102998  0.01100000
   0.00201000  0.25541000  0.73894001
   0.75307001  0.26163001  0.50533002
   0.99514004  0.74492004  0.74511997
   0.25679999  0.49462002  0.74545002
   0.24788999  0.24839000  0.99657997
   0.50833000  0.25676999  0.25376001
   0.74879004  0.98787999  0.26967001
   0.75719000  0.25603001  0.99591997
   0.24762001  0.74973999  0.99974006
   0.25272001  0.24823001  0.50015003
   0.24457999  0.75048999  0.49983999
   0.24982001  0.24942998  0.24825000
   0.26146999  0.99984002  0.99295996
   0.00281000  0.25024000  0.00130000
   0.75313998  0.24617000  0.25492002
   0.74767001  0.99748000  0.01202000
   0.50714994  0.99977000  0.24673000
   0.99051999  0.48088002  0.24100998
   0.50519005  0.76130999  0.00855000
   0.98896989  0.00202000  0.73708999
   0.75744996  0.24437997  0.74896999
   0.73632001  0.00417000  0.51063000
   0.50563996  0.23264999  0.49544997
   0.50008998  0.00061000  0.73471998
   0.99720000  0.99771992  0.25899999
   0.50427997  0.24673000  0.00262000
   0.25133999  0.74958002  0.24910999
   0.24328000  0.50072997  0.99510994
   0.99837005  0.74313996  0.00460000
   0.75633000  0.73891003  0.25767000
   0.75839004  0.50315998  0.00288000
   0.50700002  0.50333002  0.25878999
   0.24900999  0.25315000  0.74854000
   0.24446000  0.99823996  0.50287998
   0.99804009  0.24229999  0.50128003
   0.24177002  0.75340997  0.75018002
   0.25841001  0.50062002  0.50129001
   0.99000004  0.76215003  0.49746000
   0.99203996  0.50055999  0.75138002
   0.75036005  0.74888000  0.74756004
   0.74036002  0.50197000  0.50067003
   0.50575006  0.74958002  0.49720000
   0.50501003  0.50217998  0.73912003
   0.51588997  0.01358000  0.98075008
   0.99841994  0.50976998  0.98613004
   0.50379003  0.73926997  0.25905001
   0.23780002  0.01082000  0.74607998
   0.47957999  0.98308000  0.49717999
   0.74279003  0.97869994  0.76450995
   0.99864998  0.77573999  0.26102000
   0.73551001  0.51468004  0.26666001
   0.02362000  0.99783001  0.49557002
   0.50539000  0.52833005  0.49917999
   0.73876003  0.52828003  0.73814999
   0.75400003  0.72937999  0.49116997
HECN                                    
           1
     8.068409    0.016665   -0.005024
     0.022091    8.180373    0.002602
     0.023940   -0.011591    8.100719
   V    Ta   Ti   N    C    Cr   W 
   7   6   7  13  19   6   6
Direct configuration=     2
   0.99725064  0.99029698  0.00010153
   0.25447183  0.99379811  0.24831888
   0.25230351  0.50443545  0.24856740
   0.50343762  0.49248290  0.99835471
   0.50058534  0.24328086  0.75182629
   0.99544205  0.50274945  0.50095253
   0.49806136  0.75849323  0.74825761
   0.99930135  0.23796487  0.25796173
   0.75130664  0.74660134  0.01026367
   0.00364525  0.25309167  0.74334334
   0.74699817  0.25612253  0.50712701
   0.00252720  0.74834342  0.74753770
   0.25747240  0.49671647  0.74897609
   0.24991132  0.24729082  0.99737446
   0.50550867  0.25356169  0.25110223
   0.74201773  0.98899226  0.26774221
   0.75381529  0.25536598  0.99356701
   0.24972710  0.75099073  0.00033808
   0.25530731  0.24804839  0.49960637
   0.24697770  0.75013975  0.49896590
   0.24982161  0.24994487  0.24891265
   0.25885477  0.00060241  0.99443519
   0.00224305  0.24757608  0.00107539
   0.75157436  0.24621428  0.25440553
   0.74870920  0.99723103  0.00770151
   0.50461947  0.99998749  0.24954627
   0.99337685  0.48107207  0.24461794
   0.50458361  0.75859526  0.00551188
   0.98891759  0.00252086  0.74153307
   0.75395027  0.24505503  0.75067483
   0.73788607  0.00398308  0.50650418
   0.50407411  0.23367561  0.49659620
   0.50311187  0.00020148  0.73817617
   0.99864279  0.00022500  0.25095937
   0.50490724  0.24790533 -0.00052918
   0.25111584  0.74904941  0.24935574
   0.24630488  0.50065013  0.99951020
   0.00221661  0.74552636  0.00445782
   0.75356495  0.74649881  0.25222123
   0.75486279  0.49962716  0.00249349
   0.49848989  0.50264621  0.25152259
   0.25256815  0.24980130  0.74846865
   0.25309151  0.99721340  0.50201291
   0.00061353  0.24731328  0.50066487
   0.24607596  0.75327805  0.75032972
   0.25436133  0.50084751  0.49591819
   0.99664447  0.75613797  0.50018398
   0.99376910  0.50071790  0.74961000
   0.74397196  0.75751355  0.74999273
   0.75053322  0.49626945  0.50290782
   0.50067814  0.75653995  0.49874009
   0.50199371  0.50098635  0.74655661
   0.51731676  0.01799662  0.97684891
   0.00086708  0.51286371  0.98357501
   0.50227130  0.73864248  0.25733752
   0.23840549  0.01179529  0.74924180
   0.47600793  0.98202024  0.49775247
   0.73765581  0.97449078  0.76827278
   0.00490937  0.77503767  0.25584127
   0.73779953  0.50892727  0.25884373
   0.02468151  0.00028179  0.49947604
   0.49556249  0.52608220  0.49881714
   0.73883458  0.51964513  0.74501476
   0.75349114  0.73804304  0.49362630
HECN                                    
           1
     8.559967    0.007185   -0.002166
     0.012797    8.678265    0.001122
     0.028583   -0.013953    8.576529
   V    Ta   Ti   N    C    Cr   W 
   7   6   7  13  19   6   6
Direct configuration=     3
   0.99701456  0.99140156 -0.00043967
   0.25415800  0.99590937  0.24882079
   0.24961614  0.50268662  0.24918299
   0.50442138  0.49561515  0.99834510
   0.50322756  0.24518402  0.74886106
   0.99470657  0.50385398  0.49896688
   0.49897225  0.75617822  0.74820396
   0.99620033  0.23683970  0.26162432
   0.75501331  0.74308515  0.01072923
   0.00261055  0.25455462  0.74057866
   0.75081423  0.25958339  0.50600046
  -0.00212168  0.74619755  0.74601811
   0.25705026  0.49539785  0.74676326
   0.24863652  0.24798577  0.99687482
   0.50728238  0.25557792  0.25277073
   0.74628516  0.98828274  0.26895499
   0.75594075  0.25577933  0.99504494
   0.24840147  0.75020592 -0.00003781
   0.25367781  0.24816597  0.49994653
   0.24546752  0.75036320  0.49951348
   0.24982102  0.24962076  0.24849686
   0.26050224  0.00011925  0.99351050
   0.00259669  0.24925288  0.00121604
   0.75256065  0.24618428  0.25472905
   0.74805613  0.99738825  0.01041138
   0.50621231  0.99984786  0.24777979
   0.99157641  0.48095554  0.24235247
   0.50496319  0.76030343  0.00741832
   0.98894940  0.00220630  0.73874467
   0.75615458  0.24462578  0.74960636
   0.73690118  0.00410195  0.50909294
   0.50506117  0.23302796  0.49587763
   0.50120676  0.00046333  0.73600577
   0.99774065 -0.00135236  0.25600569
   0.50451500  0.24716533  0.00144727
   0.25125621  0.74938332  0.24920149
   0.24439794  0.50070520  0.99674735
  -0.00020275  0.74402845  0.00454604
   0.75531857  0.74171518  0.25564355
   0.75707975  0.50184731  0.00273673
   0.50385158  0.50306442  0.25608687
   0.25032284  0.25191466  0.74851136
   0.24765439  0.99787076  0.50255351
  -0.00100037  0.24415939  0.50105096
   0.24336385  0.75336668  0.75023405
   0.25691364  0.50069795  0.49929123
   0.99245079  0.75993308  0.49847056
   0.99268101  0.50062031  0.75072024
   0.74800558  0.75206897  0.74847020
   0.74411773  0.49987282  0.50149822
   0.50388098  0.75215082  0.49777691
   0.50388882  0.50173570  0.74189028
   0.51642556  0.01521633  0.97929766
  -0.00066902  0.51091808  0.98517824
   0.50322765  0.73903533  0.25841276
   0.23802418  0.01118254  0.74725737
   0.47825598  0.98268315  0.49739436
   0.74088228  0.97713564  0.76591234
   0.00096837  0.77548691  0.25908890
   0.73635315  0.51255134  0.26374724
   0.02401464 -0.00126003  0.49702467
   0.50174903  0.52748508  0.49904826
   0.73877349  0.52508438  0.74070458
   0.75382207  0.73258743  0.49208664
HECN                                    
           1
     8.542827    0.007515   -0.002266
     0.013121    8.660904    0.001173
     0.028421   -0.013871    8.559938
   V    Ta   Ti   N    C    Cr   W 
   7   6   7  13  19   6   6
Direct configuration=     4
   0.99702227  0.99136526 -0.00042185
   0.25416823  0.99583998  0.24880425
   0.24970455  0.50274421  0.24916269
   0.50438892  0.49551216  0.99834541
   0.50314060  0.24512138  0.74895874
   0.99473067  0.50381772  0.49903226
   0.49894241  0.75625427  0.74820575
   0.99630234  0.23687678  0.26150366
   0.75489164  0.74320057  0.01071396
   0.00264446  0.25450659  0.74066969
   0.75068865  0.25946949  0.50603758
  -0.00196882  0.74626828  0.74606812
   0.25706416  0.49544122  0.74683614
   0.24867838  0.24796298  0.99689125
   0.50722402  0.25551157  0.25271578
   0.74614495  0.98830588  0.26891511
   0.75587089  0.25576565  0.99499629
   0.24844506  0.75023177 -0.00002545
   0.25373136  0.24816217  0.49993531
   0.24551715  0.75035591  0.49949542
   0.24982105  0.24963142  0.24851056
   0.26044811  0.00013507  0.99354098
   0.00258500  0.24919776  0.00121140
   0.75252824  0.24618522  0.25471841
   0.74807762  0.99738309  0.01032212
   0.50615994  0.99985240  0.24783798
   0.99163556  0.48095946  0.24242707
   0.50495067  0.76024726  0.00735552
   0.98894833  0.00221666  0.73883651
   0.75608213  0.24463981  0.74964158
   0.73693358  0.00409806  0.50900766
   0.50502875  0.23304921  0.49590132
   0.50126934  0.00045481  0.73607722
   0.99777043 -0.00130051  0.25583949
   0.50452795  0.24718966  0.00138218
   0.25125158  0.74937234  0.24920657
   0.24446058  0.50070348  0.99683832
  -0.00012317  0.74407778  0.00454311
   0.75526117  0.74187232  0.25553089
   0.75700679  0.50177425  0.00272873
   0.50367540  0.50305043  0.25593661
   0.25039655  0.25184529  0.74850991
   0.24783307  0.99784936  0.50253563
  -0.00094719  0.24426311  0.50103825
   0.24345298  0.75336387  0.75023717
   0.25682980  0.50070274  0.49918017
   0.99258845  0.75980852  0.49852692
   0.99271679  0.50062356  0.75068366
   0.74787321  0.75224778  0.74852043
   0.74432843  0.49975465  0.50154455
   0.50377588  0.75229496  0.49780870
   0.50382645  0.50171102  0.74204398
   0.51645499  0.01530773  0.97921702
  -0.00061843  0.51098208  0.98512544
   0.50319622  0.73902237  0.25837736
   0.23803671  0.01120271  0.74732273
   0.47818207  0.98266128  0.49740618
   0.74077609  0.97704860  0.76599010
   0.00109792  0.77547228  0.25898189
   0.73640060  0.51243224  0.26358570
   0.02403659 -0.00120931  0.49710540
   0.50154564  0.52743872  0.49904071
   0.73877523  0.52490563  0.74084650
   0.75381140  0.73276674  0.49213739
HECN                                    
           1
     8.509152    0.019151   -0.003669
     0.024942    8.573851    0.002955
     0.026877   -0.011927    8.536821
   V    Ta   Ti   N    C    Cr   W 
   7   6   7  13  19   6   6
Direct configuration=     5
   0.99907976  0.99054991 -0.00041828
   0.25522068  0.99280772  0.24673964
   0.25497169  0.50546624  0.24737233
   0.50130837  0.49020827  0.99882331
   0.49782727  0.24180556  0.75478557
   0.99841847  0.50096250  0.50243671
   0.49616198  0.76095332  0.74949676
   0.00361454  0.24022094  0.25122893
   0.74658916  0.75166985  0.00723835
   0.00508095  0.25052446  0.74936798
   0.74432711  0.25133545  0.50724861
   0.00446825  0.75214355  0.75076750
   0.25535269  0.49866992  0.75149301
   0.25193983  0.24639780  0.99857152
   0.50210785  0.25136108  0.24858076
   0.73926595  0.99129032  0.26434792
   0.75168276  0.25349396  0.99346999
   0.25316539  0.75229316  0.00090333
   0.25745671  0.24836617  0.49852422
   0.24891812  0.74977628  0.49843040
   0.25214642  0.25034190  0.24878353
   0.25803630  0.00074971  0.99555373
   0.00212530  0.24690283  0.00128465
   0.74804829  0.24579354  0.25119796
   0.74989993  0.99916442  0.00595567
   0.50192855  0.99968031  0.24958085
   0.99617998  0.48563424  0.24538557
   0.50133885  0.75776679  0.00386278
   0.98804337  0.00255661  0.74671086
   0.74938254  0.24515036  0.75417840
   0.73907471  0.00215565  0.50706335
   0.50044573  0.23477162  0.49802069
   0.50356917  0.00044583  0.74018165
   0.99947661  0.00305981  0.24487421
   0.50433006  0.24942562 -0.00206100
   0.25405137  0.74853105  0.24901858
   0.24808565  0.50028426  0.00404813
   0.00627365  0.74700765  0.00476663
   0.75016605  0.75234124  0.25010593
   0.75328921  0.49533936  0.00247950
   0.48988653  0.50167001  0.24529876
   0.25737433  0.24616051  0.74889907
   0.26154911  0.99705043  0.50182642
   0.00369090  0.25196395  0.50033721
   0.25173318  0.75542745  0.75080153
   0.24934675  0.50042658  0.49161439
   0.00200178  0.75084357  0.50149508
   0.99555883  0.50061956  0.74841341
   0.74039084  0.76227493  0.75090989
   0.75497808  0.49482176  0.50324556
   0.49617958  0.76380336  0.49989910
   0.49952842  0.49943207  0.75220057
   0.51608437  0.01875418  0.97537482
   0.00280761  0.51264113  0.98367821
   0.50029403  0.74019324  0.25469359
   0.23972833  0.01075713  0.75234284
   0.47627190  0.98289924  0.49689385
   0.73468036  0.97617419  0.77057794
   0.00894424  0.76640660  0.25011996
   0.74214863  0.50184239  0.25119598
   0.01855976  0.00326080  0.50132099
   0.49163732  0.51756809  0.49785073
   0.74194674  0.51141428  0.75310198
   0.75182946  0.74619504  0.49750803
HECN                                    
           1
     8.510863    0.018559   -0.003597
     0.024342    8.578275    0.002864
     0.026955   -0.012025    8.537996
   V    Ta   Ti   N    C    Cr   W 
   7   6   7  13  19   6   6
Direct configuration=     6
   0.99897473  0.99059191 -0.00041849
   0.25516679  0.99296343  0.24684480
   0.25470317  0.50532685  0.24746355
   0.50146515  0.49048033  0.99879893
   0.49809807  0.24197547  0.75448867
   0.99823009  0.50110937  0.50226317
   0.49630417  0.76071192  0.74943105
   0.00324180  0.24004966  0.25175247
   0.74701340  0.75123446  0.00741561
   0.00495627  0.25072915  0.74892468
   0.74465108  0.25175258  0.50718687
   0.00414021  0.75184244  0.75052804
   0.25544021  0.49850411  0.75125576
   0.25177330  0.24647839  0.99848586
   0.50236862  0.25157375  0.24879146
   0.73961717  0.99113659  0.26458074
   0.75189629  0.25361027  0.99354777
   0.25292470  0.75218768  0.00085598
   0.25726667  0.24835594  0.49859609
   0.24874457  0.74980626  0.49848463
   0.25202782  0.25030559  0.24876961
   0.25815938  0.00071801  0.99545119
   0.00214859  0.24702061  0.00128089
   0.74827686  0.24581330  0.25137738
   0.74980712  0.99907305  0.00617818
   0.50214441  0.99968887  0.24949208
   0.99594843  0.48539461  0.24523483
   0.50152298  0.75789383  0.00404076
   0.98808949  0.00253919  0.74630962
   0.74972435  0.24512374  0.75394729
   0.73896535  0.00225549  0.50716239
   0.50067966  0.23468291  0.49791275
   0.50345179  0.00044650  0.73997248
   0.99938998  0.00283597  0.24543300
   0.50434035  0.24931078 -0.00188552
   0.25390846  0.74857443  0.24902813
   0.24790060  0.50030612  0.00368071
   0.00594749  0.74685769  0.00475522
   0.75042680  0.75180340  0.25038252
   0.75347842  0.49566943  0.00249216
   0.49059004  0.50173979  0.24584093
   0.25701790  0.24645283  0.74887912
   0.26084926  0.99709239  0.50186243
   0.00345482  0.25156894  0.50037298
   0.25131087  0.75532210  0.75077272
   0.24972858  0.50044015  0.49199998
   0.00152084  0.75130447  0.50134366
   0.99541385  0.50061993  0.74852907
   0.74077329  0.76175969  0.75078830
   0.75443436  0.49507575  0.50315874
   0.49656796  0.76321207  0.49979277
   0.49974746  0.49954888  0.75168303
   0.51610356  0.01857719  0.97557065
   0.00263295  0.51255618  0.98375195
   0.50044222  0.74013289  0.25488134
   0.23964195  0.01078018  0.75208701
   0.47636938  0.98288688  0.49691998
   0.73499126  0.97621871  0.77034420
   0.00854335  0.76687243  0.25057137
   0.74185471  0.50238628  0.25182715
   0.01883948  0.00303100  0.50110628
   0.49214215  0.51807410  0.49791134
   0.74178385  0.51210721  0.75247731
   0.75193150  0.74550562  0.49723452
HECN                                    
           1
     8.622256    0.006827   -0.006360
     0.012680    8.649786    0.006907
     0.024588   -0.008166    8.641456
   V    Ta   Ti   N    C    Cr   W 
   7   6   7  13  19   6   6
Direct configuration=     7
   0.00248244  0.98976316 -0.00057868
   0.25550370  0.99107126  0.24605733
   0.25864664  0.50794549  0.24545122
   0.49899882  0.48653437  0.99965495
   0.49435509  0.23993990  0.75820375
   0.00333555  0.49837285  0.50594676
   0.49480942  0.76279861  0.74893961
   0.00552299  0.24330393  0.24891437
   0.74457991  0.75159470  0.00443883
   0.00755856  0.24826990  0.75150432
   0.74506356  0.24804108  0.50781596
   0.00331637  0.75363515  0.75336051
   0.25264449  0.49827317  0.75285397
   0.25444432  0.24513021  0.99907595
   0.49853856  0.24964564  0.24564689
   0.73708115  0.99424484  0.25999349
   0.74944973  0.24985398  0.99448409
   0.25790339  0.75372355  0.00181895
   0.25727762  0.24857682  0.49840016
   0.24938838  0.74991947  0.49798626
   0.25365805  0.24968328  0.24865379
   0.25732400  0.00119887  0.99720223
   0.00204921  0.24665319  0.00124243
   0.74683542  0.24506529  0.24973035
   0.75042434  0.00184838  0.00302233
   0.49928858  0.99951130  0.24974116
   0.99761254  0.49218544  0.24678499
   0.49892919  0.75690228  0.00178576
   0.98769786  0.00273587  0.75061991
   0.74738721  0.24628303  0.75465060
   0.74310949  0.00079966  0.50696260
   0.49848661  0.23927594  0.49892187
   0.50387486  0.00161255  0.74304072
   0.00111160 -0.00231528  0.24373405
   0.50282850  0.25023051 -0.00310905
   0.25758465  0.74861679  0.24872210
   0.24875219  0.50001203  0.00641506
   0.00610510  0.74779227  0.00418091
   0.74778052  0.75163449  0.25310968
   0.75270992  0.49565141  0.00288994
   0.49016894  0.50227269  0.24338466
   0.25911851  0.24503755  0.74952540
   0.25704347  0.99820338  0.50262958
   0.00434043  0.25532240  0.49974304
   0.25595064  0.75772553  0.75133686
   0.24506836  0.49973693  0.49147557
   0.00375103  0.74751300  0.49950716
   0.99747095  0.50131650  0.74840985
   0.74098905  0.75683609  0.75012992
   0.75404630  0.49910858  0.50200340
   0.49551457  0.75968159  0.49927903
   0.50068068  0.49878136  0.75334152
   0.51514745  0.01972672  0.97366944
   0.00492239  0.51464236  0.98189646
   0.49712800  0.73847886  0.25449597
   0.23950519  0.00784782  0.75486211
   0.47872715  0.98474653  0.49577547
   0.72919857  0.98114210  0.77449691
   0.00884517  0.76553393  0.24902099
   0.73824227  0.50283647  0.24763693
   0.02101593  0.00387331  0.49799179
   0.49520652  0.51723082  0.49519045
   0.74269494  0.51155699  0.75827890
   0.75077340  0.74483290  0.49764857
HECN                                    
           1
     8.597200    0.009466   -0.005739
     0.015303    8.633701    0.005998
     0.025121   -0.009034    8.618185
   V    Ta   Ti   N    C    Cr   W 
   7   6   7  13  19   6   6
Direct configuration=     8
   0.00170391  0.98994693 -0.00054341
   0.25542953  0.99149316  0.24623212
   0.25777044  0.50735993  0.24589843
   0.49954756  0.48741545  0.99946447
   0.49518649  0.24039551  0.75737817
   0.00220260  0.49898209  0.50512749
   0.49514068  0.76233354  0.74904915
   0.00501571  0.24257701  0.24954528
   0.74512030  0.75151478  0.00510059
   0.00698137  0.24881795  0.75093059
   0.74497307  0.24886894  0.50767574
   0.00349853  0.75323579  0.75273127
   0.25326516  0.49832571  0.75249896
   0.25385166  0.24543019  0.99894448
   0.49938973  0.25007659  0.24634580
   0.73764357  0.99355179  0.26101344
   0.74999401  0.25069275  0.99427579
   0.25679746  0.75337951  0.00160476
   0.25727513  0.24852752  0.49844373
   0.24924544  0.74989397  0.49809699
   0.25329630  0.24982158  0.24867935
   0.25750920  0.00109205  0.99681319
   0.00207139  0.24673518  0.00125095
   0.74715580  0.24523242  0.25009640
   0.75028667  0.00122877  0.00372392
   0.49992268  0.99955182  0.24968598
   0.99724087  0.49067026  0.24644107
   0.49950554  0.75712403  0.00228698
   0.98778445  0.00269256  0.74966205
   0.74790570  0.24602521  0.75449458
   0.74218986  0.00112312  0.50700656
   0.49897204  0.23825215  0.49869824
   0.50378035  0.00135262  0.74235893
   0.00073106 -0.00116690  0.24411096
   0.50316397  0.25002568 -0.00283694
   0.25676845  0.74860618  0.24878986
   0.24856302  0.50007765  0.00580730
   0.00606986  0.74758369  0.00430863
   0.74836792  0.75167326  0.25250377
   0.75288053  0.49565571  0.00280159
   0.49026244  0.50215369  0.24393062
   0.25865251  0.24535268  0.74938148
   0.25788805  0.99795680  0.50245947
   0.00414269  0.25448478  0.49988336
   0.25491973  0.75718803  0.75121142
   0.24610329  0.49989518  0.49159236
   0.00325717  0.74835789  0.49991475
   0.99701402  0.50116047  0.74843627
   0.74094271  0.75793426  0.75027571
   0.75413130  0.49820897  0.50226061
   0.49574957  0.76046941  0.49939291
   0.50047360  0.49895245  0.75297280
   0.51535951  0.01947040  0.97409214
   0.00441357  0.51417610  0.98230888
   0.49786437  0.73884880  0.25458167
   0.23953626  0.00850227  0.75424508
   0.47820318  0.98433086  0.49602985
   0.73048288  0.98004605  0.77357493
   0.00877867  0.76583225  0.24936538
   0.73904447  0.50273673  0.24856845
   0.02053266  0.00368442  0.49868388
   0.49452661  0.51741771  0.49579484
   0.74249242  0.51168004  0.75698945
   0.75103070  0.74498336  0.49755656
HECN                                    
           1
     8.554539   -0.002399   -0.006643
     0.003378    8.575032    0.010478
     0.024070   -0.004505    8.576751
   V    Ta   Ti   N    C    Cr   W 
   7   6   7  13  19   6   6
Direct configuration=     9
   0.00630325  0.98853031 -0.00023059
   0.25564320  0.98915759  0.24610125
   0.26248708  0.51046936  0.24429935
   0.49731476  0.48380780  0.00009643
   0.49137567  0.23876184  0.76047280
   0.00656751  0.49619178  0.51002173
   0.49525764  0.76422040  0.74779261
   0.00613504  0.24412525  0.24856742
   0.74311319  0.75160721  0.00389454
   0.00935645  0.24664700  0.75144850
   0.74615403  0.24785487  0.50824236
   0.00292853  0.75463516  0.75334240
   0.25262315  0.49846851  0.75331285
   0.25588437  0.24402019  0.99918999
   0.49620084  0.24838358  0.24388603
   0.73561980  0.99556672  0.25679894
   0.74765725  0.24721972  0.99528507
   0.26087774  0.75479920  0.00229393
   0.25639716  0.24903976  0.49872452
   0.24972265  0.75001370  0.49793295
   0.25377856  0.24911934  0.24852662
   0.25694764  0.00136421  0.99865927
   0.00207280  0.24661006  0.00125119
   0.74661069  0.24468056  0.24957845
   0.75033167  0.00308511  0.00119864
   0.49782137  0.99959626  0.25001584
   0.99761035  0.49610192  0.24783709
   0.49861727  0.75648364  0.00007864
   0.98813149  0.00279250  0.75200241
   0.74714772  0.24663285  0.75370003
   0.74625847  0.00072335  0.50611773
   0.49877822  0.24327495  0.49922010
   0.50374313  0.00259708  0.74486267
   0.00206576 -0.00287744  0.24448551
   0.50160820  0.24999943 -0.00335690
   0.25895454  0.74907976  0.24860057
   0.24873380  0.49993758  0.00671712
   0.00533065  0.74814486  0.00386261
   0.74648890  0.75049090  0.25393706
   0.75281017  0.49662210  0.00336446
   0.49226505  0.50258009  0.24321260
   0.25881372  0.24474852  0.75011960
   0.25461126  0.99894171  0.50322058
   0.00397353  0.25564437  0.49948282
   0.25687113  0.75893239  0.75168851
   0.24470545  0.49948817  0.49260104
   0.00331847  0.74684374  0.49826544
   0.99813999  0.50144687  0.74900094
   0.74221423  0.75470405  0.74952089
   0.75261409  0.50063139  0.50124800
   0.49620034  0.75646399  0.49835628
   0.50159143  0.49836922  0.75237752
   0.51458771  0.02060718  0.97287830
   0.00658968  0.51733889  0.97984844
   0.49446071  0.73659749  0.25531149
   0.23854330  0.00531128  0.75696178
   0.47895961  0.98537888  0.49489517
   0.72455371  0.98236097  0.77726929
   0.00845995  0.76436938  0.24915776
   0.73348599  0.50452954  0.24601015
   0.02284859  0.00442046  0.49479193
   0.49703149  0.51733186  0.49340650
   0.74281719  0.51218928  0.76057388
   0.75088304  0.74279105  0.49766905
HECN                                    
           1
     8.560613   -0.000710   -0.006514
     0.005076    8.583385    0.009840
     0.024219   -0.005150    8.582650
   V    Ta   Ti   N    C    Cr   W 
   7   6   7  13  19   6   6
Direct configuration=    10
   0.00564544  0.98873249 -0.00027552
   0.25561309  0.98949234  0.24611979
   0.26181161  0.51002258  0.24452828
   0.49763495  0.48432544  0.00000578
   0.49192121  0.23899700  0.76003001
   0.00594344  0.49659127  0.50932127
   0.49524055  0.76394980  0.74797251
   0.00597459  0.24390302  0.24870741
   0.74340037  0.75159427  0.00406712
   0.00901704  0.24695778  0.75137421
   0.74598525  0.24800004  0.50816120
   0.00300980  0.75443472  0.75325508
   0.25271497  0.49844823  0.75319644
   0.25559380  0.24422193  0.99915473
   0.49665750  0.24862671  0.24423785
   0.73590903  0.99527797  0.25740206
   0.74799227  0.24771811  0.99514045
   0.26029363  0.75459494  0.00219538
   0.25652267  0.24896653  0.49868440
   0.24965435  0.74999643  0.49795642
   0.25370969  0.24921990  0.24854841
   0.25702791  0.00132544  0.99839520
   0.00207262  0.24662800  0.00125115
   0.74668880  0.24475974  0.24965251
   0.75032490  0.00281881  0.00156005
   0.49812202  0.99959033  0.24996869
   0.99755639  0.49532333  0.24763778
   0.49874452  0.75657545  0.00039453
   0.98808178  0.00277828  0.75166759
   0.74725607  0.24654583  0.75381376
   0.74567641  0.00077978  0.50624480
   0.49880495  0.24255501  0.49914582
   0.50374817  0.00241888  0.74450458
   0.00187512 -0.00263247  0.24443177
   0.50183082  0.25000346 -0.00328249
   0.25864166  0.74901143  0.24862765
   0.24870938  0.49995769  0.00658694
   0.00543631  0.74806453  0.00392648
   0.74675797  0.75066086  0.25373195
   0.75282004  0.49648362  0.00328401
   0.49197844  0.50251852  0.24331533
   0.25879076  0.24483515  0.75001396
   0.25507991  0.99880122  0.50311182
   0.00399751  0.25547815  0.49954021
   0.25659156  0.75868199  0.75162036
   0.24490552  0.49954687  0.49245673
   0.00331003  0.74706065  0.49850128
   0.99797882  0.50140563  0.74892016
   0.74203295  0.75516679  0.74962861
   0.75283072  0.50028436  0.50139307
   0.49613665  0.75703799  0.49850428
   0.50143161  0.49845256  0.75246262
   0.51469794  0.02044428  0.97305205
   0.00627773  0.51688489  0.98020064
   0.49494815  0.73692094  0.25520696
   0.23868597  0.00576910  0.75657290
   0.47885118  0.98522841  0.49505757
   0.72540156  0.98203058  0.77674103
   0.00850585  0.76457913  0.24918736
   0.73428101  0.50427345  0.24637637
   0.02251713  0.00431421  0.49534874
   0.49667314  0.51734350  0.49374814
   0.74277056  0.51211649  0.76006111
   0.75090460  0.74310535  0.49765279
HECN                                    
           1
     8.564558   -0.003124   -0.004200
     0.002662    8.590331    0.011505
     0.026554   -0.003500    8.585271
   V    Ta   Ti   N    C    Cr   W 
   7   6   7  13  19   6   6
Direct configuration=    11
   0.00984630  0.98756626  0.00051475
   0.25548788  0.98804144  0.24673342
   0.26465435  0.51165786  0.24432921
   0.49654576  0.48316003 -0.00020306
   0.48956198  0.23876920  0.76057812
   0.00732596  0.49520488  0.51317433
   0.49709742  0.76475284  0.74646215
   0.00605535  0.24484538  0.24867222
   0.74211132  0.75252919  0.00441946
   0.00958638  0.24580366  0.75107169
   0.74665024  0.24903484  0.50814120
   0.00323830  0.75550766  0.75157828
   0.25419558  0.49977712  0.75319215
   0.25553421  0.24351267  0.99933675
   0.49513471  0.24735493  0.24368481
   0.73527810  0.99551276  0.25507252
   0.74685381  0.24631499  0.99571250
   0.26165810  0.75525314  0.00207323
   0.25571142  0.24976480  0.49901328
   0.25006585  0.74994537  0.49818778
   0.25334501  0.24914943  0.24853045
   0.25699942  0.00099409  0.99978134
   0.00198466  0.24665550  0.00118835
   0.74654195  0.24460793  0.24976240
   0.75023878  0.00309629  0.00153463
   0.49729150  0.99958515  0.25009458
   0.99739672  0.49745736  0.24824660
   0.49925471  0.75642226 -0.00099933
   0.98876423  0.00251567  0.75199854
   0.74738182  0.24587758  0.75287720
   0.74769238  0.00127894  0.50507264
   0.49974830  0.24530670  0.49930579
   0.50233391  0.00322599  0.74461371
   0.00185903  0.00000256  0.24482134
   0.50102186  0.24910389 -0.00279285
   0.25877772  0.74952768  0.24868363
   0.24858075  0.50007307  0.00632112
   0.00533000  0.74833749  0.00359198
   0.74572320  0.75085019  0.25260778
   0.75334470  0.49667033  0.00364459
   0.49261465  0.50185906  0.24270548
   0.25803110  0.24444111  0.75046237
   0.25670642  0.99894671  0.50352857
   0.00372704  0.25443049  0.49951440
   0.25623810  0.75932556  0.75165417
   0.24631107  0.49966567  0.49323134
   0.00271327  0.74735614  0.49828160
   0.99793772  0.50095557  0.74954984
   0.74269047  0.75679782  0.74932982
   0.75285664  0.49896240  0.50112948
   0.49671728  0.75727471  0.49774225
   0.50177628  0.49808379  0.75133953
   0.51365839  0.02060332  0.97423884
   0.00737596  0.51930077  0.97903056
   0.49318671  0.73621333  0.25635842
   0.23766224  0.00354695  0.75862974
   0.47849142  0.98559687  0.49460860
   0.72308086  0.98149685  0.77724939
   0.00823267  0.76159063  0.24993999
   0.73192903  0.50455573  0.24590072
   0.02094470  0.00502149  0.49298857
   0.49638440  0.51509568  0.49345990
   0.74287368  0.51102819  0.76035267
   0.75165657  0.74280382  0.49814457
HECN                                    
           1
     8.567253   -0.004773   -0.002619
     0.001014    8.595075    0.012642
     0.028149   -0.002373    8.587061
   V    Ta   Ti   N    C    Cr   W 
   7   6   7  13  19   6   6
Direct configuration=    12
   0.01271399  0.98677101  0.00105375
   0.25540201  0.98705110  0.24715264
   0.26659553  0.51277450  0.24419254