HECN                                    
           1
     8.932500    0.000000    0.000000
     0.005753    9.055598    0.000000
     0.032102   -0.015743    8.937128
   Hf   Ta   Nb   N    C    W    Mo
   7   6   7  13  19   6   6
Direct configuration=     1
   0.99688001  0.99204997  0.99924002
   0.25398003  0.99714995  0.24912000
   0.24803003  0.50165000  0.24955001
   0.50501006  0.49745998  0.99834003
   0.50479003  0.24631001  0.74710002
   0.99427992  0.50449999  0.49779000
   0.49950005  0.75481999  0.74817004
   0.99437004  0.23617001  0.26379999
   0.75718000  0.74102998  0.01100000
   0.00201000  0.25541000  0.73894001
   0.75307001  0.26163001  0.50533002
   0.99514004  0.74492004  0.74511997
   0.25679999  0.49462002  0.74545002
   0.24788999  0.24839000  0.99657997
   0.50833000  0.25676999  0.25376001
   0.74879004  0.98787999  0.26967001
   0.75719000  0.25603001  0.99591997
   0.24762001  0.74973999  0.99974006
   0.25272001  0.24823001  0.50015003
   0.24457999  0.75048999  0.49983999
   0.24982001  0.24942998  0.24825000
   0.26146999  0.99984002  0.99295996
   0.00281000  0.25024000  0.00130000
   0.75313998  0.24617000  0.25492002
   0.74767001  0.99748000  0.01202000
   0.50714994  0.99977000  0.24673000
   0.99051999  0.48088002  0.24100998
   0.50519005  0.76130999  0.00855000
   0.98896989  0.00202000  0.73708999
   0.75744996  0.24437997  0.74896999
   0.73632001  0.00417000  0.51063000
   0.50563996  0.23264999  0.49544997
   0.50008998  0.00061000  0.73471998
   0.99720000  0.99771992  0.25899999
   0.50427997  0.24673000  0.00262000
   0.25133999  0.74958002  0.24910999
   0.24328000  0.50072997  0.99510994
   0.99837005  0.74313996  0.00460000
   0.75633000  0.73891003  0.25767000
   0.75839004  0.50315998  0.00288000
   0.50700002  0.50333002  0.25878999
   0.24900999  0.25315000  0.74854000
   0.24446000  0.99823996  0.50287998
   0.99804009  0.24229999  0.50128003
   0.24177002  0.75340997  0.75018002
   0.25841001  0.50062002  0.50129001
   0.99000004  0.76215003  0.49746000
   0.99203996  0.50055999  0.75138002
   0.75036005  0.74888000  0.74756004
   0.74036002  0.50197000  0.50067003
   0.50575006  0.74958002  0.49720000
   0.50501003  0.50217998  0.73912003
   0.51588997  0.01358000  0.98075008
   0.99841994  0.50976998  0.98613004
   0.50379003  0.73926997  0.25905001
   0.23780002  0.01082000  0.74607998
   0.47957999  0.98308000  0.49717999
   0.74279003  0.97869994  0.76450995
   0.99864998  0.77573999  0.26102000
   0.73551001  0.51468004  0.26666001
   0.02362000  0.99783001  0.49557002
   0.50539000  0.52833005  0.49917999
   0.73876003  0.52828003  0.73814999
   0.75400003  0.72937999  0.49116997
HECN                                    
           1
     8.803005    0.007851    0.014357
     0.013629    8.887098   -0.009281
     0.045987   -0.024591    8.840462
   Hf   Ta   Nb   N    C    W    Mo
   7   6   7  13  19   6   6
Direct configuration=     2
   0.99716960  0.99401062  0.99836015
   0.25617562  0.99815081  0.24678585
   0.24872399  0.50047742  0.24793277
   0.50363283  0.49435971  0.99897723
   0.50364287  0.24560830  0.74881508
   0.99769036  0.50260405  0.49960483
   0.49641050  0.75711988  0.75048745
   0.99354259  0.23466657  0.26229913
   0.75801260  0.74269530  0.01030600
   0.00510511  0.25505152  0.74188860
   0.75202271  0.26003919  0.50284857
   0.99965228  0.74488248  0.74797488
   0.25503713  0.49581645  0.74722111
   0.25293322  0.25261433  0.99332639
   0.50950374  0.25732590  0.24955243
   0.74834268  0.98712978  0.27197833
   0.75112576  0.25775651  0.99585622
   0.24256756  0.74507944  0.99995921
   0.25003986  0.25100498  0.50257222
   0.24450018  0.74786532  0.49952711
   0.24898909  0.24899056  0.24812330
   0.26018900  0.99958951  0.99459026
   0.00278111  0.24855370  0.00110994
   0.75355587  0.24487820  0.25460800
   0.74985261  0.99672198  0.01333250
   0.50441600  0.99903407  0.24488034
   0.99539082  0.48039072  0.24402376
   0.50525284  0.75972337  0.00653673
   0.98795254  0.00238978  0.74284570
   0.75528957  0.24345005  0.74866641
   0.73617456  0.00630842  0.51070349
   0.50649652  0.23161785  0.49830561
   0.49875632  0.00084963  0.73609792
   0.99850208  0.00318267  0.25259541
   0.50389434  0.24988499  0.00165105
   0.25316886  0.74962619  0.24866147
   0.24563407  0.49977899  0.99615369
   0.99935767  0.74482251  0.00321436
   0.75551669  0.74395209  0.25198449
   0.75670036  0.49964643  0.00313861
   0.49791238  0.50132199  0.25411021
   0.25037247  0.25236404  0.74853052
   0.25273173  0.99762974  0.50260663
   0.99774531  0.24610606  0.50110880
   0.24385116  0.75377311  0.75038770
   0.25459700  0.49966144  0.49966688
   0.99423311  0.75842855  0.50124998
   0.99494026  0.50027464  0.74838529
   0.74826615  0.75509405  0.74943668
   0.74687533  0.49579476  0.50251103
   0.50315390  0.75649299  0.49887098
   0.49954836  0.50082192  0.74460691
   0.51720545  0.01527173  0.98028864
   0.00005451  0.50981896  0.98545313
   0.50286415  0.73898457  0.25907209
   0.23678605  0.01138920  0.74776644
   0.48166869  0.98549327  0.49355047
   0.74192858  0.97795305  0.76664117
   0.99907668  0.77608051  0.25963269
   0.73506492  0.50917506  0.26018934
   0.01902553  0.00028392  0.49442337
   0.50273282  0.52281028  0.49741606
   0.74187300  0.52286532  0.74541271
   0.75379076  0.73446031  0.49118579
HECN                                    
           1
     8.836041    0.005848    0.010694
     0.011620    8.930085   -0.006913
     0.042445   -0.022334    8.865123
   Hf   Ta   Nb   N    C    W    Mo
   7   6   7  13  19   6   6
Direct configuration=     3
   0.99709473  0.99350124  0.99858666
   0.25560651  0.99789175  0.24738849
   0.24854339  0.50078282  0.24835047
   0.50398888  0.49516515  0.99881316
   0.50394038  0.24579000  0.74837246
   0.99680781  0.50309722  0.49913873
   0.49721181  0.75652070  0.74988785
   0.99375581  0.23505760  0.26268627
   0.75779717  0.74226277  0.01048488
   0.00430502  0.25514464  0.74112954
   0.75229241  0.26045314  0.50348854
   0.99848538  0.74489253  0.74724049
   0.25549450  0.49550456  0.74676327
   0.25162732  0.25151822  0.99416647
   0.50919827  0.25718276  0.25063792
   0.74845927  0.98732409  0.27138302
   0.75269599  0.25730632  0.99586964
   0.24387448  0.74628975  0.99990184
   0.25073534  0.25028236  0.50194564
   0.24452009  0.74854767  0.49960849
   0.24920403  0.24910463  0.24815575
   0.26052123  0.99965391  0.99416933
   0.00278811  0.24899210  0.00115941
   0.75344777  0.24521418  0.25468900
   0.74928797  0.99691918  0.01299513
   0.50512279  0.99922523  0.24535643
   0.99413105  0.48051825  0.24324868
   0.50523537  0.76013636  0.00705642
   0.98821839  0.00229191  0.74136074
   0.75584848  0.24369137  0.74874405
   0.73621275  0.00575248  0.51068389
   0.50627573  0.23188561  0.49756977
   0.49910220  0.00078667  0.73574192
   0.99816363  0.00176459  0.25424624
   0.50399451  0.24906501  0.00189992
   0.25269524  0.74961473  0.24877790
   0.24502488  0.50002647  0.99588575
   0.99910182  0.74438571  0.00357168
   0.75572606  0.74264270  0.25344909
   0.75713704  0.50055933  0.00307216
   0.50026247  0.50184312  0.25531388
   0.25001957  0.25256867  0.74853376
   0.25059017  0.99779034  0.50268078
   0.99782245  0.24511664  0.50115180
   0.24331259  0.75367914  0.75033492
   0.25558317  0.49991017  0.50008415
   0.99313799  0.75939594  0.50027532
   0.99418814  0.50035027  0.74915894
   0.74881045  0.75347772  0.74895011
   0.74518802  0.49740105  0.50204065
   0.50382830  0.75469491  0.49843704
   0.50096419  0.50117226  0.74318988
   0.51686512  0.01483238  0.98040774
  -0.00036890  0.50980678  0.98562839
   0.50310377  0.73905854  0.25906609
   0.23704937  0.01124056  0.74733091
   0.48112705  0.98486736  0.49448676
   0.74215230  0.97814645  0.76609136
   0.99896572  0.77599245  0.25999057
   0.73517613  0.51060769  0.26185948
   0.02021500 -0.00035474  0.49471649
   0.50341864  0.52424501  0.49787138
   0.74106889  0.52427170  0.74354241
   0.75384614  0.73313961  0.49118023
HECN                                    
           1
     8.921103    0.013210    0.022811
     0.019141    8.975199   -0.014540
     0.054884   -0.029927    8.957689
   Hf   Ta   Nb   N    C    W    Mo
   7   6   7  13  19   6   6
Direct configuration=     4
   0.99818798  0.99684069  0.99716232
   0.25746416  0.99924129  0.24500349
   0.24735508  0.49895234  0.24703038
   0.50233069  0.49401630  0.99912900
   0.50266210  0.24544398  0.75018856
   0.00083389  0.50115963  0.50063101
   0.49366923  0.75716815  0.75271571
   0.99329783  0.23597640  0.26004933
   0.75882260  0.74392318  0.00830995
   0.00711375  0.25441576  0.74520065
   0.75164676  0.25752816  0.50065567
   0.00252039  0.74459651  0.75107084
   0.25253167  0.49746584  0.74843652
   0.25816448  0.25625747  0.99048399
   0.51086290  0.25744518  0.24590799
   0.74820250  0.98758511  0.27406972
   0.74537884  0.25794461  0.99639484
   0.23833336  0.74086298  0.00064409
   0.24664068  0.25237347  0.50480018
   0.24506060  0.74625496  0.49902551
   0.24850700  0.24829256  0.24800732
   0.25907435  0.99929773  0.99601763
   0.00245857  0.24739629  0.00112065
   0.75317038  0.24381926  0.25344052
   0.75192822  0.99623565  0.01494870
   0.50255782  0.99774376  0.24172493
   0.99954069  0.48152343  0.24632978
   0.50488673  0.75840655  0.00479034
   0.98683974  0.00285158  0.74750371
   0.75364924  0.24336919  0.74821570
   0.73789533  0.00763329  0.51272921
   0.50707689  0.23279000  0.50031252
   0.49676418  0.00127181  0.73713818
   0.99996908  0.00559009  0.24747617
   0.50277231  0.25290889  0.00065079
   0.25485630  0.74967095  0.24817369
   0.24773695  0.49865270  0.99691492
   0.99954310  0.74698902  0.00306506
   0.75427258  0.74596330  0.24829799
   0.75569149  0.49695069  0.00365434
   0.49190494  0.50024590  0.25070869
   0.25198248  0.25213357  0.74825625
   0.25547767  0.99790958  0.50286856
   0.99787760  0.24971575  0.50143927
   0.24571174  0.75412439  0.75062438
   0.25202696  0.49881179  0.49850462
   0.99754725  0.75532328  0.50382323
   0.99831047  0.49996099  0.74625880
   0.74721251  0.75632981  0.75009197
   0.75071675  0.49387320  0.50324939
   0.50129586  0.75798635  0.50037850
   0.49626507  0.50060186  0.74796418
   0.51795329  0.01525417  0.98135700
   0.00069162  0.50822536  0.98472001
   0.50142202  0.73867910  0.25997512
   0.23566994  0.01031626  0.74884421
   0.48692740  0.98976578  0.48806145
   0.74080494  0.98071549  0.76900301
   0.00028883  0.77590090  0.25781789
   0.73341670  0.50398506  0.25486183
   0.01656289  0.00289710  0.49319963
   0.50191425  0.51865614  0.49535276
   0.74514662  0.51903874  0.75438629
   0.75260215  0.73674045  0.49083123
HECN                                    
           1
     8.893768    0.010844    0.018917
     0.016724    8.960701   -0.012089
     0.050887   -0.027487    8.927943
   Hf   Ta   Nb   N    C    W    Mo
   7   6   7  13  19   6   6
Direct configuration=     5
   0.99784030  0.99577361  0.99761486
   0.25687223  0.99881090  0.24576242
   0.24773224  0.49953764  0.24745020
   0.50285830  0.49438311  0.99902816
   0.50306965  0.24555380  0.74961053
  -0.00044745  0.50177980  0.50015867
   0.49479818  0.75695948  0.75181467
   0.99344272  0.23568319  0.26088751
   0.75849573  0.74339312  0.00900163
   0.00622131  0.25464847  0.74390731
   0.75185026  0.25846395  0.50155713
   0.00123765  0.74469121  0.74985448
   0.25347595  0.49683754  0.74790257
   0.25608348  0.25474483  0.99165663
   0.51033111  0.25736295  0.24741289
   0.74828545  0.98750088  0.27321509
   0.74770820  0.25773849  0.99622451
   0.24009589  0.74259647  0.00040713
   0.24794575  0.25170305  0.50389003
   0.24488769  0.74698832  0.49921177
   0.24872858  0.24855207  0.24805445
   0.25953557  0.99941075  0.99542929
   0.00256301  0.24790645  0.00113327
   0.75325776  0.24426552  0.25383783
   0.75108851  0.99645438  0.01432872
   0.50337226  0.99821772  0.24287917
   0.99782045  0.48120264  0.24535193
   0.50499626  0.75896014  0.00551134
   0.98728133  0.00267067  0.74554932
   0.75434892  0.24347177  0.74838288
   0.73736117  0.00703183  0.51207894
   0.50682331  0.23250033  0.49944034
   0.49750907  0.00111572  0.73669300
   0.99939256  0.00436918  0.24962899
   0.50316182  0.25167987  0.00104649
   0.25416821  0.74965369  0.24836675
   0.24687380  0.49909238  0.99658915
   0.99940313  0.74615690  0.00322566
   0.75473389  0.74490256  0.24993467
   0.75615087  0.49810397  0.00346955
   0.49456264  0.50075562  0.25217014
   0.25135748  0.25227327  0.74834546
   0.25392215  0.99787268  0.50281089
   0.99786141  0.24824520  0.50134662
   0.24494836  0.75398257  0.75053322
   0.25315789  0.49916247  0.49900573
   0.99614426  0.75662568  0.50269788
   0.99699704  0.50008729  0.74718300
   0.74772237  0.75541718  0.74972737
   0.74895659  0.49500230  0.50286830
   0.50210362  0.75693279  0.49975908
   0.49776264  0.50078176  0.74644396
   0.51760746  0.01511934  0.98105546
   0.00035326  0.50873151  0.98500978
   0.50195759  0.73879975  0.25968540
   0.23610940  0.01061103  0.74836260
   0.48507978  0.98820277  0.49010604
   0.74123573  0.97989296  0.76807574
  -0.00013326  0.77593108  0.25850946
   0.73397193  0.50610392  0.25708834
   0.01772554  0.00185682  0.49367959
   0.50239050  0.52044336  0.49615463
   0.74385196  0.52071013  0.75094077
   0.75299892  0.73558890  0.49094071
HECN                                    
           1
     8.895918    0.012320    0.016184
     0.018227    8.949824   -0.009350
     0.048175   -0.024728    8.915165
   Hf   Ta   Nb   N    C    W    Mo
   7   6   7  13  19   6   6
Direct configuration=     6
   0.99891372  0.99799066  0.99681374
   0.25697205  0.99918815  0.24571092
   0.24538316  0.49860594  0.24786077
   0.50263171  0.49698310  0.99872900
   0.50290157  0.24576282  0.74975683
  -0.00039776  0.50166301  0.50044947
   0.49464804  0.75595819  0.75237829
   0.99318265  0.23795931  0.25996304
   0.75996055  0.74305436  0.00685535
   0.00662932  0.25453584  0.74527258
   0.75303018  0.25767267  0.50050122
   0.00121464  0.74392389  0.75128281
   0.25230218  0.49768234  0.74777411
   0.25849739  0.25569250  0.99023374
   0.51158860  0.25727081  0.24604848
   0.74820473  0.98809411  0.27474915
   0.74452733  0.25586906  0.99677364
   0.23780393  0.74051849  0.00123841
   0.24519867  0.25051601  0.50544841
   0.24598869  0.74771960  0.49870988
   0.24872080  0.24798933  0.24795964
   0.25914809  0.99933935  0.99596781
   0.00200600  0.24782466  0.00117802
   0.75274432  0.24355030  0.25247688
   0.75174091  0.99617535  0.01512877
   0.50334188  0.99664853  0.23962012
   0.99964704  0.48254454  0.24628260
   0.50472209  0.75843410  0.00467608
   0.98647314  0.00297189  0.74688385
   0.75389780  0.24387964  0.74781824
   0.73960497  0.00728440  0.51510939
   0.50708540  0.23487719  0.50005922
   0.49586882  0.00122516  0.73727344
   0.00015099  0.00332573  0.24870685
   0.50194190  0.25242072  0.00007305
   0.25513899  0.74961250  0.24813432
   0.24726311  0.49835334  0.99661749
   0.99810768  0.74714803  0.00409652
   0.75367217  0.74314611  0.24956090
   0.75635060  0.49791444  0.00422976
   0.49447364  0.50130421  0.25148653
   0.25202456  0.25240042  0.74797951
   0.25334711  0.99872955  0.50378814
   0.99778276  0.24950072  0.50181311
   0.24513776  0.75416688  0.75074298
   0.25329652  0.49893498  0.49899975
   0.99677827  0.75602689  0.50310206
   0.99922280  0.49996244  0.74746480
   0.74805557  0.75376627  0.74938743
   0.74872708  0.49687808  0.50267792
   0.50170114  0.75439265  0.50009818
   0.49793684  0.50172775  0.74634387
   0.51913158  0.01484495  0.98241555
  -0.00046531  0.50773604  0.98344203
   0.50113636  0.73777789  0.26233936
   0.23434069  0.00924596  0.74780717
   0.48952608  0.99073053  0.48439897
   0.73936960  0.98180105  0.77040768
   0.00053578  0.77710200  0.25775513
   0.73064193  0.50460182  0.25594201
   0.01861228  0.00279449  0.49255258
   0.50372291  0.51991008  0.49399661
   0.74602274  0.52044751  0.75700750
   0.75213365  0.73389041  0.48964845
HECN                                    
           1
     8.897124    0.013149    0.014651
     0.019070    8.943720   -0.007813
     0.046653   -0.023180    8.907995
   Hf   Ta   Nb   N    C    W    Mo
   7   6   7  13  19   6   6
Direct configuration=     7
   0.99951556  0.99923627  0.99636337
   0.25702801  0.99940010  0.24568193
   0.24406548  0.49808263  0.24809124
   0.50250429  0.49844389  0.99856041
   0.50280729  0.24588024  0.74983898
  -0.00036983  0.50159733  0.50061292
   0.49456400  0.75539557  0.75269515
   0.99303638  0.23923825  0.25944311
   0.76078198  0.74286427  0.00564959
   0.00685845  0.25447229  0.74603986
   0.75369201  0.25722819  0.49990820
   0.00120205  0.74349255  0.75208557
   0.25164360  0.49815709  0.74770157
   0.25985126  0.25622494  0.98943442
   0.51229383  0.25721916  0.24528199
   0.74815965  0.98842713  0.27561109
   0.74274314  0.25481899  0.99708199
   0.23651848  0.73935112  0.00170549
   0.24365793  0.24984910  0.50632385
   0.24660619  0.74813042  0.49842792
   0.24871647  0.24767320  0.24790646
   0.25893082  0.99929918  0.99627037
   0.00169354  0.24777876  0.00120309
   0.75245612  0.24314876  0.25171214
   0.75210706  0.99601839  0.01557851
   0.50332444  0.99576750  0.23778901
   0.00067177  0.48329811  0.24680566
   0.50456820  0.75813874  0.00420675
   0.98601994  0.00314096  0.74763358
   0.75364459  0.24410892  0.74750080
   0.74086421  0.00742558  0.51681265
   0.50723231  0.23621242  0.50040663
   0.49494873  0.00128670  0.73759931
   0.00057641  0.00273960  0.24818898
   0.50125730  0.25283721 -0.00047430
   0.25568356  0.74958930  0.24800388
   0.24748159  0.49793809  0.99663361
   0.99738099  0.74770483  0.00458550
   0.75307666  0.74215948  0.24935098
   0.75646279  0.49780782  0.00465702
   0.49442355  0.50161254  0.25110228
   0.25239872  0.25247185  0.74777397
   0.25302460  0.99921084  0.50433704
   0.99773860  0.25020602  0.50207503
   0.24524404  0.75427037  0.75086085
   0.25337431  0.49880716  0.49899645
   0.99713407  0.75569036  0.50332940
   0.00047150  0.49989205  0.74762356
   0.74824260  0.75283879  0.74919674
   0.74859812  0.49793197  0.50257057
   0.50147565  0.75296554  0.50028910
   0.49803445  0.50225922  0.74628750
   0.51998686  0.01469042  0.98318015
  -0.00092470  0.50717712  0.98256108
   0.50067619  0.73720341  0.26383075
   0.23334849  0.00847930  0.74749498
   0.49201924  0.99215123  0.48119230
   0.73832292  0.98287281  0.77171743
   0.00091087  0.77775990  0.25733117
   0.72877376  0.50375843  0.25529753
   0.01910946  0.00332141  0.49191926
   0.50447007  0.51961073  0.49278426
   0.74724158  0.52029873  0.76041704
   0.75164818  0.73293648  0.48892243
HECN                                    
           1
     8.913231    0.011495    0.011936
     0.017464    8.925052   -0.003232
     0.043967   -0.018544    8.938716
   Hf   Ta   Nb   N    C    W    Mo
   7   6   7  13  19   6   6
Direct configuration=     8
   0.00090513  0.00150852  0.99610834
   0.25742787  0.99980729  0.24642969
   0.24384548  0.49712347  0.24902010
   0.50222677  0.50161454  0.99852185
   0.50347841  0.24637868  0.74810134
  -0.00235122  0.50255151  0.50103556
   0.49621915  0.75569089  0.75173324
   0.99284371  0.23908594  0.25821077
   0.76190016  0.74338647  0.00417800
   0.00608020  0.25478355  0.74680686
   0.75507909  0.25828973  0.49923012
  -0.00007564  0.74372548  0.75215543
   0.25242255  0.49885275  0.74631187
   0.25997539  0.25569872  0.98927450
   0.51243120  0.25626184  0.24539019
   0.74658485  0.98806886  0.27626919
   0.74046860  0.25069810  0.99754894
   0.23469104  0.73911713  0.00237891
   0.24181718  0.24716918  0.50703506
   0.24827713  0.75090182  0.49801427
   0.24891267  0.24758237  0.24775329
   0.25933634  0.99936157  0.99628008
   0.00072578  0.24887248  0.00113105
   0.75252728  0.24247110  0.25000565
   0.75335651  0.99553098  0.01755397
   0.50403224  0.99352998  0.23232484
   0.00086242  0.48450498  0.24722915
   0.50399474  0.75773731  0.00373234
   0.98437710  0.00298613  0.74662484
   0.75373658  0.24444353  0.74691926
   0.74314668  0.00706988  0.52146858
   0.50690728  0.23908434  0.49991773
   0.49258858  0.00091116  0.73825212
   0.00053428  0.00518204  0.24905326
   0.49979581  0.25387539 -0.00136850
   0.25575582  0.74915339  0.24787695
   0.24703142  0.49709508  0.99657129
   0.99660188  0.74788762  0.00587792
   0.75248448  0.73989691  0.24901487
   0.75697860  0.49750266  0.00705981
   0.49294124  0.50139700  0.25024147
   0.25240385  0.25210165  0.74785475
   0.25647127  0.99971514  0.50534085
   0.99746067  0.25028402  0.50260955
   0.24449855  0.75450461  0.75146237
   0.25452692  0.49881785  0.49968387
   0.99655937  0.75699994  0.50264400
   0.00144883  0.49965068  0.74743315
   0.74881841  0.75307554  0.74870890
   0.74768864  0.49875447  0.50304081
   0.50144271  0.75270825  0.50113277
   0.50008620  0.50339304  0.74470333
   0.52148667  0.01416443  0.98489680
  -0.00183958  0.50658291  0.98229281
   0.50067801  0.73805401  0.26573953
   0.23005802  0.00730919  0.74582477
   0.49740734  0.99350231  0.47543889
   0.73582722  0.98319537  0.77275152
   0.00058512  0.77579907  0.25759773
   0.72738462  0.50348472  0.25630003
   0.01921108  0.00339382  0.49291059
   0.50651918  0.51749267  0.49104994
   0.75024557  0.51932837  0.76462659
   0.75015694  0.73089733  0.48868243
HECN                                    
           1
     8.916516    0.011157    0.011383
     0.017137    8.921244   -0.002297
     0.043419   -0.017599    8.944984
   Hf   Ta   Nb   N    C    W    Mo
   7   6   7  13  19   6   6
Direct configuration=     9
   0.00118816  0.00197312  0.99605634
   0.25750936  0.99989046  0.24658169
   0.24380071  0.49692728  0.24920902
   0.50217037  0.50226271  0.99851366
   0.50361498  0.24648079  0.74774807
  -0.00275464  0.50274644  0.50112126
   0.49655615  0.75575143  0.75153775
   0.99280439  0.23905493  0.25796023
   0.76212778  0.74349343  0.00387884
   0.00592179  0.25484707  0.74696271
   0.75536154  0.25850686  0.49909225
  -0.00033581  0.74377304  0.75216953
   0.25258111  0.49899514  0.74602932
   0.26000064  0.25559116  0.98924205
   0.51245914  0.25606613  0.24541229
   0.74626420  0.98799548  0.27640292
   0.74000531  0.24985553  0.99764415
   0.23431894  0.73906915  0.00251573
   0.24144229  0.24662117  0.50717981
   0.24861747  0.75146849  0.49792998
   0.24895261  0.24756382  0.24772217
   0.25941891  0.99937434  0.99628207
   0.00052875  0.24909604  0.00111623
   0.75254164  0.24233275  0.24965880
   0.75361106  0.99543118  0.01795571
   0.50417593  0.99307318  0.23121424
   0.00090131  0.48475167  0.24731513
   0.50387792  0.75765528  0.00363589
   0.98404249  0.00295452  0.74641968
   0.75375528  0.24451201  0.74680100
   0.74361176  0.00699675  0.52241532
   0.50684117  0.23967149  0.49981801
   0.49210800  0.00083423  0.73838474
   0.00052585  0.00568126  0.24922871
   0.49949818  0.25408766 -0.00155050
   0.25577051  0.74906429  0.24785120
   0.24693972  0.49692273  0.99655868
   0.99644332  0.74792481  0.00614061
   0.75236379  0.73943439  0.24894674
   0.75708378  0.49744003  0.00754837
   0.49263932  0.50135298  0.25006639
   0.25240489  0.25202596  0.74787121
   0.25717321  0.99981826  0.50554509
   0.99740411  0.25029989  0.50271820
   0.24434679  0.75455240  0.75158458
   0.25476167  0.49882000  0.49982369
   0.99644234  0.75726771  0.50250448
   0.00164783  0.49960139  0.74739453
   0.74893565  0.75312401  0.74860974
   0.74750350  0.49892253  0.50313626
   0.50143605  0.75265556  0.50130432
   0.50050395  0.50362508  0.74438128
   0.52179217  0.01405678  0.98524594
  -0.00202593  0.50646143  0.98223827
   0.50067854  0.73822769  0.26612750
   0.22938781  0.00707003  0.74548513
   0.49850421  0.99377934  0.47426941
   0.73531909  0.98326110  0.77296156
   0.00051873  0.77539818  0.25765210
   0.72710180  0.50342860  0.25650378
   0.01923184  0.00340852  0.49311213
   0.50693626  0.51705995  0.49069770
   0.75085752  0.51912967  0.76548269
   0.74985319  0.73048044  0.48863376
HECN                                    
           1
     8.897589    0.009145    0.014308
     0.015112    8.902723   -0.004120
     0.046304   -0.019413    8.916017
   Hf   Ta   Nb   N    C    W    Mo
   7   6   7  13  19   6   6
Direct configuration=    10
   0.00138260  0.00148442  0.99704253
   0.25729164  0.99953645  0.24727880
   0.24511728  0.49680932  0.25016518
   0.50206736  0.50243463  0.99842168
   0.50407108  0.24683383  0.74643207
  -0.00304251  0.50355440  0.50091127
   0.49739766  0.75668806  0.75030618
   0.99232741  0.23899252  0.25852838
   0.76196214  0.74462152  0.00459689
   0.00481910  0.25563047  0.74648062
   0.75500790  0.25892079  0.49828061
  -0.00127229  0.74449078  0.75104054
   0.25412876  0.49915803  0.74503254
   0.25882516  0.25540286  0.98933977
   0.51153330  0.25464417  0.24598942
   0.74544370  0.98696651  0.27598320
   0.73940280  0.24737382  0.99722391
   0.23413322  0.74010659  0.00263459
   0.24123587  0.24569853  0.50715076
   0.24916637  0.75348825  0.49804834
   0.24901374  0.24786360  0.24773158
   0.25976786  0.99953282  0.99573843
  -0.00032943  0.25028961  0.00106257
   0.75337075  0.24226082  0.24945765
   0.75492972  0.99462618  0.01933450
   0.50439371  0.99116873  0.22838112
  -0.00033139  0.48569818  0.24732082
   0.50361945  0.75752901  0.00346890
   0.98230029  0.00239416  0.74504336
   0.75399303  0.24478133  0.74657177
   0.74360792  0.00640914  0.52413052
   0.50627101  0.24103463  0.49867997
   0.49093614  0.00115053  0.73881103
  -0.00024893  0.00501263  0.25048908
   0.49895941  0.25444417 -0.00208621
   0.25506881  0.74900141  0.24779746
   0.24643930  0.49687845  0.99649364
   0.99708073  0.74770932  0.00590971
   0.75253702  0.73934573  0.24846673
   0.75704421  0.49627090  0.01009264
   0.49180407  0.50082721  0.24942744
   0.25155931  0.25128912  0.74837456
   0.26197380  0.99969621  0.50546303
   0.99739496  0.25004667  0.50240289
   0.24380531  0.75468302  0.75207694
   0.25488493  0.49892040  0.50033802
   0.99565163  0.75837298  0.50229627
   0.00147623  0.50008561  0.74722833
   0.74923623  0.75402869  0.74857929
   0.74804038  0.49712054  0.50486209
   0.50168144  0.75466459  0.50153849
   0.50217924  0.50344655  0.74373198
   0.52151437  0.01416069  0.98448023
  -0.00165827  0.50643627  0.98254582
   0.50109266  0.73971808  0.26599062
   0.22896793  0.00654845  0.74306554
   0.50181887  0.99407103  0.47414188
   0.73482895  0.98383863  0.77298465
  -0.00004040  0.77548097  0.25871882
   0.72773856  0.50355277  0.25781680
   0.01891398  0.00255900  0.49495176
   0.50726380  0.51503964  0.49010279
   0.75238788  0.51788447  0.76529417
   0.74806262  0.73129090  0.48980515
HECN                                    
           1
     8.897378    0.009123    0.014340
     0.015089    8.902517   -0.004140
     0.046337   -0.019433    8.915695
   Hf   Ta   Nb   N    C    W    Mo
   7   6   7  13  19   6   6
Direct configuration=    11
   0.00138476  0.00147897  0.99705353
   0.25728921  0.99953251  0.24728658
   0.24513195  0.49680801  0.25017584
   0.50206621  0.50243654  0.99842065
   0.50407617  0.24683776  0.74641739
  -0.00304572  0.50356341  0.50090893
   0.49740705  0.75669849  0.75029244
   0.99232209  0.23899183  0.25853472
   0.76196029  0.74463409  0.00460491
   0.00480682  0.25563920  0.74647525
   0.75500396  0.25892540  0.49827156
  -0.00128272  0.74449877  0.75102795
   0.25414601  0.49915985  0.74502142
   0.25881206  0.25540075  0.98934086
   0.51152297  0.25462832  0.24599586
   0.74543455  0.98695505  0.27597852
   0.73939608  0.24734616  0.99721922
   0.23413115  0.74011815  0.00263592
   0.24123357  0.24568825  0.50715043
   0.24917250  0.75351075  0.49804966
   0.24901442  0.24786694  0.24773168
   0.25977175  0.99953459  0.99573236
  -0.00033899  0.25030291  0.00106198
   0.75338000  0.24226002  0.24945540
   0.75494441  0.99461722  0.01934987
   0.50439614  0.99114750  0.22834950
  -0.00034513  0.48570872  0.24732089
   0.50361657  0.75752760  0.00346704
   0.98228088  0.00238790  0.74502801
   0.75399568  0.24478433  0.74656921
   0.74360787  0.00640259  0.52414965
   0.50626467  0.24104981  0.49866728
   0.49092308  0.00115406  0.73881579
  -0.00025757  0.00500518  0.25050315
   0.49895341  0.25444814 -0.00209219
   0.25506099  0.74900070  0.24779686
   0.24643373  0.49687796  0.99649291
   0.99708784  0.74770692  0.00590713
   0.75253895  0.73934474  0.24846138
   0.75704376  0.49625787  0.01012103
   0.49179476  0.50082134  0.24942031
   0.25154989  0.25128091  0.74838018
   0.26202729  0.99969486  0.50546210
   0.99739486  0.25004385  0.50239938
   0.24379927  0.75468447  0.75208244
   0.25488630  0.49892152  0.50034375
   0.99564282  0.75838530  0.50229395
   0.00147432  0.50009100  0.74722648
   0.74923958  0.75403877  0.74857895
   0.74804635  0.49710046  0.50488134
   0.50168418  0.75468697  0.50154111
   0.50219791  0.50344456  0.74372473
   0.52151128  0.01416184  0.98447169
  -0.00165417  0.50643599  0.98254925
   0.50109728  0.73973469  0.26598910
   0.22896326  0.00654263  0.74303855
   0.50185581  0.99407428  0.47414044
   0.73482349  0.98384506  0.77298491
  -0.00004663  0.77548189  0.25873072
   0.72774566  0.50355416  0.25783144
   0.01891043  0.00254954  0.49497229
   0.50726745  0.51501712  0.49009615
   0.75240493  0.51787060  0.76529206
   0.74804266  0.73129993  0.48981823
HECN                                    
           1
     8.921900    0.008111    0.015305
     0.014088    8.935552   -0.006865
     0.047398   -0.022230    8.939157
   Hf   Ta   Nb   N    C    W    Mo
   7   6   7  13  19   6   6
Direct configuration=    12
   0.00134548  0.00036265  0.99789951
   0.25687870  0.99919507  0.24791952
   0.24595291  0.49715656  0.25079154