       N       E                     dE             d eps       ncg     rms          rms(c)
DAV:   1     0.542197779665E+04    0.54220E+04   -0.20855E+05  8624   0.145E+03
DAV:   2     0.183543336150E+03   -0.52384E+04   -0.50559E+04  8624   0.594E+02
DAV:   3    -0.674579601718E+03   -0.85812E+03   -0.82084E+03 14056   0.183E+02
DAV:   4    -0.767593944599E+03   -0.93014E+02   -0.91054E+02 15232   0.687E+01
DAV:   5    -0.776744846448E+03   -0.91509E+01   -0.90682E+01 16688   0.197E+01    0.617E+01
RMM:   6    -0.632734852746E+03    0.14401E+03   -0.63455E+02 12549   0.446E+01    0.156E+01
RMM:   7    -0.640162237817E+03   -0.74274E+01   -0.15582E+02 13485   0.268E+01    0.111E+01
RMM:   8    -0.644826166715E+03   -0.46639E+01   -0.75087E+01 14336   0.139E+01    0.102E+01
RMM:   9    -0.644280346543E+03    0.54582E+00   -0.14417E+01 13542   0.948E+00    0.625E+00
RMM:  10    -0.644572641539E+03   -0.29229E+00   -0.90532E+00 13823   0.473E+00    0.331E+00
RMM:  11    -0.644963012118E+03   -0.39037E+00   -0.40653E+00 14400   0.351E+00    0.196E+00
RMM:  12    -0.645129871960E+03   -0.16686E+00   -0.32516E+00 13869   0.319E+00    0.154E+00
RMM:  13    -0.645369937964E+03   -0.24007E+00   -0.26873E+00 15152   0.239E+00    0.150E+00
RMM:  14    -0.645517555838E+03   -0.14762E+00   -0.17728E+00 14409   0.193E+00    0.156E+00
RMM:  15    -0.645543170057E+03   -0.25614E-01   -0.88195E-01 13827   0.184E+00    0.683E-01
RMM:  16    -0.645618463844E+03   -0.75294E-01   -0.94740E-01 15193   0.142E+00    0.414E-01
RMM:  17    -0.645671310731E+03   -0.52847E-01   -0.60179E-01 15515   0.122E+00    0.338E-01
RMM:  18    -0.645719588951E+03   -0.48278E-01   -0.53121E-01 15390   0.107E+00    0.295E-01
RMM:  19    -0.645751744954E+03   -0.32156E-01   -0.35937E-01 15391   0.972E-01    0.211E-01
RMM:  20    -0.645776284229E+03   -0.24539E-01   -0.29420E-01 14959   0.878E-01    0.271E-01
RMM:  21    -0.645797198826E+03   -0.20915E-01   -0.23853E-01 15258   0.791E-01    0.203E-01
RMM:  22    -0.645815086417E+03   -0.17888E-01   -0.20332E-01 15418   0.725E-01    0.159E-01
RMM:  23    -0.645829472879E+03   -0.14386E-01   -0.16456E-01 15501   0.664E-01    0.147E-01
RMM:  24    -0.645842368435E+03   -0.12896E-01   -0.14619E-01 15361   0.610E-01    0.496E-02
RMM:  25    -0.645852491130E+03   -0.10123E-01   -0.11581E-01 15367   0.554E-01    0.745E-02
RMM:  26    -0.645861168002E+03   -0.86769E-02   -0.99096E-02 15366   0.511E-01    0.139E-02
RMM:  27    -0.645868406734E+03   -0.72387E-02   -0.83136E-02 14857   0.465E-01    0.727E-02
RMM:  28    -0.645874369450E+03   -0.59627E-02   -0.68956E-02 15167   0.432E-01    0.609E-02
RMM:  29    -0.645879673583E+03   -0.53041E-02   -0.60756E-02 14817   0.400E-01    0.193E-01
RMM:  30    -0.645884266670E+03   -0.45931E-02   -0.51669E-02 14957   0.377E-01    0.349E-01
RMM:  31    -0.645888001406E+03   -0.37347E-02   -0.44187E-02 14639   0.343E-01    0.369E-01
RMM:  32    -0.645891236041E+03   -0.32346E-02   -0.37658E-02 14632   0.317E-01    0.421E-01
RMM:  33    -0.645893863238E+03   -0.26272E-02   -0.32623E-02 14810   0.293E-01    0.389E-01
RMM:  34    -0.645896243302E+03   -0.23801E-02   -0.27622E-02 14604   0.272E-01    0.439E-01
RMM:  35    -0.645898343594E+03   -0.21003E-02   -0.24586E-02 14545   0.251E-01    0.473E-01
RMM:  36    -0.645900011344E+03   -0.16677E-02   -0.20671E-02 14519   0.233E-01    0.479E-01
RMM:  37    -0.645901563184E+03   -0.15518E-02   -0.18438E-02 14480   0.216E-01    0.503E-01
RMM:  38    -0.645902846763E+03   -0.12836E-02   -0.15602E-02 14354   0.200E-01    0.520E-01
RMM:  39    -0.645904097855E+03   -0.12511E-02   -0.14051E-02 14276   0.187E-01    0.565E-01
RMM:  40    -0.645905074503E+03   -0.97665E-03   -0.11888E-02 14167   0.173E-01    0.583E-01
RMM:  41    -0.645905977876E+03   -0.90337E-03   -0.10682E-02 14050   0.161E-01    0.605E-01
RMM:  42    -0.645906774233E+03   -0.79636E-03   -0.91324E-03 13977   0.150E-01    0.633E-01
RMM:  43    -0.645907424614E+03   -0.65038E-03   -0.81632E-03 13874   0.139E-01    0.642E-01
RMM:  44    -0.645908047466E+03   -0.62285E-03   -0.70126E-03 13772   0.130E-01    0.668E-01
RMM:  45    -0.645908521240E+03   -0.47377E-03   -0.62559E-03 13647   0.120E-01    0.671E-01
RMM:  46    -0.645908912199E+03   -0.39096E-03   -0.53917E-03 13532   0.112E-01    0.671E-01
RMM:  47    -0.645909235979E+03   -0.32378E-03   -0.48021E-03 13427   0.105E-01    0.662E-01
RMM:  48    -0.645909499510E+03   -0.26353E-03   -0.41780E-03 13423   0.985E-02    0.650E-01
RMM:  49    -0.645909747816E+03   -0.24831E-03   -0.37084E-03 13306   0.919E-02    0.640E-01
RMM:  50    -0.645910006124E+03   -0.25831E-03   -0.32204E-03 13091   0.856E-02    0.647E-01
RMM:  51    -0.645910015889E+03   -0.97653E-05   -0.29073E-03 13443   0.829E-02    0.594E-01
RMM:  52    -0.645910239632E+03   -0.22374E-03   -0.24703E-03 12841   0.754E-02    0.606E-01
RMM:  53    -0.645910445509E+03   -0.20588E-03   -0.22668E-03 12655   0.687E-02    0.618E-01
RMM:  54    -0.645910575725E+03   -0.13022E-03   -0.19134E-03 12389   0.645E-02    0.617E-01
RMM:  55    -0.645910729253E+03   -0.15353E-03   -0.17482E-03 12360   0.601E-02    0.625E-01
RMM:  56    -0.645910813549E+03   -0.84295E-04   -0.15008E-03 12224   0.567E-02    0.623E-01
RMM:  57    -0.645910941367E+03   -0.12782E-03   -0.13622E-03 12024   0.535E-02    0.631E-01
RMM:  58    -0.645911031452E+03   -0.90086E-04   -0.11716E-03 11643   0.499E-02    0.635E-01
RMM:  59    -0.645911113324E+03   -0.81871E-04   -0.10613E-03 11621   0.474E-02    0.638E-01
RMM:  60    -0.645911120116E+03   -0.67925E-05   -0.92145E-04 11585   0.451E-02
   1 F= -.64591112E+03 E0= -.64584870E+03  d E =-.645911E+03
       N       E                     dE             d eps       ncg     rms          rms(c)
DAV:   1    -0.646996379663E+03   -0.10853E+01   -0.48081E+01 12124   0.238E+01    0.709E+00
RMM:   2    -0.646185256966E+03    0.81112E+00   -0.58046E+00 13213   0.756E+00    0.434E+00
RMM:   3    -0.645835572243E+03    0.34968E+00   -0.12304E+00 12887   0.336E+00    0.282E+00
RMM:   4    -0.645695006678E+03    0.14057E+00   -0.94371E-01 12703   0.258E+00    0.955E-01
RMM:   5    -0.645712017939E+03   -0.17011E-01   -0.35056E-01 13976   0.133E+00    0.646E-01
RMM:   6    -0.645711170034E+03    0.84790E-03   -0.78032E-02 14820   0.674E-01    0.331E-01
RMM:   7    -0.645713415336E+03   -0.22453E-02   -0.28138E-02 15069   0.373E-01    0.187E-01
RMM:   8    -0.645715923254E+03   -0.25079E-02   -0.17472E-02 15468   0.233E-01    0.110E-01
RMM:   9    -0.645716860450E+03   -0.93720E-03   -0.70549E-03 15458   0.169E-01    0.667E-02
RMM:  10    -0.645717452024E+03   -0.59157E-03   -0.45222E-03 15446   0.130E-01    0.483E-02
RMM:  11    -0.645717750849E+03   -0.29883E-03   -0.27267E-03 15456   0.102E-01    0.305E-02
RMM:  12    -0.645717953189E+03   -0.20234E-03   -0.19920E-03 15441   0.835E-02    0.237E-02
RMM:  13    -0.645718086589E+03   -0.13340E-03   -0.12807E-03 15006   0.717E-02    0.203E-02
RMM:  14    -0.645718170718E+03   -0.84129E-04   -0.92483E-04 14826   0.634E-02    0.152E-02
RMM:  15    -0.645718232494E+03   -0.61776E-04   -0.71974E-04 14741   0.560E-02    0.105E-02
RMM:  16    -0.645718281502E+03   -0.49008E-04   -0.55095E-04 14636   0.510E-02    0.101E-02
RMM:  17    -0.645718318709E+03   -0.37207E-04   -0.41389E-04 14490   0.452E-02    0.623E-03
RMM:  18    -0.645718350999E+03   -0.32290E-04   -0.33530E-04 14451   0.410E-02    0.345E-03
RMM:  19    -0.645718373193E+03   -0.22194E-04   -0.25519E-04 14291   0.376E-02    0.302E-03
RMM:  20    -0.645718391220E+03   -0.18027E-04   -0.21088E-04 14132   0.340E-02    0.209E-03
RMM:  21    -0.645718406040E+03   -0.14820E-04   -0.17167E-04 13935   0.315E-02    0.191E-03
RMM:  22    -0.645718417640E+03   -0.11600E-04   -0.13918E-04 13552   0.290E-02    0.184E-03
RMM:  23    -0.645718427351E+03   -0.97104E-05   -0.11843E-04 13109   0.272E-02    0.201E-03
RMM:  24    -0.645718434638E+03   -0.72875E-05   -0.94173E-05 12585   0.254E-02
   2 F= -.64571843E+03 E0= -.64565852E+03  d E =0.192685E+00
       N       E                     dE             d eps       ncg     rms          rms(c)
DAV:   1    -0.646697009843E+03   -0.97858E+00   -0.25710E+01 12152   0.174E+01    0.560E+00
RMM:   2    -0.646332717261E+03    0.36429E+00   -0.34607E+00 13291   0.572E+00    0.381E+00
RMM:   3    -0.646012712946E+03    0.32000E+00   -0.73980E-01 12385   0.263E+00    0.215E+00
RMM:   4    -0.645935526673E+03    0.77186E-01   -0.53139E-01 12896   0.174E+00    0.858E-01
RMM:   5    -0.645937058756E+03   -0.15321E-02   -0.18791E-01 14039   0.987E-01    0.532E-01
RMM:   6    -0.645934545688E+03    0.25131E-02   -0.46848E-02 14820   0.521E-01    0.234E-01
RMM:   7    -0.645935411577E+03   -0.86589E-03   -0.16940E-02 14843   0.280E-01    0.143E-01
RMM:   8    -0.645936324536E+03   -0.91296E-03   -0.10084E-02 15423   0.178E-01    0.905E-02
RMM:   9    -0.645936696052E+03   -0.37152E-03   -0.43655E-03 15392   0.131E-01    0.525E-02
RMM:  10    -0.645936948359E+03   -0.25231E-03   -0.29265E-03 15255   0.987E-02    0.348E-02
RMM:  11    -0.645937082262E+03   -0.13390E-03   -0.16914E-03 15307   0.790E-02    0.240E-02
RMM:  12    -0.645937180072E+03   -0.97810E-04   -0.12166E-03 15174   0.644E-02    0.187E-02
RMM:  13    -0.645937240154E+03   -0.60081E-04   -0.79124E-04 14672   0.552E-02    0.168E-02
RMM:  14    -0.645937287987E+03   -0.47834E-04   -0.62140E-04 14376   0.488E-02    0.136E-02
RMM:  15    -0.645937325732E+03   -0.37745E-04   -0.44493E-04 14458   0.436E-02    0.894E-03
RMM:  16    -0.645937356672E+03   -0.30941E-04   -0.35606E-04 14284   0.393E-02    0.711E-03
RMM:  17    -0.645937376459E+03   -0.19786E-04   -0.26447E-04 14091   0.351E-02    0.305E-03
RMM:  18    -0.645937394385E+03   -0.17927E-04   -0.21642E-04 13981   0.316E-02    0.346E-03
RMM:  19    -0.645937409283E+03   -0.14898E-04   -0.16805E-04 13599   0.286E-02    0.314E-03
RMM:  20    -0.645937421092E+03   -0.11809E-04   -0.13414E-04 13346   0.261E-02    0.160E-03
RMM:  21    -0.645937430545E+03   -0.94532E-05   -0.10681E-04 12924   0.239E-02    0.854E-04
RMM:  22    -0.645937437588E+03   -0.70433E-05   -0.87023E-05 12265   0.223E-02
   3 F= -.64593744E+03 E0= -.64587575E+03  d E =-.263175E-01
       N       E                     dE             d eps       ncg     rms          rms(c)
DAV:   1    -0.645937527316E+03   -0.96772E-04   -0.13310E-03 13580   0.105E-01    0.473E-02
RMM:   2    -0.645937512755E+03    0.14561E-04   -0.20752E-04 12106   0.422E-02    0.255E-02
RMM:   3    -0.645937504201E+03    0.85538E-05   -0.65919E-05  9007   0.224E-02
   4 F= -.64593750E+03 E0= -.64587580E+03  d E =-.263841E-01
       N       E                     dE             d eps       ncg     rms          rms(c)
DAV:   1    -0.645955857943E+03   -0.18345E-01   -0.82874E-01 11900   0.312E+00    0.100E+00
RMM:   2    -0.645942907353E+03    0.12951E-01   -0.10912E-01 13251   0.102E+00    0.670E-01
RMM:   3    -0.645933725335E+03    0.91820E-02   -0.23067E-02 12454   0.466E-01    0.403E-01
RMM:   4    -0.645930989160E+03    0.27362E-02   -0.17403E-02 12829   0.325E-01    0.156E-01
RMM:   5    -0.645931001222E+03   -0.12062E-04   -0.61597E-03 13919   0.182E-01    0.954E-02
RMM:   6    -0.645930906747E+03    0.94475E-04   -0.15654E-03 14857   0.944E-02    0.439E-02
RMM:   7    -0.645930910515E+03   -0.37683E-05   -0.56779E-04 14766   0.513E-02    0.271E-02
RMM:   8    -0.645930922130E+03   -0.11615E-04   -0.33361E-04 13729   0.335E-02    0.166E-02
RMM:   9    -0.645930924167E+03   -0.20368E-05   -0.15258E-04 12342   0.283E-02    0.105E-02
RMM:  10    -0.645930924843E+03   -0.67653E-06   -0.96031E-05 11095   0.217E-02
   5 F= -.64593092E+03 E0= -.64586891E+03  d E =-.198047E-01
       N       E                     dE             d eps       ncg     rms          rms(c)
DAV:   1    -0.645959371386E+03   -0.28447E-01   -0.74039E-01 11676   0.294E+00    0.936E-01
RMM:   2    -0.645947226563E+03    0.12145E-01   -0.94753E-02 13182   0.960E-01    0.617E-01
RMM:   3    -0.645939739145E+03    0.74874E-02   -0.20719E-02 12456   0.439E-01    0.381E-01
RMM:   4    -0.645937301725E+03    0.24374E-02   -0.15319E-02 12775   0.311E-01    0.144E-01
RMM:   5    -0.645937379608E+03   -0.77882E-04   -0.53938E-03 13775   0.169E-01    0.889E-02
RMM:   6    -0.645937347316E+03    0.32292E-04   -0.12819E-03 14405   0.872E-02    0.422E-02
RMM:   7    -0.645937391570E+03   -0.44254E-04   -0.44492E-04 13615   0.458E-02    0.260E-02
RMM:   8    -0.645937434342E+03   -0.42772E-04   -0.23984E-04 12192   0.292E-02    0.156E-02
RMM:   9    -0.645937455360E+03   -0.21019E-04   -0.99486E-05 10868   0.249E-02    0.965E-03
RMM:  10    -0.645937468910E+03   -0.13550E-04   -0.62894E-05  9563   0.181E-02    0.562E-03
RMM:  11    -0.645937475452E+03   -0.65417E-05   -0.30102E-05  7864   0.160E-02
   6 F= -.64593748E+03 E0= -.64587576E+03  d E =-.263553E-01
       N       E                     dE             d eps       ncg     rms          rms(c)
DAV:   1    -0.645937503376E+03   -0.34466E-04   -0.54752E-04 14028   0.754E-02    0.302E-02
RMM:   2    -0.645937497074E+03    0.63023E-05   -0.90378E-05  9183   0.254E-02
   7 F= -.64593750E+03 E0= -.64587577E+03  d E =-.263770E-01
       N       E                     dE             d eps       ncg     rms          rms(c)
DAV:   1    -0.645937504824E+03   -0.14476E-05   -0.26193E-04 10724   0.638E-02    0.287E-02
RMM:   2    -0.645937505506E+03   -0.68189E-06   -0.78007E-05  8336   0.280E-02
   8 F= -.64593751E+03 E0= -.64587578E+03  d E =-.263854E-01
       N       E                     dE             d eps       ncg     rms          rms(c)
DAV:   1    -0.645937493607E+03    0.11217E-04   -0.96885E-05  8960   0.419E-02    0.168E-02
RMM:   2    -0.645937493450E+03    0.15620E-06   -0.23084E-05  5556   0.177E-02
   9 F= -.64593749E+03 E0= -.64587578E+03  d E =-.263733E-01
       N       E                     dE             d eps       ncg     rms          rms(c)
DAV:   1    -0.645937490213E+03    0.33933E-05   -0.29559E-05  7308   0.242E-02    0.100E-02
RMM:   2    -0.645937491198E+03   -0.98465E-06   -0.73740E-06  4999   0.106E-02
  10 F= -.64593749E+03 E0= -.64587579E+03  d E =-.263711E-01
       N       E                     dE             d eps       ncg     rms          rms(c)
DAV:   1    -0.645935052095E+03    0.24381E-02   -0.46881E-01  9128   0.186E+00    0.160E-01
RMM:   2    -0.645938916163E+03   -0.38641E-02   -0.46842E-02 13435   0.598E-01    0.831E-02
RMM:   3    -0.645939693408E+03   -0.77724E-03   -0.86456E-03 14214   0.224E-01    0.760E-02
RMM:   4    -0.645939718457E+03   -0.25050E-04   -0.14526E-03 14051   0.929E-02    0.477E-02
RMM:   5    -0.645939724354E+03   -0.58966E-05   -0.67873E-04 12886   0.509E-02    0.342E-02
RMM:   6    -0.645939740257E+03   -0.15903E-04   -0.48819E-04 13073   0.445E-02    0.167E-02
RMM:   7    -0.645939755496E+03   -0.15239E-04   -0.24258E-04 11040   0.277E-02    0.104E-02
RMM:   8    -0.645939765639E+03   -0.10144E-04   -0.15177E-04 10785   0.234E-02    0.645E-03
RMM:   9    -0.645939776218E+03   -0.10578E-04   -0.11750E-04 10496   0.200E-02    0.536E-03
RMM:  10    -0.645939782047E+03   -0.58292E-05   -0.66277E-05  9528   0.163E-02
  11 F= -.64593978E+03 E0= -.64587793E+03  d E =-.229085E-02
       N       E                     dE             d eps       ncg     rms          rms(c)
DAV:   1    -0.645939051930E+03    0.72429E-03   -0.99993E-02  9800   0.857E-01    0.727E-02
RMM:   2    -0.645939889712E+03   -0.83778E-03   -0.10092E-02 13480   0.277E-01    0.379E-02
RMM:   3    -0.645940062563E+03   -0.17285E-03   -0.19425E-03 14032   0.104E-01    0.343E-02
RMM:   4    -0.645940074774E+03   -0.12211E-04   -0.37880E-04 12692   0.458E-02    0.219E-02
RMM:   5    -0.645940081811E+03   -0.70365E-05   -0.21093E-04 10976   0.277E-02    0.157E-02
RMM:   6    -0.645940088908E+03   -0.70979E-05   -0.14387E-04 11182   0.256E-02    0.783E-03
RMM:   7    -0.645940095324E+03   -0.64157E-05   -0.85529E-05  9489   0.182E-02
  12 F= -.64594010E+03 E0= -.64587818E+03  d E =-.260413E-02
       N       E                     dE             d eps       ncg     rms          rms(c)
DAV:   1    -0.645939215053E+03    0.87386E-03   -0.22658E-01  9464   0.142E+00    0.167E-01
RMM:   2    -0.645940632741E+03   -0.14177E-02   -0.22371E-02 13500   0.421E-01    0.977E-02
RMM:   3    -0.645940982609E+03   -0.34987E-03   -0.49240E-03 14368   0.175E-01    0.903E-02
RMM:   4    -0.645940867742E+03    0.11487E-03   -0.93129E-04 13804   0.782E-02    0.351E-02
RMM:   5    -0.645940894453E+03   -0.26711E-04   -0.60036E-04 12558   0.470E-02    0.238E-02
RMM:   6    -0.645940909224E+03   -0.14770E-04   -0.31152E-04 11702   0.364E-02    0.994E-03
RMM:   7    -0.645940929466E+03   -0.20242E-04   -0.23254E-04 11230   0.285E-02    0.546E-03
RMM:   8    -0.645940943678E+03   -0.14212E-04   -0.15382E-04 10978   0.215E-02    0.425E-03
RMM:   9    -0.645940952625E+03   -0.89474E-05   -0.99095E-05 10130   0.178E-02
  13 F= -.64594095E+03 E0= -.64587917E+03  d E =-.857301E-03
       N       E                     dE             d eps       ncg     rms          rms(c)
DAV:   1    -0.645940873652E+03    0.70026E-04   -0.20317E-02  9800   0.425E-01    0.499E-02
RMM:   2    -0.645941010308E+03   -0.13666E-03   -0.20908E-03 13484   0.128E-01    0.295E-02
RMM:   3    -0.645941048786E+03   -0.38478E-04   -0.53007E-04 13521   0.549E-02    0.268E-02
RMM:   4    -0.645941043583E+03    0.52039E-05   -0.14272E-04 11329   0.289E-02    0.107E-02
RMM:   5    -0.645941050844E+03   -0.72613E-05   -0.10726E-04 10172   0.212E-02    0.732E-03
RMM:   6    -0.645941055321E+03   -0.44771E-05   -0.63287E-05  9664   0.179E-02
  14 F= -.64594106E+03 E0= -.64587932E+03  d E =-.959997E-03
       N       E                     dE             d eps       ncg     rms          rms(c)
DAV:   1    -0.645940344393E+03    0.70645E-03   -0.81012E-02  9800   0.850E-01    0.998E-02
RMM:   2    -0.645940861546E+03   -0.51715E-03   -0.80872E-03 13483   0.252E-01    0.587E-02
RMM:   3    -0.645940995402E+03   -0.13386E-03   -0.18744E-03 14324   0.106E-01    0.540E-02
RMM:   4    -0.645940959798E+03    0.35604E-04   -0.39244E-04 12931   0.490E-02    0.214E-02
RMM:   5    -0.645940973600E+03   -0.13801E-04   -0.26849E-04 11147   0.320E-02    0.146E-02
RMM:   6    -0.645940982050E+03   -0.84501E-05   -0.14729E-04 10890   0.264E-02    0.620E-03
RMM:   7    -0.645940991496E+03   -0.94461E-05   -0.10910E-04 10397   0.199E-02    0.344E-03
RMM:   8    -0.645940997936E+03   -0.64397E-05   -0.70246E-05  9388   0.157E-02
  15 F= -.64594100E+03 E0= -.64587934E+03  d E =-.902612E-03
       N       E                     dE             d eps       ncg     rms          rms(c)
DAV:   1    -0.645940789531E+03    0.20197E-03   -0.44279E-02  9800   0.627E-01    0.738E-02
RMM:   2    -0.645941056166E+03   -0.26664E-03   -0.42624E-03 13426   0.183E-01    0.434E-02
RMM:   3    -0.645941114149E+03   -0.57982E-04   -0.85399E-04 13974   0.749E-02    0.398E-02
RMM:   4    -0.645941086838E+03    0.27311E-04   -0.14665E-04 11977   0.328E-02    0.153E-02
RMM:   5    -0.645941086961E+03   -0.12352E-06   -0.75702E-05 10041   0.185E-02
  16 F= -.64594109E+03 E0= -.64587937E+03  d E =-.991637E-03
       N       E                     dE             d eps       ncg     rms          rms(c)
DAV:   1    -0.645939088270E+03    0.19986E-02   -0.23537E-01  9128   0.146E+00    0.135E-01
RMM:   2    -0.645941062543E+03   -0.19743E-02   -0.24696E-02 13464   0.433E-01    0.822E-02
RMM:   3    -0.645941464264E+03   -0.40172E-03   -0.50087E-03 14299   0.176E-01    0.738E-02
RMM:   4    -0.645941430079E+03    0.34185E-04   -0.82360E-04 13818   0.747E-02    0.355E-02
RMM:   5    -0.645941445053E+03   -0.14974E-04   -0.46727E-04 12289   0.432E-02    0.267E-02
RMM:   6    -0.645941444877E+03    0.17543E-06   -0.23103E-04 11828   0.350E-02    0.904E-03
RMM:   7    -0.645941458603E+03   -0.13725E-04   -0.18293E-04 10675   0.251E-02    0.520E-03
RMM:   8    -0.645941467982E+03   -0.93792E-05   -0.11676E-04 10570   0.201E-02    0.409E-03
RMM:   9    -0.645941472716E+03   -0.47338E-05   -0.68190E-05  9452   0.164E-02
  17 F= -.64594147E+03 E0= -.64587989E+03  d E =-.385755E-03
       N       E                     dE             d eps       ncg     rms          rms(c)
DAV:   1    -0.645941480878E+03   -0.12896E-04   -0.55761E-04 11172   0.644E-02    0.724E-03
RMM:   2    -0.645941485695E+03   -0.48171E-05   -0.61794E-05  8513   0.232E-02
  18 F= -.64594149E+03 E0= -.64587990E+03  d E =-.398734E-03
       N       E                     dE             d eps       ncg     rms          rms(c)
DAV:   1    -0.645941486720E+03   -0.58425E-05   -0.24304E-04 10752   0.475E-02    0.418E-03
RMM:   2    -0.645941488985E+03   -0.22650E-05   -0.24306E-05  6321   0.128E-02
  19 F= -.64594149E+03 E0= -.64587991E+03  d E =-.402024E-03
       N       E                     dE             d eps       ncg     rms          rms(c)
DAV:   1    -0.645941193021E+03    0.29370E-03   -0.96379E-02  9772   0.924E-01    0.138E-01
RMM:   2    -0.645941681095E+03   -0.48807E-03   -0.99628E-03 13391   0.306E-01    0.977E-02
RMM:   3    -0.645941700961E+03   -0.19866E-04   -0.22834E-03 14358   0.132E-01    0.705E-02
RMM:   4    -0.645941646751E+03    0.54210E-04   -0.57926E-04 13501   0.645E-02    0.310E-02
RMM:   5    -0.645941658494E+03   -0.11743E-04   -0.31380E-04 12713   0.368E-02    0.230E-02
RMM:   6    -0.645941662264E+03   -0.37700E-05   -0.13701E-04 11379   0.282E-02    0.834E-03
RMM:   7    -0.645941671641E+03   -0.93777E-05   -0.96391E-05  9969   0.198E-02
  20 F= -.64594167E+03 E0= -.64588025E+03  d E =-.182656E-03
       N       E                     dE             d eps       ncg     rms          rms(c)
DAV:   1    -0.645941682903E+03   -0.20640E-04   -0.15771E-03 10416   0.118E-01    0.177E-02
RMM:   2    -0.645941693334E+03   -0.10431E-04   -0.17884E-04 11719   0.399E-02    0.129E-02
RMM:   3    -0.645941692217E+03    0.11170E-05   -0.34966E-05  7497   0.195E-02
  21 F= -.64594169E+03 E0= -.64588025E+03  d E =-.203232E-03
       N       E                     dE             d eps       ncg     rms          rms(c)
DAV:   1    -0.645941404465E+03    0.28887E-03   -0.42339E-02  9632   0.577E-01    0.431E-02
RMM:   2    -0.645941756904E+03   -0.35244E-03   -0.40582E-03 13439   0.172E-01    0.236E-02
RMM:   3    -0.645941823576E+03   -0.66671E-04   -0.73356E-04 13509   0.635E-02    0.221E-02
RMM:   4    -0.645941826295E+03   -0.27193E-05   -0.13283E-04 11588   0.278E-02    0.130E-02
RMM:   5    -0.645941829367E+03   -0.30720E-05   -0.77664E-05  9507   0.181E-02
  22 F= -.64594183E+03 E0= -.64588046E+03  d E =-.137150E-03
       N       E                     dE             d eps       ncg     rms          rms(c)
DAV:   1    -0.645941788324E+03    0.37971E-04   -0.76517E-03  9800   0.240E-01    0.198E-02
RMM:   2    -0.645941855012E+03   -0.66688E-04   -0.77865E-04 13082   0.747E-02    0.127E-02
RMM:   3    -0.645941869377E+03   -0.14365E-04   -0.17815E-04 11697   0.296E-02    0.965E-03
RMM:   4    -0.647966709539E+03   -0.20248E+01   -0.20248E+01  9111   0.183E-02    0.709E-01
RMM:   5    -0.645446443202E+03    0.25203E+01   -0.36713E-05  8707   0.196E-02    0.112E-01
RMM:   6    -0.645446182616E+03    0.26059E-03   -0.24714E-05  7679   0.186E-02    0.110E-01
RMM:   7    -0.645446181760E+03    0.85583E-06   -0.14055E-05  6052   0.113E-02
  23 F= -.64544618E+03 E0= -.64538419E+03  d E =0.495510E+00
       N       E                     dE             d eps       ncg     rms          rms(c)
DAV:   1    -0.645445990886E+03    0.19173E-03   -0.30991E-02  9632   0.494E-01    0.118E-01
RMM:   2    -0.645445906937E+03    0.83949E-04   -0.46611E-03 13192   0.169E-01    0.772E-02
RMM:   3    -0.645445894671E+03    0.12266E-04   -0.11184E-03 13500   0.837E-02    0.518E-02
RMM:   4    -0.645445877503E+03    0.17168E-04   -0.34965E-04 12287   0.429E-02    0.306E-02
RMM:   5    -0.645445875788E+03    0.17150E-05   -0.15956E-04 11095   0.259E-02    0.207E-02
RMM:   6    -0.645445873365E+03    0.24230E-05   -0.84910E-05 10688   0.195E-02
  24 F= -.64544587E+03 E0= -.64538399E+03  d E =0.495819E+00
       N       E                     dE             d eps       ncg     rms          rms(c)
DAV:   1    -0.645445928973E+03   -0.53184E-04   -0.12796E-02  9800   0.331E-01    0.406E-02
RMM:   2    -0.645446021940E+03   -0.92968E-04   -0.13686E-03 13485   0.109E-01    0.297E-02
RMM:   3    -0.645446034490E+03   -0.12549E-04   -0.31618E-04 13072   0.470E-02    0.209E-02
RMM:   4    -0.645446033675E+03    0.81510E-06   -0.96047E-05 11188   0.254E-02
  25 F= -.64544603E+03 E0= -.64538419E+03  d E =-.160309E-03
       N       E                     dE             d eps       ncg     rms          rms(c)
DAV:   1    -0.645903715093E+03   -0.45768E+00   -0.55226E-02  9716   0.685E-01    0.125E-01
RMM:   2    -0.645925946944E+03   -0.22232E-01   -0.22581E-01 13568   0.251E-01    0.111E-01
RMM:   3    -0.645934833048E+03   -0.88861E-02   -0.92224E-02 14103   0.117E-01    0.637E-02
RMM:   4    -0.645937567881E+03   -0.27348E-02   -0.28525E-02 12969   0.587E-02    0.361E-02
RMM:   5    -0.645939367696E+03   -0.17998E-02   -0.18490E-02 11812   0.358E-02    0.249E-02
RMM:   6    -0.645940154415E+03   -0.78672E-03   -0.83382E-03 11219   0.288E-02    0.103E-02
RMM:   7    -0.645940697628E+03   -0.54321E-03   -0.56932E-03  9215   0.209E-02    0.498E-03
RMM:   8    -0.645941004473E+03   -0.30684E-03   -0.32873E-03  9659   0.190E-02    0.383E-03
RMM:   9    -0.645941209026E+03   -0.20455E-03   -0.22135E-03  6912   0.153E-02    0.262E-03
RMM:  10    -0.645941343370E+03   -0.13434E-03   -0.14875E-03  8503   0.138E-02    0.171E-03
RMM:  11    -0.645941435012E+03   -0.91642E-04   -0.10248E-03  7447   0.135E-02    0.102E-03
RMM:  12    -0.645941496368E+03   -0.61356E-04   -0.70223E-04  7299   0.129E-02    0.815E-04
RMM:  13    -0.645941543543E+03   -0.47175E-04   -0.54132E-04  6656   0.119E-02    0.670E-04
RMM:  14    -0.645941579408E+03   -0.35865E-04   -0.42049E-04  6918   0.114E-02    0.429E-04
RMM:  15    -0.645941610189E+03   -0.30781E-04   -0.36149E-04  6478   0.114E-02    0.304E-04
RMM:  16    -0.645941635584E+03   -0.25395E-04   -0.30340E-04  6308   0.110E-02    0.289E-04
RMM:  17    -0.645941658108E+03   -0.22524E-04   -0.26821E-04  5811   0.105E-02    0.263E-04
RMM:  18    -0.645941677442E+03   -0.19334E-04   -0.23256E-04  5669   0.948E-03    0.225E-04
RMM:  19    -0.645941694310E+03   -0.16868E-04   -0.20419E-04  5541   0.989E-03    0.211E-04
RMM:  20    -0.645941709119E+03   -0.14809E-04   -0.17941E-04  5355   0.890E-03    0.198E-04
RMM:  21    -0.645941721691E+03   -0.12571E-04   -0.15453E-04  5296   0.926E-03    0.183E-04
RMM:  22    -0.645941733134E+03   -0.11443E-04   -0.14057E-04  5174   0.850E-03    0.138E-04
RMM:  23    -0.645941742460E+03   -0.93258E-05   -0.11731E-04  5074   0.862E-03    0.108E-04
RMM:  24    -0.645941751137E+03   -0.86777E-05   -0.10798E-04  4921   0.777E-03    0.907E-05
RMM:  25    -0.645941758347E+03   -0.72098E-05   -0.91430E-05  5028   0.803E-03
  26 F= -.64594176E+03 E0= -.64588063E+03  d E =-.495885E+00
       N       E                     dE             d eps       ncg     rms          rms(c)
DAV:   1    -0.645941780228E+03   -0.29091E-04   -0.13527E-02  9800   0.335E-01    0.407E-02
RMM:   2    -0.645941872572E+03   -0.92344E-04   -0.13790E-03 13299   0.108E-01    0.278E-02
RMM:   3    -0.645941883471E+03   -0.10899E-04   -0.28361E-04 12450   0.458E-02    0.215E-02
RMM:   4    -0.645941880413E+03    0.30579E-05   -0.64156E-05  9182   0.230E-02
  27 F= -.64594188E+03 E0= -.64588070E+03  d E =-.496007E+00
       N       E                     dE             d eps       ncg     rms          rms(c)
DAV:   1    -0.645941876393E+03    0.70782E-05   -0.35369E-03  9800   0.172E-01    0.245E-02
RMM:   2    -0.645941904839E+03   -0.28446E-04   -0.38627E-04 12902   0.580E-02    0.202E-02
RMM:   3    -0.645941904832E+03    0.68248E-08   -0.90175E-05 11025   0.260E-02
  28 F= -.64594190E+03 E0= -.64588071E+03  d E =-.496031E+00
       N       E                     dE             d eps       ncg     rms          rms(c)
DAV:   1    -0.645941897237E+03    0.76016E-05   -0.20533E-03  9856   0.130E-01    0.193E-02
RMM:   2    -0.645941913987E+03   -0.16750E-04   -0.24281E-04 12600   0.441E-02    0.135E-02
RMM:   3    -0.645941915887E+03   -0.19002E-05   -0.58474E-05 10462   0.209E-02
  29 F= -.64594192E+03 E0= -.64588070E+03  d E =-.496043E+00
       N       E                     dE             d eps       ncg     rms          rms(c)
DAV:   1    -0.645941912801E+03    0.11857E-05   -0.46469E-03  9688   0.190E-01    0.146E-02
RMM:   2    -0.645941952664E+03   -0.39864E-04   -0.45001E-04 12477   0.568E-02    0.689E-03
RMM:   3    -0.645941956760E+03   -0.40956E-05   -0.59505E-05  7791   0.220E-02
  30 F= -.64594196E+03 E0= -.64588078E+03  d E =-.408732E-04
       N       E                     dE             d eps       ncg     rms          rms(c)
DAV:   1    -0.645941958135E+03   -0.54708E-05   -0.11608E-03  9800   0.933E-02    0.760E-03
RMM:   2    -0.645941970679E+03   -0.12544E-04   -0.13105E-04 11134   0.301E-02    0.490E-03
RMM:   3    -0.645941971490E+03   -0.81072E-06   -0.19227E-05  5828   0.141E-02
  31 F= -.64594197E+03 E0= -.64588081E+03  d E =-.556030E-04
       N       E                     dE             d eps       ncg     rms          rms(c)
DAV:   1    -0.645941950224E+03    0.20455E-04   -0.44534E-03  9632   0.183E-01    0.135E-02
RMM:   2    -0.645941991419E+03   -0.41195E-04   -0.45014E-04 12758   0.576E-02    0.815E-03
RMM:   3    -0.645941996989E+03   -0.55699E-05   -0.73121E-05 10356   0.222E-02
  32 F= -.64594200E+03 E0= -.64588087E+03  d E =-.811021E-04
       N       E                     dE             d eps       ncg     rms          rms(c)
DAV:   1    -0.645942037780E+03   -0.46361E-04   -0.10506E-03 10976   0.106E-01    0.191E-02
RMM:   2    -0.645942042636E+03   -0.48558E-05   -0.13579E-04 11881   0.359E-02    0.140E-02
RMM:   3    -0.645942040262E+03    0.23738E-05   -0.30280E-05  6752   0.175E-02
  33 F= -.64594204E+03 E0= -.64588091E+03  d E =-.432730E-04
       N       E                     dE             d eps       ncg     rms          rms(c)
DAV:   1    -0.645942088952E+03   -0.46316E-04   -0.92199E-03 10892   0.313E-01    0.559E-02
RMM:   2    -0.645942126739E+03   -0.37788E-04   -0.11335E-03 13329   0.106E-01    0.412E-02
RMM:   3    -0.645942112111E+03    0.14628E-04   -0.26560E-04 13687   0.464E-02    0.278E-02
RMM:   4    -0.645942103779E+03    0.83319E-05   -0.81653E-05 11573   0.267E-02
  34 F= -.64594210E+03 E0= -.64588097E+03  d E =-.106790E-03
       N       E                     dE             d eps       ncg     rms          rms(c)
DAV:   1    -0.645942103849E+03    0.82618E-05   -0.14883E-03 11060   0.125E-01    0.254E-02
RMM:   2    -0.645942118292E+03   -0.14443E-04   -0.20722E-04 12768   0.447E-02    0.237E-02
RMM:   3    -0.645942110513E+03    0.77783E-05   -0.55648E-05 11058   0.214E-02
  35 F= -.64594211E+03 E0= -.64588097E+03  d E =-.113524E-03
       N       E                     dE             d eps       ncg     rms          rms(c)
DAV:   1    -0.645942135177E+03   -0.16886E-04   -0.12289E-03  9800   0.106E-01    0.101E-02
RMM:   2    -0.645942147575E+03   -0.12398E-04   -0.14122E-04 12723   0.344E-02    0.685E-03
RMM:   3    -0.645942150929E+03   -0.33535E-05   -0.40321E-05  8311   0.164E-02
  36 F= -.64594215E+03 E0= -.64588101E+03  d E =-.404154E-04
       N       E                     dE             d eps       ncg     rms          rms(c)
DAV:   1    -0.645942133620E+03    0.13955E-04   -0.10509E-02  9576   0.308E-01    0.334E-02
RMM:   2    -0.645942216466E+03   -0.82846E-04   -0.11329E-03 13370   0.979E-02    0.219E-02
RMM:   3    -0.645942232174E+03   -0.15707E-04   -0.25964E-04 13289   0.420E-02    0.187E-02
RMM:   4    -0.645942229631E+03    0.25432E-05   -0.60350E-05 10861   0.222E-02
  37 F= -.64594223E+03 E0= -.64588109E+03  d E =-.119117E-03
       N       E                     dE             d eps       ncg     rms          rms(c)
DAV:   1    -0.645941874586E+03    0.35759E-03   -0.41746E-02  9296   0.616E-01    0.673E-02
RMM:   2    -0.645942205032E+03   -0.33045E-03   -0.44579E-03 13385   0.196E-01    0.468E-02
RMM:   3    -0.645942260708E+03   -0.55675E-04   -0.10008E-03 14147   0.845E-02    0.366E-02
RMM:   4    -0.645942251866E+03    0.88415E-05   -0.22727E-04 12581   0.383E-02    0.181E-02
RMM:   5    -0.645942257293E+03   -0.54269E-05   -0.14914E-04 10835   0.251E-02    0.138E-02
RMM:   6    -0.645942257110E+03    0.18284E-06   -0.72943E-05 10226   0.205E-02
  38 F= -.64594226E+03 E0= -.64588111E+03  d E =-.146597E-03
       N       E                     dE             d eps       ncg     rms          rms(c)
DAV:   1    -0.645942176837E+03    0.80456E-04   -0.11130E-02  9576   0.319E-01    0.337E-02
RMM:   2    -0.645942262402E+03   -0.85565E-04   -0.11781E-03 13053   0.997E-02    0.214E-02
RMM:   3    -0.645942272672E+03   -0.10271E-04   -0.22932E-04 11955   0.430E-02    0.182E-02
RMM:   4    -0.645942268387E+03    0.42851E-05   -0.35545E-05  6308   0.190E-02
  39 F= -.64594227E+03 E0= -.64588113E+03  d E =-.157874E-03
       N       E                     dE             d eps       ncg     rms          rms(c)
DAV:   1    -0.645942248491E+03    0.24181E-04   -0.27939E-03  9744   0.162E-01    0.165E-02
RMM:   2    -0.645942271728E+03   -0.23237E-04   -0.30294E-04 12999   0.497E-02    0.116E-02
RMM:   3    -0.645942273511E+03   -0.17832E-05   -0.56180E-05  9664   0.218E-02
  40 F= -.64594227E+03 E0= -.64588113E+03  d E =-.162998E-03
       N       E                     dE             d eps       ncg     rms          rms(c)
DAV:   1    -0.645942268238E+03    0.34900E-05   -0.48768E-04 10584   0.700E-02    0.660E-03
RMM:   2    -0.645942271999E+03   -0.37612E-05   -0.51216E-05  7444   0.209E-02
  41 F= -.64594227E+03 E0= -.64588113E+03  d E =-.161486E-03
       N       E                     dE             d eps       ncg     rms          rms(c)
DAV:   1    -0.645942272089E+03   -0.38511E-05   -0.17413E-04 10304   0.421E-02    0.345E-03
RMM:   2    -0.645942273146E+03   -0.10568E-05   -0.14410E-05  5387   0.105E-02
  42 F= -.64594227E+03 E0= -.64588113E+03  d E =-.162632E-03
       N       E                     dE             d eps       ncg     rms          rms(c)
DAV:   1    -0.645942275445E+03   -0.33559E-05   -0.25616E-03  9688   0.144E-01    0.103E-02
RMM:   2    -0.645942299540E+03   -0.24095E-04   -0.26588E-04 12475   0.445E-02    0.627E-03
RMM:   3    -0.645942302285E+03   -0.27458E-05   -0.43243E-05  7888   0.185E-02
  43 F= -.64594230E+03 E0= -.64588118E+03  d E =-.291396E-04
       N       E                     dE             d eps       ncg     rms          rms(c)
DAV:   1    -0.645942209997E+03    0.89543E-04   -0.14061E-02  9240   0.336E-01    0.249E-02
RMM:   2    -0.645942333832E+03   -0.12383E-03   -0.13787E-03 13345   0.103E-01    0.156E-02
RMM:   3    -0.645942355907E+03   -0.22075E-04   -0.25934E-04 12721   0.386E-02    0.142E-02
RMM:   4    -0.645942357836E+03   -0.19297E-05   -0.53191E-05  9992   0.198E-02
  44 F= -.64594236E+03 E0= -.64588126E+03  d E =-.846905E-04
       N       E                     dE             d eps       ncg     rms          rms(c)
DAV:   1    -0.645941846080E+03    0.50983E-03   -0.55682E-02  9016   0.669E-01    0.507E-02
RMM:   2    -0.645942324943E+03   -0.47886E-03   -0.53509E-03 13447   0.204E-01    0.345E-02
RMM:   3    -0.645942412304E+03   -0.87361E-04   -0.10506E-03 13934   0.785E-02    0.286E-02
RMM:   4    -0.645942418578E+03   -0.62743E-05   -0.20457E-04 12010   0.343E-02    0.160E-02
RMM:   5    -0.645942425452E+03   -0.68739E-05   -0.12214E-04 10454   0.224E-02    0.113E-02
RMM:   6    -0.645942429658E+03   -0.42059E-05   -0.66169E-05 10144   0.190E-02
  45 F= -.64594243E+03 E0= -.64588141E+03  d E =-.156512E-03
       N       E                     dE             d eps       ncg     rms          rms(c)
DAV:   1    -0.645942434526E+03   -0.90736E-05   -0.90786E-03  9464   0.258E-01    0.240E-02
RMM:   2    -0.645942493852E+03   -0.59327E-04   -0.74459E-04 13286   0.782E-02    0.151E-02
RMM:   3    -0.645942508469E+03   -0.14616E-04   -0.18655E-04 12253   0.323E-02    0.132E-02
RMM:   4    -0.645942510055E+03   -0.15868E-05   -0.56818E-05  9701   0.192E-02
  46 F= -.64594251E+03 E0= -.64588153E+03  d E =-.803974E-04
