<?xml version="1.0" encoding="ISO-8859-1"?>
<modeling>
 <generator>
  <i name="program" type="string">vasp </i>
  <i name="version" type="string">6.4.3  </i>
  <i name="subversion" type="string">19Mar24 (build Sep 18 2024 11:30:23) complex                          parallel </i>
  <i name="platform" type="string">LinuxIFC </i>
  <i name="date" type="string">2026 07 03 </i>
  <i name="time" type="string">21:52:52 </i>
 </generator>
 <incar>
  <i type="string" name="SYSTEM">HECN</i>
  <i type="int" name="ISTART">     0</i>
  <i type="string" name="PREC">Normal</i>
  <i type="string" name="ALGO">Fast</i>
  <i type="int" name="ICHARG">     2</i>
  <i type="int" name="NELM">    60</i>
  <i type="int" name="IBRION">     2</i>
  <i name="EDIFF">      0.00001000</i>
  <i name="EDIFFG">     -0.01000000</i>
  <i type="int" name="NSW">   100</i>
  <i type="int" name="ISIF">     3</i>
  <i name="ENCUT">    400.00000000</i>
  <i name="POTIM">      0.50000000</i>
  <i type="logical" name="LREAL"> F  </i>
  <i type="int" name="ISMEAR">     0</i>
  <i name="SIGMA">      0.10000000</i>
  <i type="logical" name="LWAVE"> F  </i>
  <i type="logical" name="LCHARG"> F  </i>
 </incar>
 <primitive_cell>
  <structure name="primitive_cell" >
   <crystal>
    <varray name="basis" >
     <v>       8.88510479      -0.00125792       0.00620830 </v>
     <v>      -0.00121729       8.96213941      -0.00349247 </v>
     <v>       0.00620085      -0.00345616       8.85325145 </v>
    </varray>
    <i name="volume">    704.97994418 </i>
    <varray name="rec_basis" >
     <v>       0.11254797       0.00001526      -0.00007882 </v>
     <v>       0.00001577       0.11158052       0.00004355 </v>
     <v>      -0.00007892       0.00004401       0.11295292 </v>
    </varray>
   </crystal>
   <varray name="positions" >
    <v>       0.99700207       0.99734577       0.01157851 </v>
    <v>       0.24227823       0.99498849       0.25325437 </v>
    <v>       0.26082161       0.50654625       0.25195297 </v>
    <v>       0.50036505       0.50318573       0.00149329 </v>
    <v>       0.49118473       0.26038309       0.74945882 </v>
    <v>       0.99952785       0.50025258       0.48683316 </v>
    <v>       0.50781128       0.73892782       0.74744983 </v>
    <v>       0.99320738       0.23303252       0.26644981 </v>
    <v>       0.76158601       0.73551409       0.99942054 </v>
    <v>       0.01310775       0.27828283       0.73801297 </v>
    <v>       0.75681321       0.27835935       0.49885962 </v>
    <v>       0.98851843       0.72327652       0.73978450 </v>
    <v>       0.26709686       0.50073918       0.74786942 </v>
    <v>       0.24684945       0.25247434       0.00265785 </v>
    <v>       0.50486697       0.25605661       0.25139169 </v>
    <v>       0.75542447       0.99328700       0.25635408 </v>
    <v>       0.75076991       0.26009333       0.98991283 </v>
    <v>       0.24271088       0.74782693       0.00075626 </v>
    <v>       0.25057506       0.25343057       0.49878068 </v>
    <v>       0.24603931       0.24839479       0.25089482 </v>
    <v>       0.24502501       0.00095316       0.00637614 </v>
    <v>       0.99906785       0.24125262       0.00284635 </v>
    <v>       0.75269685       0.25254020       0.25265950 </v>
    <v>       0.75584801       0.00409184       0.00094229 </v>
    <v>       0.50175888       0.00474715       0.24943567 </v>
    <v>       0.99939008       0.48591997       0.25814826 </v>
    <v>       0.49992427       0.74641613       0.99431255 </v>
    <v>       0.99792437       0.00443857       0.75251435 </v>
    <v>       0.75191260       0.25495959       0.74276778 </v>
    <v>       0.75643596       0.01156638       0.49831504 </v>
    <v>       0.50642528       0.25456269       0.50398542 </v>
    <v>       0.50385923       0.00067035       0.75012805 </v>
    <v>       0.00330946       0.99627981       0.25144282 </v>
    <v>       0.50090192       0.25353485       0.99705121 </v>
    <v>       0.24095791       0.74946828       0.24860462 </v>
    <v>       0.25526740       0.49962045       0.00207889 </v>
    <v>       0.99420385       0.75584333       0.00149457 </v>
    <v>       0.76025882       0.74035024       0.25185098 </v>
    <v>       0.74329270       0.50471769       0.99984958 </v>
    <v>       0.50253458       0.49968211       0.25234721 </v>
    <v>       0.25067206       0.25516761       0.74997745 </v>
    <v>       0.24153515       0.00289460       0.49341770 </v>
    <v>       0.99713376       0.24852408       0.50423304 </v>
    <v>       0.24830267       0.74247209       0.75191076 </v>
    <v>       0.25329820       0.49845491       0.49915908 </v>
    <v>       0.98820344       0.75262976       0.49689813 </v>
    <v>       0.99748492       0.50085874       0.74181735 </v>
    <v>       0.74703529       0.73986579       0.74804798 </v>
    <v>       0.75013708       0.50370428       0.49954815 </v>
    <v>       0.50796396       0.74008724       0.50681891 </v>
    <v>       0.50291212       0.49979532       0.74816636 </v>
    <v>       0.50137784       0.00077049       0.99650498 </v>
    <v>       0.99836976       0.50143313       0.01248985 </v>
    <v>       0.50247987       0.74598934       0.25102745 </v>
    <v>       0.23872659       0.99675081       0.74900702 </v>
    <v>       0.49881093       0.99331727       0.50306696 </v>
    <v>       0.76148914       0.99200877       0.74198515 </v>
    <v>       0.24434179       0.74616551       0.50044043 </v>
    <v>       0.99835805       0.77226832       0.26214585 </v>
    <v>       0.73386002       0.51043081       0.24710820 </v>
    <v>       0.00698794       0.99757116       0.48272237 </v>
    <v>       0.50115218       0.50744920       0.49866553 </v>
    <v>       0.72896557       0.50807640       0.75301029 </v>
    <v>       0.75285078       0.71930181       0.50151432 </v>
   </varray>
  </structure>
  <varray name="primitive_index" >
   <v type="int" >        1 </v>
   <v type="int" >        2 </v>
   <v type="int" >        3 </v>
   <v type="int" >        4 </v>
   <v type="int" >        5 </v>
   <v type="int" >        6 </v>
   <v type="int" >        7 </v>
   <v type="int" >        8 </v>
   <v type="int" >        9 </v>
   <v type="int" >       10 </v>
   <v type="int" >       11 </v>
   <v type="int" >       12 </v>
   <v type="int" >       13 </v>
   <v type="int" >       14 </v>
   <v type="int" >       15 </v>
   <v type="int" >       16 </v>
   <v type="int" >       17 </v>
   <v type="int" >       18 </v>
   <v type="int" >       19 </v>
   <v type="int" >       20 </v>
   <v type="int" >       21 </v>
   <v type="int" >       22 </v>
   <v type="int" >       23 </v>
   <v type="int" >       24 </v>
   <v type="int" >       25 </v>
   <v type="int" >       26 </v>
   <v type="int" >       27 </v>
   <v type="int" >       28 </v>
   <v type="int" >       29 </v>
   <v type="int" >       30 </v>
   <v type="int" >       31 </v>
   <v type="int" >       32 </v>
   <v type="int" >       33 </v>
   <v type="int" >       34 </v>
   <v type="int" >       35 </v>
   <v type="int" >       36 </v>
   <v type="int" >       37 </v>
   <v type="int" >       38 </v>
   <v type="int" >       39 </v>
   <v type="int" >       40 </v>
   <v type="int" >       41 </v>
   <v type="int" >       42 </v>
   <v type="int" >       43 </v>
   <v type="int" >       44 </v>
   <v type="int" >       45 </v>
   <v type="int" >       46 </v>
   <v type="int" >       47 </v>
   <v type="int" >       48 </v>
   <v type="int" >       49 </v>
   <v type="int" >       50 </v>
   <v type="int" >       51 </v>
   <v type="int" >       52 </v>
   <v type="int" >       53 </v>
   <v type="int" >       54 </v>
   <v type="int" >       55 </v>
   <v type="int" >       56 </v>
   <v type="int" >       57 </v>
   <v type="int" >       58 </v>
   <v type="int" >       59 </v>
   <v type="int" >       60 </v>
   <v type="int" >       61 </v>
   <v type="int" >       62 </v>
   <v type="int" >       63 </v>
   <v type="int" >       64 </v>
  </varray>
 </primitive_cell>
 <kpoints>
  <generation param="Gamma">
   <v type="int" name="divisions">       3        3        3 </v>
   <v name="usershift">      0.00000000       0.00000000       0.00000000 </v>
   <v name="genvec1">      0.33333333       0.00000000       0.00000000 </v>
   <v name="genvec2">      0.00000000       0.33333333       0.00000000 </v>
   <v name="genvec3">      0.00000000       0.00000000       0.33333333 </v>
   <v name="shift">      0.00000000       0.00000000       0.00000000 </v>
  </generation>
  <varray name="kpointlist" >
   <v>       0.00000000       0.00000000       0.00000000 </v>
   <v>       0.33333333       0.00000000      -0.00000000 </v>
   <v>      -0.00000000       0.33333333       0.00000000 </v>
   <v>       0.33333333       0.33333333       0.00000000 </v>
   <v>      -0.33333333       0.33333333       0.00000000 </v>
   <v>       0.00000000       0.00000000       0.33333333 </v>
   <v>       0.33333333       0.00000000       0.33333333 </v>
   <v>      -0.33333333      -0.00000000       0.33333333 </v>
   <v>       0.00000000       0.33333333       0.33333333 </v>
   <v>       0.33333333       0.33333333       0.33333333 </v>
   <v>      -0.33333333       0.33333333       0.33333333 </v>
   <v>      -0.00000000      -0.33333333       0.33333333 </v>
   <v>       0.33333333      -0.33333333       0.33333333 </v>
   <v>      -0.33333333      -0.33333333       0.33333333 </v>
  </varray>
  <varray name="weights" >
   <v>       0.03703704 </v>
   <v>       0.07407407 </v>
   <v>       0.07407407 </v>
   <v>       0.07407407 </v>
   <v>       0.07407407 </v>
   <v>       0.07407407 </v>
   <v>       0.07407407 </v>
   <v>       0.07407407 </v>
   <v>       0.07407407 </v>
   <v>       0.07407407 </v>
   <v>       0.07407407 </v>
   <v>       0.07407407 </v>
   <v>       0.07407407 </v>
   <v>       0.07407407 </v>
  </varray>
 </kpoints>
 <parameters>
  <separator name="general" >
   <i type="string" name="SYSTEM">HECN</i>
   <i type="logical" name="LCOMPAT"> F  </i>
  </separator>
  <separator name="electronic" >
   <i type="string" name="PREC">normal</i>
   <i name="ENMAX">    400.00000000</i>
   <i name="ENAUG">    644.87300000</i>
   <i name="EDIFF">      0.00001000</i>
   <i type="int" name="IALGO">    68</i>
   <i type="int" name="IWAVPR">    11</i>
   <i type="int" name="NBANDS">   336</i>
   <i type="int" name="NBANDSLOW">    -1</i>
   <i type="int" name="NBANDSHIGH">    -1</i>
   <i name="NELECT">    519.00000000</i>
   <i type="int" name="TURBO">     0</i>
   <i type="int" name="IRESTART">     0</i>
   <i type="int" name="NREBOOT">     0</i>
   <i type="int" name="NMIN">     0</i>
   <i name="EREF">      0.00000000</i>
   <separator name="electronic smearing" >
    <i type="int" name="ISMEAR">     0</i>
    <i name="SIGMA">      0.10000000</i>
    <i name="KSPACING">      0.50000000</i>
    <i type="logical" name="KGAMMA"> T  </i>
    <i type="logical" name="KBLOWUP"> T  </i>
   </separator>
   <separator name="electronic projectors" >
    <i type="logical" name="LREAL"> F  </i>
    <v name="ROPT">      0.00000000      0.00000000      0.00000000      0.00000000      0.00000000      0.00000000      0.00000000</v>
    <i type="int" name="LMAXPAW">  -100</i>
    <i type="int" name="LMAXMIX">     2</i>
    <i type="logical" name="NLSPLINE"> F  </i>
   </separator>
   <separator name="electronic startup" >
    <i type="int" name="ISTART">     0</i>
    <i type="int" name="ICHARG">     2</i>
    <i type="int" name="INIWAV">     1</i>
   </separator>
   <separator name="electronic spin" >
    <i type="int" name="ISPIN">     1</i>
    <i type="logical" name="LNONCOLLINEAR"> F  </i>
    <v name="MAGMOM">      1.00000000      1.00000000      1.00000000      1.00000000      1.00000000      1.00000000      1.00000000      1.00000000      1.00000000      1.00000000      1.00000000      1.00000000      1.00000000      1.00000000      1.00000000      1.00000000      1.00000000      1.00000000      1.00000000      1.00000000
      1.00000000      1.00000000      1.00000000      1.00000000      1.00000000      1.00000000      1.00000000      1.00000000      1.00000000      1.00000000      1.00000000      1.00000000      1.00000000      1.00000000      1.00000000      1.00000000      1.00000000      1.00000000      1.00000000      1.00000000
      1.00000000      1.00000000      1.00000000      1.00000000      1.00000000      1.00000000      1.00000000      1.00000000      1.00000000      1.00000000      1.00000000      1.00000000      1.00000000      1.00000000      1.00000000      1.00000000      1.00000000      1.00000000      1.00000000      1.00000000
      1.00000000      1.00000000      1.00000000      1.00000000</v>
    <i name="NUPDOWN">     -1.00000000</i>
    <i type="logical" name="LSORBIT"> F  </i>
    <v name="SAXIS">      0.00000000      0.00000000      1.00000000</v>
    <i type="logical" name="LSPIRAL"> F  </i>
    <v name="QSPIRAL">      0.00000000      0.00000000      0.00000000</v>
    <i type="logical" name="LZEROZ"> F  </i>
   </separator>
   <separator name="electronic exchange-correlation" >
    <i type="logical" name="LASPH"> F  </i>
   </separator>
   <separator name="electronic convergence" >
    <i type="int" name="NELM">    60</i>
    <i type="int" name="NELMDL">    -5</i>
    <i type="int" name="NELMIN">     2</i>
    <i name="ENINI">    400.00000000</i>
    <separator name="electronic convergence detail" >
     <i type="logical" name="LDIAG"> T  </i>
     <i type="logical" name="LSUBROT"> F  </i>
     <i name="WEIMIN">      0.00100000</i>
     <i name="EBREAK">      0.00000001</i>
     <i name="DEPER">      0.30000000</i>
     <i type="int" name="NRMM">     4</i>
     <i name="TIME">      0.40000000</i>
    </separator>
   </separator>
   <separator name="electronic mixer" >
    <i name="AMIX">      0.40000000</i>
    <i name="BMIX">      1.00000000</i>
    <i name="AMIN">      0.10000000</i>
    <i name="AMIX_MAG">      1.60000000</i>
    <i name="BMIX_MAG">      1.00000000</i>
    <separator name="electronic mixer details" >
     <i type="int" name="IMIX">     4</i>
     <i type="logical" name="MIXFIRST"> F  </i>
     <i type="int" name="MAXMIX">   -45</i>
     <i name="WC">    100.00000000</i>
     <i type="int" name="INIMIX">     1</i>
     <i type="int" name="MIXPRE">     1</i>
     <i type="int" name="MREMOVE">     5</i>
    </separator>
   </separator>
   <separator name="electronic dipolcorrection" >
    <i type="logical" name="LDIPOL"> F  </i>
    <i type="logical" name="LMONO"> F  </i>
    <i type="int" name="IDIPOL">     0</i>
    <i name="EPSILON">      1.00000000</i>
    <v name="DIPOL">   -100.00000000   -100.00000000   -100.00000000</v>
    <i name="EFIELD">      0.00000000</i>
    <i type="logical" name="LVACPOTAV"> F  </i>
   </separator>
  </separator>
  <separator name="grids" >
   <i type="int" name="NGX">    48</i>
   <i type="int" name="NGY">    48</i>
   <i type="int" name="NGZ">    48</i>
   <i type="int" name="NGXF">    96</i>
   <i type="int" name="NGYF">    96</i>
   <i type="int" name="NGZF">    96</i>
   <i type="logical" name="ADDGRID"> F  </i>
  </separator>
  <separator name="ionic" >
   <i type="int" name="NSW">   100</i>
   <i type="int" name="IBRION">     2</i>
   <i type="int" name="MDALGO">     0</i>
   <i type="int" name="ISIF">     3</i>
   <i name="PSTRESS">      0.00000000</i>
   <i name="EDIFFG">     -0.01000000</i>
   <i type="int" name="NFREE">     1</i>
   <i name="POTIM">      0.50000000</i>
   <i name="SMASS">     -3.00000000</i>
   <i name="SCALEE">      1.00000000</i>
  </separator>
  <separator name="ionic md" >
   <i name="TEBEG">      0.00010000</i>
   <i name="TEEND">      0.00010000</i>
   <i type="int" name="NBLOCK">     1</i>
   <i type="int" name="KBLOCK">   100</i>
   <i type="int" name="NPACO">   256</i>
   <i name="APACO">     10.00000000</i>
  </separator>
  <separator name="symmetry" >
   <i type="int" name="ISYM">     2</i>
   <i name="SYMPREC">      0.00001000</i>
  </separator>
  <separator name="dos" >
   <i type="int" name="LORBIT">     0</i>
   <v name="RWIGS">     -1.00000000     -1.00000000     -1.00000000     -1.00000000     -1.00000000     -1.00000000     -1.00000000</v>
   <i type="int" name="NEDOS">   301</i>
   <i name="EMIN">     10.00000000</i>
   <i name="EMAX">    -10.00000000</i>
   <i name="EFERMI">      0.00000000</i>
  </separator>
  <separator name="writing" >
   <i type="int" name="NWRITE">     2</i>
   <i type="logical" name="LWAVE"> F  </i>
   <i type="logical" name="LDOWNSAMPLE"> F  </i>
   <i type="logical" name="LCHARG"> F  </i>
   <i type="logical" name="LPARD"> F  </i>
   <i type="logical" name="LVTOT"> F  </i>
   <i type="logical" name="LVHAR"> F  </i>
   <i type="logical" name="LELF"> F  </i>
   <i type="logical" name="LOPTICS"> F  </i>
   <v name="STM">      0.00000000      0.00000000      0.00000000      0.00000000      0.00000000      0.00000000      0.00000000</v>
  </separator>
  <separator name="performance" >
   <i type="int" name="NPAR">    28</i>
   <i type="int" name="NSIM">     4</i>
   <i type="int" name="NBLK">    -1</i>
   <i type="logical" name="LPLANE"> T  </i>
   <i type="logical" name="LSCALAPACK"> T  </i>
   <i type="logical" name="LSCAAWARE"> F  </i>
   <i type="logical" name="LSCALU"> F  </i>
   <i type="logical" name="LASYNC"> F  </i>
   <i type="logical" name="LORBITALREAL"> F  </i>
  </separator>
  <separator name="miscellaneous" >
   <i type="int" name="IDIOT">     3</i>
   <i type="int" name="PHON_NSTRUCT">    -1</i>
   <i type="logical" name="LMUSIC"> F  </i>
   <v name="POMASS">     47.88000000    183.85000000    178.49000000     14.00100000     12.01100000     91.22400000     50.94100000</v>
   <v name="DARWINR">      0.00000000      0.00000000      0.00000000      0.00000000      0.00000000      0.00000000      0.00000000</v>
   <v name="DARWINV">      1.00000000      1.00000000      1.00000000      1.00000000      1.00000000      1.00000000      1.00000000</v>
   <i type="logical" name="LCORR"> T  </i>
  </separator>
  <i type="logical" name="GGA_COMPAT"> T  </i>
  <i type="logical" name="LBERRY"> F  </i>
  <i type="int" name="ICORELEVEL">     0</i>
  <i type="logical" name="LDAU"> F  </i>
  <i type="int" name="I_CONSTRAINED_M">     0</i>
  <separator name="electronic exchange-correlation" >
   <i type="string" name="GGA    ">PE</i>
   <i type="string" name="XC_C">1</i>
   <i type="int" name="VOSKOWN">     0</i>
   <i type="logical" name="LHFCALC"> F  </i>
   <i type="string" name="PRECFOCK"></i>
   <i type="logical" name="LSYMGRAD"> F  </i>
   <i type="logical" name="LHFONE"> F  </i>
   <i type="logical" name="LRHFCALC"> F  </i>
   <i type="logical" name="LTHOMAS"> F  </i>
   <i type="logical" name="LMODELHF"> F  </i>
   <i type="logical" name="LFOCKACE"> F  </i>
   <i name="ENCUT4O">     -1.00000000</i>
   <i type="int" name="EXXOEP">     0</i>
   <i type="int" name="FOURORBIT">     0</i>
   <i name="AEXX">      0.00000000</i>
   <i name="HFALPHA">      0.00000000</i>
   <i name="MCALPHA">      0.00000000</i>
   <i name="ALDAX">      1.00000000</i>
   <i name="AGGAX">      1.00000000</i>
   <i name="AMGGAX">      1.00000000</i>
   <i name="ALDAC">      1.00000000</i>
   <i name="AGGAC">      1.00000000</i>
   <i name="AMGGAC">      1.00000000</i>
   <i type="int" name="NKREDX">     1</i>
   <i type="int" name="NKREDY">     1</i>
   <i type="int" name="NKREDZ">     1</i>
   <i type="logical" name="SHIFTRED"> F  </i>
   <i type="logical" name="ODDONLY"> F  </i>
   <i type="logical" name="EVENONLY"> F  </i>
   <i type="int" name="LMAXFOCK">     0</i>
   <i type="int" name="NMAXFOCKAE">     0</i>
   <i type="logical" name="LFOCKAEDFT"> F  </i>
   <i name="HFSCREEN">      0.00000000</i>
   <i name="HFSCREENC">      0.00000000</i>
   <i type="int" name="NBANDSGWLOW">     0</i>
  </separator>
  <separator name="vdW DFT" >
   <i type="logical" name="LUSE_VDW"> F  </i>
   <i type="int" name="IVDW_NL">    -1</i>
   <i type="logical" name="LSPIN_VDW"> F  </i>
   <i name="ZAB_VDW">     -0.84910000</i>
   <i name="GAMMA_VDW">      1.39626340</i>
   <i name="ALPHA_VDW">      0.00000000</i>
   <i name="PARAM1">      0.12340000</i>
   <i name="PARAM2">      1.00000000</i>
   <i name="BPARAM">      6.30000000</i>
   <i name="CPARAM">      0.00930000</i>
  </separator>
  <separator name="model GW" >
   <i type="int" name="MODEL_GW">     0</i>
   <i name="MODEL_EPS0">      6.60918698</i>
   <i name="MODEL_ALPHA">      1.00000000</i>
  </separator>
  <separator name="linear response parameters" >
   <i type="logical" name="LEPSILON"> F  </i>
   <i type="logical" name="LRPA"> F  </i>
   <i type="logical" name="LNABLA"> F  </i>
   <i type="logical" name="LVEL"> F  </i>
   <i name="CSHIFT">      0.10000000</i>
   <i name="OMEGAMAX">     -1.00000000</i>
   <i name="DEG_THRESHOLD">      0.00200000</i>
   <i name="RTIME">     -0.10000000</i>
   <i name="WPLASMAI">      0.00000000</i>
   <v name="DFIELD">      0.00000000      0.00000000      0.00000000</v>
   <v name="WPLASMA">      0.00000000      0.00000000      0.00000000      0.00000000      0.00000000      0.00000000      0.00000000      0.00000000      0.00000000</v>
  </separator>
  <separator name="orbital magnetization" >
   <i type="logical" name="NUCIND"> F  </i>
   <v name="MAGPOS">      0.00000000      0.00000000      0.00000000</v>
   <i type="logical" name="LNICSALL"> T  </i>
   <i type="logical" name="ORBITALMAG"> F  </i>
   <i type="logical" name="LMAGBLOCH"> F  </i>
   <i type="logical" name="LCHIMAG"> F  </i>
   <i type="logical" name="LGAUGE"> T  </i>
   <i type="int" name="MAGATOM">     0</i>
   <v name="MAGDIPOL">      0.00000000      0.00000000      0.00000000</v>
   <v name="AVECCONST">      0.00000000      0.00000000      0.00000000</v>
  </separator>
  <separator name="response functions" >
   <i type="logical" name="LALL_IN_ONE"> F  </i>
   <i type="int" name="IALL_IN_ONE">    -1</i>
   <i type="int" name="NBANDS_WAVE">    -1</i>
   <i type="logical" name="LFINITE_TEMPERATURE"> F  </i>
   <i type="logical" name="LADDER"> F  </i>
   <i type="logical" name="LRPAFORCE"> F  </i>
   <i type="logical" name="LFXC"> F  </i>
   <i type="logical" name="LHARTREE"> T  </i>
   <i type="int" name="IBSE">     0</i>
   <v type="int" name="KPOINT">    -1     0     0     0</v>
   <i type="logical" name="LTCTC"> F  </i>
   <i type="logical" name="LTCTE"> F  </i>
   <i type="logical" name="LTETE"> F  </i>
   <i type="logical" name="LTRIPLET"> F  </i>
   <i type="logical" name="LFXCEPS"> F  </i>
   <i type="logical" name="LFXHEG"> F  </i>
   <i type="int" name="NATURALO">     2</i>
   <i type="logical" name="LHOLEGF"> F  </i>
   <i type="logical" name="L2ORDER"> F  </i>
   <i type="logical" name="LDMP1"> F  </i>
   <i type="logical" name="LMP2LT"> F  </i>
   <i type="logical" name="LSMP2LT"> F  </i>
   <i type="logical" name="LGWLF"> F  </i>
   <i name="ENCUTGW">     -1.60000002</i>
   <i name="ENCUTGWSOFT">     -1.60000002</i>
   <i name="ENCUTLF">     -1.00000000</i>
   <i type="logical" name="ESF_SPLINES"> F  </i>
   <i name="ESF_CONV">      0.01000000</i>
   <i type="int" name="ESF_NINTER">    15</i>
   <i type="int" name="LMAXMP2">    -1</i>
   <i name="SCISSOR">      0.00000000</i>
   <i type="int" name="NOMEGA">     0</i>
   <i type="int" name="NOMEGAR">     0</i>
   <i type="int" name="NBANDSGW">    -1</i>
   <i type="int" name="NBANDSO">    -1</i>
   <i type="int" name="NBANDSV">    -1</i>
   <i type="int" name="NELMGW">     1</i>
   <i type="int" name="NELMHF">     1</i>
   <i type="int" name="DIM">     3</i>
   <i type="int" name="IESPILON">     4</i>
   <i type="int" name="ANTIRES">     0</i>
   <i name="OMEGAMAX">    -30.00000000</i>
   <i name="OMEGAMIN">    -30.00000000</i>
   <i name="OMEGATL">   -200.00000000</i>
   <i type="int" name="OMEGAGRID">     0</i>
   <i name="CSHIFT">     -0.10000000</i>
   <i type="logical" name="LSELFENERGY"> F  </i>
   <i type="logical" name="LSPECTRAL"> F  </i>
   <i type="logical" name="LSPECTRALGW"> F  </i>
   <i type="logical" name="LSINGLES"> F  </i>
   <i type="logical" name="LFERMIGW"> F  </i>
   <i type="logical" name="ODDONLYGW"> F  </i>
   <i type="logical" name="EVENONLYGW"> F  </i>
   <i type="int" name="NKREDLFX">     1</i>
   <i type="int" name="NKREDLFY">     1</i>
   <i type="int" name="NKREDLFZ">     1</i>
   <i type="int" name="MAXMEM">  2800</i>
   <i type="int" name="TELESCOPE">     0</i>
   <i type="int" name="NTAUPAR">    -1</i>
   <i type="int" name="NOMEGAPAR">    -1</i>
   <i name="DAMP_NEWTON">      0.80000001</i>
   <i name="LAMBDA">      1.00000000</i>
  </separator>
  <separator name="External order field" >
   <i name="OFIELD_KAPPA">      0.00000000</i>
   <v name="OFIELD_K">      0.00000000      0.00000000      0.00000000</v>
   <i name="OFIELD_Q6_NEAR">      0.00000000</i>
   <i name="OFIELD_Q6_FAR">      0.00000000</i>
   <i name="OFIELD_A">      0.00000000</i>
  </separator>
  <separator name="optional k-points parameters" >
   <i type="int" name="KPOINTS_OPT_MODE">     1</i>
   <i type="logical" name="LKPOINTS_OPT"> F  </i>
  </separator>
  <separator name="solvation model" >
   <i type="logical" name="LSOL"> F  </i>
  </separator>
 </parameters>
 <atominfo>
  <atoms>      64 </atoms>
  <types>       7 </types>
  <array name="atoms" >
   <dimension dim="1">ion</dimension>
   <field type="string">element</field>
   <field type="int">atomtype</field>
   <set>
    <rc><c>Ti</c><c>   1</c></rc>
    <rc><c>Ti</c><c>   1</c></rc>
    <rc><c>Ti</c><c>   1</c></rc>
    <rc><c>Ti</c><c>   1</c></rc>
    <rc><c>Ti</c><c>   1</c></rc>
    <rc><c>Ti</c><c>   1</c></rc>
    <rc><c>Ti</c><c>   1</c></rc>
    <rc><c>W </c><c>   2</c></rc>
    <rc><c>W </c><c>   2</c></rc>
    <rc><c>W </c><c>   2</c></rc>
    <rc><c>W </c><c>   2</c></rc>
    <rc><c>W </c><c>   2</c></rc>
    <rc><c>W </c><c>   2</c></rc>
    <rc><c>Hf</c><c>   3</c></rc>
    <rc><c>Hf</c><c>   3</c></rc>
    <rc><c>Hf</c><c>   3</c></rc>
    <rc><c>Hf</c><c>   3</c></rc>
    <rc><c>Hf</c><c>   3</c></rc>
    <rc><c>Hf</c><c>   3</c></rc>
    <rc><c>N </c><c>   4</c></rc>
    <rc><c>N </c><c>   4</c></rc>
    <rc><c>N </c><c>   4</c></rc>
    <rc><c>N </c><c>   4</c></rc>
    <rc><c>N </c><c>   4</c></rc>
    <rc><c>N </c><c>   4</c></rc>
    <rc><c>N </c><c>   4</c></rc>
    <rc><c>N </c><c>   4</c></rc>
    <rc><c>N </c><c>   4</c></rc>
    <rc><c>N </c><c>   4</c></rc>
    <rc><c>N </c><c>   4</c></rc>
    <rc><c>N </c><c>   4</c></rc>
    <rc><c>N </c><c>   4</c></rc>
    <rc><c>C </c><c>   5</c></rc>
    <rc><c>C </c><c>   5</c></rc>
    <rc><c>C </c><c>   5</c></rc>
    <rc><c>C </c><c>   5</c></rc>
    <rc><c>C </c><c>   5</c></rc>
    <rc><c>C </c><c>   5</c></rc>
    <rc><c>C </c><c>   5</c></rc>
    <rc><c>C </c><c>   5</c></rc>
    <rc><c>C </c><c>   5</c></rc>
    <rc><c>C </c><c>   5</c></rc>
    <rc><c>C </c><c>   5</c></rc>
    <rc><c>C </c><c>   5</c></rc>
    <rc><c>C </c><c>   5</c></rc>
    <rc><c>C </c><c>   5</c></rc>
    <rc><c>C </c><c>   5</c></rc>
    <rc><c>C </c><c>   5</c></rc>
    <rc><c>C </c><c>   5</c></rc>
    <rc><c>C </c><c>   5</c></rc>
    <rc><c>C </c><c>   5</c></rc>
    <rc><c>Zr</c><c>   6</c></rc>
    <rc><c>Zr</c><c>   6</c></rc>
    <rc><c>Zr</c><c>   6</c></rc>
    <rc><c>Zr</c><c>   6</c></rc>
    <rc><c>Zr</c><c>   6</c></rc>
    <rc><c>Zr</c><c>   6</c></rc>
    <rc><c>Zr</c><c>   6</c></rc>
    <rc><c>V </c><c>   7</c></rc>
    <rc><c>V </c><c>   7</c></rc>
    <rc><c>V </c><c>   7</c></rc>
    <rc><c>V </c><c>   7</c></rc>
    <rc><c>V </c><c>   7</c></rc>
    <rc><c>V </c><c>   7</c></rc>
   </set>
  </array>
  <array name="atomtypes" >
   <dimension dim="1">type</dimension>
   <field type="int">atomspertype</field>
   <field type="string">element</field>
   <field>mass</field>
   <field>valence</field>
   <field type="string">pseudopotential</field>
   <set>
    <rc><c>   7</c><c>Ti</c><c>     47.88000000</c><c>     12.00000000</c><c> PAW_PBE Ti_sv 07Sep2000                </c></rc>
    <rc><c>   6</c><c>W </c><c>    183.85000000</c><c>     12.00000000</c><c> PAW_PBE W_pv 06Sep2000                 </c></rc>
    <rc><c>   6</c><c>Hf</c><c>    178.49000000</c><c>     10.00000000</c><c> PAW_PBE Hf_pv 06Sep2000                </c></rc>
    <rc><c>  13</c><c>N </c><c>     14.00100000</c><c>      5.00000000</c><c> PAW_PBE N 08Apr2002                    </c></rc>
    <rc><c>  19</c><c>C </c><c>     12.01100000</c><c>      4.00000000</c><c> PAW_PBE C 08Apr2002                    </c></rc>
    <rc><c>   7</c><c>Zr</c><c>     91.22400000</c><c>     12.00000000</c><c> PAW_PBE Zr_sv 07Sep2000                </c></rc>
    <rc><c>   6</c><c>V </c><c>     50.94100000</c><c>     13.00000000</c><c> PAW_PBE V_sv 07Sep2000                 </c></rc>
   </set>
  </array>
 </atominfo>
 <structure name="initialpos" >
  <crystal>
   <varray name="basis" >
    <v>       8.88510479      -0.00125792       0.00620830 </v>
    <v>      -0.00121729       8.96213941      -0.00349247 </v>
    <v>       0.00620085      -0.00345616       8.85325145 </v>
   </varray>
   <i name="volume">    704.97994418 </i>
   <varray name="rec_basis" >
    <v>       0.11254797       0.00001526      -0.00007882 </v>
    <v>       0.00001577       0.11158052       0.00004355 </v>
    <v>      -0.00007892       0.00004401       0.11295292 </v>
   </varray>
  </crystal>
  <varray name="positions" >
   <v>       0.99700207       0.99734577       0.01157851 </v>
   <v>       0.24227823       0.99498849       0.25325437 </v>
   <v>       0.26082161       0.50654625       0.25195297 </v>
   <v>       0.50036505       0.50318573       0.00149329 </v>
   <v>       0.49118473       0.26038309       0.74945882 </v>
   <v>       0.99952785       0.50025258       0.48683316 </v>
   <v>       0.50781128       0.73892782       0.74744983 </v>
   <v>       0.99320738       0.23303252       0.26644981 </v>
   <v>       0.76158601       0.73551409       0.99942054 </v>
   <v>       0.01310775       0.27828283       0.73801297 </v>
   <v>       0.75681321       0.27835935       0.49885962 </v>
   <v>       0.98851843       0.72327652       0.73978450 </v>
   <v>       0.26709686       0.50073918       0.74786942 </v>
   <v>       0.24684945       0.25247434       0.00265785 </v>
   <v>       0.50486697       0.25605661       0.25139169 </v>
   <v>       0.75542447       0.99328700       0.25635408 </v>
   <v>       0.75076991       0.26009333       0.98991283 </v>
   <v>       0.24271088       0.74782693       0.00075626 </v>
   <v>       0.25057506       0.25343057       0.49878068 </v>
   <v>       0.24603931       0.24839479       0.25089482 </v>
   <v>       0.24502501       0.00095316       0.00637614 </v>
   <v>       0.99906785       0.24125262       0.00284635 </v>
   <v>       0.75269685       0.25254020       0.25265950 </v>
   <v>       0.75584801       0.00409184       0.00094229 </v>
   <v>       0.50175888       0.00474715       0.24943567 </v>
   <v>       0.99939008       0.48591997       0.25814826 </v>
   <v>       0.49992427       0.74641613       0.99431255 </v>
   <v>       0.99792437       0.00443857       0.75251435 </v>
   <v>       0.75191260       0.25495959       0.74276778 </v>
   <v>       0.75643596       0.01156638       0.49831504 </v>
   <v>       0.50642528       0.25456269       0.50398542 </v>
   <v>       0.50385923       0.00067035       0.75012805 </v>
   <v>       0.00330946       0.99627981       0.25144282 </v>
   <v>       0.50090192       0.25353485       0.99705121 </v>
   <v>       0.24095791       0.74946828       0.24860462 </v>
   <v>       0.25526740       0.49962045       0.00207889 </v>
   <v>       0.99420385       0.75584333       0.00149457 </v>
   <v>       0.76025882       0.74035024       0.25185098 </v>
   <v>       0.74329270       0.50471769       0.99984958 </v>
   <v>       0.50253458       0.49968211       0.25234721 </v>
   <v>       0.25067206       0.25516761       0.74997745 </v>
   <v>       0.24153515       0.00289460       0.49341770 </v>
   <v>       0.99713376       0.24852408       0.50423304 </v>
   <v>       0.24830267       0.74247209       0.75191076 </v>
   <v>       0.25329820       0.49845491       0.49915908 </v>
   <v>       0.98820344       0.75262976       0.49689813 </v>
   <v>       0.99748492       0.50085874       0.74181735 </v>
   <v>       0.74703529       0.73986579       0.74804798 </v>
   <v>       0.75013708       0.50370428       0.49954815 </v>
   <v>       0.50796396       0.74008724       0.50681891 </v>
   <v>       0.50291212       0.49979532       0.74816636 </v>
   <v>       0.50137784       0.00077049       0.99650498 </v>
   <v>       0.99836976       0.50143313       0.01248985 </v>
   <v>       0.50247987       0.74598934       0.25102745 </v>
   <v>       0.23872659       0.99675081       0.74900702 </v>
   <v>       0.49881093       0.99331727       0.50306696 </v>
   <v>       0.76148914       0.99200877       0.74198515 </v>
   <v>       0.24434179       0.74616551       0.50044043 </v>
   <v>       0.99835805       0.77226832       0.26214585 </v>
   <v>       0.73386002       0.51043081       0.24710820 </v>
   <v>       0.00698794       0.99757116       0.48272237 </v>
   <v>       0.50115218       0.50744920       0.49866553 </v>
   <v>       0.72896557       0.50807640       0.75301029 </v>
   <v>       0.75285078       0.71930181       0.50151432 </v>
  </varray>
 </structure>
 <calculation>
  <scstep>
   <time name="dav">   21.14   21.38</time>
   <time name="total">   21.17   21.42</time>
   <energy>
    <i name="alphaZ">   4720.60634048 </i>
    <i name="ewald"> -43407.97675559 </i>
    <i name="hartreedc">  -9115.82077281 </i>
    <i name="XCdc">   2086.42667144 </i>
    <i name="pawpsdc">  32232.98851162 </i>
    <i name="pawaedc"> -31948.45551519 </i>
    <i name="eentropy">     -0.09002080 </i>
    <i name="bandstr">    155.66339566 </i>
    <i name="atom">  50755.80316775 </i>
    <i name="e_fr_energy">   5479.14502257 </i>
    <i name="e_wo_entrp">   5479.23504338 </i>
    <i name="e_0_energy">   5479.19003298 </i>
   </energy>
  </scstep>
  <scstep>
   <time name="dav">   20.99   21.56</time>
   <time name="total">   20.99   21.56</time>
   <energy>
    <i name="e_fr_energy">     13.49110504 </i>
    <i name="e_wo_entrp">     13.61147466 </i>
    <i name="e_0_energy">     13.55128985 </i>
   </energy>
  </scstep>
  <scstep>
   <time name="dav">   28.60   28.84</time>
   <time name="total">   28.60   28.84</time>
   <energy>
    <i name="e_fr_energy">   -725.99259837 </i>
    <i name="e_wo_entrp">   -725.90244892 </i>
    <i name="e_0_energy">   -725.94752364 </i>
   </energy>
  </scstep>
  <scstep>
   <time name="dav">   33.03   33.31</time>
   <time name="total">   33.04   33.31</time>
   <energy>
    <i name="e_fr_energy">   -790.02919065 </i>
    <i name="e_wo_entrp">   -789.93698032 </i>
    <i name="e_0_energy">   -789.98308548 </i>
   </energy>
  </scstep>
  <scstep>
   <time name="dav">   32.31   32.57</time>
   <time name="total">   32.52   32.80</time>
   <energy>
    <i name="e_fr_energy">   -793.16439511 </i>
    <i name="e_wo_entrp">   -793.07185665 </i>
    <i name="e_0_energy">   -793.11812588 </i>
   </energy>
  </scstep>
  <scstep>
   <time name="diag">    1.51    1.52</time>
   <time name="diis">   17.94   18.15</time>
   <time name="orth">    0.39    0.40</time>
   <time name="total">   20.05   20.27</time>
   <energy>
    <i name="e_fr_energy">   -712.01551763 </i>
    <i name="e_wo_entrp">   -711.89346069 </i>
    <i name="e_0_energy">   -711.95448916 </i>
   </energy>
  </scstep>
  <scstep>
   <time name="diag">    1.62    1.64</time>
   <time name="diis">   18.40   18.55</time>
   <time name="orth">    0.45    0.45</time>
   <time name="total">   20.66   20.84</time>
   <energy>
    <i name="e_fr_energy">   -677.74869095 </i>
    <i name="e_wo_entrp">   -677.63482786 </i>
    <i name="e_0_energy">   -677.69175940 </i>
   </energy>
  </scstep>
  <scstep>
   <time name="diag">    1.79    1.82</time>
   <time name="diis">   19.50   19.67</time>
   <time name="orth">    0.39    0.40</time>
   <time name="total">   21.92   22.12</time>
   <energy>
    <i name="e_fr_energy">   -649.52949883 </i>
    <i name="e_wo_entrp">   -649.42855115 </i>
    <i name="e_0_energy">   -649.47902499 </i>
   </energy>
  </scstep>
  <scstep>
   <time name="diag">    1.56    1.57</time>
   <time name="diis">   20.15   20.34</time>
   <time name="orth">    0.39    0.40</time>
   <time name="total">   22.31   22.51</time>
   <energy>
    <i name="e_fr_energy">   -647.09609358 </i>
    <i name="e_wo_entrp">   -647.00400644 </i>
    <i name="e_0_energy">   -647.05005001 </i>
   </energy>
  </scstep>
  <scstep>
   <time name="diag">    1.55    1.56</time>
   <time name="diis">   21.29   21.52</time>
   <time name="orth">    0.39    0.40</time>
   <time name="total">   23.44   23.68</time>
   <energy>
    <i name="e_fr_energy">   -646.91253567 </i>
    <i name="e_wo_entrp">   -646.79772465 </i>
    <i name="e_0_energy">   -646.85513016 </i>
   </energy>
  </scstep>
  <scstep>
   <time name="diag">    1.55    1.56</time>
   <time name="diis">   21.19   21.36</time>
   <time name="orth">    0.40    0.40</time>
   <time name="total">   23.36   23.54</time>
   <energy>
    <i name="e_fr_energy">   -646.43092072 </i>
    <i name="e_wo_entrp">   -646.33175544 </i>
    <i name="e_0_energy">   -646.38133808 </i>
   </energy>
  </scstep>
  <scstep>
   <time name="diag">    1.55    1.56</time>
   <time name="diis">   20.76   20.91</time>
   <time name="orth">    0.43    0.43</time>
   <time name="total">   22.95   23.11</time>
   <energy>
    <i name="e_fr_energy">   -646.67534325 </i>
    <i name="e_wo_entrp">   -646.57172259 </i>
    <i name="e_0_energy">   -646.62353292 </i>
   </energy>
  </scstep>
  <scstep>
   <time name="diag">    1.51    1.52</time>
   <time name="diis">   21.10   21.41</time>
   <time name="orth">    0.39    0.40</time>
   <time name="total">   23.20   23.52</time>
   <energy>
    <i name="e_fr_energy">   -646.42364847 </i>
    <i name="e_wo_entrp">   -646.31510515 </i>
    <i name="e_0_energy">   -646.36937681 </i>
   </energy>
  </scstep>
  <scstep>
   <time name="diag">    1.52    1.55</time>
   <time name="diis">   20.77   21.12</time>
   <time name="orth">    0.39    0.39</time>
   <time name="total">   22.88   23.25</time>
   <energy>
    <i name="e_fr_energy">   -646.40191001 </i>
    <i name="e_wo_entrp">   -646.29240161 </i>
    <i name="e_0_energy">   -646.34715581 </i>
   </energy>
  </scstep>
  <scstep>
   <time name="diag">    1.53    1.56</time>
   <time name="diis">   21.49   21.87</time>
   <time name="orth">    0.39    0.39</time>
   <time name="total">   23.61   24.02</time>
   <energy>
    <i name="e_fr_energy">   -646.40058816 </i>
    <i name="e_wo_entrp">   -646.29408146 </i>
    <i name="e_0_energy">   -646.34733481 </i>
   </energy>
  </scstep>
  <scstep>
   <time name="diag">    1.51    1.54</time>
   <time name="diis">   20.95   21.33</time>
   <time name="orth">    0.41    0.42</time>
   <time name="total">   23.08   23.48</time>
   <energy>
    <i name="e_fr_energy">   -646.41581860 </i>
    <i name="e_wo_entrp">   -646.30913344 </i>
    <i name="e_0_energy">   -646.36247602 </i>
   </energy>
  </scstep>
  <scstep>
   <time name="diag">    1.65    1.67</time>
   <time name="diis">   21.76   22.12</time>
   <time name="orth">    0.39    0.40</time>
   <time name="total">   23.99   24.40</time>
   <energy>
    <i name="e_fr_energy">   -646.43600900 </i>
    <i name="e_wo_entrp">   -646.33031144 </i>
    <i name="e_0_energy">   -646.38316022 </i>
   </energy>
  </scstep>
  <scstep>
   <time name="diag">    1.55    1.58</time>
   <time name="diis">   21.44   21.83</time>
   <time name="orth">    0.39    0.40</time>
   <time name="total">   23.59   24.00</time>
   <energy>
    <i name="e_fr_energy">   -646.44208265 </i>
    <i name="e_wo_entrp">   -646.33573637 </i>
    <i name="e_0_energy">   -646.38890951 </i>
   </energy>
  </scstep>
  <scstep>
   <time name="diag">    1.51    1.51</time>
   <time name="diis">   21.67   21.81</time>
   <time name="orth">    0.39    0.39</time>
   <time name="total">   23.79   23.94</time>
   <energy>
    <i name="e_fr_energy">   -646.43845189 </i>
    <i name="e_wo_entrp">   -646.33307477 </i>
    <i name="e_0_energy">   -646.38576333 </i>
   </energy>
  </scstep>
  <scstep>
   <time name="diag">    1.55    1.55</time>
   <time name="diis">   21.94   22.08</time>
   <time name="orth">    0.40    0.40</time>
   <time name="total">   24.09   24.23</time>
   <energy>
    <i name="e_fr_energy">   -646.43995758 </i>
    <i name="e_wo_entrp">   -646.33399256 </i>
    <i name="e_0_energy">   -646.38697507 </i>
   </energy>
  </scstep>
  <scstep>
   <time name="diag">    1.61    1.62</time>
   <time name="diis">   22.46   22.57</time>
   <time name="orth">    0.39    0.39</time>
   <time name="total">   24.66   24.78</time>
   <energy>
    <i name="e_fr_energy">   -646.44300234 </i>
    <i name="e_wo_entrp">   -646.33649833 </i>
    <i name="e_0_energy">   -646.38975033 </i>
   </energy>
  </scstep>
  <scstep>
   <time name="diag">    1.61    1.63</time>
   <time name="diis">   22.41   22.56</time>
   <time name="orth">    0.44    0.44</time>
   <time name="total">   24.65   24.83</time>
   <energy>
    <i name="e_fr_energy">   -646.44472492 </i>
    <i name="e_wo_entrp">   -646.33843480 </i>
    <i name="e_0_energy">   -646.39157986 </i>
   </energy>
  </scstep>
  <scstep>
   <time name="diag">    1.60    1.60</time>
   <time name="diis">   21.78   22.40</time>
   <time name="orth">    2.65    3.00</time>
   <time name="total">   26.38   27.37</time>
   <energy>
    <i name="e_fr_energy">   -646.44618129 </i>
    <i name="e_wo_entrp">   -646.33988407 </i>
    <i name="e_0_energy">   -646.39303268 </i>
   </energy>
  </scstep>
  <scstep>
   <time name="diag">   11.59   11.62</time>
   <time name="diis">   22.13   22.24</time>
   <time name="orth">    0.39    0.39</time>
   <time name="total">   34.43   34.57</time>
   <energy>
    <i name="e_fr_energy">   -646.44718113 </i>
    <i name="e_wo_entrp">   -646.34084361 </i>
    <i name="e_0_energy">   -646.39401237 </i>
   </energy>
  </scstep>
  <scstep>
   <time name="diag">    1.54    1.74</time>
   <time name="diis">   21.03   22.08</time>
   <time name="orth">    2.53    2.53</time>
   <time name="total">   25.44   26.69</time>
   <energy>
    <i name="e_fr_energy">   -646.44795469 </i>
    <i name="e_wo_entrp">   -646.34163553 </i>
    <i name="e_0_energy">   -646.39479511 </i>
   </energy>
  </scstep>
  <scstep>
   <time name="diag">   12.03   13.46</time>
   <time name="diis">   20.30   21.28</time>
   <time name="orth">    0.40    0.40</time>
   <time name="total">   33.02   35.43</time>
   <energy>
    <i name="e_fr_energy">   -646.44850040 </i>
    <i name="e_wo_entrp">   -646.34221881 </i>
    <i name="e_0_energy">   -646.39535960 </i>
   </energy>
  </scstep>
  <scstep>
   <time name="diag">    7.18    8.61</time>
   <time name="diis">   18.93   20.72</time>
   <time name="orth">    2.57    2.58</time>
   <time name="total">   29.16   32.41</time>
   <energy>
    <i name="e_fr_energy">   -646.44890373 </i>
    <i name="e_wo_entrp">   -646.34258815 </i>
    <i name="e_0_energy">   -646.39574594 </i>
   </energy>
  </scstep>
  <scstep>
   <time name="diag">   11.31   12.59</time>
   <time name="diis">   18.45   20.81</time>
   <time name="orth">    2.38    2.50</time>
   <time name="total">   32.58   36.35</time>
   <energy>
    <i name="e_fr_energy">   -646.44919001 </i>
    <i name="e_wo_entrp">   -646.34289047 </i>
    <i name="e_0_energy">   -646.39604024 </i>
   </energy>
  </scstep>
  <scstep>
   <time name="diag">   10.64   11.36</time>
   <time name="diis">   20.41   20.55</time>
   <time name="orth">    2.37    3.49</time>
   <time name="total">   33.89   35.89</time>
   <energy>
    <i name="e_fr_energy">   -646.44939992 </i>
    <i name="e_wo_entrp">   -646.34310191 </i>
    <i name="e_0_energy">   -646.39625091 </i>
   </energy>
  </scstep>
  <scstep>
   <time name="diag">    1.50    1.51</time>
   <time name="diis">   17.85   19.80</time>
   <time name="orth">    1.70    1.89</time>
   <time name="total">   21.55   23.69</time>
   <energy>
    <i name="e_fr_energy">   -646.44955653 </i>
    <i name="e_wo_entrp">   -646.34325867 </i>
    <i name="e_0_energy">   -646.39640760 </i>
   </energy>
  </scstep>
  <scstep>
   <time name="diag">    8.29    8.97</time>
   <time name="diis">   17.62   19.62</time>
   <time name="orth">    2.52    2.65</time>
   <time name="total">   28.99   31.80</time>
   <energy>
    <i name="e_fr_energy">   -646.44967155 </i>
    <i name="e_wo_entrp">   -646.34337246 </i>
    <i name="e_0_energy">   -646.39652200 </i>
   </energy>
  </scstep>
  <scstep>
   <time name="diag">    3.27    3.55</time>
   <time name="diis">   18.10   18.87</time>
   <time name="orth">    2.30    2.39</time>
   <time name="total">   24.11   25.24</time>
   <energy>
    <i name="e_fr_energy">   -646.44975909 </i>
    <i name="e_wo_entrp">   -646.34345784 </i>
    <i name="e_0_energy">   -646.39660847 </i>
   </energy>
  </scstep>
  <scstep>
   <time name="diag">    8.87   10.64</time>
   <time name="diis">   18.49   18.61</time>
   <time name="orth">    2.40    2.41</time>
   <time name="total">   30.26   32.17</time>
   <energy>
    <i name="e_fr_energy">   -646.44982457 </i>
    <i name="e_wo_entrp">   -646.34352299 </i>
    <i name="e_0_energy">   -646.39667378 </i>
   </energy>
  </scstep>
  <scstep>
   <time name="diag">    4.06    4.28</time>
   <time name="diis">   17.50   17.97</time>
   <time name="orth">    1.75    2.21</time>
   <time name="total">   23.84   25.01</time>
   <energy>
    <i name="e_fr_energy">   -646.44987453 </i>
    <i name="e_wo_entrp">   -646.34357336 </i>
    <i name="e_0_energy">   -646.39672395 </i>
   </energy>
  </scstep>
  <scstep>
   <time name="diag">   10.31   10.58</time>
   <time name="diis">   17.52   17.62</time>
   <time name="orth">    2.67    2.68</time>
   <time name="total">   30.99   31.37</time>
   <energy>
    <i name="e_fr_energy">   -646.44991307 </i>
    <i name="e_wo_entrp">   -646.34360946 </i>
    <i name="e_0_energy">   -646.39676127 </i>
   </energy>
  </scstep>
  <scstep>
   <time name="diag">    4.38    4.40</time>
   <time name="diis">   16.93   16.99</time>
   <time name="orth">    2.06    2.06</time>
   <time name="total">   24.01   24.10</time>
   <energy>
    <i name="e_fr_energy">   -646.44994343 </i>
    <i name="e_wo_entrp">   -646.34363950 </i>
    <i name="e_0_energy">   -646.39679146 </i>
   </energy>
  </scstep>
  <scstep>
   <time name="diag">   10.14   10.22</time>
   <time name="diis">   16.22   16.30</time>
   <time name="orth">    2.77    2.78</time>
   <time name="total">   29.83   30.01</time>
   <energy>
    <i name="e_fr_energy">   -646.44996705 </i>
    <i name="e_wo_entrp">   -646.34366384 </i>
    <i name="e_0_energy">   -646.39681545 </i>
   </energy>
  </scstep>
  <scstep>
   <time name="diag">    5.17    5.22</time>
   <time name="diis">   14.42   15.47</time>
   <time name="orth">    3.34    3.35</time>
   <time name="total">   23.42   24.52</time>
   <energy>
    <i name="e_fr_energy">   -646.44998515 </i>
    <i name="e_wo_entrp">   -646.34368170 </i>
    <i name="e_0_energy">   -646.39683343 </i>
   </energy>
  </scstep>
  <scstep>
   <time name="diag">    8.81    8.84</time>
   <time name="diis">   14.88   15.02</time>
   <time name="orth">    2.66    2.67</time>
   <time name="total">   26.92   27.10</time>
   <energy>
    <i name="e_fr_energy">   -646.44999919 </i>
    <i name="e_wo_entrp">   -646.34369570 </i>
    <i name="e_0_energy">   -646.39684745 </i>
   </energy>
  </scstep>
  <scstep>
   <time name="diag">    7.41    7.49</time>
   <time name="diis">   12.79   14.28</time>
   <time name="orth">    1.79    1.83</time>
   <time name="total">   22.56   24.16</time>
   <energy>
    <i name="e_fr_energy">   -646.45001064 </i>
    <i name="e_wo_entrp">   -646.34370648 </i>
    <i name="e_0_energy">   -646.39685856 </i>
   </energy>
  </scstep>
  <scstep>
   <time name="diag">   13.90   14.94</time>
   <time name="diis">   14.17   14.61</time>
   <time name="orth">    2.45    2.46</time>
   <time name="total">   31.20   32.73</time>
   <energy>
    <i name="e_fr_energy">   -646.45001961 </i>
    <i name="e_wo_entrp">   -646.34371524 </i>
    <i name="e_0_energy">   -646.39686743 </i>
   </energy>
  </scstep>
  <scstep>
   <time name="diag">    3.90    3.93</time>
   <time name="diis">   13.01   13.51</time>
   <time name="orth">    2.28    2.47</time>
   <time name="total">   19.47   20.19</time>
   <energy>
    <i name="alphaZ">   4720.60634048 </i>
    <i name="ewald"> -43407.97675559 </i>
    <i name="hartreedc">  -8539.66655378 </i>
    <i name="XCdc">   2072.17218041 </i>
    <i name="pawpsdc">  33815.09796781 </i>
    <i name="pawaedc"> -33575.22011928 </i>
    <i name="eentropy">     -0.10630467 </i>
    <i name="bandstr">  -6487.15995003 </i>
    <i name="atom">  50755.80316775 </i>
    <i name="e_fr_energy">   -646.45002690 </i>
    <i name="e_wo_entrp">   -646.34372223 </i>
    <i name="e_0_energy">   -646.39687456 </i>
   </energy>
  </scstep>
  <structure>
   <crystal>
    <varray name="basis" >
     <v>       8.88510479      -0.00125792       0.00620830 </v>
     <v>      -0.00121729       8.96213941      -0.00349247 </v>
     <v>       0.00620085      -0.00345616       8.85325145 </v>
    </varray>
    <i name="volume">    704.97994418 </i>
    <varray name="rec_basis" >
     <v>       0.11254797       0.00001526      -0.00007882 </v>
     <v>       0.00001577       0.11158052       0.00004355 </v>
     <v>      -0.00007892       0.00004401       0.11295292 </v>
    </varray>
   </crystal>
   <varray name="positions" >
    <v>       0.99700207       0.99734577       0.01157851 </v>
    <v>       0.24227823       0.99498849       0.25325437 </v>
    <v>       0.26082161       0.50654625       0.25195297 </v>
    <v>       0.50036505       0.50318573       0.00149329 </v>
    <v>       0.49118473       0.26038309       0.74945882 </v>
    <v>       0.99952785       0.50025258       0.48683316 </v>
    <v>       0.50781128       0.73892782       0.74744983 </v>
    <v>       0.99320738       0.23303252       0.26644981 </v>
    <v>       0.76158601       0.73551409       0.99942054 </v>
    <v>       0.01310775       0.27828283       0.73801297 </v>
    <v>       0.75681321       0.27835935       0.49885962 </v>
    <v>       0.98851843       0.72327652       0.73978450 </v>
    <v>       0.26709686       0.50073918       0.74786942 </v>
    <v>       0.24684945       0.25247434       0.00265785 </v>
    <v>       0.50486697       0.25605661       0.25139169 </v>
    <v>       0.75542447       0.99328700       0.25635408 </v>
    <v>       0.75076991       0.26009333       0.98991283 </v>
    <v>       0.24271088       0.74782693       0.00075626 </v>
    <v>       0.25057506       0.25343057       0.49878068 </v>
    <v>       0.24603931       0.24839479       0.25089482 </v>
    <v>       0.24502501       0.00095316       0.00637614 </v>
    <v>       0.99906785       0.24125262       0.00284635 </v>
    <v>       0.75269685       0.25254020       0.25265950 </v>
    <v>       0.75584801       0.00409184       0.00094229 </v>
    <v>       0.50175888       0.00474715       0.24943567 </v>
    <v>       0.99939008       0.48591997       0.25814826 </v>
    <v>       0.49992427       0.74641613       0.99431255 </v>
    <v>       0.99792437       0.00443857       0.75251435 </v>
    <v>       0.75191260       0.25495959       0.74276778 </v>
    <v>       0.75643596       0.01156638       0.49831504 </v>
    <v>       0.50642528       0.25456269       0.50398542 </v>
    <v>       0.50385923       0.00067035       0.75012805 </v>
    <v>       0.00330946       0.99627981       0.25144282 </v>
    <v>       0.50090192       0.25353485       0.99705121 </v>
    <v>       0.24095791       0.74946828       0.24860462 </v>
    <v>       0.25526740       0.49962045       0.00207889 </v>
    <v>       0.99420385       0.75584333       0.00149457 </v>
    <v>       0.76025882       0.74035024       0.25185098 </v>
    <v>       0.74329270       0.50471769       0.99984958 </v>
    <v>       0.50253458       0.49968211       0.25234721 </v>
    <v>       0.25067206       0.25516761       0.74997745 </v>
    <v>       0.24153515       0.00289460       0.49341770 </v>
    <v>       0.99713376       0.24852408       0.50423304 </v>
    <v>       0.24830267       0.74247209       0.75191076 </v>
    <v>       0.25329820       0.49845491       0.49915908 </v>
    <v>       0.98820344       0.75262976       0.49689813 </v>
    <v>       0.99748492       0.50085874       0.74181735 </v>
    <v>       0.74703529       0.73986579       0.74804798 </v>
    <v>       0.75013708       0.50370428       0.49954815 </v>
    <v>       0.50796396       0.74008724       0.50681891 </v>
    <v>       0.50291212       0.49979532       0.74816636 </v>
    <v>       0.50137784       0.00077049       0.99650498 </v>
    <v>       0.99836976       0.50143313       0.01248985 </v>
    <v>       0.50247987       0.74598934       0.25102745 </v>
    <v>       0.23872659       0.99675081       0.74900702 </v>
    <v>       0.49881093       0.99331727       0.50306696 </v>
    <v>       0.76148914       0.99200877       0.74198515 </v>
    <v>       0.24434179       0.74616551       0.50044043 </v>
    <v>       0.99835805       0.77226832       0.26214585 </v>
    <v>       0.73386002       0.51043081       0.24710820 </v>
    <v>       0.00698794       0.99757116       0.48272237 </v>
    <v>       0.50115218       0.50744920       0.49866553 </v>
    <v>       0.72896557       0.50807640       0.75301029 </v>
    <v>       0.75285078       0.71930181       0.50151432 </v>
   </varray>
  </structure>
  <varray name="forces" >
   <v>      -0.00174353       0.02996148      -0.00884339 </v>
   <v>      -0.04058059       0.08254278       0.00193041 </v>
   <v>      -0.02193803      -0.07457002       0.00164354 </v>
   <v>      -0.03484306       0.00805261      -0.03362030 </v>
   <v>      -0.01799731      -0.00451647      -0.00955865 </v>
   <v>       0.07456897      -0.00154909       0.08827088 </v>
   <v>      -0.01565448       0.02359653       0.06222967 </v>
   <v>      -0.00455225       0.05878881       0.08355279 </v>
   <v>      -0.02588089       0.07545491      -0.02571269 </v>
   <v>       0.04763146      -0.10029255      -0.09056223 </v>
   <v>       0.01415335      -0.07785570      -0.04612142 </v>
   <v>       0.00692837       0.03031744      -0.06321610 </v>
   <v>       0.03574973      -0.01699004       0.01503596 </v>
   <v>      -0.02209518      -0.02241674       0.00549017 </v>
   <v>      -0.05115179      -0.06754908       0.03829597 </v>
   <v>       0.13420408       0.06862772      -0.03465476 </v>
   <v>       0.06297782       0.01368351       0.10424334 </v>
   <v>      -0.05202004       0.07641826      -0.01735525 </v>
   <v>      -0.01260693      -0.01008495      -0.03664734 </v>
   <v>       0.01796792      -0.01545638       0.05860205 </v>
   <v>      -0.05590147      -0.02069153       0.02573574 </v>
   <v>      -0.00770139      -0.04393082      -0.00269214 </v>
   <v>       0.05680215       0.05972460      -0.02578921 </v>
   <v>       0.05410319      -0.03961357      -0.00137312 </v>
   <v>      -0.02887971       0.00108120      -0.00978686 </v>
   <v>       0.05450534      -0.09964347       0.03236768 </v>
   <v>      -0.01593164      -0.03080011      -0.04524996 </v>
   <v>       0.01328843       0.03594434       0.00960774 </v>
   <v>      -0.04694573       0.07313606       0.02003950 </v>
   <v>       0.02337749       0.20046742      -0.02317087 </v>
   <v>      -0.03814010       0.03262514       0.00498352 </v>
   <v>       0.02271625       0.00331175      -0.00834043 </v>
   <v>      -0.03952926      -0.04864825       0.04069159 </v>
   <v>       0.00370674       0.04156250      -0.03977944 </v>
   <v>      -0.05848021       0.00456151       0.07129663 </v>
   <v>       0.00843716      -0.00561689       0.01656975 </v>
   <v>      -0.00396503       0.01751535       0.04382324 </v>
   <v>       0.00185807      -0.05497600      -0.02248733 </v>
   <v>       0.00931158      -0.09325585       0.00303950 </v>
   <v>       0.03583232      -0.02122190      -0.00792914 </v>
   <v>       0.01807587      -0.01111051       0.02107252 </v>
   <v>      -0.02935654      -0.05402805       0.00776732 </v>
   <v>       0.00700916      -0.05562963      -0.02014032 </v>
   <v>      -0.01692919       0.00052083       0.00087582 </v>
   <v>       0.06581809       0.02939967      -0.00584540 </v>
   <v>       0.00584126      -0.04050881       0.00816729 </v>
   <v>      -0.01648094       0.02199664      -0.02335339 </v>
   <v>       0.04246793      -0.06090988       0.01275234 </v>
   <v>      -0.04029470       0.04625165      -0.01891304 </v>
   <v>       0.03027574      -0.05346001      -0.01225945 </v>
   <v>       0.01640830      -0.01399125      -0.02622710 </v>
   <v>      -0.03164639      -0.03143732      -0.03464628 </v>
   <v>      -0.05443223      -0.05303575      -0.07527064 </v>
   <v>       0.05279101       0.11369752       0.01437844 </v>
   <v>       0.10119067       0.07830197       0.01757965 </v>
   <v>      -0.01054844       0.04748886       0.02840789 </v>
   <v>      -0.11899230       0.00961776      -0.06490849 </v>
   <v>      -0.01619005      -0.06218357      -0.00514603 </v>
   <v>      -0.03688990       0.08830902      -0.01874968 </v>
   <v>      -0.02019524      -0.03553667      -0.06138636 </v>
   <v>      -0.00287244       0.01784714       0.00529011 </v>
   <v>      -0.05315107      -0.02195209       0.03462343 </v>
   <v>      -0.01267712      -0.01138561       0.06030056 </v>
   <v>       0.03919673      -0.03595644      -0.01892825 </v>
  </varray>
  <varray name="stress" >
   <v>     -19.43454989      -0.90822963      -0.07200757 </v>
   <v>      -0.90823516     -13.09058216      -0.40768878 </v>
   <v>      -0.07200690      -0.40769005     -21.22958084 </v>
  </varray>
  <energy>
   <i name="e_fr_energy">   -646.45002690 </i>
   <i name="e_wo_entrp">   -646.34372223 </i>
   <i name="e_0_energy">   -646.39687456 </i>
  </energy>
  <time name="totalsc"> 1121.16 1159.65</time>
 </calculation>
 <calculation>
  <scstep>
   <time name="dav">   54.70   55.94</time>
   <time name="total">   55.60   56.85</time>
   <energy>
    <i name="alphaZ">   4805.79209099 </i>
    <i name="ewald"> -43667.28960077 </i>
    <i name="hartreedc">  -8590.57537519 </i>
    <i name="XCdc">   2084.72790395 </i>
    <i name="pawpsdc">  33815.08464417 </i>
    <i name="pawaedc"> -33575.21268768 </i>
    <i name="eentropy">     -0.09556346 </i>
    <i name="bandstr">  -6275.85993419 </i>
    <i name="atom">  50755.80316775 </i>
    <i name="e_fr_energy">   -647.62535443 </i>
    <i name="e_wo_entrp">   -647.52979097 </i>
    <i name="e_0_energy">   -647.57757270 </i>
   </energy>
  </scstep>
  <scstep>
   <time name="diag">   10.46   11.86</time>
   <time name="diis">   14.00   15.26</time>
   <time name="orth">    2.24    2.62</time>
   <time name="total">   27.43   30.79</time>
   <energy>
    <i name="e_fr_energy">   -650.24499124 </i>
    <i name="e_wo_entrp">   -650.13172430 </i>
    <i name="e_0_energy">   -650.18835777 </i>
   </energy>
  </scstep>
  <scstep>
   <time name="diag">    9.67   10.14</time>
   <time name="diis">   16.18   16.64</time>
   <time name="orth">    2.96    2.98</time>
   <time name="total">   30.17   31.14</time>
   <energy>
    <i name="e_fr_energy">   -646.74195393 </i>
    <i name="e_wo_entrp">   -646.64917160 </i>
    <i name="e_0_energy">   -646.69556277 </i>
   </energy>
  </scstep>
  <scstep>
   <time name="diag">   12.06   12.32</time>
   <time name="diis">   20.04   20.94</time>
   <time name="orth">    1.86    1.87</time>
   <time name="total">   34.29   35.46</time>
   <energy>
    <i name="e_fr_energy">   -646.65392183 </i>
    <i name="e_wo_entrp">   -646.54691206 </i>
    <i name="e_0_energy">   -646.60041695 </i>
   </energy>
  </scstep>
  <scstep>
   <time name="diag">    1.54    1.55</time>
   <time name="diis">   17.09   18.35</time>
   <time name="orth">    3.33    3.40</time>
   <time name="total">   22.37   23.75</time>
   <energy>
    <i name="e_fr_energy">   -646.46063044 </i>
    <i name="e_wo_entrp">   -646.35934297 </i>
    <i name="e_0_energy">   -646.40998671 </i>
   </energy>
  </scstep>
  <scstep>
   <time name="diag">   11.88   12.16</time>
   <time name="diis">   20.70   21.14</time>
   <time name="orth">    0.43    0.44</time>
   <time name="total">   33.27   33.99</time>
   <energy>
    <i name="e_fr_energy">   -646.43653111 </i>
    <i name="e_wo_entrp">   -646.32793936 </i>
    <i name="e_0_energy">   -646.38223524 </i>
   </energy>
  </scstep>
  <scstep>
   <time name="diag">    1.58    1.60</time>
   <time name="diis">   19.35   19.79</time>
   <time name="orth">    2.28    2.39</time>
   <time name="total">   23.56   24.14</time>
   <energy>
    <i name="e_fr_energy">   -646.40694784 </i>
    <i name="e_wo_entrp">   -646.30439115 </i>
    <i name="e_0_energy">   -646.35566950 </i>
   </energy>
  </scstep>
  <scstep>
   <time name="diag">   11.87   12.02</time>
   <time name="diis">   22.25   22.70</time>
   <time name="orth">    0.42    0.42</time>
   <time name="total">   34.91   35.51</time>
   <energy>
    <i name="e_fr_energy">   -646.39914297 </i>
    <i name="e_wo_entrp">   -646.29490389 </i>
    <i name="e_0_energy">   -646.34702343 </i>
   </energy>
  </scstep>
  <scstep>
   <time name="diag">    1.55    1.57</time>
   <time name="diis">   21.88   22.60</time>
   <time name="orth">    2.16    2.25</time>
   <time name="total">   25.93   26.77</time>
   <energy>
    <i name="e_fr_energy">   -646.39930970 </i>
    <i name="e_wo_entrp">   -646.29507623 </i>
    <i name="e_0_energy">   -646.34719297 </i>
   </energy>
  </scstep>
  <scstep>
   <time name="diag">    9.54   10.09</time>
   <time name="diis">   21.58   22.56</time>
   <time name="orth">    0.42    0.42</time>
   <time name="total">   31.85   33.38</time>
   <energy>
    <i name="e_fr_energy">   -646.39889100 </i>
    <i name="e_wo_entrp">   -646.29450673 </i>
    <i name="e_0_energy">   -646.34669887 </i>
   </energy>
  </scstep>
  <scstep>
   <time name="diag">    1.53    1.56</time>
   <time name="diis">   21.77   23.01</time>
   <time name="orth">    2.33    2.35</time>
   <time name="total">   26.11   27.39</time>
   <energy>
    <i name="e_fr_energy">   -646.39944779 </i>
    <i name="e_wo_entrp">   -646.29538356 </i>
    <i name="e_0_energy">   -646.34741568 </i>
   </energy>
  </scstep>
  <scstep>
   <time name="diag">    9.11    9.21</time>
   <time name="diis">   23.50   23.88</time>
   <time name="orth">    0.92    0.94</time>
   <time name="total">   33.88   34.40</time>
   <energy>
    <i name="e_fr_energy">   -646.39968416 </i>
    <i name="e_wo_entrp">   -646.29492801 </i>
    <i name="e_0_energy">   -646.34730608 </i>
   </energy>
  </scstep>
  <scstep>
   <time name="diag">    1.56    1.58</time>
   <time name="diis">   21.41   22.84</time>
   <time name="orth">    1.93    2.00</time>
   <time name="total">   25.33   26.85</time>
   <energy>
    <i name="e_fr_energy">   -646.39995634 </i>
    <i name="e_wo_entrp">   -646.29548221 </i>
    <i name="e_0_energy">   -646.34771927 </i>
   </energy>
  </scstep>
  <scstep>
   <time name="diag">   10.81   11.40</time>
   <time name="diis">   23.74   24.01</time>
   <time name="orth">    0.39    0.40</time>
   <time name="total">   35.25   36.12</time>
   <energy>
    <i name="e_fr_energy">   -646.40011636 </i>
    <i name="e_wo_entrp">   -646.29550792 </i>
    <i name="e_0_energy">   -646.34781214 </i>
   </energy>
  </scstep>
  <scstep>
   <time name="diag">    1.50    1.51</time>
   <time name="diis">   19.78   22.18</time>
   <time name="orth">    2.19    2.21</time>
   <time name="total">   23.84   26.26</time>
   <energy>
    <i name="e_fr_energy">   -646.40020361 </i>
    <i name="e_wo_entrp">   -646.29565427 </i>
    <i name="e_0_energy">   -646.34792894 </i>
   </energy>
  </scstep>
  <scstep>
   <time name="diag">   10.74   12.72</time>
   <time name="diis">   22.29   22.58</time>
   <time name="orth">    0.39    0.40</time>
   <time name="total">   33.70   35.98</time>
   <energy>
    <i name="e_fr_energy">   -646.40026514 </i>
    <i name="e_wo_entrp">   -646.29573676 </i>
    <i name="e_0_energy">   -646.34800095 </i>
   </energy>
  </scstep>
  <scstep>
   <time name="diag">    1.62    1.64</time>
   <time name="diis">   19.89   20.79</time>
   <time name="orth">    1.93    2.01</time>
   <time name="total">   23.88   24.92</time>
   <energy>
    <i name="e_fr_energy">   -646.40031450 </i>
    <i name="e_wo_entrp">   -646.29578357 </i>
    <i name="e_0_energy">   -646.34804904 </i>
   </energy>
  </scstep>
  <scstep>
   <time name="diag">    9.63   10.17</time>
   <time name="diis">   20.00   20.89</time>
   <time name="orth">    1.49    1.57</time>
   <time name="total">   31.51   33.03</time>
   <energy>
    <i name="e_fr_energy">   -646.40034511 </i>
    <i name="e_wo_entrp">   -646.29581640 </i>
    <i name="e_0_energy">   -646.34808076 </i>
   </energy>
  </scstep>
  <scstep>
   <time name="diag">    1.51    1.52</time>
   <time name="diis">   18.77   20.37</time>
   <time name="orth">    2.31    2.33</time>
   <time name="total">   23.05   24.68</time>
   <energy>
    <i name="e_fr_energy">   -646.40036747 </i>
    <i name="e_wo_entrp">   -646.29583089 </i>
    <i name="e_0_energy">   -646.34809918 </i>
   </energy>
  </scstep>
  <scstep>
   <time name="diag">    9.33   10.46</time>
   <time name="diis">   17.64   19.03</time>
   <time name="orth">    1.97    2.29</time>
   <time name="total">   29.27   32.25</time>
   <energy>
    <i name="e_fr_energy">   -646.40038481 </i>
    <i name="e_wo_entrp">   -646.29585080 </i>
    <i name="e_0_energy">   -646.34811780 </i>
   </energy>
  </scstep>
  <scstep>
   <time name="diag">    2.15    2.33</time>
   <time name="diis">   16.83   17.54</time>
   <time name="orth">    2.17    2.30</time>
   <time name="total">   22.06   23.07</time>
   <energy>
    <i name="e_fr_energy">   -646.40039797 </i>
    <i name="e_wo_entrp">   -646.29586366 </i>
    <i name="e_0_energy">   -646.34813081 </i>
   </energy>
  </scstep>
  <scstep>
   <time name="diag">    8.55    9.89</time>
   <time name="diis">   14.84   16.37</time>
   <time name="orth">    1.90    2.03</time>
   <time name="total">   25.71   28.71</time>
   <energy>
    <i name="e_fr_energy">   -646.40040795 </i>
    <i name="e_wo_entrp">   -646.29587327 </i>
    <i name="e_0_energy">   -646.34814061 </i>
   </energy>
  </scstep>
  <scstep>
   <time name="diag">    6.13    6.26</time>
   <time name="diis">   14.59   15.24</time>
   <time name="orth">    2.08    2.27</time>
   <time name="total">   22.90   23.88</time>
   <energy>
    <i name="alphaZ">   4805.79209099 </i>
    <i name="ewald"> -43667.28960077 </i>
    <i name="hartreedc">  -8453.96764478 </i>
    <i name="XCdc">   2077.00991485 </i>
    <i name="pawpsdc">  34028.95005969 </i>
    <i name="pawaedc"> -33786.85237318 </i>
    <i name="eentropy">     -0.10453422 </i>
    <i name="bandstr">  -6405.74149576 </i>
    <i name="atom">  50755.80316775 </i>
    <i name="e_fr_energy">   -646.40041543 </i>
    <i name="e_wo_entrp">   -646.29588121 </i>
    <i name="e_0_energy">   -646.34814832 </i>
   </energy>
  </scstep>
  <structure>
   <crystal>
    <varray name="basis" >
     <v>       8.82783143      -0.00392985       0.00595255 </v>
     <v>      -0.00390914       8.92322784      -0.00467972 </v>
     <v>       0.00595048      -0.00464018       8.79091251 </v>
    </varray>
    <i name="volume">    692.48372202 </i>
    <varray name="rec_basis" >
     <v>       0.11327818       0.00004959      -0.00007665 </v>
     <v>       0.00004985       0.11206712       0.00005912 </v>
     <v>      -0.00007668       0.00005962       0.11375392 </v>
    </varray>
   </crystal>
   <varray name="positions" >
    <v>       0.99699266       0.99750703       0.01153040 </v>
    <v>       0.24205795       0.99543279       0.25326522 </v>
    <v>       0.26070243       0.50614483       0.25196185 </v>
    <v>       0.50017600       0.50322898       0.00131024 </v>
    <v>       0.49108704       0.26035874       0.74940679 </v>
    <v>       0.99993240       0.50024448       0.48731387 </v>
    <v>       0.50772607       0.73905496       0.74778904 </v>
    <v>       0.99318239       0.23334915       0.26690524 </v>
    <v>       0.76144564       0.73592018       0.99928069 </v>
    <v>       0.01336664       0.27774281       0.73751909 </v>
    <v>       0.75689017       0.27794017       0.49860807 </v>
    <v>       0.98855631       0.72343959       0.73944006 </v>
    <v>       0.26729090       0.50064778       0.74795118 </v>
    <v>       0.24672945       0.25235366       0.00268780 </v>
    <v>       0.50458904       0.25569304       0.25160042 </v>
    <v>       0.75615333       0.99365645       0.25616488 </v>
    <v>       0.75111147       0.26016725       0.99048065 </v>
    <v>       0.24242855       0.74823821       0.00066205 </v>
    <v>       0.25050674       0.25337619       0.49858101 </v>
    <v>       0.24613664       0.24831173       0.25121405 </v>
    <v>       0.24472137       0.00084179       0.00651655 </v>
    <v>       0.99902601       0.24101613       0.00283161 </v>
    <v>       0.75300541       0.25286169       0.25251888 </v>
    <v>       0.75614174       0.00387864       0.00093452 </v>
    <v>       0.50160212       0.00475293       0.24938245 </v>
    <v>       0.99968583       0.48538370       0.25832422 </v>
    <v>       0.49983792       0.74625023       0.99406597 </v>
    <v>       0.99799651       0.00463208       0.75256673 </v>
    <v>       0.75165768       0.25535329       0.74287732 </v>
    <v>       0.75656312       0.01264546       0.49818912 </v>
    <v>       0.50621820       0.25473829       0.50401279 </v>
    <v>       0.50398261       0.00068818       0.75008252 </v>
    <v>       0.00309464       0.99601800       0.25166460 </v>
    <v>       0.50092223       0.25375850       0.99683452 </v>
    <v>       0.24064012       0.74949294       0.24899336 </v>
    <v>       0.25531314       0.49959026       0.00216914 </v>
    <v>       0.99418217       0.75593770       0.00173343 </v>
    <v>       0.76026895       0.74005426       0.25172832 </v>
    <v>       0.74334318       0.50421572       0.99986591 </v>
    <v>       0.50272915       0.49956788       0.25230383 </v>
    <v>       0.25077012       0.25510786       0.75009218 </v>
    <v>       0.24137569       0.00260376       0.49346002 </v>
    <v>       0.99717186       0.24822459       0.50412315 </v>
    <v>       0.24821075       0.74247489       0.75191560 </v>
    <v>       0.25365561       0.49861321       0.49912704 </v>
    <v>       0.98823510       0.75241173       0.49694253 </v>
    <v>       0.99739554       0.50097709       0.74169020 </v>
    <v>       0.74726578       0.73953798       0.74811718 </v>
    <v>       0.74991840       0.50395318       0.49944535 </v>
    <v>       0.50812835       0.73979947       0.50675188 </v>
    <v>       0.50300130       0.49971997       0.74802335 </v>
    <v>       0.50120612       0.00060117       0.99631624 </v>
    <v>       0.99807446       0.50114744       0.01207978 </v>
    <v>       0.50276654       0.74660144       0.25110584 </v>
    <v>       0.23927601       0.99717242       0.74910259 </v>
    <v>       0.49875358       0.99357295       0.50322190 </v>
    <v>       0.76084331       0.99206031       0.74163193 </v>
    <v>       0.24425386       0.74583075       0.50041232 </v>
    <v>       0.99815789       0.77274362       0.26204401 </v>
    <v>       0.73375058       0.51023937       0.24677370 </v>
    <v>       0.00697234       0.99766724       0.48275125 </v>
    <v>       0.50086344       0.50733106       0.49885436 </v>
    <v>       0.72889650       0.50801523       0.75333890 </v>
    <v>       0.75306364       0.71910825       0.50141096 </v>
   </varray>
  </structure>
  <varray name="forces" >
   <v>       0.02179586       0.01605216      -0.07452170 </v>
   <v>       0.04186891       0.03710298      -0.02261515 </v>
   <v>      -0.04869240      -0.03721803      -0.02575273 </v>
   <v>       0.00593612      -0.01671392      -0.00327383 </v>
   <v>       0.07307299      -0.04847741       0.00507590 </v>
   <v>       0.04112671      -0.01649637       0.10669475 </v>
   <v>      -0.03727834       0.05010954       0.03452132 </v>
   <v>       0.07514355       0.05395501      -0.14015324 </v>
   <v>      -0.12458270       0.09038180       0.00941794 </v>
   <v>      -0.08619762      -0.15806725       0.11849359 </v>
   <v>      -0.10831501      -0.06116455      -0.01581353 </v>
   <v>       0.07415303       0.16057581       0.05657086 </v>
   <v>      -0.12142452      -0.02854628       0.05498772 </v>
   <v>       0.01278434      -0.02284125       0.02605013 </v>
   <v>      -0.04946043      -0.04698733      -0.01514023 </v>
   <v>      -0.09875376       0.03649439      -0.06433124 </v>
   <v>      -0.01212232      -0.07877559       0.08261418 </v>
   <v>       0.00775362       0.01743347       0.05416764 </v>
   <v>       0.06258309      -0.03497818       0.01512044 </v>
   <v>       0.01177855      -0.00765024      -0.00105535 </v>
   <v>      -0.05294778       0.00951911       0.04646940 </v>
   <v>       0.00991611      -0.04165458      -0.01621574 </v>
   <v>      -0.00061305       0.06368976      -0.08003415 </v>
   <v>       0.03098353      -0.04314091      -0.02290583 </v>
   <v>      -0.06198585       0.00809691      -0.00412532 </v>
   <v>       0.03153092      -0.05789699       0.00607406 </v>
   <v>      -0.00198344      -0.01861210      -0.05012415 </v>
   <v>       0.00733814       0.05146711      -0.01747319 </v>
   <v>      -0.04935520       0.03849818       0.01555238 </v>
   <v>       0.05071102       0.18738957      -0.01353526 </v>
   <v>      -0.01616182       0.03170106       0.05278126 </v>
   <v>      -0.00671022       0.00896443      -0.00787421 </v>
   <v>       0.08324052       0.01494849      -0.01858738 </v>
   <v>      -0.01338534       0.01829475      -0.04314481 </v>
   <v>      -0.06136627       0.00449422      -0.00633848 </v>
   <v>       0.00328507       0.01113825       0.03133864 </v>
   <v>       0.02916408       0.01895743       0.04563970 </v>
   <v>       0.04807828       0.00047857       0.04439058 </v>
   <v>      -0.06098165      -0.02229609       0.00328803 </v>
   <v>       0.00002072       0.01696314      -0.00028020 </v>
   <v>       0.07235778      -0.02633448       0.00192076 </v>
   <v>      -0.02165442      -0.00535463      -0.01137840 </v>
   <v>       0.05483605      -0.06564129       0.00944526 </v>
   <v>       0.02098602       0.03583340      -0.00116762 </v>
   <v>       0.04313918      -0.02904393      -0.04499236 </v>
   <v>      -0.01903329      -0.00235323      -0.06016204 </v>
   <v>      -0.03251193      -0.03988859      -0.02645990 </v>
   <v>      -0.05012376       0.01123147      -0.05338779 </v>
   <v>      -0.01196914       0.01658245      -0.00879939 </v>
   <v>       0.03871003      -0.00354462       0.03149817 </v>
   <v>       0.06052480      -0.00652186      -0.00613999 </v>
   <v>      -0.01234074      -0.00104771       0.05322434 </v>
   <v>       0.03832253      -0.00320865      -0.08464868 </v>
   <v>      -0.02024622       0.04139574      -0.02302189 </v>
   <v>       0.08474584       0.03396584       0.01670843 </v>
   <v>      -0.01555624       0.01561231      -0.07093955 </v>
   <v>      -0.07043983       0.01056411       0.03757185 </v>
   <v>       0.04716675       0.04772548      -0.00198438 </v>
   <v>      -0.00850330      -0.08642650      -0.07111332 </v>
   <v>       0.06189515      -0.09034397      -0.02571214 </v>
   <v>      -0.03728716      -0.00834731       0.18077756 </v>
   <v>      -0.02989386      -0.04976121       0.00010774 </v>
   <v>       0.11371363      -0.06636588       0.02594128 </v>
   <v>      -0.01678525       0.06608398      -0.03324075 </v>
  </varray>
  <varray name="stress" >
   <v>      36.21453021      -0.14598478      -0.07773570 </v>
   <v>      -0.14598694      28.85786305      -0.03033028 </v>
   <v>      -0.07773841      -0.03033056      38.47938524 </v>
  </varray>
  <energy>
   <i name="e_fr_energy">   -646.40041543 </i>
   <i name="e_wo_entrp">   -646.29588121 </i>
   <i name="e_0_energy">   -646.34814832 </i>
  </energy>
  <time name="totalsc">  716.30  751.65</time>
 </calculation>
 <calculation>
  <scstep>
   <time name="dav">   55.15   58.41</time>
   <time name="total">   55.64   58.90</time>
   <energy>
    <i name="alphaZ">   4753.11715394 </i>
    <i name="ewald"> -43507.37716194 </i>
    <i name="hartreedc">  -8422.99351041 </i>
    <i name="XCdc">   2069.29514814 </i>
    <i name="pawpsdc">  34028.98736036 </i>
    <i name="pawaedc"> -33786.87282201 </i>
    <i name="eentropy">     -0.11458097 </i>
    <i name="bandstr">  -6536.81823009 </i>
    <i name="atom">  50755.80316775 </i>
    <i name="e_fr_energy">   -646.97347524 </i>
    <i name="e_wo_entrp">   -646.85889427 </i>
    <i name="e_0_energy">   -646.91618475 </i>
   </energy>
  </scstep>
  <scstep>
   <time name="diag">    1.53    1.56</time>
   <time name="diis">   14.95   15.83</time>
   <time name="orth">    1.57    1.88</time>
   <time name="total">   18.41   19.99</time>
   <energy>
    <i name="e_fr_energy">   -648.43638977 </i>
    <i name="e_wo_entrp">   -648.34103886 </i>
    <i name="e_0_energy">   -648.38871431 </i>
   </energy>
  </scstep>
  <scstep>
   <time name="diag">   12.79   14.45</time>
   <time name="diis">   15.70   16.48</time>
   <time name="orth">    0.40    0.40</time>
   <time name="total">   29.24   31.68</time>
   <energy>
    <i name="e_fr_energy">   -646.56369397 </i>
    <i name="e_wo_entrp">   -646.45610138 </i>
    <i name="e_0_energy">   -646.50989768 </i>
   </energy>
  </scstep>
  <scstep>
   <time name="diag">    1.50    1.51</time>
   <time name="diis">   18.39   19.71</time>
   <time name="orth">    2.30    2.32</time>
   <time name="total">   22.58   23.92</time>
   <energy>
    <i name="e_fr_energy">   -646.55963389 </i>
    <i name="e_wo_entrp">   -646.45113895 </i>
    <i name="e_0_energy">   -646.50538642 </i>
   </energy>
  </scstep>
  <scstep>
   <time name="diag">    9.67    9.76</time>
   <time name="diis">   17.61   19.19</time>
   <time name="orth">    2.35    2.39</time>
   <time name="total">   30.21   31.93</time>
   <energy>
    <i name="e_fr_energy">   -646.50166241 </i>
    <i name="e_wo_entrp">   -646.39648082 </i>
    <i name="e_0_energy">   -646.44907162 </i>
   </energy>
  </scstep>
  <scstep>
   <time name="diag">    2.43    2.50</time>
   <time name="diis">   18.61   19.95</time>
   <time name="orth">    3.33    3.37</time>
   <time name="total">   24.82   26.27</time>
   <energy>
    <i name="e_fr_energy">   -646.48602192 </i>
    <i name="e_wo_entrp">   -646.38142952 </i>
    <i name="e_0_energy">   -646.43372572 </i>
   </energy>
  </scstep>
  <scstep>
   <time name="diag">   10.39   10.47</time>
   <time name="diis">   21.50   21.71</time>
   <time name="orth">    2.25    2.27</time>
   <time name="total">   34.62   34.94</time>
   <energy>
[...]
      </set>
     </set>
    </set>
   </array>
  </eigenvalues>
  <separator name="orbital magnetization" >
   <v name="MAGDIPOLOUT">      0.00000000      0.00000000      0.00000000</v>
  </separator>
  <dos>
   <i name="efermi">      7.72010797 </i>
   <total>
    <array>
     <dimension dim="1">gridpoints</dimension>
     <dimension dim="2">spin</dimension>
     <field>energy</field>
     <field>total</field>
     <field>integrated</field>
     <set>
      <set comment="spin 1">
       <r>   -60.6256     0.0000     0.0000 </r>
       <r>   -60.3742     0.0000     0.0000 </r>
       <r>   -60.1227     0.0000     0.0000 </r>
       <r>   -59.8712     0.0000     0.0000 </r>
       <r>   -59.6197     0.0000     0.0000 </r>
       <r>   -59.3682     0.0000     0.0000 </r>
       <r>   -59.1167     0.0000     0.0000 </r>
       <r>   -58.8652     0.0000     0.0000 </r>
       <r>   -58.6138     0.0000     0.0000 </r>
       <r>   -58.3623     0.0000     0.0000 </r>
       <r>   -58.1108     0.0000     0.0000 </r>
       <r>   -57.8593     0.0000     0.0000 </r>
       <r>   -57.6078     0.0000     0.0000 </r>
       <r>   -57.3563     0.1679     0.0422 </r>
       <r>   -57.1048    28.2902     7.1568 </r>
       <r>   -56.8534    19.2270    11.9921 </r>
       <r>   -56.6019     0.0313    12.0000 </r>
       <r>   -56.3504     0.0000    12.0000 </r>
       <r>   -56.0989     0.0000    12.0000 </r>
       <r>   -55.8474     0.0000    12.0000 </r>
       <r>   -55.5959     0.0000    12.0000 </r>
       <r>   -55.3444     0.0000    12.0000 </r>
       <r>   -55.0930     0.0000    12.0000 </r>
       <r>   -54.8415     0.0000    12.0000 </r>
       <r>   -54.5900     0.0000    12.0000 </r>
       <r>   -54.3385     0.0000    12.0000 </r>
       <r>   -54.0870     0.0000    12.0000 </r>
       <r>   -53.8355     0.0000    12.0000 </r>
       <r>   -53.5840     0.0000    12.0000 </r>
       <r>   -53.3326     0.0000    12.0000 </r>
       <r>   -53.0811     0.0000    12.0000 </r>
       <r>   -52.8296     0.0000    12.0000 </r>
       <r>   -52.5781     0.0000    12.0000 </r>
       <r>   -52.3266     0.0000    12.0000 </r>
       <r>   -52.0751     0.0000    12.0000 </r>
       <r>   -51.8236     0.0000    12.0000 </r>
       <r>   -51.5722     0.0000    12.0000 </r>
       <r>   -51.3207     0.0000    12.0000 </r>
       <r>   -51.0692     0.0000    12.0000 </r>
       <r>   -50.8177     0.0000    12.0000 </r>
       <r>   -50.5662     0.0000    12.0000 </r>
       <r>   -50.3147     0.0000    12.0000 </r>
       <r>   -50.0632     0.8574    12.2156 </r>
       <r>   -49.8117     8.3638    14.3190 </r>
       <r>   -49.5603    32.4080    22.4692 </r>
       <r>   -49.3088    14.0002    25.9900 </r>
       <r>   -49.0573     0.0398    26.0000 </r>
       <r>   -48.8058     0.0000    26.0000 </r>
       <r>   -48.5543     0.0000    26.0000 </r>
       <r>   -48.3028     0.0000    26.0000 </r>
       <r>   -48.0513     0.0000    26.0000 </r>
       <r>   -47.7999     0.0000    26.0000 </r>
       <r>   -47.5484     0.0000    26.0000 </r>
       <r>   -47.2969     0.0000    26.0000 </r>
       <r>   -47.0454     0.0000    26.0000 </r>
       <r>   -46.7939     0.0000    26.0000 </r>
       <r>   -46.5424     0.0000    26.0000 </r>
       <r>   -46.2909     0.0000    26.0000 </r>
       <r>   -46.0395     0.0000    26.0000 </r>
       <r>   -45.7880     0.0000    26.0000 </r>
       <r>   -45.5365     0.0000    26.0000 </r>
       <r>   -45.2850     0.0000    26.0000 </r>
       <r>   -45.0335     0.0000    26.0000 </r>
       <r>   -44.7820     0.0000    26.0000 </r>
       <r>   -44.5305     0.0000    26.0000 </r>
       <r>   -44.2791     0.0000    26.0000 </r>
       <r>   -44.0276     0.0000    26.0000 </r>
       <r>   -43.7761     0.0000    26.0000 </r>
       <r>   -43.5246     0.0000    26.0000 </r>
       <r>   -43.2731     0.0000    26.0000 </r>
       <r>   -43.0216     0.0000    26.0000 </r>
       <r>   -42.7701     0.0000    26.0000 </r>
       <r>   -42.5187     0.0000    26.0000 </r>
       <r>   -42.2672     0.0000    26.0000 </r>
       <r>   -42.0157     0.0000    26.0000 </r>
       <r>   -41.7642     0.1075    26.0270 </r>
       <r>   -41.5127    11.4262    28.9006 </r>
       <r>   -41.2612     8.9531    31.1522 </r>
       <r>   -41.0097    15.8996    35.1507 </r>
       <r>   -40.7583     9.9491    37.6527 </r>
       <r>   -40.5068     2.7369    38.3410 </r>
       <r>   -40.2553     6.5601    39.9908 </r>
       <r>   -40.0038     0.0366    40.0000 </r>
       <r>   -39.7523     0.0000    40.0000 </r>
       <r>   -39.5008     0.0000    40.0000 </r>
       <r>   -39.2493     0.0000    40.0000 </r>
       <r>   -38.9978     0.0000    40.0000 </r>
       <r>   -38.7464     0.0000    40.0000 </r>
       <r>   -38.4949     0.0000    40.0000 </r>
       <r>   -38.2434     0.0000    40.0000 </r>
       <r>   -37.9919     0.0000    40.0000 </r>
       <r>   -37.7404     0.0000    40.0000 </r>
       <r>   -37.4889     0.0000    40.0000 </r>
       <r>   -37.2374     0.0000    40.0000 </r>
       <r>   -36.9860     0.0000    40.0000 </r>
       <r>   -36.7345     0.0000    40.0000 </r>
       <r>   -36.4830     0.0000    40.0000 </r>
       <r>   -36.2315     0.0000    40.0000 </r>
       <r>   -35.9800     0.0000    40.0000 </r>
       <r>   -35.7285     0.0000    40.0000 </r>
       <r>   -35.4770     0.0000    40.0000 </r>
       <r>   -35.2256     0.0000    40.0000 </r>
       <r>   -34.9741     0.0000    40.0000 </r>
       <r>   -34.7226     0.0000    40.0000 </r>
       <r>   -34.4711     0.0000    40.0000 </r>
       <r>   -34.2196     0.0000    40.0000 </r>
       <r>   -33.9681     0.0000    40.0000 </r>
       <r>   -33.7166     0.0000    40.0000 </r>
       <r>   -33.4652     0.0000    40.0000 </r>
       <r>   -33.2137     0.0000    40.0000 </r>
       <r>   -32.9622     0.0000    40.0000 </r>
       <r>   -32.7107     0.0000    40.0000 </r>
       <r>   -32.4592     0.0000    40.0000 </r>
       <r>   -32.2077     0.0008    40.0002 </r>
       <r>   -31.9562     3.5573    40.8948 </r>
       <r>   -31.7048    32.9097    49.1711 </r>
       <r>   -31.4533    64.0506    65.2790 </r>
       <r>   -31.2018    59.3934    80.2156 </r>
       <r>   -30.9503   107.6521   107.2886 </r>
       <r>   -30.6988    18.7302   111.9990 </r>
       <r>   -30.4473     0.0041   112.0000 </r>
       <r>   -30.1958     0.0000   112.0000 </r>
       <r>   -29.9444     0.0000   112.0000 </r>
       <r>   -29.6929     0.0000   112.0000 </r>
       <r>   -29.4414     0.0000   112.0000 </r>
       <r>   -29.1899     0.0000   112.0000 </r>
       <r>   -28.9384     0.0000   112.0000 </r>
       <r>   -28.6869     0.0000   112.0000 </r>
       <r>   -28.4354     0.0000   112.0000 </r>
       <r>   -28.1840     0.0000   112.0000 </r>
       <r>   -27.9325     0.0000   112.0000 </r>
       <r>   -27.6810     0.0000   112.0000 </r>
       <r>   -27.4295     0.0000   112.0000 </r>
       <r>   -27.1780     0.0000   112.0000 </r>
       <r>   -26.9265     0.0000   112.0000 </r>
       <r>   -26.6750     0.0001   112.0000 </r>
       <r>   -26.4235     4.0941   113.0296 </r>
       <r>   -26.1721    29.1750   120.3667 </r>
       <r>   -25.9206    94.3385   144.0916 </r>
       <r>   -25.6691    38.9533   153.8878 </r>
       <r>   -25.4176     0.4463   154.0000 </r>
       <r>   -25.1661     0.0000   154.0000 </r>
       <r>   -24.9146     0.0000   154.0000 </r>
       <r>   -24.6631     0.0000   154.0000 </r>
       <r>   -24.4117     0.0000   154.0000 </r>
       <r>   -24.1602     0.0000   154.0000 </r>
       <r>   -23.9087     0.0000   154.0000 </r>
       <r>   -23.6572     0.0077   154.0019 </r>
       <r>   -23.4057     6.0259   155.5174 </r>
       <r>   -23.1542    40.6813   165.7482 </r>
       <r>   -22.9027    29.8718   173.2605 </r>
       <r>   -22.6513    50.7141   186.0144 </r>
       <r>   -22.3998    15.8221   189.9934 </r>
       <r>   -22.1483     0.0262   190.0000 </r>
       <r>   -21.8968     0.0000   190.0000 </r>
       <r>   -21.6453     0.0000   190.0000 </r>
       <r>   -21.3938     0.0000   190.0000 </r>
       <r>   -21.1423     0.0000   190.0000 </r>
       <r>   -20.8909     0.0000   190.0000 </r>
       <r>   -20.6394     0.0000   190.0000 </r>
       <r>   -20.3879     0.0000   190.0000 </r>
       <r>   -20.1364     1.7472   190.4394 </r>
       <r>   -19.8849    26.1395   197.0131 </r>
       <r>   -19.6334    31.1299   204.8419 </r>
       <r>   -19.3819    35.2337   213.7027 </r>
       <r>   -19.1305    37.9959   223.2581 </r>
       <r>   -18.8790    12.9104   226.5049 </r>
       <r>   -18.6275    20.9264   231.7676 </r>
       <r>   -18.3760     0.9241   232.0000 </r>
       <r>   -18.1245     0.0000   232.0000 </r>
       <r>   -17.8730     0.0000   232.0000 </r>
       <r>   -17.6215     0.0000   232.0000 </r>
       <r>   -17.3701     0.0000   232.0000 </r>
       <r>   -17.1186     0.0000   232.0000 </r>
       <r>   -16.8671     0.0000   232.0000 </r>
       <r>   -16.6156     0.0000   232.0000 </r>
       <r>   -16.3641     0.0000   232.0000 </r>
       <r>   -16.1126     0.0000   232.0000 </r>
       <r>   -15.8611     0.0000   232.0000 </r>
       <r>   -15.6097     0.0000   232.0000 </r>
       <r>   -15.3582     0.0000   232.0000 </r>
       <r>   -15.1067     0.0000   232.0000 </r>
       <r>   -14.8552     0.0000   232.0000 </r>
       <r>   -14.6037     0.0000   232.0000 </r>
       <r>   -14.3522     0.0000   232.0000 </r>
       <r>   -14.1007     0.0000   232.0000 </r>
       <r>   -13.8492     0.0000   232.0000 </r>
       <r>   -13.5978     0.0000   232.0000 </r>
       <r>   -13.3463     0.0000   232.0000 </r>
       <r>   -13.0948     0.0000   232.0000 </r>
       <r>   -12.8433     0.0000   232.0000 </r>
       <r>   -12.5918     0.0000   232.0000 </r>
       <r>   -12.3403     0.0000   232.0000 </r>
       <r>   -12.0888     0.0000   232.0000 </r>
       <r>   -11.8374     0.0000   232.0000 </r>
       <r>   -11.5859     0.0000   232.0000 </r>
       <r>   -11.3344     0.0000   232.0000 </r>
       <r>   -11.0829     0.0000   232.0000 </r>
       <r>   -10.8314     0.0000   232.0000 </r>
       <r>   -10.5799     0.0000   232.0000 </r>
       <r>   -10.3284     0.0000   232.0000 </r>
       <r>   -10.0770     0.0000   232.0000 </r>
       <r>    -9.8255     0.0000   232.0000 </r>
       <r>    -9.5740     0.0000   232.0000 </r>
       <r>    -9.3225     0.0000   232.0000 </r>
       <r>    -9.0710     0.0000   232.0000 </r>
       <r>    -8.8195     0.0014   232.0003 </r>
       <r>    -8.5680     1.2774   232.3216 </r>
       <r>    -8.3166     6.1312   233.8635 </r>
       <r>    -8.0651     0.6263   234.0210 </r>
       <r>    -7.8136     7.4190   235.8868 </r>
       <r>    -7.5621    15.7004   239.8352 </r>
       <r>    -7.3106    24.6809   246.0421 </r>
       <r>    -7.0591    19.2937   250.8942 </r>
       <r>    -6.8076    17.8878   255.3927 </r>
       <r>    -6.5562     7.3140   257.2321 </r>
       <r>    -6.3047     2.9854   257.9829 </r>
       <r>    -6.0532     0.0681   258.0000 </r>
       <r>    -5.8017     0.0000   258.0000 </r>
       <r>    -5.5502     0.0000   258.0000 </r>
       <r>    -5.2987     0.0001   258.0000 </r>
       <r>    -5.0472     0.9663   258.2430 </r>
       <r>    -4.7958     6.7003   259.9280 </r>
       <r>    -4.5443     2.6069   260.5837 </r>
       <r>    -4.2928    10.8014   263.3000 </r>
       <r>    -4.0413    10.2476   265.8772 </r>
       <r>    -3.7898    14.8056   269.6006 </r>
       <r>    -3.5383    18.4741   274.2466 </r>
       <r>    -3.2868    22.8219   279.9860 </r>
       <r>    -3.0354    19.4139   284.8683 </r>
       <r>    -2.7839    18.4868   289.5174 </r>
       <r>    -2.5324    16.5840   293.6881 </r>
       <r>    -2.2809     8.3018   295.7759 </r>
       <r>    -2.0294     0.8892   295.9995 </r>
       <r>    -1.7779     0.0021   296.0000 </r>
       <r>    -1.5264     0.0000   296.0000 </r>
       <r>    -1.2749     0.0000   296.0000 </r>
       <r>    -1.0235     0.0000   296.0000 </r>
       <r>    -0.7720     0.0000   296.0000 </r>
       <r>    -0.5205     0.0002   296.0000 </r>
       <r>    -0.2690     0.2687   296.0676 </r>
       <r>    -0.0175     1.5755   296.4638 </r>
       <r>     0.2340     6.4451   298.0847 </r>
       <r>     0.4855     8.4421   300.2078 </r>
       <r>     0.7369    11.5843   303.1211 </r>
       <r>     0.9884    16.1593   307.1849 </r>
       <r>     1.2399    23.2199   313.0244 </r>
       <r>     1.4914    28.0268   320.0727 </r>
       <r>     1.7429    27.5874   327.0106 </r>
       <r>     1.9944    30.1779   334.5999 </r>
       <r>     2.2459    33.1942   342.9477 </r>
       <r>     2.4973    39.5587   352.8962 </r>
       <r>     2.7488    48.9486   365.2061 </r>
       <r>     3.0003    54.9961   379.0368 </r>
       <r>     3.2518    57.2584   393.4365 </r>
       <r>     3.5033    59.7785   408.4700 </r>
       <r>     3.7548    56.4983   422.6785 </r>
       <r>     4.0063    52.2859   435.8277 </r>
       <r>     4.2577    47.4045   447.7492 </r>
       <r>     4.5092    43.6232   458.7199 </r>
       <r>     4.7607    37.9825   468.2719 </r>
       <r>     5.0122    26.9479   475.0490 </r>
       <r>     5.2637    23.1129   480.8615 </r>
       <r>     5.5152    17.2124   485.1902 </r>
       <r>     5.7667    10.4163   487.8098 </r>
       <r>     6.0181     6.8523   489.5330 </r>
       <r>     6.2696    18.6738   494.2292 </r>
       <r>     6.5211    15.1264   498.0333 </r>
       <r>     6.7726    13.1294   501.3352 </r>
       <r>     7.0241    17.1110   505.6384 </r>
       <r>     7.2756    18.1071   510.1920 </r>
       <r>     7.5271    19.1613   515.0108 </r>
       <r>     7.7785    20.7072   520.2184 </r>
       <r>     8.0300    25.5820   526.6519 </r>
       <r>     8.2815    37.4093   536.0598 </r>
       <r>     8.5330    40.9085   546.3477 </r>
       <r>     8.7845    43.9598   557.4030 </r>
       <r>     9.0360    47.2024   569.2738 </r>
       <r>     9.2875    47.6301   581.2521 </r>
       <r>     9.5389    50.6979   594.0019 </r>
       <r>     9.7904    48.1732   606.1168 </r>
       <r>    10.0419    50.0678   618.7081 </r>
       <r>    10.2934    48.2373   630.8391 </r>
       <r>    10.5449    42.2854   641.4733 </r>
       <r>    10.7964    44.8034   652.7408 </r>
       <r>    11.0479    42.3626   663.3944 </r>
       <r>    11.2994    28.4725   670.5548 </r>
       <r>    11.5508     5.7311   671.9961 </r>
       <r>    11.8023     0.0155   672.0000 </r>
       <r>    12.0538     0.0000   672.0000 </r>
       <r>    12.3053     0.0000   672.0000 </r>
       <r>    12.5568     0.0000   672.0000 </r>
       <r>    12.8083     0.0000   672.0000 </r>
       <r>    13.0598     0.0000   672.0000 </r>
       <r>    13.3112     0.0000   672.0000 </r>
       <r>    13.5627     0.0000   672.0000 </r>
       <r>    13.8142     0.0000   672.0000 </r>
       <r>    14.0657     0.0000   672.0000 </r>
       <r>    14.3172     0.0000   672.0000 </r>
       <r>    14.5687     0.0000   672.0000 </r>
       <r>    14.8202     0.0000   672.0000 </r>
      </set>
     </set>
    </array>
   </total>
  </dos>
 </calculation>
 <structure name="finalpos" >
  <crystal>
   <varray name="basis" >
    <v>       8.86294242      -0.00384058       0.00560730 </v>
    <v>      -0.00382299       8.95022286      -0.00545602 </v>
    <v>       0.00560405      -0.00540123       8.82869041 </v>
   </varray>
   <i name="volume">    700.33793040 </i>
   <varray name="rec_basis" >
    <v>       0.11282941       0.00004815      -0.00007159 </v>
    <v>       0.00004837       0.11172912       0.00006832 </v>
    <v>      -0.00007163       0.00006902       0.11326717 </v>
   </varray>
  </crystal>
  <varray name="positions" >
   <v>       0.99688986       0.99757251       0.01113804 </v>
   <v>       0.24176488       0.99568605       0.25350100 </v>
   <v>       0.26020636       0.50574575       0.25174986 </v>
   <v>       0.50005425       0.50319487       0.00110498 </v>
   <v>       0.49153759       0.26040423       0.74965910 </v>
   <v>       0.00109883       0.49939473       0.48843146 </v>
   <v>       0.50792277       0.73913809       0.74777002 </v>
   <v>       0.99380588       0.23356729       0.26703681 </v>
   <v>       0.76097404       0.73595008       0.99854728 </v>
   <v>       0.01380874       0.27651842       0.73782570 </v>
   <v>       0.75596235       0.27756626       0.49722487 </v>
   <v>       0.98849063       0.72346437       0.73929098 </v>
   <v>       0.26677665       0.50025411       0.74854362 </v>
   <v>       0.24673283       0.25211687       0.00270930 </v>
   <v>       0.50404958       0.25558966       0.25135478 </v>
   <v>       0.75601152       0.99452575       0.25607652 </v>
   <v>       0.75105042       0.25966706       0.99146911 </v>
   <v>       0.24190002       0.74830761       0.00109366 </v>
   <v>       0.25113759       0.25303987       0.49905993 </v>
   <v>       0.24632986       0.24783825       0.25141100 </v>
   <v>       0.24423755       0.00078617       0.00689344 </v>
   <v>       0.99918327       0.24061899       0.00232899 </v>
   <v>       0.75309395       0.25407801       0.25128610 </v>
   <v>       0.75617908       0.00358358       0.00067129 </v>
   <v>       0.50123390       0.00477566       0.24927735 </v>
   <v>       0.00090933       0.48306194       0.25822902 </v>
   <v>       0.49950443       0.74604460       0.99379274 </v>
   <v>       0.99792905       0.00624363       0.75228408 </v>
   <v>       0.75100771       0.25649471       0.74323459 </v>
   <v>       0.75638738       0.01886986       0.49782589 </v>
   <v>       0.50582263       0.25536236       0.50413793 </v>
   <v>       0.50403817       0.00064954       0.75000443 </v>
   <v>       0.00319516       0.99623202       0.25209288 </v>
   <v>       0.50080502       0.25361441       0.99664786 </v>
   <v>       0.24007666       0.74935009       0.24911839 </v>
   <v>       0.25508687       0.49956451       0.00233013 </v>
   <v>       0.99375006       0.75586164       0.00186458 </v>
   <v>       0.76056350       0.74031374       0.25179089 </v>
   <v>       0.74299549       0.50416101       0.99998787 </v>
   <v>       0.50278353       0.49951772       0.25217744 </v>
   <v>       0.25139011       0.25488176       0.75029505 </v>
   <v>       0.24127021       0.00240345       0.49369834 </v>
   <v>       0.99725045       0.24761873       0.50428088 </v>
   <v>       0.24801768       0.74256783       0.75211652 </v>
   <v>       0.25434937       0.49817188       0.49911728 </v>
   <v>       0.98814046       0.75192798       0.49670587 </v>
   <v>       0.99731735       0.50060124       0.74162470 </v>
   <v>       0.74735322       0.74007035       0.74749530 </v>
   <v>       0.75031996       0.50409429       0.49911478 </v>
   <v>       0.50863714       0.73986092       0.50676972 </v>
   <v>       0.50322318       0.49974629       0.74810171 </v>
   <v>       0.50107333       0.00038324       0.99647206 </v>
   <v>       0.99800841       0.50099983       0.01138223 </v>
   <v>       0.50298515       0.74659208       0.25113105 </v>
   <v>       0.23984118       0.99736589       0.74923229 </v>
   <v>       0.49847582       0.99375594       0.50284164 </v>
   <v>       0.76040182       0.99309034       0.74116269 </v>
   <v>       0.24457699       0.74569427       0.50051678 </v>
   <v>       0.99770878       0.77325810       0.26221512 </v>
   <v>       0.73367323       0.50899302       0.24656447 </v>
   <v>       0.00722969       0.99732057       0.48401526 </v>
   <v>       0.50065231       0.50664107       0.49886790 </v>
   <v>       0.72962297       0.50750127       0.75414136 </v>
   <v>       0.75319443       0.71773434       0.50116373 </v>
  </varray>
 </structure>
</modeling>
