  64  64   0   0
  0.1080205E+02  0.8827658E-09  0.8849571E-09  0.8849803E-09  0.5000000E-15
  1.000000000000000E-004
  CAR 
 HECN                                    
     15.11532154    -52.11097611  301      8.65388535      1.00000000
    -52.111  0.0000E+00  0.0000E+00
    -51.887  0.0000E+00  0.0000E+00
    -51.663  0.0000E+00  0.0000E+00
    -51.439  0.0000E+00  0.0000E+00
    -51.215  0.0000E+00  0.0000E+00
    -50.991  0.0000E+00  0.0000E+00
    -50.766  0.0000E+00  0.0000E+00
    -50.542  0.0000E+00  0.0000E+00
    -50.318  0.0000E+00  0.0000E+00
    -50.094  0.0000E+00  0.0000E+00
    -49.870  0.0000E+00  0.0000E+00
    -49.646  0.4954E-17  0.1110E-17
    -49.422  0.9584E-08  0.2148E-08
    -49.198  0.2005E-02  0.4493E-03
    -48.974  0.1504E+00  0.3416E-01
    -48.750  0.2835E+00  0.9768E-01
    -48.526  0.1284E+00  0.1265E+00
    -48.301  0.6014E-01  0.1399E+00
    -48.077  0.2963E-03  0.1400E+00
    -47.853  0.1792E-09  0.1400E+00
    -47.629  0.3215E-11  0.1400E+00
    -47.405  0.3644E-04  0.1400E+00
    -47.181  0.4123E-01  0.1492E+00
    -46.957  0.2788E+00  0.2117E+00
    -46.733  0.2090E+00  0.2585E+00
    -46.509  0.6517E-02  0.2600E+00
    -46.285  0.1539E-06  0.2600E+00
    -46.061  0.2576E-15  0.2600E+00
    -45.837  0.0000E+00  0.2600E+00
    -45.612  0.0000E+00  0.2600E+00
    -45.388  0.0000E+00  0.2600E+00
    -45.164  0.0000E+00  0.2600E+00
    -44.940  0.0000E+00  0.2600E+00
    -44.716  0.0000E+00  0.2600E+00
    -44.492  0.0000E+00  0.2600E+00
    -44.268  0.0000E+00  0.2600E+00
    -44.044  0.0000E+00  0.2600E+00
    -43.820  0.0000E+00  0.2600E+00
    -43.596  0.0000E+00  0.2600E+00
    -43.372  0.0000E+00  0.2600E+00
    -43.147  0.0000E+00  0.2600E+00
    -42.923  0.0000E+00  0.2600E+00
    -42.699  0.0000E+00  0.2600E+00
    -42.475  0.0000E+00  0.2600E+00
    -42.251  0.0000E+00  0.2600E+00
    -42.027  0.0000E+00  0.2600E+00
    -41.803  0.0000E+00  0.2600E+00
    -41.579  0.0000E+00  0.2600E+00
    -41.355  0.0000E+00  0.2600E+00
    -41.131  0.0000E+00  0.2600E+00
    -40.907  0.6726E-13  0.2600E+00
    -40.683  0.4209E-05  0.2600E+00
    -40.458  0.2061E-01  0.2646E+00
    -40.234  0.8935E-01  0.2846E+00
    -40.010  0.1687E+00  0.3224E+00
    -39.786  0.3162E+00  0.3933E+00
    -39.562  0.2993E-01  0.4000E+00
    -39.338  0.2623E-05  0.4000E+00
    -39.114  0.2403E-13  0.4000E+00
    -38.890  0.0000E+00  0.4000E+00
    -38.666  0.0000E+00  0.4000E+00
    -38.442  0.0000E+00  0.4000E+00
    -38.218  0.0000E+00  0.4000E+00
    -37.993  0.0000E+00  0.4000E+00
    -37.769  0.0000E+00  0.4000E+00
    -37.545  0.0000E+00  0.4000E+00
    -37.321  0.0000E+00  0.4000E+00
    -37.097  0.0000E+00  0.4000E+00
    -36.873  0.0000E+00  0.4000E+00
    -36.649  0.0000E+00  0.4000E+00
    -36.425  0.0000E+00  0.4000E+00
    -36.201  0.0000E+00  0.4000E+00
    -35.977  0.0000E+00  0.4000E+00
    -35.753  0.3567E-15  0.4000E+00
    -35.528  0.1899E-06  0.4000E+00
    -35.304  0.6825E-02  0.4015E+00
    -35.080  0.1208E+00  0.4286E+00
    -34.856  0.8940E+00  0.6289E+00
    -34.632  0.5538E+00  0.7530E+00
    -34.408  0.3107E-01  0.7600E+00
    -34.184  0.1067E-04  0.7600E+00
    -33.960  0.3453E-12  0.7600E+00
    -33.736  0.0000E+00  0.7600E+00
    -33.512  0.0000E+00  0.7600E+00
    -33.288  0.0000E+00  0.7600E+00
    -33.064  0.0000E+00  0.7600E+00
    -32.839  0.0000E+00  0.7600E+00
    -32.615  0.0000E+00  0.7600E+00
    -32.391  0.0000E+00  0.7600E+00
    -32.167  0.0000E+00  0.7600E+00
    -31.943  0.0000E+00  0.7600E+00
    -31.719  0.0000E+00  0.7600E+00
    -31.495  0.0000E+00  0.7600E+00
    -31.271  0.0000E+00  0.7600E+00
    -31.047  0.0000E+00  0.7600E+00
    -30.823  0.0000E+00  0.7600E+00
    -30.599  0.0000E+00  0.7600E+00
    -30.374  0.0000E+00  0.7600E+00
    -30.150  0.0000E+00  0.7600E+00
    -29.926  0.0000E+00  0.7600E+00
    -29.702  0.0000E+00  0.7600E+00
    -29.478  0.0000E+00  0.7600E+00
    -29.254  0.0000E+00  0.7600E+00
    -29.030  0.0000E+00  0.7600E+00
    -28.806  0.0000E+00  0.7600E+00
    -28.582  0.0000E+00  0.7600E+00
    -28.358  0.0000E+00  0.7600E+00
    -28.134  0.0000E+00  0.7600E+00
    -27.910  0.0000E+00  0.7600E+00
    -27.685  0.0000E+00  0.7600E+00
    -27.461  0.3578E-08  0.7600E+00
    -27.237  0.1255E-02  0.7603E+00
    -27.013  0.1152E+00  0.7861E+00
    -26.789  0.3897E+00  0.8734E+00
    -26.565  0.4359E+00  0.9711E+00
    -26.341  0.3068E+00  0.1040E+01
    -26.117  0.3112E+00  0.1110E+01
    -25.893  0.4646E-01  0.1120E+01
    -25.669  0.8189E-03  0.1120E+01
    -25.445  0.1901E+00  0.1163E+01
    -25.220  0.6959E+00  0.1319E+01
    -24.996  0.6908E+00  0.1474E+01
    -24.772  0.2750E+00  0.1535E+01
    -24.548  0.2172E-01  0.1540E+01
    -24.324  0.9404E-06  0.1540E+01
    -24.100  0.3311E-14  0.1540E+01
    -23.876  0.3744E-10  0.1540E+01
    -23.652  0.1726E-03  0.1540E+01
    -23.428  0.1212E+00  0.1567E+01
    -23.204  0.4520E+00  0.1668E+01
    -22.980  0.7692E+00  0.1841E+01
    -22.755  0.2625E+00  0.1900E+01
    -22.531  0.1471E-02  0.1900E+01
    -22.307  0.2652E-08  0.1900E+01
    -22.083  0.0000E+00  0.1900E+01
    -21.859  0.0000E+00  0.1900E+01
    -21.635  0.0000E+00  0.1900E+01
    -21.411  0.0000E+00  0.1900E+01
    -21.187  0.0000E+00  0.1900E+01
    -20.963  0.0000E+00  0.1900E+01
    -20.739  0.0000E+00  0.1900E+01
    -20.515  0.0000E+00  0.1900E+01
    -20.291  0.0000E+00  0.1900E+01
    -20.066  0.0000E+00  0.1900E+01
    -19.842  0.0000E+00  0.1900E+01
    -19.618  0.0000E+00  0.1900E+01
    -19.394  0.4459E-16  0.1900E+01
    -19.170  0.5325E-07  0.1900E+01
    -18.946  0.4332E-02  0.1901E+01
    -18.722  0.1749E+00  0.1940E+01
    -18.498  0.3809E+00  0.2026E+01
    -18.274  0.6935E+00  0.2181E+01
    -18.050  0.4961E+00  0.2292E+01
    -17.826  0.1195E+00  0.2319E+01
    -17.601  0.4955E-02  0.2320E+01
    -17.377  0.8571E-07  0.2320E+01
    -17.153  0.9762E-16  0.2320E+01
    -16.929  0.0000E+00  0.2320E+01
    -16.705  0.0000E+00  0.2320E+01
    -16.481  0.0000E+00  0.2320E+01
    -16.257  0.0000E+00  0.2320E+01
    -16.033  0.0000E+00  0.2320E+01
    -15.809  0.0000E+00  0.2320E+01
    -15.585  0.0000E+00  0.2320E+01
    -15.361  0.0000E+00  0.2320E+01
    -15.137  0.0000E+00  0.2320E+01
    -14.912  0.0000E+00  0.2320E+01
    -14.688  0.0000E+00  0.2320E+01
    -14.464  0.0000E+00  0.2320E+01
    -14.240  0.0000E+00  0.2320E+01
    -14.016  0.0000E+00  0.2320E+01
    -13.792  0.0000E+00  0.2320E+01
    -13.568  0.0000E+00  0.2320E+01
    -13.344  0.0000E+00  0.2320E+01
    -13.120  0.0000E+00  0.2320E+01
    -12.896  0.0000E+00  0.2320E+01
    -12.672  0.0000E+00  0.2320E+01
    -12.447  0.0000E+00  0.2320E+01
    -12.223  0.0000E+00  0.2320E+01
    -11.999  0.0000E+00  0.2320E+01
    -11.775  0.0000E+00  0.2320E+01
    -11.551  0.0000E+00  0.2320E+01
    -11.327  0.0000E+00  0.2320E+01
    -11.103  0.0000E+00  0.2320E+01
    -10.879  0.0000E+00  0.2320E+01
    -10.655  0.0000E+00  0.2320E+01
    -10.431  0.0000E+00  0.2320E+01
    -10.207  0.0000E+00  0.2320E+01
     -9.982  0.0000E+00  0.2320E+01
     -9.758  0.0000E+00  0.2320E+01
     -9.534  0.0000E+00  0.2320E+01
     -9.310  0.0000E+00  0.2320E+01
     -9.086  0.0000E+00  0.2320E+01
     -8.862  0.0000E+00  0.2320E+01
     -8.638  0.0000E+00  0.2320E+01
     -8.414  0.0000E+00  0.2320E+01
     -8.190  0.0000E+00  0.2320E+01
     -7.966  0.3111E-10  0.2320E+01
     -7.742  0.3488E-04  0.2320E+01
     -7.518  0.1701E-01  0.2324E+01
     -7.293  0.7125E-01  0.2340E+01
     -7.069  0.8756E-01  0.2359E+01
     -6.845  0.1057E+00  0.2383E+01
     -6.621  0.9316E-01  0.2404E+01
     -6.397  0.1815E+00  0.2445E+01
     -6.173  0.2468E+00  0.2500E+01
     -5.949  0.1857E+00  0.2542E+01
     -5.725  0.9142E-01  0.2562E+01
     -5.501  0.7817E-01  0.2580E+01
     -5.277  0.1889E-02  0.2580E+01
     -5.053  0.9339E-08  0.2580E+01
     -4.828  0.0000E+00  0.2580E+01
     -4.604  0.0000E+00  0.2580E+01
     -4.380  0.7169E-10  0.2580E+01
     -4.156  0.5298E-04  0.2580E+01
     -3.932  0.1289E-01  0.2583E+01
     -3.708  0.6406E-01  0.2597E+01
     -3.484  0.1695E-01  0.2601E+01
     -3.260  0.8552E-01  0.2620E+01
     -3.036  0.1243E+00  0.2648E+01
     -2.812  0.1600E+00  0.2684E+01
     -2.588  0.2140E+00  0.2732E+01
     -2.364  0.2265E+00  0.2783E+01
     -2.139  0.2478E+00  0.2838E+01
     -1.915  0.2520E+00  0.2895E+01
     -1.691  0.1741E+00  0.2934E+01
     -1.467  0.8525E-01  0.2953E+01
     -1.243  0.2897E-01  0.2959E+01
     -1.019  0.3255E-02  0.2960E+01
     -0.795  0.5664E-05  0.2960E+01
     -0.571  0.1710E-11  0.2960E+01
     -0.347  0.0000E+00  0.2960E+01
     -0.123  0.0000E+00  0.2960E+01
      0.101  0.0000E+00  0.2960E+01
      0.326  0.2663E-15  0.2960E+01
      0.550  0.4322E-07  0.2960E+01
      0.774  0.6035E-03  0.2960E+01
      0.998  0.8526E-02  0.2962E+01
      1.222  0.4214E-01  0.2971E+01
      1.446  0.1019E+00  0.2994E+01
      1.670  0.1165E+00  0.3020E+01
      1.894  0.1533E+00  0.3055E+01
      2.118  0.2127E+00  0.3102E+01
      2.342  0.2617E+00  0.3161E+01
      2.566  0.2898E+00  0.3226E+01
      2.791  0.2641E+00  0.3285E+01
      3.015  0.3520E+00  0.3364E+01
      3.239  0.4024E+00  0.3454E+01
      3.463  0.3804E+00  0.3540E+01
      3.687  0.4381E+00  0.3638E+01
      3.911  0.5071E+00  0.3751E+01
      4.135  0.6007E+00  0.3886E+01
      4.359  0.6315E+00  0.4027E+01
      4.583  0.6408E+00  0.4171E+01
      4.807  0.6187E+00  0.4310E+01
      5.031  0.5365E+00  0.4430E+01
      5.255  0.4449E+00  0.4530E+01
      5.480  0.3901E+00  0.4617E+01
      5.704  0.3301E+00  0.4691E+01
      5.928  0.2863E+00  0.4755E+01
      6.152  0.2101E+00  0.4802E+01
      6.376  0.1745E+00  0.4841E+01
      6.600  0.1289E+00  0.4870E+01
      6.824  0.5354E-01  0.4882E+01
      7.048  0.1029E+00  0.4905E+01
      7.272  0.1705E+00  0.4943E+01
      7.496  0.1726E+00  0.4982E+01
      7.720  0.2234E+00  0.5032E+01
      7.945  0.2085E+00  0.5079E+01
      8.169  0.1935E+00  0.5122E+01
      8.393  0.2547E+00  0.5179E+01
      8.617  0.2698E+00  0.5240E+01
      8.841  0.2902E+00  0.5305E+01
      9.065  0.3492E+00  0.5383E+01
      9.289  0.3724E+00  0.5467E+01
      9.513  0.4359E+00  0.5564E+01
      9.737  0.4662E+00  0.5669E+01
      9.961  0.4471E+00  0.5769E+01
     10.185  0.4918E+00  0.5879E+01
     10.409  0.4961E+00  0.5990E+01
     10.634  0.4862E+00  0.6099E+01
     10.858  0.4935E+00  0.6210E+01
     11.082  0.4799E+00  0.6317E+01
     11.306  0.4625E+00  0.6421E+01
     11.530  0.5247E+00  0.6539E+01
     11.754  0.4810E+00  0.6646E+01
     11.978  0.2883E+00  0.6711E+01
     12.202  0.4017E-01  0.6720E+01
     12.426  0.2573E-03  0.6720E+01
     12.650  0.8317E-09  0.6720E+01
     12.874  0.0000E+00  0.6720E+01
     13.099  0.0000E+00  0.6720E+01
     13.323  0.0000E+00  0.6720E+01
     13.547  0.0000E+00  0.6720E+01
     13.771  0.0000E+00  0.6720E+01
     13.995  0.0000E+00  0.6720E+01
     14.219  0.0000E+00  0.6720E+01
     14.443  0.0000E+00  0.6720E+01
     14.667  0.0000E+00  0.6720E+01
     14.891  0.0000E+00  0.6720E+01
     15.115  0.0000E+00  0.6720E+01
