       N       E                     dE             d eps       ncg     rms          rms(c)
DAV:   1     0.709539122697E+04    0.70954E+04   -0.21060E+05  9528   0.151E+03
DAV:   2     0.483298095764E+03   -0.66121E+04   -0.63633E+04  9408   0.627E+02
DAV:   3    -0.631472546321E+03   -0.11148E+04   -0.10274E+04 14784   0.221E+02
DAV:   4    -0.769500419124E+03   -0.13803E+03   -0.13385E+03 16680   0.952E+01
DAV:   5    -0.787662393261E+03   -0.18162E+02   -0.17889E+02 18672   0.313E+01    0.765E+01
RMM:   6    -0.899048050766E+03   -0.11139E+03   -0.20319E+03 12701   0.120E+02    0.120E+02
RMM:   7    -0.652818554785E+03    0.24623E+03   -0.22833E+02 14993   0.353E+01    0.468E+01
RMM:   8    -0.643318719504E+03    0.94998E+01   -0.59790E+01 15062   0.169E+01    0.230E+01
RMM:   9    -0.641113823302E+03    0.22049E+01   -0.22349E+01 14947   0.110E+01    0.232E+01
RMM:  10    -0.639046306338E+03    0.20675E+01   -0.12207E+01 15637   0.702E+00    0.110E+01
RMM:  11    -0.639140227862E+03   -0.93922E-01   -0.61398E+00 13885   0.667E+00    0.152E+01
RMM:  12    -0.638636485467E+03    0.50374E+00   -0.43202E+00 14145   0.476E+00    0.964E+00
RMM:  13    -0.638674318132E+03   -0.37833E-01   -0.34323E+00 15195   0.339E+00    0.824E+00
RMM:  14    -0.638841797548E+03   -0.16748E+00   -0.13389E+00 14514   0.330E+00    0.941E+00
RMM:  15    -0.638405945782E+03    0.43585E+00   -0.11016E+00 14433   0.242E+00    0.361E+00
RMM:  16    -0.638474251057E+03   -0.68305E-01   -0.75973E-01 15000   0.190E+00    0.449E+00
RMM:  17    -0.638440281668E+03    0.33969E-01   -0.59772E-01 15320   0.143E+00    0.169E+00
RMM:  18    -0.638445606190E+03   -0.53245E-02   -0.29928E-01 14755   0.109E+00    0.158E+00
RMM:  19    -0.638457618725E+03   -0.12013E-01   -0.18135E-01 15283   0.804E-01    0.206E+00
RMM:  20    -0.638435931643E+03    0.21687E-01   -0.15243E-01 14861   0.688E-01    0.588E-01
RMM:  21    -0.638436926829E+03   -0.99519E-03   -0.67756E-02 14474   0.645E-01    0.299E-01
RMM:  22    -0.638440384067E+03   -0.34572E-02   -0.51829E-02 15232   0.342E-01    0.155E-01
RMM:  23    -0.638441977777E+03   -0.15937E-02   -0.25172E-02 15442   0.292E-01    0.111E-01
RMM:  24    -0.638443353485E+03   -0.13757E-02   -0.17182E-02 15012   0.191E-01    0.841E-02
RMM:  25    -0.638444140282E+03   -0.78680E-03   -0.10272E-02 14725   0.155E-01    0.457E-02
RMM:  26    -0.638444688891E+03   -0.54861E-03   -0.66578E-03 13560   0.125E-01    0.302E-02
RMM:  27    -0.638445066471E+03   -0.37758E-03   -0.44528E-03 12904   0.101E-01    0.219E-02
RMM:  28    -0.638445314248E+03   -0.24778E-03   -0.29375E-03 12396   0.824E-02    0.169E-02
RMM:  29    -0.638445484027E+03   -0.16978E-03   -0.19805E-03 12274   0.662E-02    0.743E-03
RMM:  30    -0.638445599752E+03   -0.11573E-03   -0.13426E-03 11991   0.554E-02    0.801E-03
RMM:  31    -0.638445679365E+03   -0.79613E-04   -0.92158E-04 11892   0.456E-02    0.362E-03
RMM:  32    -0.638445733511E+03   -0.54146E-04   -0.63681E-04 11743   0.386E-02    0.651E-03
RMM:  33    -0.638445771915E+03   -0.38403E-04   -0.44018E-04 11709   0.323E-02    0.234E-03
RMM:  34    -0.638445798407E+03   -0.26492E-04   -0.31077E-04 11449   0.274E-02    0.389E-03
RMM:  35    -0.638445816674E+03   -0.18267E-04   -0.21429E-04 11041   0.233E-02    0.135E-03
RMM:  36    -0.638445829018E+03   -0.12344E-04   -0.14989E-04 10561   0.203E-02    0.192E-03
RMM:  37    -0.638445837848E+03   -0.88302E-05   -0.10432E-04 10162   0.173E-02    0.885E-04
RMM:  38    -0.638445843579E+03   -0.57302E-05   -0.71866E-05  9597   0.157E-02
   1 F= -.63844584E+03 E0= -.63837742E+03  d E =-.638446E+03
       N       E                     dE             d eps       ncg     rms          rms(c)
DAV:   1    -0.638447391878E+03   -0.15540E-02   -0.11678E-01 13824   0.178E+00    0.486E-01
RMM:   2    -0.638477237000E+03   -0.29845E-01   -0.43407E-02 12600   0.733E-01    0.208E+00
RMM:   3    -0.638448112425E+03    0.29125E-01   -0.13089E-02 12282   0.423E-01    0.599E-01
RMM:   4    -0.638447051778E+03    0.10606E-02   -0.25872E-03 13553   0.155E-01    0.397E-01
RMM:   5    -0.638446369578E+03    0.68220E-03   -0.11101E-03 13291   0.997E-02    0.265E-01
RMM:   6    -0.638446294808E+03    0.74770E-04   -0.63847E-04 12132   0.842E-02    0.260E-01
RMM:   7    -0.638445943885E+03    0.35092E-03   -0.57932E-04 13466   0.692E-02    0.969E-02
RMM:   8    -0.638446020843E+03   -0.76959E-04   -0.25046E-04 11798   0.528E-02    0.152E-01
RMM:   9    -0.638445914815E+03    0.10603E-03   -0.12647E-04 11666   0.352E-02    0.351E-02
RMM:  10    -0.638445926713E+03   -0.11898E-04   -0.69154E-05 10273   0.219E-02    0.552E-02
RMM:  11    -0.638445916039E+03    0.10674E-04   -0.29556E-05  7709   0.184E-02    0.142E-02
RMM:  12    -0.638445921452E+03   -0.54132E-05   -0.20923E-05  7148   0.146E-02
   2 F= -.63844592E+03 E0= -.63837746E+03  d E =-.778734E-04
       N       E                     dE             d eps       ncg     rms          rms(c)
DAV:   1    -0.638446353009E+03   -0.43697E-03   -0.23417E-02 13704   0.797E-01    0.217E-01
RMM:   2    -0.638452102715E+03   -0.57497E-02   -0.83164E-03 12628   0.324E-01    0.931E-01
RMM:   3    -0.638446493885E+03    0.56088E-02   -0.25849E-03 11815   0.193E-01    0.272E-01
RMM:   4    -0.638446294220E+03    0.19967E-03   -0.59762E-04 11772   0.803E-02    0.191E-01
RMM:   5    -0.638446137000E+03    0.15722E-03   -0.24665E-04 12176   0.482E-02    0.123E-01
RMM:   6    -0.638446120373E+03    0.16627E-04   -0.13551E-04 10181   0.420E-02    0.121E-01
RMM:   7    -0.638446037892E+03    0.82481E-04   -0.12377E-04 10944   0.323E-02    0.409E-02
RMM:   8    -0.638446057600E+03   -0.19708E-04   -0.40220E-05  6686   0.262E-02    0.780E-02
RMM:   9    -0.638446026589E+03    0.31011E-04   -0.23369E-05  6075   0.212E-02    0.189E-02
RMM:  10    -0.638446027654E+03   -0.10651E-05   -0.98753E-06  5767   0.131E-02
   3 F= -.63844603E+03 E0= -.63837756E+03  d E =-.184076E-03
       N       E                     dE             d eps       ncg     rms          rms(c)
DAV:   1    -0.638446038928E+03   -0.12339E-04   -0.10434E-03 13824   0.166E-01    0.461E-02
RMM:   2    -0.638446289094E+03   -0.25017E-03   -0.36484E-04 10470   0.696E-02    0.197E-01
RMM:   3    -0.638446039440E+03    0.24965E-03   -0.10949E-04  7783   0.447E-02    0.601E-02
RMM:   4    -0.638446028581E+03    0.10859E-04   -0.23604E-05  6188   0.208E-02    0.411E-02
RMM:   5    -0.638446022139E+03    0.64419E-05   -0.12228E-05  5731   0.161E-02
   4 F= -.63844602E+03 E0= -.63837759E+03  d E =-.178560E-03
       N       E                     dE             d eps       ncg     rms          rms(c)
DAV:   1    -0.638446053033E+03   -0.24452E-04   -0.36114E-03 13440   0.318E-01    0.940E-02
RMM:   2    -0.638447219383E+03   -0.11664E-02   -0.14787E-03 12127   0.134E-01    0.434E-01
RMM:   3    -0.638446075675E+03    0.11437E-02   -0.48872E-04 10191   0.851E-02    0.117E-01
RMM:   4    -0.638446028975E+03    0.46700E-04   -0.10727E-04  8966   0.369E-02    0.773E-02
RMM:   5    -0.638445998668E+03    0.30307E-04   -0.43773E-05  7542   0.225E-02    0.433E-02
RMM:   6    -0.638446004018E+03   -0.53500E-05   -0.23814E-05  6109   0.205E-02
   5 F= -.63844600E+03 E0= -.63837755E+03  d E =-.160439E-03
       N       E                     dE             d eps       ncg     rms          rms(c)
DAV:   1    -0.638444324907E+03    0.16738E-02   -0.90204E-02 10776   0.167E+00    0.134E-01
RMM:   2    -0.638447010974E+03   -0.26861E-02   -0.22342E-02 15103   0.371E-01    0.355E-01
RMM:   3    -0.638446253378E+03    0.75760E-03   -0.19588E-03 12066   0.169E-01    0.138E-01
RMM:   4    -0.638446404487E+03   -0.15111E-03   -0.72119E-04 13050   0.705E-02    0.223E-01
RMM:   5    -0.638446148974E+03    0.25551E-03   -0.23987E-04 11445   0.564E-02    0.679E-02
RMM:   6    -0.638446173431E+03   -0.24457E-04   -0.15988E-04 11380   0.338E-02    0.115E-01
RMM:   7    -0.638446119368E+03    0.54063E-04   -0.86279E-05 10574   0.307E-02    0.450E-02
RMM:   8    -0.638446132926E+03   -0.13558E-04   -0.76873E-05 10725   0.224E-02    0.774E-02
RMM:   9    -0.638446107681E+03    0.25245E-04   -0.30628E-05  8082   0.217E-02    0.213E-02
RMM:  10    -0.638446108856E+03   -0.11749E-05   -0.26507E-05  7834   0.138E-02
   6 F= -.63844611E+03 E0= -.63837750E+03  d E =-.104838E-03
       N       E                     dE             d eps       ncg     rms          rms(c)
DAV:   1    -0.638446060483E+03    0.47199E-04   -0.29351E-03 11232   0.299E-01    0.255E-02
RMM:   2    -0.638446160245E+03   -0.99762E-04   -0.67361E-04 13224   0.674E-02    0.893E-02
RMM:   3    -0.638446119281E+03    0.40964E-04   -0.58927E-05  6698   0.355E-02    0.332E-02
RMM:   4    -0.638446120925E+03   -0.16447E-05   -0.17503E-05  6031   0.171E-02
   7 F= -.63844612E+03 E0= -.63837752E+03  d E =-.116907E-03
       N       E                     dE             d eps       ncg     rms          rms(c)
DAV:   1    -0.638445068407E+03    0.10509E-02   -0.40541E-02 10752   0.124E+00    0.583E-02
RMM:   2    -0.638446305846E+03   -0.12374E-02   -0.11169E-02 14717   0.250E-01    0.198E-01
RMM:   3    -0.638446179301E+03    0.12654E-03   -0.80229E-04 10277   0.108E-01    0.679E-02
RMM:   4    -0.638446193783E+03   -0.14482E-04   -0.22066E-04 11449   0.373E-02    0.718E-02
RMM:   5    -0.638446170082E+03    0.23701E-04   -0.41862E-05  7729   0.246E-02    0.288E-02
RMM:   6    -0.638446170581E+03   -0.49936E-06   -0.24955E-05  6890   0.173E-02
   8 F= -.63844617E+03 E0= -.63837756E+03  d E =-.496560E-04
       N       E                     dE             d eps       ncg     rms          rms(c)
DAV:   1    -0.638446162352E+03    0.77298E-05   -0.28486E-04 14208   0.101E-01    0.244E-02
RMM:   2    -0.638446330171E+03   -0.16782E-03   -0.13402E-04  8214   0.347E-02    0.185E-01
RMM:   3    -0.638446167745E+03    0.16243E-03   -0.43706E-05  6416   0.286E-02    0.240E-02
RMM:   4    -0.638446166170E+03    0.15748E-05   -0.80863E-06  5584   0.110E-02
   9 F= -.63844617E+03 E0= -.63837754E+03  d E =-.452449E-04
       N       E                     dE             d eps       ncg     rms          rms(c)
DAV:   1    -0.638446161663E+03    0.60825E-05   -0.14762E-04 13008   0.779E-02    0.991E-03
RMM:   2    -0.638446194189E+03   -0.32527E-04   -0.33202E-05  6293   0.191E-02    0.799E-02
RMM:   3    -0.638446164527E+03    0.29662E-04   -0.12941E-05  5731   0.191E-02    0.105E-02
RMM:   4    -0.638446164165E+03    0.36129E-06   -0.29362E-06  4740   0.618E-03
  10 F= -.63844616E+03 E0= -.63837755E+03  d E =-.432401E-04
       N       E                     dE             d eps       ncg     rms          rms(c)
DAV:   1    -0.638446162825E+03    0.17016E-05   -0.29491E-05  7608   0.384E-02    0.627E-03
RMM:   2    -0.638446174279E+03   -0.11454E-04   -0.12243E-05  5687   0.134E-02    0.483E-02
RMM:   3    -0.638446163777E+03    0.10502E-04   -0.49827E-06  4733   0.110E-02    0.568E-03
RMM:   4    -0.638446163847E+03   -0.70300E-07   -0.18877E-06  4410   0.443E-03
  11 F= -.63844616E+03 E0= -.63837755E+03  d E =-.429218E-04
       N       E                     dE             d eps       ncg     rms          rms(c)
DAV:   1    -0.638446163678E+03    0.98749E-07   -0.10837E-05  6024   0.256E-02    0.546E-03
RMM:   2    -0.638446173645E+03   -0.99665E-05   -0.71281E-06  4901   0.107E-02
  12 F= -.63844617E+03 E0= -.63837759E+03  d E =-.527193E-04
       N       E                     dE             d eps       ncg     rms          rms(c)
DAV:   1    -0.638446164269E+03   -0.59056E-06   -0.22838E-05  6000   0.300E-02    0.657E-03
RMM:   2    -0.638446177426E+03   -0.13158E-04   -0.55448E-06  4875   0.855E-03    0.520E-02
RMM:   3    -0.638446164726E+03    0.12700E-04   -0.35972E-06  4029   0.864E-03    0.111E-02
RMM:   4    -0.638446163993E+03    0.73294E-06   -0.47110E-07  3247   0.279E-03
  13 F= -.63844616E+03 E0= -.63837755E+03  d E =-.430679E-04
       N       E                     dE             d eps       ncg     rms          rms(c)
DAV:   1    -0.638446164000E+03    0.72604E-06   -0.76141E-07  5616   0.739E-03    0.221E-03
RMM:   2    -0.638446165715E+03   -0.17148E-05   -0.10447E-06  3884   0.388E-03
  14 F= -.63844617E+03 E0= -.63837754E+03  d E =-.447897E-04
       N       E                     dE             d eps       ncg     rms          rms(c)
DAV:   1    -0.638446240250E+03   -0.76250E-04   -0.55294E-03 13128   0.385E-01    0.816E-02
RMM:   2    -0.638446991070E+03   -0.75082E-03   -0.14997E-03 12599   0.133E-01    0.324E-01
RMM:   3    -0.638446272452E+03    0.71862E-03   -0.36111E-04 10083   0.744E-02    0.802E-02
RMM:   4    -0.638446276599E+03   -0.41466E-05   -0.91492E-05  9127   0.347E-02
  15 F= -.63844628E+03 E0= -.63837768E+03  d E =-.110884E-03
       N       E                     dE             d eps       ncg     rms          rms(c)
DAV:   1    -0.638446395110E+03   -0.12266E-03   -0.49240E-02 12984   0.114E+00    0.259E-01
RMM:   2    -0.638453914365E+03   -0.75193E-02   -0.14063E-02 12768   0.406E-01    0.106E+00
RMM:   3    -0.638446952421E+03    0.69619E-02   -0.36237E-03 12268   0.223E-01    0.370E-01
RMM:   4    -0.638446578352E+03    0.37407E-03   -0.99013E-04 12774   0.982E-02    0.243E-01
RMM:   5    -0.638446223739E+03    0.35461E-03   -0.42113E-04 12773   0.612E-02    0.831E-02
RMM:   6    -0.638446352746E+03   -0.12901E-03   -0.30797E-04 12720   0.557E-02    0.214E-01
RMM:   7    -0.638446137501E+03    0.21524E-03   -0.16364E-04 11311   0.418E-02    0.420E-02
RMM:   8    -0.638446139165E+03   -0.16643E-05   -0.95484E-05 11262   0.261E-02
  16 F= -.63844614E+03 E0= -.63837750E+03  d E =0.265496E-04
       N       E                     dE             d eps       ncg     rms          rms(c)
DAV:   1    -0.638446288541E+03   -0.15104E-03   -0.13878E-02 13032   0.608E-01    0.128E-01
RMM:   2    -0.638448038881E+03   -0.17503E-02   -0.36829E-03 12599   0.208E-01    0.503E-01
RMM:   3    -0.638446360661E+03    0.16782E-02   -0.88159E-04 11485   0.111E-01    0.140E-01
RMM:   4    -0.638446356854E+03    0.38068E-05   -0.23632E-04 10899   0.517E-02    0.146E-01
RMM:   5    -0.638446251562E+03    0.10529E-03   -0.11260E-04 10504   0.347E-02    0.701E-02
RMM:   6    -0.638446261176E+03   -0.96140E-05   -0.58257E-05  7791   0.288E-02
  17 F= -.63844626E+03 E0= -.63837772E+03  d E =-.954608E-04
       N       E                     dE             d eps       ncg     rms          rms(c)
DAV:   1    -0.638446236393E+03    0.15169E-04   -0.14887E-03 13488   0.210E-01    0.569E-02
RMM:   2    -0.638446880333E+03   -0.64394E-03   -0.61490E-04 10921   0.823E-02    0.340E-01
RMM:   3    -0.638446267348E+03    0.61299E-03   -0.20166E-04  8084   0.562E-02    0.826E-02
RMM:   4    -0.638446233750E+03    0.33598E-04   -0.33129E-05  6294   0.228E-02    0.389E-02
RMM:   5    -0.638446241283E+03   -0.75332E-05   -0.18734E-05  5963   0.185E-02
  18 F= -.63844624E+03 E0= -.63837762E+03  d E =-.755681E-04
       N       E                     dE             d eps       ncg     rms          rms(c)
DAV:   1    -0.638446232885E+03    0.86470E-06   -0.10835E-03 13104   0.174E-01    0.409E-02
RMM:   2    -0.638446408036E+03   -0.17515E-03   -0.31518E-04 10708   0.593E-02    0.167E-01
RMM:   3    -0.638446242195E+03    0.16584E-03   -0.83060E-05  7244   0.393E-02    0.538E-02
RMM:   4    -0.638446236289E+03    0.59056E-05   -0.24854E-05  6176   0.202E-02
  19 F= -.63844624E+03 E0= -.63837761E+03  d E =-.705740E-04
       N       E                     dE             d eps       ncg     rms          rms(c)
DAV:   1    -0.638446228711E+03    0.13484E-04   -0.28526E-04 14016   0.896E-02    0.273E-02
RMM:   2    -0.638446322444E+03   -0.93733E-04   -0.11352E-04  8375   0.352E-02    0.135E-01
RMM:   3    -0.638446235347E+03    0.87097E-04   -0.35596E-05  6303   0.274E-02    0.445E-02
RMM:   4    -0.638446228557E+03    0.67903E-05   -0.12458E-05  5876   0.147E-02
  20 F= -.63844623E+03 E0= -.63837758E+03  d E =-.628417E-04
       N       E                     dE             d eps       ncg     rms          rms(c)
DAV:   1    -0.638446222866E+03    0.12481E-04   -0.80098E-05 12408   0.490E-02    0.208E-02
RMM:   2    -0.638446307588E+03   -0.84721E-04   -0.59016E-05  7119   0.270E-02    0.127E-01
RMM:   3    -0.638446224189E+03    0.83399E-04   -0.24964E-05  6217   0.241E-02    0.220E-02
RMM:   4    -0.638446222906E+03    0.12824E-05   -0.53142E-06  4772   0.889E-03
  21 F= -.63844622E+03 E0= -.63837759E+03  d E =-.571912E-04
       N       E                     dE             d eps       ncg     rms          rms(c)
DAV:   1    -0.638446188666E+03    0.35523E-04   -0.27111E-03 11472   0.292E-01    0.300E-02
RMM:   2    -0.638446337480E+03   -0.14881E-03   -0.69656E-04 13189   0.682E-02    0.116E-01
RMM:   3    -0.638446244262E+03    0.93218E-04   -0.76597E-05  7130   0.392E-02    0.279E-02
RMM:   4    -0.638446248176E+03   -0.39138E-05   -0.22119E-05  6157   0.169E-02
  22 F= -.63844625E+03 E0= -.63837765E+03  d E =-.252695E-04
