HECN                                    
           1
     8.827632    0.020971   -0.002264
     0.027133    8.849513   -0.016945
     0.029532   -0.032199    8.849695
   Zr   Ta   Ti   N    C    Cr   Nb
   7   6   7  13  19   6   6
Direct configuration=     1
   0.00502213  0.99593440  0.99776009
   0.27224774  0.99920568  0.25147152
   0.24493116  0.49564686  0.24696933
   0.49750968  0.49840557  0.00063598
   0.50328593  0.24309552  0.74370920
   0.99920838  0.50175016  0.50511637
   0.49433988  0.75972110  0.75203394
   0.99661951  0.23807988  0.25100338
   0.74943158  0.74804346  0.00700681
   0.00111888  0.24652097  0.74947073
   0.75093936  0.24609560  0.49692908
   0.00049942  0.75338592  0.75073272
   0.24784951  0.49478954  0.75193436
   0.25947938  0.23882683  0.99191856
   0.50664734  0.25950312  0.25171076
   0.73243918  0.99313001  0.24898749
   0.74282654  0.24643212  0.00026359
   0.24921210  0.74980873  0.99984131
   0.25185751  0.24652319  0.50556249
   0.25144949  0.75386790  0.50184871
   0.24879955  0.24617621  0.24614710
   0.26153627  0.00098053  0.99366967
   0.00126732  0.25225981  0.00035756
   0.74911823  0.24417580  0.24746446
   0.74363723  0.00071697  0.00562061
   0.51254150  0.00573191  0.24889867
   0.99394939  0.49249207  0.24279085
   0.50022125  0.76155099  0.00843766
   0.98627617  0.00331653  0.74542154
   0.75597374  0.24441083  0.74905292
   0.74566540  0.00786871  0.49046698
   0.50075028  0.24419021  0.49030448
   0.52466164  0.00108005  0.74805911
   0.99807151  0.00006842  0.25182290
   0.50179204  0.23953238  0.00374874
   0.25634399  0.74853021  0.24850039
   0.23853020  0.49966491  0.99477459
   0.00239719  0.74294193  0.00045858
   0.74353386  0.75321838  0.24986342
   0.76042922  0.49752220  0.00138377
   0.50166777  0.49745557  0.25345648
   0.24716628  0.24501647  0.74939105
   0.25915771  0.00047977  0.51221475
   0.00205256  0.24748043  0.49960868
   0.24158132  0.75748636  0.75187626
   0.25389755  0.49935844  0.50262162
   0.00071517  0.75538004  0.50156932
   0.99927165  0.50084156  0.75931624
   0.75143118  0.75828184  0.75465860
   0.74530051  0.49890459  0.49938335
   0.49430999  0.76238530  0.48946029
   0.49875064  0.50132441  0.74538139
   0.51752088  0.01392753  0.97598749
   0.00200473  0.51984863  0.98380483
   0.49565077  0.72793870  0.25632166
   0.22530598  0.01302176  0.73402114
   0.48676225  0.98632906  0.52193820
   0.73670978  0.97512797  0.78853481
   0.00670826  0.75910165  0.25242853
   0.74857592  0.50474514  0.25030465
   0.01032720  0.00136682  0.50063602
   0.49747305  0.51329372  0.49803943
   0.74969729  0.51059699  0.75382231
   0.74555128  0.75511140  0.49307263
HECN                                    
           1
     8.826064    0.021663   -0.002273
     0.027832    8.845367   -0.017520
     0.029516   -0.032759    8.848533
   Zr   Ta   Ti   N    C    Cr   Nb
   7   6   7  13  19   6   6
Direct configuration=     2
   0.00502405  0.99594115  0.99777344
   0.27223635  0.99919569  0.25148778
   0.24494417  0.49564785  0.24697850
   0.49752061  0.49840560  0.00064183
   0.50326484  0.24311966  0.74369931
   0.99920339  0.50175525  0.50511082
   0.49432535  0.75970260  0.75203368
   0.99663099  0.23813610  0.25099119
   0.74943604  0.74804984  0.00699994
   0.00111907  0.24654164  0.74948613
   0.75092868  0.24612742  0.49693553
   0.00048835  0.75340276  0.75073410
   0.24785492  0.49481476  0.75192724
   0.25946645  0.23887539  0.99193711
   0.50662819  0.25949759  0.25169173
   0.73247908  0.99314204  0.24896655
   0.74284920  0.24641879  0.00024877
   0.24922202  0.74980775  0.99985478
   0.25186741  0.24654163  0.50553623
   0.25144794  0.75385825  0.50183778
   0.24881703  0.24617454  0.24613803
   0.26159323  0.00095563  0.99363013
   0.00126591  0.25233724  0.00036826
   0.74909945  0.24415992  0.24743629
   0.74362714  0.00073107  0.00564770
   0.51255420  0.00568853  0.24884866
   0.99394767  0.49249781  0.24274864
   0.50019463  0.76161102  0.00848022
   0.98625929  0.00331054  0.74540952
   0.75596799  0.24434827  0.74905982
   0.74562424  0.00784872  0.49050283
   0.50072386  0.24415870  0.49027773
   0.52461937  0.00107958  0.74806401
   0.99804481  0.00005773  0.25182298
   0.50179359  0.23951393  0.00375677
   0.25637399  0.74852509  0.24850688
   0.23850537  0.49964379  0.99479487
   0.00241497  0.74291026  0.00047280
   0.74351419  0.75323861  0.24986251
   0.76045948  0.49749268  0.00138254
   0.50166133  0.49747277  0.25345479
   0.24717677  0.24498609  0.74939202
   0.25920109  0.00047626  0.51221351
   0.00206892  0.24749538  0.49960350
   0.24159578  0.75751377  0.75188092
   0.25389050  0.49935956  0.50261790
   0.00072322  0.75537503  0.50157107
   0.99926730  0.50083368  0.75933419
   0.75142958  0.75831137  0.75465813
   0.74530217  0.49890880  0.49938895
   0.49428910  0.76243656  0.48944471
   0.49874827  0.50132171  0.74538104
   0.51747872  0.01391134  0.97607638
   0.00197759  0.51980224  0.98384477
   0.49566608  0.72800095  0.25631290
   0.22535612  0.01298099  0.73401898
   0.48680322  0.98634463  0.52194847
   0.73675016  0.97520658  0.78848526
   0.00669264  0.75903354  0.25243440
   0.74856984  0.50471200  0.25030629
   0.01029731  0.00135437  0.50061191
   0.49748580  0.51324422  0.49803974
   0.74970249  0.51053941  0.75381026
   0.74552888  0.75511309  0.49308638
HECN                                    
           1
     8.826764    0.021354   -0.002269
     0.027520    8.847218   -0.017263
     0.029523   -0.032509    8.849052
   Zr   Ta   Ti   N    C    Cr   Nb
   7   6   7  13  19   6   6
Direct configuration=     3
   0.00502319  0.99593814  0.99776748
   0.27224143  0.99920015  0.25148052
   0.24493836  0.49564741  0.24697441
   0.49751573  0.49840559  0.00063922
   0.50327426  0.24310888  0.74370373
   0.99920562  0.50175298  0.50511330
   0.49433184  0.75971086  0.75203380
   0.99662586  0.23811099  0.25099663
   0.74943405  0.74804699  0.00700301
   0.00111898  0.24653241  0.74947925
   0.75093345  0.24611321  0.49693265
   0.00049329  0.75339524  0.75073349
   0.24785251  0.49480350  0.75193042
   0.25947222  0.23885370  0.99192883
   0.50663674  0.25950006  0.25170023
   0.73246126  0.99313667  0.24897590
   0.74283908  0.24642475  0.00025539
   0.24921759  0.74980819  0.99984877
   0.25186299  0.24653340  0.50554796
   0.25144863  0.75386256  0.50184266
   0.24880922  0.24617529  0.24614208
   0.26156780  0.00096675  0.99364779
   0.00126654  0.25230266  0.00036348
   0.74910784  0.24416701  0.24744887
   0.74363164  0.00072477  0.00563561
   0.51254853  0.00570791  0.24887099
   0.99394844  0.49249525  0.24276749
   0.50020652  0.76158420  0.00846122
   0.98626683  0.00331322  0.74541489
   0.75597056  0.24437621  0.74905674
   0.74564262  0.00785764  0.49048682
   0.50073565  0.24417277  0.49028968
   0.52463824  0.00107979  0.74806182
   0.99805673  0.00006250  0.25182295
   0.50179290  0.23952217  0.00375319
   0.25636059  0.74852737  0.24850399
   0.23851645  0.49965322  0.99478582
   0.00240703  0.74292440  0.00046645
   0.74352297  0.75322958  0.24986292
   0.76044597  0.49750586  0.00138309
   0.50166421  0.49746509  0.25345554
   0.24717209  0.24499966  0.74939159
   0.25918172  0.00047783  0.51221406
   0.00206162  0.24748870  0.49960581
   0.24158933  0.75750153  0.75187884
   0.25389365  0.49935906  0.50261956
   0.00071963  0.75537727  0.50157029
   0.99926924  0.50083720  0.75932617
   0.75143030  0.75829818  0.75465834
   0.74530143  0.49890692  0.49938645
   0.49429843  0.76241367  0.48945167
   0.49874933  0.50132292  0.74538120
   0.51749754  0.01391857  0.97603669
   0.00198971  0.51982296  0.98382694
   0.49565924  0.72797315  0.25631681
   0.22533373  0.01299920  0.73401994
   0.48678493  0.98633767  0.52194388
   0.73673213  0.97517147  0.78850738
   0.00669961  0.75906396  0.25243178
   0.74857255  0.50472680  0.25030556
   0.01031065  0.00135993  0.50062268
   0.49748010  0.51326633  0.49803960
   0.74970017  0.51056513  0.75381564
   0.74553888  0.75511233  0.49308024
HECN                                    
           1
     8.826621    0.021417   -0.002270
     0.027584    8.846840   -0.017316
     0.029522   -0.032560    8.848946
   Zr   Ta   Ti   N    C    Cr   Nb
   7   6   7  13  19   6   6
Direct configuration=     4
   0.00502337  0.99593875  0.99776870
   0.27224039  0.99919924  0.25148200
   0.24493955  0.49564750  0.24697524
   0.49751673  0.49840559  0.00063975
   0.50327233  0.24311108  0.74370283
   0.99920517  0.50175344  0.50511279
   0.49433051  0.75970917  0.75203377
   0.99662691  0.23811612  0.25099552
   0.74943446  0.74804757  0.00700238
   0.00111900  0.24653429  0.74948066
   0.75093247  0.24611612  0.49693324
   0.00049228  0.75339677  0.75073361
   0.24785300  0.49480580  0.75192977
   0.25947104  0.23885814  0.99193052
   0.50663499  0.25949955  0.25169849
   0.73246490  0.99313777  0.24897399
   0.74284115  0.24642353  0.00025403
   0.24921850  0.74980810  0.99984999
   0.25186389  0.24653508  0.50554556
   0.25144849  0.75386168  0.50184166
   0.24881082  0.24617514  0.24614125
   0.26157300  0.00096448  0.99364418
   0.00126641  0.25230972  0.00036446
   0.74910612  0.24416556  0.24744630
   0.74363072  0.00072606  0.00563808
   0.51254969  0.00570395  0.24886643
   0.99394828  0.49249577  0.24276363
   0.50020409  0.76158968  0.00846510
   0.98626529  0.00331267  0.74541379
   0.75597003  0.24437050  0.74905737
   0.74563886  0.00785582  0.49049010
   0.50073324  0.24416989  0.49028723
   0.52463438  0.00107974  0.74806227
   0.99805429  0.00006153  0.25182295
   0.50179304  0.23952049  0.00375392
   0.25636333  0.74852691  0.24850458
   0.23851419  0.49965129  0.99478767
   0.00240865  0.74292151  0.00046775
   0.74352118  0.75323142  0.24986283
   0.76044873  0.49750317  0.00138298
   0.50166362  0.49746666  0.25345539
   0.24717304  0.24499688  0.74939168
   0.25918568  0.00047751  0.51221395
   0.00206311  0.24749006  0.49960534
   0.24159065  0.75750403  0.75187926
   0.25389300  0.49935916  0.50261922
   0.00072036  0.75537681  0.50157045
   0.99926885  0.50083648  0.75932781
   0.75143015  0.75830088  0.75465829
   0.74530158  0.49890731  0.49938697
   0.49429652  0.76241835  0.48945024
   0.49874911  0.50132267  0.74538116
   0.51749370  0.01391709  0.97604481
   0.00198723  0.51981872  0.98383058
   0.49566064  0.72797883  0.25631601
   0.22533831  0.01299548  0.73401975
   0.48678867  0.98633910  0.52194482
   0.73673582  0.97517865  0.78850286
   0.00669819  0.75905775  0.25243232
   0.74857200  0.50472377  0.25030571
   0.01030793  0.00135879  0.50062048
   0.49748127  0.51326181  0.49803963
   0.74970064  0.51055988  0.75381454
   0.74553684  0.75511249  0.49308149
HECN                                    
           1
     8.826343    0.021540   -0.002272
     0.027708    8.846103   -0.017418
     0.029519   -0.032660    8.848740
   Zr   Ta   Ti   N    C    Cr   Nb
   7   6   7  13  19   6   6
Direct configuration=     5
   0.00502371  0.99593995  0.99777107
   0.27223837  0.99919746  0.25148489
   0.24494186  0.49564767  0.24697687
   0.49751867  0.49840560  0.00064079
   0.50326859  0.24311537  0.74370107
   0.99920428  0.50175435  0.50511181
   0.49432793  0.75970588  0.75203373
   0.99662895  0.23812611  0.25099336
   0.74943525  0.74804870  0.00700116
   0.00111904  0.24653797  0.74948340
   0.75093058  0.24612177  0.49693438
   0.00049032  0.75339977  0.75073386
   0.24785396  0.49481028  0.75192850
   0.25946875  0.23886676  0.99193381
   0.50663159  0.25949857  0.25169511
   0.73247199  0.99313990  0.24897027
   0.74284518  0.24642116  0.00025140
   0.24922026  0.74980792  0.99985239
   0.25186565  0.24653836  0.50554090
   0.25144821  0.75385997  0.50183972
   0.24881392  0.24617484  0.24613964
   0.26158311  0.00096006  0.99363715
   0.00126616  0.25232348  0.00036636
   0.74910279  0.24416274  0.24744130
   0.74362893  0.00072856  0.00564289
   0.51255194  0.00569624  0.24885754
   0.99394797  0.49249679  0.24275614
   0.50019936  0.76160035  0.00847266
   0.98626229  0.00331160  0.74541166
   0.75596901  0.24435939  0.74905860
   0.74563155  0.00785227  0.49049646
   0.50072855  0.24416430  0.49028249
   0.52462688  0.00107966  0.74806314
   0.99804955  0.00005963  0.25182297
   0.50179332  0.23951721  0.00375535
   0.25636866  0.74852600  0.24850573
   0.23850978  0.49964754  0.99479127
   0.00241181  0.74291588  0.00047028
   0.74351769  0.75323502  0.24986267
   0.76045410  0.49749793  0.00138276
   0.50166248  0.49746971  0.25345509
   0.24717491  0.24499149  0.74939185
   0.25919339  0.00047688  0.51221373
   0.00206601  0.24749272  0.49960442
   0.24159321  0.75750890  0.75188009
   0.25389175  0.49935936  0.50261856
   0.00072179  0.75537592  0.50157076
   0.99926808  0.50083508  0.75933100
   0.75142986  0.75830612  0.75465821
   0.74530188  0.49890805  0.49938796
   0.49429281  0.76242745  0.48944748
   0.49874869  0.50132219  0.74538110
   0.51748621  0.01391421  0.97606059
   0.00198241  0.51981048  0.98383768
   0.49566336  0.72798989  0.25631446
   0.22534721  0.01298824  0.73401936
   0.48679595  0.98634186  0.52194664
   0.73674299  0.97519261  0.78849406
   0.00669541  0.75904565  0.25243336
   0.74857092  0.50471789  0.25030600
   0.01030262  0.00135658  0.50061619
   0.49748353  0.51325302  0.49803968
   0.74970156  0.51054965  0.75381240
   0.74553286  0.75511279  0.49308394
HECN                                    
           1
     8.827440    0.022159   -0.002214
     0.028334    8.844776   -0.017868
     0.029579   -0.033100    8.850154
   Zr   Ta   Ti   N    C    Cr   Nb
   7   6   7  13  19   6   6
Direct configuration=     6
   0.00503024  0.99595170  0.99778870
   0.27223607  0.99918040  0.25150687
   0.24497251  0.49565014  0.24699239
   0.49753464  0.49841060  0.00065722
   0.50323887  0.24311171  0.74369680
   0.99919506  0.50175703  0.50510824
   0.49431465  0.75971580  0.75203240
   0.99663499  0.23821192  0.25098530
   0.74944218  0.74807403  0.00699056
   0.00113021  0.24656686  0.74949856
   0.75092046  0.24617061  0.49693570
   0.00047098  0.75342651  0.75073568
   0.24785866  0.49484975  0.75192354
   0.25944661  0.23893388  0.99196244
   0.50660324  0.25946511  0.25166773
   0.73253270  0.99317211  0.24894250
   0.74287396  0.24639203  0.00023240
   0.24924337  0.74982068  0.99987562
   0.25188436  0.24656108  0.50550217
   0.25144827  0.75385351  0.50183016
   0.24884440  0.24617358  0.24612618
   0.26166347  0.00092352  0.99358737
   0.00126664  0.25244863  0.00037766
   0.74907187  0.24413912  0.24739936
   0.74362767  0.00075533  0.00567081
   0.51256628  0.00562452  0.24877386
   0.99394919  0.49251278  0.24269513
   0.50015923  0.76169146  0.00853299
   0.98624130  0.00330867  0.74539903
   0.75595891  0.24425451  0.74907526
   0.74557501  0.00781416  0.49055353
   0.50068529  0.24412094  0.49024073
   0.52456975  0.00108761  0.74808055
   0.99801404  0.00004324  0.25182265
   0.50179087  0.23949157  0.00376673
   0.25640385  0.74851671  0.24851549
   0.23849069  0.49961156  0.99481902
   0.00243295  0.74288233  0.00048622
   0.74349250  0.75325891  0.24986274
   0.76048423  0.49744128  0.00138370
   0.50165500  0.49749196  0.25345010
   0.24718800  0.24494956  0.74939384
   0.25925060  0.00047388  0.51221747
   0.00209140  0.24750873  0.49959920
   0.24161045  0.75755400  0.75188504
   0.25388534  0.49935847  0.50261219
   0.00073233  0.75537083  0.50157127
   0.99926154  0.50082423  0.75934138
   0.75142319  0.75833788  0.75465076
   0.74530402  0.49891606  0.49939659
   0.49426924  0.76249982  0.48942524
   0.49874727  0.50131550  0.74538377
   0.51743190  0.01387846  0.97614763
   0.00195817  0.51973072  0.98388013
   0.49568637  0.72807898  0.25630959
   0.22540644  0.01290557  0.73401205
   0.48684777  0.98637960  0.52195128
   0.73676143  0.97531151  0.78846685
   0.00666686  0.75894425  0.25243117
   0.74855081  0.50466508  0.25030705
   0.01027098  0.00134424  0.50059509
   0.49749570  0.51318711  0.49803184
   0.74970415  0.51047525  0.75379862
   0.74550124  0.75512217  0.49310805
HECN                                    
           1
     8.827245    0.022049   -0.002225
     0.028223    8.845012   -0.017788
     0.029568   -0.033022    8.849903
   Zr   Ta   Ti   N    C    Cr   Nb
   7   6   7  13  19   6   6
Direct configuration=     7
   0.00502908  0.99594961  0.99778556
   0.27223648  0.99918343  0.25150297
   0.24496707  0.49564970  0.24698963
   0.49753181  0.49840971  0.00065430
   0.50324415  0.24311236  0.74369756
   0.99919670  0.50175655  0.50510887
   0.49431701  0.75971404  0.75203264
   0.99663392  0.23819668  0.25098673
   0.74944095  0.74806953  0.00699244
   0.00112823  0.24656173  0.74949586
   0.75092225  0.24616193  0.49693547
   0.00047441  0.75342176  0.75073535
   0.24785783  0.49484274  0.75192442
   0.25945054  0.23892196  0.99195735
   0.50660827  0.25947105  0.25167259
   0.73252192  0.99316639  0.24894743
   0.74286884  0.24639721  0.00023577
   0.24923927  0.74981841  0.99987149
   0.25188104  0.24655704  0.50550905
   0.25144826  0.75385466  0.50183186
   0.24883899  0.24617381  0.24612857
   0.26164919  0.00093002  0.99359622
   0.00126656  0.25242639  0.00037565
   0.74907737  0.24414332  0.24740681
   0.74362790  0.00075057  0.00566585
   0.51256373  0.00563726  0.24878872
   0.99394898  0.49250994  0.24270597
   0.50016636  0.76167527  0.00852227
   0.98624503  0.00330919  0.74540127
   0.75596070  0.24427314  0.74907230
   0.74558505  0.00782093  0.49054339
   0.50069297  0.24412864  0.49024814
   0.52457990  0.00108620  0.74807746
   0.99802034  0.00004615  0.25182271
   0.50179131  0.23949613  0.00376471
   0.25639760  0.74851836  0.24851375
   0.23849408  0.49961795  0.99481409
   0.00242920  0.74288829  0.00048339
   0.74349698  0.75325467  0.24986273
   0.76047887  0.49745135  0.00138354
   0.50165633  0.49748800  0.25345099
   0.24718567  0.24495701  0.74939349
   0.25924043  0.00047441  0.51221680
   0.00208689  0.24750589  0.49960013
   0.24160739  0.75754598  0.75188416
   0.25388648  0.49935863  0.50261332
   0.00073046  0.75537174  0.50157118
   0.99926270  0.50082615  0.75933954
   0.75142437  0.75833224  0.75465208
   0.74530364  0.49891464  0.49939506
   0.49427342  0.76248696  0.48942919
   0.49874752  0.50131669  0.74538330
   0.51744155  0.01388481  0.97613217
   0.00196247  0.51974489  0.98387259
   0.49568228  0.72806315  0.25631045
   0.22539592  0.01292026  0.73401335
   0.48683856  0.98637289  0.52195046
   0.73675816  0.97529038  0.78847168
   0.00667193  0.75896226  0.25243156
   0.74855438  0.50467447  0.25030686
   0.01027660  0.00134643  0.50059884
   0.49749354  0.51319882  0.49803324
   0.74970369  0.51048847  0.75380107
   0.74550685  0.75512051  0.49310377
HECN                                    
           1
     8.827142    0.022132   -0.002211
     0.028305    8.845328   -0.017808
     0.029581   -0.033043    8.849617
   Zr   Ta   Ti   N    C    Cr   Nb
   7   6   7  13  19   6   6
Direct configuration=     8
   0.00503974  0.99596001  0.99780140
   0.27223283  0.99916913  0.25151752
   0.24499618  0.49565669  0.24699991
   0.49754396  0.49841857  0.00066645
   0.50322141  0.24310737  0.74369865
   0.99919098  0.50175774  0.50511354
   0.49431079  0.75971926  0.75203410
   0.99662919  0.23824898  0.25098904
   0.74945117  0.74808829  0.00698417
   0.00114330  0.24658089  0.74949785
   0.75092092  0.24619631  0.49693014
   0.00045900  0.75343903  0.75074042
   0.24785929  0.49487715  0.75192657
   0.25943757  0.23896963  0.99197099
   0.50659491  0.25944297  0.25164929
   0.73256244  0.99319400  0.24892696
   0.74288092  0.24637886  0.00022681
   0.24925197  0.74982828  0.99989007
   0.25188832  0.24656997  0.50549007
   0.25144657  0.75385030  0.50182650
   0.24885758  0.24617243  0.24611889
   0.26169380  0.00090746  0.99357352
   0.00126867  0.25250960  0.00038082
   0.74905909  0.24412797  0.24738437
   0.74363481  0.00076559  0.00567496
   0.51257195  0.00558373  0.24872216
   0.99395279  0.49252378  0.24267145
   0.50014809  0.76173692  0.00855388
   0.98624009  0.00331086  0.74539691
   0.75595526  0.24419120  0.74908022
   0.74554854  0.00779568  0.49057897
   0.50066742  0.24409893  0.49022246
   0.52454380  0.00109389  0.74809809
   0.99800249  0.00003904  0.25182178
   0.50178921  0.23948648  0.00376765
   0.25641161  0.74851254  0.24851863
   0.23849356  0.49959412  0.99482648
   0.00243667  0.74287108  0.00048809
   0.74348450  0.75326476  0.24986275
   0.76048878  0.49741694  0.00138315
   0.50165467  0.49750530  0.25344789
   0.24718855  0.24493379  0.74939460
   0.25926209  0.00047490  0.51221408
   0.00209947  0.24751225  0.49959840
   0.24161193  0.75757317  0.75188702
   0.25388468  0.49935869  0.50261199
   0.00073345  0.75536957  0.50157313
   0.99926080  0.50082272  0.75933943
   0.75141836  0.75834909  0.75464997
   0.74530381  0.49892096  0.49939909
   0.49426423  0.76252044  0.48941847
   0.49874567  0.50131308  0.74538673
   0.51740476  0.01385147  0.97619173
   0.00194318  0.51967043  0.98390026
   0.49570839  0.72814059  0.25631021
   0.22543818  0.01284530  0.73399550
   0.48688387  0.98641284  0.52195608
   0.73675765  0.97538186  0.78846917
   0.00664936  0.75889249  0.25242554
   0.74852734  0.50463471  0.25030706
   0.01026226  0.00134263  0.50058132
   0.49750140  0.51315620  0.49802177
   0.74970397  0.51043617  0.75379737
   0.74548216  0.75512472  0.49311766
HECN                                    
           1
     8.827149    0.022126   -0.002212
     0.028299    8.845305   -0.017806
     0.029580   -0.033042    8.849637
   Zr   Ta   Ti   N    C    Cr   Nb
   7   6   7  13  19   6   6
Direct configuration=     9
   0.00503897  0.99595925  0.99780024
   0.27223310  0.99917017  0.25151646
   0.24499405  0.49565618  0.24699916
   0.49754307  0.49841792  0.00066557
   0.50322307  0.24310773  0.74369857
   0.99919140  0.50175765  0.50511320
   0.49431124  0.75971888  0.75203399
   0.99662953  0.23824517  0.25098888
   0.74945043  0.74808692  0.00698477
   0.00114221  0.24657949  0.74949771
   0.75092102  0.24619381  0.49693053
   0.00046012  0.75343777  0.75074005
   0.24785918  0.49487464  0.75192642
   0.25943852  0.23896615  0.99196999
   0.50659589  0.25944502  0.25165099
   0.73255949  0.99319198  0.24892845
   0.74288004  0.24638019  0.00022746
   0.24925104  0.74982756  0.99988871
   0.25188779  0.24656903  0.50549145
   0.25144669  0.75385062  0.50182689
   0.24885622  0.24617253  0.24611960
   0.26169055  0.00090910  0.99357518
   0.00126851  0.25250353  0.00038044
   0.74906042  0.24412909  0.24738600
   0.74363430  0.00076449  0.00567430
   0.51257135  0.00558763  0.24872701
   0.99395251  0.49252277  0.24267397
   0.50014942  0.76173242  0.00855157
   0.98624045  0.00331074  0.74539723
   0.75595566  0.24419718  0.74907964
   0.74555120  0.00779752  0.49057638
   0.50066928  0.24410110  0.49022434
   0.52454643  0.00109333  0.74809659
   0.99800379  0.00003956  0.25182185
   0.50178937  0.23948719  0.00376744
   0.25641059  0.74851296  0.24851827
   0.23849360  0.49959585  0.99482557
   0.00243613  0.74287234  0.00048774
   0.74348541  0.75326402  0.24986275
   0.76048806  0.49741944  0.00138318
   0.50165479  0.49750403  0.25344811
   0.24718834  0.24493548  0.74939452
   0.25926051  0.00047487  0.51221428
   0.00209855  0.24751179  0.49959852
   0.24161160  0.75757119  0.75188681
   0.25388481  0.49935868  0.50261209
   0.00073323  0.75536972  0.50157299
   0.99926094  0.50082297  0.75933943
   0.75141880  0.75834786  0.75465012
   0.74530380  0.49892049  0.49939880
   0.49426490  0.76251800  0.48941925
   0.49874581  0.50131334  0.74538648
   0.51740744  0.01385390  0.97618738
   0.00194459  0.51967586  0.98389824
   0.49570649  0.72813494  0.25631023
   0.22543510  0.01285077  0.73399681
   0.48688056  0.98640993  0.52195567
   0.73675769  0.97537519  0.78846936
   0.00665101  0.75889758  0.25242598
   0.74852931  0.50463761  0.25030704
   0.01026330  0.00134291  0.50058260
   0.49750083  0.51315931  0.49802261
   0.74970395  0.51043998  0.75379764
   0.74548396  0.75512441  0.49311665
HECN                                    
           1
     8.827143    0.022131   -0.002211
     0.028303    8.845324   -0.017807
     0.029581   -0.033043    8.849621
   Zr   Ta   Ti   N    C    Cr   Nb
   7   6   7  13  19   6   6
Direct configuration=    10
   0.00503959  0.99595986  0.99780118
   0.27223288  0.99916933  0.25151732
   0.24499577  0.49565659  0.24699976
   0.49754379  0.49841844  0.00066628
   0.50322173  0.24310744  0.74369863
   0.99919106  0.50175772  0.50511347
   0.49431088  0.75971918  0.75203408
   0.99662925  0.23824825  0.25098901
   0.74945103  0.74808803  0.00698428
   0.00114309  0.24658062  0.74949782
   0.75092094  0.24619583  0.49693022
   0.00045921  0.75343879  0.75074035
   0.24785927  0.49487667  0.75192654
   0.25943775  0.23896896  0.99197080
   0.50659510  0.25944336  0.25164962
   0.73256187  0.99319361  0.24892724
   0.74288076  0.24637911  0.00022693
   0.24925179  0.74982814  0.99988981
   0.25188821  0.24656979  0.50549033
   0.25144659  0.75385036  0.50182658
   0.24885732  0.24617245  0.24611903
   0.26169317  0.00090777  0.99357384
   0.00126864  0.25250844  0.00038075
   0.74905934  0.24412819  0.24738468
   0.74363471  0.00076538  0.00567484
   0.51257183  0.00558448  0.24872309
   0.99395273  0.49252358  0.24267193
   0.50014834  0.76173606  0.00855344
   0.98624016  0.00331084  0.74539697
   0.75595534  0.24419235  0.74908011
   0.74554905  0.00779603  0.49057847
   0.50066777  0.24409935  0.49022282
   0.52454431  0.00109378  0.74809780
   0.99800274  0.00003914  0.25182179
   0.50178924  0.23948662  0.00376761
   0.25641142  0.74851262  0.24851856
   0.23849357  0.49959445  0.99482630
   0.00243657  0.74287132  0.00048802
   0.74348468  0.75326462  0.24986275
   0.76048864  0.49741742  0.00138316
   0.50165469  0.49750505  0.25344793
   0.24718851  0.24493412  0.74939459
   0.25926179  0.00047489  0.51221412
   0.00209930  0.24751217  0.49959842
   0.24161186  0.75757279  0.75188698
   0.25388470  0.49935868  0.50261201
   0.00073340  0.75536960  0.50157310
   0.99926082  0.50082277  0.75933943
   0.75141845  0.75834885  0.75465000
   0.74530381  0.49892087  0.49939904
   0.49426436  0.76251997  0.48941862
   0.49874570  0.50131313  0.74538668
   0.51740527  0.01385193  0.97619089
   0.00194345  0.51967147  0.98389987
   0.49570803  0.72813950  0.25631021
   0.22543759  0.01284635  0.73399575
   0.48688323  0.98641229  0.52195600
   0.73675766  0.97538058  0.78846921
   0.00664968  0.75889347  0.25242563
   0.74852771  0.50463526  0.25030705
   0.01026246  0.00134269  0.50058157
   0.49750129  0.51315680  0.49802193
   0.74970397  0.51043690  0.75379742
   0.74548251  0.75512466  0.49311747
HECN                                    
           1
     8.827146    0.022128   -0.002212
     0.028301    8.845315   -0.017807
     0.029580   -0.033042    8.849629
   Zr   Ta   Ti   N    C    Cr   Nb
   7   6   7  13  19   6   6
Direct configuration=    11
   0.00503928  0.99595956  0.99780071
   0.27223299  0.99916975  0.25151689
   0.24499491  0.49565638  0.24699946
   0.49754343  0.49841818  0.00066593
   0.50322240  0.24310759  0.74369860
   0.99919123  0.50175769  0.50511334
   0.49431106  0.75971903  0.75203403
   0.99662939  0.23824671  0.25098894
   0.74945073  0.74808748  0.00698453
   0.00114265  0.24658006  0.74949776
   0.75092098  0.24619482  0.49693038
   0.00045967  0.75343828  0.75074020
   0.24785922  0.49487566  0.75192648
   0.25943814  0.23896756  0.99197039
   0.50659549  0.25944419  0.25165030
   0.73256068  0.99319280  0.24892785
   0.74288040  0.24637965  0.00022720
   0.24925141  0.74982785  0.99988926
   0.25188800  0.24656941  0.50549089
   0.25144664  0.75385049  0.50182673
   0.24885677  0.24617249  0.24611931
   0.26169186  0.00090844  0.99357451
   0.00126858  0.25250599  0.00038059
   0.74905988  0.24412864  0.24738534
   0.74363451  0.00076494  0.00567457
   0.51257159  0.00558606  0.24872505
   0.99395262  0.49252317  0.24267295
   0.50014888  0.76173424  0.00855250
   0.98624031  0.00331079  0.74539710
   0.75595550  0.24419476  0.74907988
   0.74555012  0.00779677  0.49057742
   0.50066853  0.24410023  0.49022358
   0.52454537  0.00109356  0.74809719
   0.99800327  0.00003935  0.25182182
   0.50178930  0.23948690  0.00376752
   0.25641100  0.74851279  0.24851841
   0.23849358  0.49959515  0.99482594
   0.00243635  0.74287183  0.00048788
   0.74348504  0.75326432  0.24986275
   0.76048835  0.49741843  0.00138317
   0.50165474  0.49750454  0.25344802
   0.24718842  0.24493480  0.74939455
   0.25926115  0.00047488  0.51221420
   0.00209892  0.24751198  0.49959847
   0.24161173  0.75757199  0.75188690
   0.25388476  0.49935868  0.50261205
   0.00073332  0.75536966  0.50157305
   0.99926088  0.50082287  0.75933943
   0.75141862  0.75834836  0.75465006
   0.74530380  0.49892068  0.49939892
   0.49426463  0.76251899  0.48941894
   0.49874575  0.50131323  0.74538658
   0.51740635  0.01385291  0.97618914
   0.00194402  0.51967367  0.98389906
   0.49570726  0.72813722  0.25631022
   0.22543635  0.01284856  0.73399628
   0.48688190  0.98641111  0.52195583
   0.73675768  0.97537789  0.78846928
   0.00665034  0.75889552  0.25242580
   0.74852851  0.50463644  0.25030705
   0.01026288  0.00134280  0.50058208
   0.49750106  0.51315805  0.49802227
   0.74970396  0.51043844  0.75379753
   0.74548324  0.75512453  0.49311706
HECN                                    
           1
     8.827144    0.022130   -0.002212
     0.028303    8.845321   -0.017807
     0.029581   -0.033043    8.849623
   Zr   Ta   Ti   N    C    Cr   Nb
   7   6   7  13  19   6   6
Direct configuration=    12
   0.00503949  0.99595976  0.99780102
   0.27223292  0.99916947  0.25151717
   0.24499548  0.49565652  0.24699966