  64  64   0   0
  0.1129557E+02  0.8932500E-09  0.9055600E-09  0.8937200E-09  0.5000000E-15
  1.000000000000000E-004
  CAR 
 HECN                                    
     15.26488267    -59.26922357  301      9.15279526      1.00000000
    -59.269  0.0000E+00  0.0000E+00
    -59.021  0.0000E+00  0.0000E+00
    -58.772  0.0000E+00  0.0000E+00
    -58.524  0.0000E+00  0.0000E+00
    -58.275  0.0000E+00  0.0000E+00
    -58.027  0.0000E+00  0.0000E+00
    -57.779  0.0000E+00  0.0000E+00
    -57.530  0.0000E+00  0.0000E+00
    -57.282  0.0000E+00  0.0000E+00
    -57.033  0.0000E+00  0.0000E+00
    -56.785  0.0000E+00  0.0000E+00
    -56.536  0.0000E+00  0.0000E+00
    -56.288  0.3605E-09  0.8957E-10
    -56.039  0.1075E-02  0.2670E-03
    -55.791  0.2008E+00  0.5015E-01
    -55.543  0.3553E+00  0.1384E+00
    -55.294  0.6362E-02  0.1400E+00
    -55.046  0.1300E-07  0.1400E+00
    -54.797  0.0000E+00  0.1400E+00
    -54.549  0.0000E+00  0.1400E+00
    -54.300  0.0000E+00  0.1400E+00
    -54.052  0.0000E+00  0.1400E+00
    -53.803  0.0000E+00  0.1400E+00
    -53.555  0.0000E+00  0.1400E+00
    -53.306  0.0000E+00  0.1400E+00
    -53.058  0.0000E+00  0.1400E+00
    -52.810  0.0000E+00  0.1400E+00
    -52.561  0.0000E+00  0.1400E+00
    -52.313  0.0000E+00  0.1400E+00
    -52.064  0.0000E+00  0.1400E+00
    -51.816  0.0000E+00  0.1400E+00
    -51.567  0.0000E+00  0.1400E+00
    -51.319  0.0000E+00  0.1400E+00
    -51.070  0.0000E+00  0.1400E+00
    -50.822  0.0000E+00  0.1400E+00
    -50.574  0.0000E+00  0.1400E+00
    -50.325  0.0000E+00  0.1400E+00
    -50.077  0.0000E+00  0.1400E+00
    -49.828  0.0000E+00  0.1400E+00
    -49.580  0.0000E+00  0.1400E+00
    -49.331  0.0000E+00  0.1400E+00
    -49.083  0.1576E-13  0.1400E+00
    -48.834  0.7535E-05  0.1400E+00
    -48.586  0.4877E-01  0.1521E+00
    -48.338  0.2082E+00  0.2038E+00
    -48.089  0.1984E+00  0.2531E+00
    -47.841  0.6363E-01  0.2689E+00
    -47.592  0.4449E-01  0.2800E+00
    -47.344  0.2916E-04  0.2800E+00
    -47.095  0.1747E-05  0.2800E+00
    -46.847  0.2619E-01  0.2865E+00
    -46.598  0.1998E+00  0.3361E+00
    -46.350  0.1764E+00  0.3800E+00
    -46.102  0.8011E-01  0.3999E+00
    -45.853  0.5246E-03  0.4000E+00
    -45.605  0.8112E-10  0.4000E+00
    -45.356  0.0000E+00  0.4000E+00
    -45.108  0.0000E+00  0.4000E+00
    -44.859  0.0000E+00  0.4000E+00
    -44.611  0.0000E+00  0.4000E+00
    -44.362  0.0000E+00  0.4000E+00
    -44.114  0.0000E+00  0.4000E+00
    -43.866  0.0000E+00  0.4000E+00
    -43.617  0.0000E+00  0.4000E+00
    -43.369  0.0000E+00  0.4000E+00
    -43.120  0.0000E+00  0.4000E+00
    -42.872  0.0000E+00  0.4000E+00
    -42.623  0.0000E+00  0.4000E+00
    -42.375  0.0000E+00  0.4000E+00
    -42.126  0.0000E+00  0.4000E+00
    -41.878  0.0000E+00  0.4000E+00
    -41.629  0.0000E+00  0.4000E+00
    -41.381  0.0000E+00  0.4000E+00
    -41.133  0.0000E+00  0.4000E+00
    -40.884  0.0000E+00  0.4000E+00
    -40.636  0.0000E+00  0.4000E+00
    -40.387  0.0000E+00  0.4000E+00
    -40.139  0.0000E+00  0.4000E+00
    -39.890  0.0000E+00  0.4000E+00
    -39.642  0.0000E+00  0.4000E+00
    -39.393  0.0000E+00  0.4000E+00
    -39.145  0.0000E+00  0.4000E+00
    -38.897  0.0000E+00  0.4000E+00
    -38.648  0.0000E+00  0.4000E+00
    -38.400  0.0000E+00  0.4000E+00
    -38.151  0.0000E+00  0.4000E+00
    -37.903  0.0000E+00  0.4000E+00
    -37.654  0.0000E+00  0.4000E+00
    -37.406  0.0000E+00  0.4000E+00
    -37.157  0.0000E+00  0.4000E+00
    -36.909  0.0000E+00  0.4000E+00
    -36.661  0.0000E+00  0.4000E+00
    -36.412  0.0000E+00  0.4000E+00
    -36.164  0.0000E+00  0.4000E+00
    -35.915  0.0000E+00  0.4000E+00
    -35.667  0.0000E+00  0.4000E+00
    -35.418  0.0000E+00  0.4000E+00
    -35.170  0.4038E-09  0.4000E+00
    -34.921  0.1120E-02  0.4003E+00
    -34.673  0.1812E+00  0.4453E+00
    -34.425  0.8928E+00  0.6671E+00
    -34.176  0.3723E+00  0.7596E+00
    -33.928  0.1588E-02  0.7600E+00
    -33.679  0.4218E-09  0.7600E+00
    -33.431  0.0000E+00  0.7600E+00
    -33.182  0.0000E+00  0.7600E+00
    -32.934  0.0000E+00  0.7600E+00
    -32.685  0.0000E+00  0.7600E+00
    -32.437  0.0000E+00  0.7600E+00
    -32.188  0.0000E+00  0.7600E+00
    -31.940  0.0000E+00  0.7600E+00
    -31.692  0.0000E+00  0.7600E+00
    -31.443  0.0000E+00  0.7600E+00
    -31.195  0.0000E+00  0.7600E+00
    -30.946  0.0000E+00  0.7600E+00
    -30.698  0.0000E+00  0.7600E+00
    -30.449  0.4469E-16  0.7600E+00
    -30.201  0.3323E-06  0.7600E+00
    -29.952  0.3197E-01  0.7679E+00
    -29.704  0.8961E+00  0.9906E+00
    -29.456  0.7294E+00  0.1172E+01
    -29.207  0.3301E-01  0.1180E+01
    -28.959  0.3394E-05  0.1180E+01
    -28.710  0.3881E-14  0.1180E+01
    -28.462  0.0000E+00  0.1180E+01
    -28.213  0.0000E+00  0.1180E+01
    -27.965  0.0000E+00  0.1180E+01
    -27.716  0.0000E+00  0.1180E+01
    -27.468  0.0000E+00  0.1180E+01
    -27.220  0.0000E+00  0.1180E+01
    -26.971  0.0000E+00  0.1180E+01
    -26.723  0.2295E-13  0.1180E+01
    -26.474  0.9007E-05  0.1180E+01
    -26.226  0.5778E-01  0.1194E+01
    -25.977  0.6339E+00  0.1352E+01
    -25.729  0.7104E+00  0.1528E+01
    -25.480  0.4687E-01  0.1540E+01
    -25.232  0.3875E-03  0.1540E+01
    -24.984  0.1785E+00  0.1584E+01
    -24.735  0.5479E+00  0.1721E+01
    -24.487  0.6122E+00  0.1873E+01
    -24.238  0.2333E+00  0.1931E+01
    -23.990  0.1181E+00  0.1960E+01
    -23.741  0.9963E-04  0.1960E+01
    -23.493  0.1539E-08  0.1960E+01
    -23.244  0.2054E-02  0.1961E+01
    -22.996  0.1783E+00  0.2005E+01
    -22.748  0.6099E+00  0.2156E+01
    -22.499  0.4254E+00  0.2262E+01
    -22.251  0.2279E+00  0.2319E+01
    -22.002  0.5453E-02  0.2320E+01
    -21.754  0.8593E-08  0.2320E+01
    -21.505  0.0000E+00  0.2320E+01
    -21.257  0.0000E+00  0.2320E+01
    -21.008  0.0000E+00  0.2320E+01
    -20.760  0.0000E+00  0.2320E+01
    -20.511  0.0000E+00  0.2320E+01
    -20.263  0.0000E+00  0.2320E+01
    -20.015  0.0000E+00  0.2320E+01
    -19.766  0.0000E+00  0.2320E+01
    -19.518  0.0000E+00  0.2320E+01
    -19.269  0.0000E+00  0.2320E+01
    -19.021  0.0000E+00  0.2320E+01
    -18.772  0.0000E+00  0.2320E+01
    -18.524  0.0000E+00  0.2320E+01
    -18.275  0.0000E+00  0.2320E+01
    -18.027  0.0000E+00  0.2320E+01
    -17.779  0.0000E+00  0.2320E+01
    -17.530  0.0000E+00  0.2320E+01
    -17.282  0.0000E+00  0.2320E+01
    -17.033  0.0000E+00  0.2320E+01
    -16.785  0.0000E+00  0.2320E+01
    -16.536  0.0000E+00  0.2320E+01
    -16.288  0.0000E+00  0.2320E+01
    -16.039  0.0000E+00  0.2320E+01
    -15.791  0.0000E+00  0.2320E+01
    -15.543  0.0000E+00  0.2320E+01
    -15.294  0.0000E+00  0.2320E+01
    -15.046  0.0000E+00  0.2320E+01
    -14.797  0.0000E+00  0.2320E+01
    -14.549  0.0000E+00  0.2320E+01
    -14.300  0.0000E+00  0.2320E+01
    -14.052  0.0000E+00  0.2320E+01
    -13.803  0.0000E+00  0.2320E+01
    -13.555  0.0000E+00  0.2320E+01
    -13.307  0.0000E+00  0.2320E+01
    -13.058  0.0000E+00  0.2320E+01
    -12.810  0.0000E+00  0.2320E+01
    -12.561  0.0000E+00  0.2320E+01
    -12.313  0.0000E+00  0.2320E+01
    -12.064  0.0000E+00  0.2320E+01
    -11.816  0.0000E+00  0.2320E+01
    -11.567  0.0000E+00  0.2320E+01
    -11.319  0.0000E+00  0.2320E+01
    -11.071  0.0000E+00  0.2320E+01
    -10.822  0.0000E+00  0.2320E+01
    -10.574  0.0000E+00  0.2320E+01
    -10.325  0.0000E+00  0.2320E+01
    -10.077  0.0000E+00  0.2320E+01
     -9.828  0.0000E+00  0.2320E+01
     -9.580  0.0000E+00  0.2320E+01
     -9.331  0.0000E+00  0.2320E+01
     -9.083  0.0000E+00  0.2320E+01
     -8.834  0.0000E+00  0.2320E+01
     -8.586  0.0000E+00  0.2320E+01
     -8.338  0.0000E+00  0.2320E+01
     -8.089  0.0000E+00  0.2320E+01
     -7.841  0.3310E-18  0.2320E+01
     -7.592  0.3977E-08  0.2320E+01
     -7.344  0.5437E-03  0.2320E+01
     -7.095  0.3484E-01  0.2329E+01
     -6.847  0.5100E-01  0.2341E+01
     -6.598  0.1043E+00  0.2367E+01
     -6.350  0.1413E+00  0.2402E+01
     -6.102  0.1825E+00  0.2448E+01
     -5.853  0.2794E+00  0.2517E+01
     -5.605  0.2183E+00  0.2571E+01
     -5.356  0.3432E-01  0.2580E+01
     -5.108  0.5471E-05  0.2580E+01
     -4.859  0.1017E-13  0.2580E+01
     -4.611  0.0000E+00  0.2580E+01
     -4.362  0.8966E-12  0.2580E+01
     -4.114  0.1631E-04  0.2580E+01
     -3.866  0.1088E-01  0.2583E+01
     -3.617  0.5670E-01  0.2597E+01
     -3.369  0.2687E-01  0.2603E+01
     -3.120  0.7696E-01  0.2623E+01
     -2.872  0.9056E-01  0.2645E+01
     -2.623  0.1735E+00  0.2688E+01
     -2.375  0.1870E+00  0.2735E+01
     -2.126  0.2374E+00  0.2794E+01
     -1.878  0.2488E+00  0.2855E+01
     -1.630  0.2202E+00  0.2910E+01
     -1.381  0.1575E+00  0.2949E+01
     -1.133  0.4213E-01  0.2960E+01
     -0.884  0.8697E-03  0.2960E+01
     -0.636  0.1665E-07  0.2960E+01
     -0.387  0.0000E+00  0.2960E+01
     -0.139  0.0000E+00  0.2960E+01
      0.110  0.0000E+00  0.2960E+01
      0.358  0.0000E+00  0.2960E+01
      0.607  0.1265E-10  0.2960E+01
      0.855  0.4043E-04  0.2960E+01
      1.103  0.4704E-02  0.2961E+01
      1.352  0.1760E-01  0.2966E+01
      1.600  0.6779E-01  0.2982E+01
      1.849  0.9456E-01  0.3006E+01
      2.097  0.1312E+00  0.3038E+01
      2.346  0.2161E+00  0.3092E+01
      2.594  0.2760E+00  0.3161E+01
      2.843  0.3092E+00  0.3238E+01
      3.091  0.3034E+00  0.3313E+01
      3.339  0.3325E+00  0.3396E+01
      3.588  0.3485E+00  0.3482E+01
      3.836  0.4154E+00  0.3585E+01
      4.085  0.4981E+00  0.3709E+01
      4.333  0.5820E+00  0.3854E+01
      4.582  0.6429E+00  0.4013E+01
      4.830  0.6523E+00  0.4175E+01
      5.079  0.6065E+00  0.4326E+01
      5.327  0.5099E+00  0.4453E+01
      5.575  0.4032E+00  0.4553E+01
      5.824  0.3310E+00  0.4635E+01
      6.072  0.3244E+00  0.4716E+01
      6.321  0.2628E+00  0.4781E+01
      6.569  0.1793E+00  0.4826E+01
      6.818  0.1511E+00  0.4863E+01
      7.066  0.5181E-01  0.4876E+01
      7.315  0.7760E-01  0.4895E+01
      7.563  0.1508E+00  0.4933E+01
      7.811  0.2057E+00  0.4984E+01
      8.060  0.2222E+00  0.5039E+01
      8.308  0.2204E+00  0.5094E+01
      8.557  0.1913E+00  0.5141E+01
      8.805  0.3125E+00  0.5219E+01
      9.054  0.2869E+00  0.5290E+01
      9.302  0.3049E+00  0.5366E+01
      9.551  0.4275E+00  0.5472E+01
      9.799  0.5506E+00  0.5609E+01
     10.047  0.5317E+00  0.5741E+01
     10.296  0.5502E+00  0.5878E+01
     10.544  0.5486E+00  0.6014E+01
     10.793  0.5417E+00  0.6149E+01
     11.041  0.5814E+00  0.6293E+01
     11.290  0.5848E+00  0.6439E+01
     11.538  0.5487E+00  0.6575E+01
     11.787  0.4752E+00  0.6693E+01
     12.035  0.1084E+00  0.6720E+01
     12.284  0.2907E-03  0.6720E+01
     12.532  0.6829E-10  0.6720E+01
     12.780  0.0000E+00  0.6720E+01
     13.029  0.0000E+00  0.6720E+01
     13.277  0.0000E+00  0.6720E+01
     13.526  0.0000E+00  0.6720E+01
     13.774  0.0000E+00  0.6720E+01
     14.023  0.0000E+00  0.6720E+01
     14.271  0.0000E+00  0.6720E+01
     14.520  0.0000E+00  0.6720E+01
     14.768  0.0000E+00  0.6720E+01
     15.016  0.0000E+00  0.6720E+01
     15.265  0.0000E+00  0.6720E+01
