 running on   24 total cores
 distrk:  each k-point on   24 cores,    1 groups
 distr:  one band on    1 cores,   24 groups
 using from now: INCAR     
 vasp.5.4.4.18Apr17-6-g9f103f2a35 (build Oct 18 2021 20:38:43) complex          
  
 POSCAR found type information on POSCAR  V  Nb Ti N  C  Cr Ta
 POSCAR found :  7 types and      64 ions
 scaLAPACK will be used

 ----------------------------------------------------------------------------- 
|                                                                             |
|           W    W    AA    RRRRR   N    N  II  N    N   GGGG   !!!           |
|           W    W   A  A   R    R  NN   N  II  NN   N  G    G  !!!           |
|           W    W  A    A  R    R  N N  N  II  N N  N  G       !!!           |
|           W WW W  AAAAAA  RRRRR   N  N N  II  N  N N  G  GGG   !            |
|           WW  WW  A    A  R   R   N   NN  II  N   NN  G    G                |
|           W    W  A    A  R    R  N    N  II  N    N   GGGG   !!!           |
|                                                                             |
|      For optimal performance we recommend to set                            |
|        NCORE= 4 - approx SQRT( number of cores)                             |
|      NCORE specifies how many cores store one orbital (NPAR=cpu/NCORE).     |
|      This setting can  greatly improve the performance of VASP for DFT.     |
|      The default,   NCORE=1            might be grossly inefficient         |
|      on modern multi-core architectures or massively parallel machines.     |
|      Do your own testing !!!!                                               |
|      Unfortunately you need to use the default for GW and RPA calculations. |
|      (for HF NCORE is supported but not extensively tested yet)             |
|                                                                             |
 ----------------------------------------------------------------------------- 


 ----------------------------------------------------------------------------- 
|                                                                             |
|  ADVICE TO THIS USER RUNNING 'VASP/VAMP'   (HEAR YOUR MASTER'S VOICE ...):  |
|                                                                             |
|      You have a (more or less) 'large supercell' and for larger cells       |
|      it might be more efficient to use real space projection operators      |
|      So try LREAL= Auto  in the INCAR   file.                               |
|      Mind: If you want to do a very accurate calculations keep the          |
|      reciprocal projection scheme          (i.e. LREAL=.FALSE.)             |
|                                                                             |
 ----------------------------------------------------------------------------- 

 LDA part: xc-table for Pade appr. of Perdew
 POSCAR, INCAR and KPOINTS ok, starting setup
 FFT: planning ...
 WAVECAR not read
 entering main loop
       N       E                     dE             d eps       ncg     rms          rms(c)
DAV:   1     0.765127472766E+04    0.76513E+04   -0.22250E+05  9600   0.153E+03
DAV:   2     0.533764587317E+03   -0.71175E+04   -0.69053E+04  9408   0.645E+02
DAV:   3    -0.618057139501E+03   -0.11518E+04   -0.10667E+04 14352   0.230E+02
DAV:   4    -0.773128768094E+03   -0.15507E+03   -0.15022E+03 16176   0.101E+02
DAV:   5    -0.794182718837E+03   -0.21054E+02   -0.20598E+02 18696   0.322E+01    0.821E+01
RMM:   6    -0.905398133870E+03   -0.11122E+03   -0.24820E+03 12662   0.127E+02    0.128E+02
RMM:   7    -0.650031218103E+03    0.25537E+03   -0.29112E+02 14326   0.489E+01    0.568E+01
RMM:   8    -0.639517601387E+03    0.10514E+02   -0.73826E+01 14528   0.192E+01    0.426E+01
RMM:   9    -0.628309259274E+03    0.11208E+02   -0.34994E+01 14660   0.154E+01    0.302E+01
RMM:  10    -0.624306821746E+03    0.40024E+01   -0.15577E+01 14996   0.789E+00    0.171E+01
RMM:  11    -0.624500655535E+03   -0.19383E+00   -0.66400E+00 14726   0.645E+00    0.217E+01
RMM:  12    -0.623426753132E+03    0.10739E+01   -0.45056E+00 15120   0.486E+00    0.159E+01
RMM:  13    -0.622809412888E+03    0.61734E+00   -0.31303E+00 14879   0.395E+00    0.126E+01
RMM:  14    -0.623455671817E+03   -0.64626E+00   -0.31553E+00 14772   0.445E+00    0.174E+01
RMM:  15    -0.622627397314E+03    0.82827E+00   -0.31535E+00 14626   0.399E+00    0.873E+00
RMM:  16    -0.622863500181E+03   -0.23610E+00   -0.15110E+00 14264   0.307E+00    0.126E+01
RMM:  17    -0.622348637972E+03    0.51486E+00   -0.72066E-01 14465   0.230E+00    0.508E+00
RMM:  18    -0.622441139607E+03   -0.92502E-01   -0.74403E-01 14652   0.179E+00    0.777E+00
RMM:  19    -0.622281067247E+03    0.16007E+00   -0.52775E-01 14567   0.185E+00    0.584E+00
RMM:  20    -0.622172148714E+03    0.10892E+00   -0.38118E-01 15107   0.120E+00    0.184E+00
RMM:  21    -0.622174307195E+03   -0.21585E-02   -0.19359E-01 14298   0.904E-01    0.195E+00
RMM:  22    -0.622172045887E+03    0.22613E-02   -0.11540E-01 14718   0.609E-01    0.167E+00
RMM:  23    -0.622187681618E+03   -0.15636E-01   -0.60582E-02 14520   0.617E-01    0.282E+00
RMM:  24    -0.622161771334E+03    0.25910E-01   -0.45496E-02 14731   0.513E-01    0.880E-01
RMM:  25    -0.622159105533E+03    0.26658E-02   -0.45798E-02 14891   0.369E-01    0.406E-01
RMM:  26    -0.622160868193E+03   -0.17627E-02   -0.20781E-02 14303   0.307E-01    0.464E-01
RMM:  27    -0.622160658064E+03    0.21013E-03   -0.13281E-02 14383   0.188E-01    0.157E-01
RMM:  28    -0.622160921667E+03   -0.26360E-03   -0.71425E-03 13818   0.134E-01    0.971E-02
RMM:  29    -0.622161259032E+03   -0.33737E-03   -0.44993E-03 13701   0.107E-01    0.992E-02
RMM:  30    -0.622161533046E+03   -0.27401E-03   -0.31010E-03 12781   0.760E-02    0.102E-01
WARNING in EDDRMM: call to ZHEGV failed, returncode =   6  3      6
RMM:  31    -0.622161622554E+03   -0.89508E-04   -0.18977E-03 12436   0.637E-02    0.371E-02
RMM:  32    -0.622161725139E+03   -0.10258E-03   -0.13294E-03 12211   0.505E-02    0.263E-02
RMM:  33    -0.622161801968E+03   -0.76830E-04   -0.86951E-04 12121   0.461E-02    0.204E-02
RMM:  34    -0.622161850576E+03   -0.48608E-04   -0.59816E-04 11650   0.378E-02    0.188E-02
RMM:  35    -0.622161875113E+03   -0.24537E-04   -0.36167E-04 11061   0.290E-02    0.623E-03
RMM:  36    -0.622161900189E+03   -0.25076E-04   -0.28269E-04 11094   0.251E-02    0.444E-03
RMM:  37    -0.622161914657E+03   -0.14468E-04   -0.17002E-04 10367   0.222E-02    0.416E-03
RMM:  38    -0.622161925536E+03   -0.10879E-04   -0.12232E-04  9742   0.185E-02    0.262E-03
RMM:  39    -0.622161932352E+03   -0.68163E-05   -0.80599E-05  9414   0.173E-02
   1 F= -.62216193E+03 E0= -.62205108E+03  d E =-.622162E+03
 curvature:   0.00 expect dE= 0.000E+00 dE for cont linesearch  0.000E+00
 trial: gam= 0.00000 g(F)=  0.962E+01 g(S)=  0.266E+02 ort = 0.000E+00 (trialstep = 0.100E+01)
 search vector abs. value=  0.362E+02
 bond charge predicted
       N       E                     dE             d eps       ncg     rms          rms(c)
DAV:   1    -0.888446247647E+03   -0.26628E+03   -0.97440E+03 13080   0.423E+02    0.117E+02
RMM:   2    -0.820377366645E+03    0.68069E+02   -0.21468E+03 11344   0.180E+02    0.926E+01
RMM:   3    -0.709084368155E+03    0.11129E+03   -0.24892E+02 14198   0.469E+01    0.739E+01
RMM:   4    -0.657495283324E+03    0.51589E+02   -0.12053E+02 12759   0.341E+01    0.462E+01
RMM:   5    -0.638563200782E+03    0.18932E+02   -0.85214E+01 11868   0.316E+01    0.391E+01
RMM:   6    -0.624270564099E+03    0.14293E+02   -0.31838E+01 12427   0.214E+01    0.237E+01
RMM:   7    -0.622583161054E+03    0.16874E+01   -0.15902E+01 14860   0.937E+00    0.168E+01
RMM:   8    -0.621436119335E+03    0.11470E+01   -0.51057E+00 14896   0.619E+00    0.108E+01
RMM:   9    -0.621623035984E+03   -0.18692E+00   -0.29085E+00 14130   0.448E+00    0.116E+01
RMM:  10    -0.621142641477E+03    0.48039E+00   -0.14362E+00 14392   0.386E+00    0.478E+00
RMM:  11    -0.621423958616E+03   -0.28132E+00   -0.11791E+00 15869   0.235E+00    0.612E+00
RMM:  12    -0.621438302858E+03   -0.14344E-01   -0.72439E-01 15254   0.224E+00    0.427E+00
RMM:  13    -0.621518626690E+03   -0.80324E-01   -0.60901E-01 15629   0.184E+00    0.385E+00
RMM:  14    -0.621539383657E+03   -0.20757E-01   -0.47876E-01 15502   0.156E+00    0.219E+00
RMM:  15    -0.621576965579E+03   -0.37582E-01   -0.27209E-01 15706   0.127E+00    0.243E+00
RMM:  16    -0.621592013074E+03   -0.15047E-01   -0.21805E-01 15194   0.102E+00    0.158E+00
RMM:  17    -0.621593625087E+03   -0.16120E-02   -0.15139E-01 15586   0.814E-01    0.756E-01
RMM:  18    -0.621600499921E+03   -0.68748E-02   -0.10351E-01 15587   0.635E-01    0.610E-01
RMM:  19    -0.621602568683E+03   -0.20688E-02   -0.56386E-02 15780   0.510E-01    0.481E-01
RMM:  20    -0.621603463000E+03   -0.89432E-03   -0.35305E-02 16008   0.339E-01    0.271E-01
RMM:  21    -0.621604705591E+03   -0.12426E-02   -0.19069E-02 15680   0.259E-01    0.190E-01
RMM:  22    -0.621605514868E+03   -0.80928E-03   -0.12178E-02 15347   0.197E-01    0.113E-01
RMM:  23    -0.621606024797E+03   -0.50993E-03   -0.67022E-03 15113   0.161E-01    0.925E-02
RMM:  24    -0.621606364881E+03   -0.34008E-03   -0.46573E-03 14299   0.111E-01    0.702E-02
RMM:  25    -0.621606548568E+03   -0.18369E-03   -0.27022E-03 13794   0.944E-02    0.580E-02
RMM:  26    -0.621606672957E+03   -0.12439E-03   -0.16528E-03 13092   0.762E-02    0.440E-02
RMM:  27    -0.621606742174E+03   -0.69217E-04   -0.99743E-04 12552   0.593E-02    0.227E-02
WARNING in EDDRMM: call to ZHEGV failed, returncode =   8  4     12
RMM:  28    -0.621606789656E+03   -0.47482E-04   -0.66461E-04 12317   0.487E-02    0.173E-02
RMM:  29    -0.621606824502E+03   -0.34846E-04   -0.41046E-04 12073   0.412E-02    0.119E-02
RMM:  30    -0.621606845787E+03   -0.21285E-04   -0.27659E-04 11573   0.331E-02    0.916E-03
RMM:  31    -0.621606858195E+03   -0.12408E-04   -0.16492E-04 11090   0.286E-02    0.295E-03
RMM:  32    -0.621606867404E+03   -0.92092E-05   -0.11521E-04 10722   0.230E-02    0.648E-03
RMM:  33    -0.621606873307E+03   -0.59025E-05   -0.73128E-05 10062   0.201E-02
   2 F= -.62160687E+03 E0= -.62153156E+03  d E =0.555059E+00
 trial-energy change:    0.555059  1 .order    4.677158  -36.229549   45.583865
 step:   0.5183(harm=  0.4428)  dis= 0.10884  next Energy=  -632.124889 (dE=-0.996E+01)
 bond charge predicted
       N       E                     dE             d eps       ncg     rms          rms(c)
DAV:   1    -0.717626125255E+03   -0.96019E+02   -0.25083E+03 12480   0.206E+02    0.947E+01
RMM:   2    -0.988139562729E+03   -0.27051E+03   -0.72009E+02 14010   0.787E+01    0.106E+02
RMM:   3    -0.680732979076E+03    0.30741E+03   -0.24577E+02 12961   0.587E+01    0.450E+01
RMM:   4    -0.654589553280E+03    0.26143E+02   -0.80509E+01 13383   0.305E+01    0.436E+01
RMM:   5    -0.642967544058E+03    0.11622E+02   -0.27220E+01 13129   0.182E+01    0.341E+01
RMM:   6    -0.640733846059E+03    0.22337E+01   -0.25851E+01 13368   0.146E+01    0.326E+01
RMM:   7    -0.635898445634E+03    0.48354E+01   -0.20010E+01 13409   0.115E+01    0.255E+01
RMM:   8    -0.635564378765E+03    0.33407E+00   -0.78540E+00 13570   0.717E+00    0.230E+01
RMM:   9    -0.633695721954E+03    0.18687E+01   -0.25083E+00 12595   0.529E+00    0.163E+01
RMM:  10    -0.632427837286E+03    0.12679E+01   -0.12130E+00 13482   0.351E+00    0.657E+00
RMM:  11    -0.632437178428E+03   -0.93411E-02   -0.81435E-01 15017   0.223E+00    0.688E+00
RMM:  12    -0.632230622522E+03    0.20656E+00   -0.46929E-01 15277   0.178E+00    0.361E+00
RMM:  13    -0.632233220494E+03   -0.25980E-02   -0.29548E-01 15645   0.121E+00    0.300E+00
RMM:  14    -0.632215910844E+03    0.17310E-01   -0.20766E-01 15226   0.105E+00    0.156E+00
RMM:  15    -0.632231998138E+03   -0.16087E-01   -0.13231E-01 15257   0.868E-01    0.205E+00
RMM:  16    -0.632226068879E+03    0.59293E-02   -0.10698E-01 15355   0.633E-01    0.124E+00
RMM:  17    -0.632233958906E+03   -0.78900E-02   -0.64998E-02 15361   0.575E-01    0.140E+00
RMM:  18    -0.632237013743E+03   -0.30548E-02   -0.59066E-02 15299   0.465E-01    0.871E-01
RMM:  19    -0.632244365862E+03   -0.73521E-02   -0.34569E-02 15166   0.409E-01    0.101E+00
RMM:  20    -0.632246190279E+03   -0.18244E-02   -0.23171E-02 14995   0.301E-01    0.791E-01
RMM:  21    -0.632243990548E+03    0.21997E-02   -0.17633E-02 14811   0.268E-01    0.582E-01
RMM:  22    -0.632242030032E+03    0.19605E-02   -0.21992E-02 14992   0.295E-01    0.206E-01
RMM:  23    -0.632242789072E+03   -0.75904E-03   -0.88343E-03 14414   0.236E-01    0.239E-01
RMM:  24    -0.632243065360E+03   -0.27629E-03   -0.64104E-03 13837   0.137E-01    0.161E-01
RMM:  25    -0.632243100070E+03   -0.34710E-04   -0.31644E-03 13307   0.107E-01    0.143E-01
RMM:  26    -0.632243101717E+03   -0.16466E-05   -0.20967E-03 12916   0.780E-02    0.971E-02
WARNING in EDDRMM: call to ZHEGV failed, returncode =   6  3      8
RMM:  27    -0.632243116975E+03   -0.15259E-04   -0.14831E-03 13218   0.747E-02    0.486E-02
RMM:  28    -0.632243175347E+03   -0.58372E-04   -0.80260E-04 12746   0.670E-02    0.434E-02
RMM:  29    -0.632243205912E+03   -0.30565E-04   -0.49847E-04 12006   0.425E-02    0.243E-02
RMM:  30    -0.632243222240E+03   -0.16327E-04   -0.30342E-04 11801   0.359E-02    0.890E-03
RMM:  31    -0.632243236569E+03   -0.14329E-04   -0.19302E-04 11342   0.276E-02    0.404E-03
RMM:  32    -0.632243246929E+03   -0.10360E-04   -0.12582E-04 11054   0.226E-02    0.533E-03
RMM:  33    -0.632243252043E+03   -0.51144E-05   -0.76733E-05 10454   0.196E-02
   3 F= -.63224325E+03 E0= -.63215468E+03  d E =-.100813E+02
 curvature:  -0.22 expect dE=-0.191E+01 dE for cont linesearch -0.233E-01
 ZBRENT: interpolating
 opt :   0.5383  next Energy=  -632.262899 (dE=-0.101E+02)
 bond charge predicted
       N       E                     dE             d eps       ncg     rms          rms(c)
DAV:   1    -0.632389448963E+03   -0.14620E+00   -0.41110E+00 13392   0.841E+00    0.321E+00
RMM:   2    -0.632987219374E+03   -0.59777E+00   -0.16367E+00 12103   0.475E+00    0.100E+01
RMM:   3    -0.632527057205E+03    0.46016E+00   -0.44703E-01 12049   0.262E+00    0.648E+00
RMM:   4    -0.632306501184E+03    0.22056E+00   -0.14524E-01 12638   0.132E+00    0.265E+00
RMM:   5    -0.632303144052E+03    0.33571E-02   -0.65653E-02 13307   0.851E-01    0.264E+00
RMM:   6    -0.632281696773E+03    0.21447E-01   -0.40439E-02 12771   0.625E-01    0.191E+00
RMM:   7    -0.632266474264E+03    0.15223E-01   -0.18921E-02 12373   0.481E-01    0.107E+00
RMM:   8    -0.632267952183E+03   -0.14779E-02   -0.13435E-02 12644   0.369E-01    0.124E+00
RMM:   9    -0.632260985147E+03    0.69670E-02   -0.57346E-03 13019   0.228E-01    0.508E-01
RMM:  10    -0.632260688413E+03    0.29673E-03   -0.24972E-03 12603   0.154E-01    0.443E-01
RMM:  11    -0.632259999141E+03    0.68927E-03   -0.12993E-03 12264   0.104E-01    0.230E-01
RMM:  12    -0.632259808723E+03    0.19042E-03   -0.67887E-04 12856   0.690E-02    0.146E-01
RMM:  13    -0.632259871201E+03   -0.62477E-04   -0.34849E-04 11525   0.564E-02    0.165E-01
RMM:  14    -0.632259798172E+03    0.73028E-04   -0.24698E-04 11818   0.420E-02    0.716E-02
RMM:  15    -0.632259851829E+03   -0.53656E-04   -0.18439E-04 11783   0.325E-02    0.910E-02
RMM:  16    -0.632259883353E+03   -0.31525E-04   -0.13932E-04 11111   0.323E-02    0.768E-02
WARNING in EDDRMM: call to ZHEGV failed, returncode =   6  3      7
RMM:  17    -0.632259892223E+03   -0.88693E-05   -0.11896E-04 11083   0.260E-02    0.451E-02
RMM:  18    -0.632259928711E+03   -0.36488E-04   -0.12204E-04 11264   0.240E-02    0.343E-02
RMM:  19    -0.632259937169E+03   -0.84580E-05   -0.79710E-05 10244   0.223E-02
   4 F= -.63225994E+03 E0= -.63217207E+03  d E =-.100980E+02
 curvature:  -0.18 expect dE=-0.172E+01 dE for cont linesearch -0.704E-03
 trial: gam= 0.24868 g(F)=  0.733E+01 g(S)=  0.205E+01 ort = 0.373E+00 (trialstep = 0.908E+00)
 search vector abs. value=  0.118E+02
 bond charge predicted
       N       E                     dE             d eps       ncg     rms          rms(c)
DAV:   1    -0.615513366805E+03    0.16747E+02   -0.16895E+03 10296   0.161E+02    0.128E+01
RMM:   2    -0.649041952916E+03   -0.33529E+02   -0.23927E+02 15021   0.476E+01    0.362E+01
RMM:   3    -0.638509752724E+03    0.10532E+02   -0.26142E+01 12424   0.207E+01    0.206E+01
RMM:   4    -0.636910708957E+03    0.15990E+01   -0.90894E+00 14764   0.870E+00    0.143E+01
RMM:   5    -0.636450558467E+03    0.46015E+00   -0.31199E+00 14869   0.503E+00    0.101E+01
RMM:   6    -0.636009119865E+03    0.44144E+00   -0.15418E+00 15109   0.283E+00    0.588E+00
RMM:   7    -0.635967588257E+03    0.41532E-01   -0.90705E-01 15098   0.211E+00    0.571E+00
RMM:   8    -0.635921282556E+03    0.46306E-01   -0.65154E-01 14879   0.192E+00    0.485E+00
RMM:   9    -0.635819897577E+03    0.10138E+00   -0.43861E-01 14973   0.163E+00    0.289E+00
RMM:  10    -0.635849292433E+03   -0.29395E-01   -0.26321E-01 14950   0.133E+00    0.392E+00
RMM:  11    -0.635795416741E+03    0.53876E-01   -0.13233E-01 14875   0.103E+00    0.218E+00
RMM:  12    -0.635786373571E+03    0.90432E-02   -0.99846E-02 15204   0.651E-01    0.140E+00
RMM:  13    -0.635785635062E+03    0.73851E-03   -0.55913E-02 15031   0.569E-01    0.128E+00
RMM:  14    -0.635781005408E+03    0.46297E-02   -0.40077E-02 15356   0.384E-01    0.532E-01
RMM:  15    -0.635783845674E+03   -0.28403E-02   -0.25129E-02 14978   0.287E-01    0.738E-01
RMM:  16    -0.635782313338E+03    0.15323E-02   -0.12727E-02 14906   0.230E-01    0.252E-01
RMM:  17    -0.635783243978E+03   -0.93064E-03   -0.10425E-02 14694   0.152E-01    0.245E-01
RMM:  18    -0.635783345187E+03   -0.10121E-03   -0.56503E-03 14420   0.130E-01    0.126E-01
RMM:  19    -0.635783685064E+03   -0.33988E-03   -0.34481E-03 13816   0.106E-01    0.147E-01
RMM:  20    -0.635783709049E+03   -0.23985E-04   -0.21533E-03 13315   0.885E-02    0.557E-02
RMM:  21    -0.635783820104E+03   -0.11105E-03   -0.13675E-03 12576   0.654E-02    0.569E-02
WARNING in EDDRMM: call to ZHEGV failed, returncode =   8  4     11
RMM:  22    -0.635783867946E+03   -0.47842E-04   -0.86515E-04 12116   0.513E-02    0.254E-02
RMM:  23    -0.635783910838E+03   -0.42892E-04   -0.56707E-04 11800   0.423E-02    0.173E-02
RMM:  24    -0.635783939616E+03   -0.28778E-04   -0.35950E-04 11535   0.341E-02    0.184E-02
RMM:  25    -0.635783955907E+03   -0.16291E-04   -0.23646E-04 11302   0.283E-02    0.684E-03
RMM:  26    -0.635783967589E+03   -0.11682E-04   -0.15328E-04 10965   0.233E-02    0.454E-03
RMM:  27    -0.635783975168E+03   -0.75795E-05   -0.10026E-04 10493   0.216E-02    0.263E-03
RMM:  28    -0.635783979897E+03   -0.47284E-05   -0.60585E-05  9792   0.171E-02
   5 F= -.63578398E+03 E0= -.63569225E+03  d E =-.352404E+01
 trial-energy change:   -3.524043  1 .order   -3.790218   -8.600225    1.019789
 step:   0.7951(harm=  0.8114)  dis= 0.13119  next Energy=  -635.847738 (dE=-0.359E+01)
 bond charge predicted
       N       E                     dE             d eps       ncg     rms          rms(c)
DAV:   1    -0.635536008892E+03    0.24797E+00   -0.25534E+01  9744   0.200E+01    0.136E+00
RMM:   2    -0.636018783004E+03   -0.48277E+00   -0.34729E+00 15109   0.570E+00    0.586E+00
RMM:   3    -0.635874894859E+03    0.14389E+00   -0.35227E-01 12433   0.230E+00    0.246E+00
RMM:   4    -0.635860774915E+03    0.14120E-01   -0.12593E-01 14392   0.109E+00    0.161E+00
RMM:   5    -0.635856322468E+03    0.44524E-02   -0.43795E-02 14445   0.632E-01    0.131E+00
RMM:   6    -0.635848975284E+03    0.73472E-02   -0.20463E-02 14527   0.363E-01    0.761E-01
RMM:   7    -0.635847956316E+03    0.10190E-02   -0.12192E-02 14650   0.272E-01    0.651E-01
RMM:   8    -0.635848118771E+03   -0.16245E-03   -0.97430E-03 14558   0.245E-01    0.646E-01
RMM:   9    -0.635847211774E+03    0.90700E-03   -0.60932E-03 14620   0.214E-01    0.552E-01
RMM:  10    -0.635846554326E+03    0.65745E-03   -0.38779E-03 14246   0.165E-01    0.375E-01
RMM:  11    -0.635845941761E+03    0.61257E-03   -0.22160E-03 14092   0.111E-01    0.168E-01
RMM:  12    -0.635845973882E+03   -0.32122E-04   -0.14391E-03 12955   0.786E-02    0.148E-01
RMM:  13    -0.635846091480E+03   -0.11760E-03   -0.83911E-04 12494   0.682E-02    0.197E-01
RMM:  14    -0.635845948199E+03    0.14328E-03   -0.55730E-04 12191   0.481E-02    0.410E-02
RMM:  15    -0.635845983295E+03   -0.35096E-04   -0.36980E-04 11686   0.364E-02    0.475E-02
RMM:  16    -0.635845988953E+03   -0.56574E-05   -0.19656E-04 11326   0.301E-02    0.313E-02
RMM:  17    -0.635846003028E+03   -0.14075E-04   -0.13083E-04 10988   0.237E-02    0.391E-02
RMM:  18    -0.635846003480E+03   -0.45158E-06   -0.90173E-05 10737   0.216E-02
   6 F= -.63584600E+03 E0= -.63575480E+03  d E =-.358607E+01
 curvature:  -0.49 expect dE=-0.103E+01 dE for cont linesearch -0.428E-04
 trial: gam= 0.11873 g(F)=  0.183E+01 g(S)=  0.263E+00 ort = 0.321E-01 (trialstep = 0.885E+00)
 search vector abs. value=  0.227E+01
 bond charge predicted
       N       E                     dE             d eps       ncg     rms          rms(c)
DAV:   1    -0.632592442475E+03    0.32536E+01   -0.36654E+02 12792   0.107E+02    0.152E+01
RMM:   2    -0.653956748967E+03   -0.21364E+02   -0.95393E+01 14738   0.318E+01    0.368E+01
RMM:   3    -0.638313919477E+03    0.15643E+02   -0.14982E+01 12243   0.156E+01    0.151E+01
RMM:   4    -0.638185327292E+03    0.12859E+00   -0.45424E+00 14470   0.656E+00    0.149E+01
RMM:   5    -0.637263640376E+03    0.92169E+00   -0.15077E+00 14374   0.408E+00    0.850E+00
RMM:   6    -0.636889561921E+03    0.37408E+00   -0.83510E-01 14734   0.254E+00    0.480E+00
RMM:   7    -0.636965807743E+03   -0.76246E-01   -0.50156E-01 14618   0.210E+00    0.681E+00
RMM:   8    -0.636771584182E+03    0.19422E+00   -0.29868E-01 14597   0.167E+00    0.313E+00
RMM:   9    -0.636814512771E+03   -0.42929E-01   -0.24253E-01 14849   0.132E+00    0.410E+00
RMM:  10    -0.636765728066E+03    0.48785E-01   -0.14151E-01 14646   0.113E+00    0.317E+00
RMM:  11    -0.636730520657E+03    0.35207E-01   -0.79403E-02 15127   0.781E-01    0.144E+00
RMM:  12    -0.636732062741E+03   -0.15421E-02   -0.54651E-02 15282   0.532E-01    0.124E+00
RMM:  13    -0.636727492092E+03    0.45706E-02   -0.32435E-02 15179   0.401E-01    0.748E-01
RMM:  14    -0.636728099957E+03   -0.60787E-03   -0.22150E-02 15109   0.297E-01    0.557E-01
RMM:  15    -0.636728761108E+03   -0.66115E-03   -0.14553E-02 14954   0.215E-01    0.307E-01
RMM:  16    -0.636729616640E+03   -0.85553E-03   -0.86660E-03 14805   0.176E-01    0.317E-01
RMM:  17    -0.636730526757E+03   -0.91012E-03   -0.52707E-03 14430   0.170E-01    0.405E-01
RMM:  18    -0.636730403195E+03    0.12356E-03   -0.42175E-03 14502   0.130E-01    0.178E-01
RMM:  19    -0.636731044686E+03   -0.64149E-03   -0.34792E-03 14466   0.121E-01    0.251E-01
RMM:  20    -0.636730802370E+03    0.24232E-03   -0.21014E-03 14251   0.108E-01    0.655E-02
RMM:  21    -0.636730893762E+03   -0.91392E-04   -0.14288E-03 13302   0.689E-02    0.692E-02
RMM:  22    -0.636730921300E+03   -0.27538E-04   -0.84170E-04 12463   0.576E-02    0.375E-02
WARNING in EDDRMM: call to ZHEGV failed, returncode =   6  3      8
RMM:  23    -0.636730955290E+03   -0.33990E-04   -0.55294E-04 12031   0.430E-02    0.293E-02
WARNING in EDDRMM: call to ZHEGV failed, returncode =   8  4      7
RMM:  24    -0.636730976595E+03   -0.21305E-04   -0.33354E-04 11909   0.377E-02    0.207E-02
RMM:  25    -0.636730989072E+03   -0.12477E-04   -0.20372E-04 11577   0.276E-02    0.117E-02
RMM:  26    -0.636730997373E+03   -0.83014E-05   -0.13649E-04 11277   0.241E-02    0.746E-03
RMM:  27    -0.636731002494E+03   -0.51211E-05   -0.90166E-05 10802   0.212E-02
   7 F= -.63673100E+03 E0= -.63664536E+03  d E =-.884999E+00
 trial-energy change:   -0.884999  1 .order   -0.906097   -1.858461    0.046266
 step:   0.8621(harm=  0.8636)  dis= 0.05422  next Energy=  -636.731604 (dE=-0.886E+00)
 bond charge predicted
       N       E                     dE             d eps       ncg     rms          rms(c)
DAV:   1    -0.636727976184E+03    0.30212E-02   -0.23745E-01 12528   0.284E+00    0.362E-01
RMM:   2    -0.636742219368E+03   -0.14243E-01   -0.69158E-02 13726   0.898E-01    0.121E+00
RMM:   3    -0.636734783417E+03    0.74360E-02   -0.11307E-02 12883   0.376E-01    0.762E-01
RMM:   4    -0.636732321419E+03    0.24620E-02   -0.32326E-03 13144   0.189E-01    0.351E-01
RMM:   5    -0.636732023749E+03    0.29767E-03   -0.12310E-03 13004   0.114E-01    0.265E-01
RMM:   6    -0.636731817063E+03    0.20669E-03   -0.58370E-04 12249   0.742E-02    0.226E-01
RMM:   7    -0.636731608675E+03    0.20839E-03   -0.30535E-04 11410   0.596E-02    0.124E-01
RMM:   8    -0.636731633255E+03   -0.24580E-04   -0.29593E-04 12333   0.492E-02    0.137E-01
RMM:   9    -0.636731564614E+03    0.68641E-04   -0.18787E-04 11416   0.440E-02    0.954E-02
RMM:  10    -0.636731572204E+03   -0.75901E-05   -0.10348E-04  9871   0.350E-02    0.104E-01
RMM:  11    -0.636731524880E+03    0.47324E-04   -0.49963E-05  8091   0.263E-02    0.324E-02
RMM:  12    -0.636731522597E+03    0.22826E-05   -0.33942E-05  7538   0.173E-02
   8 F= -.63673152E+03 E0= -.63664583E+03  d E =-.885519E+00
 curvature:  -0.46 expect dE=-0.463E+00 dE for cont linesearch -0.207E-06
 trial: gam= 0.47560 g(F)=  0.375E+00 g(S)=  0.621E+00 ort =-0.100E-02 (trialstep = 0.881E+00)
 search vector abs. value=  0.151E+01
 bond charge predicted
       N       E                     dE             d eps       ncg     rms          rms(c)
DAV:   1    -0.633286267869E+03    0.34453E+01   -0.25477E+02 12432   0.102E+02    0.127E+01
RMM:   2    -0.649465159961E+03   -0.16179E+02   -0.84372E+01 12408   0.336E+01    0.371E+01
RMM:   3    -0.639621167725E+03    0.98440E+01   -0.13416E+01 13430   0.128E+01    0.200E+01
RMM:   4    -0.637663528445E+03    0.19576E+01   -0.34985E+00 14709   0.548E+00    0.833E+00
RMM:   5    -0.637617823762E+03    0.45705E-01   -0.10839E+00 14188   0.355E+00    0.951E+00
RMM:   6    -0.637252758793E+03    0.36506E+00   -0.71278E-01 13626   0.268E+00    0.649E+00
RMM:   7    -0.637090650346E+03    0.16211E+00   -0.43424E-01 14124   0.212E+00    0.444E+00
RMM:   8    -0.637128887024E+03   -0.38237E-01   -0.35039E-01 13865   0.190E+00    0.485E+00
RMM:   9    -0.636997382542E+03    0.13150E+00   -0.20062E-01 14473   0.129E+00    0.180E+00
RMM:  10    -0.637001687765E+03   -0.43052E-02   -0.82658E-02 14803   0.832E-01    0.241E+00
RMM:  11    -0.636975217616E+03    0.26470E-01   -0.42156E-02 14428   0.590E-01    0.660E-01
RMM:  12    -0.636977517510E+03   -0.22999E-02   -0.32447E-02 15128   0.331E-01    0.570E-01
RMM:  13    -0.636977709826E+03   -0.19232E-03   -0.17094E-02 15180   0.268E-01    0.418E-01
RMM:  14    -0.636978747820E+03   -0.10380E-02   -0.10322E-02 14800   0.203E-01    0.426E-01
RMM:  15    -0.636979396618E+03   -0.64880E-03   -0.76237E-03 14699   0.169E-01    0.265E-01
RMM:  16    -0.636980059941E+03   -0.66332E-03   -0.51053E-03 14446   0.143E-01    0.276E-01
RMM:  17    -0.636980709063E+03   -0.64912E-03   -0.33961E-03 14190   0.138E-01    0.317E-01
RMM:  18    -0.636980620491E+03    0.88572E-04   -0.26235E-03 13937   0.111E-01    0.112E-01
RMM:  19    -0.636980875565E+03   -0.25507E-03   -0.19043E-03 13576   0.902E-02    0.118E-01
RMM:  20    -0.636980906670E+03   -0.31105E-04   -0.12435E-03 13245   0.755E-02    0.494E-02
RMM:  21    -0.636980955075E+03   -0.48405E-04   -0.76038E-04 12664   0.569E-02    0.326E-02
RMM:  22    -0.636980988564E+03   -0.33489E-04   -0.44786E-04 12058   0.433E-02    0.324E-02
RMM:  23    -0.636981003787E+03   -0.15223E-04   -0.28686E-04 11687   0.332E-02    0.146E-02
RMM:  24    -0.636981019026E+03   -0.15239E-04   -0.18062E-04 11413   0.281E-02    0.876E-03
RMM:  25    -0.636981028711E+03   -0.96858E-05   -0.11195E-04 10914   0.235E-02    0.801E-03
RMM:  26    -0.636981035460E+03   -0.67485E-05   -0.73551E-05 10651   0.191E-02
   9 F= -.63698104E+03 E0= -.63690457E+03  d E =-.249513E+00
 trial-energy change:   -0.249513  1 .order   -0.228559   -0.876931    0.419812
 step:   0.6135(harm=  0.5955)  dis= 0.02946  next Energy=  -637.044107 (dE=-0.313E+00)
 bond charge predicted
       N       E                     dE             d eps       ncg     rms          rms(c)
DAV:   1    -0.636703085633E+03    0.27794E+00   -0.23619E+01 12096   0.305E+01    0.418E+00
RMM:   2    -0.638530074840E+03   -0.18270E+01   -0.75505E+00 13561   0.971E+00    0.136E+01
RMM:   3    -0.637333678071E+03    0.11964E+01   -0.14267E+00 12758   0.434E+00    0.670E+00
RMM:   4    -0.637140859405E+03    0.19282E+00   -0.36626E-01 13819   0.189E+00    0.385E+00
RMM:   5    -0.637113280975E+03    0.27578E-01   -0.12535E-01 13747   0.123E+00    0.325E+00
RMM:   6    -0.637074108071E+03    0.39173E-01   -0.71847E-02 13596   0.796E-01    0.215E+00
RMM:   7    -0.637057216535E+03    0.16892E-01   -0.40807E-02 13885   0.662E-01    0.149E+00
RMM:   8    -0.637059365302E+03   -0.21488E-02   -0.32959E-02 13810   0.572E-01    0.165E+00
RMM:   9    -0.637049414132E+03    0.99512E-02   -0.19069E-02 14060   0.434E-01    0.102E+00
RMM:  10    -0.637047908790E+03    0.15053E-02   -0.11878E-02 13832   0.341E-01    0.856E-01
RMM:  11    -0.637044100352E+03    0.38084E-02   -0.59048E-03 14029   0.236E-01    0.342E-01
RMM:  12    -0.637044181759E+03   -0.81407E-04   -0.37290E-03 14250   0.144E-01    0.325E-01
RMM:  13    -0.637043958885E+03    0.22287E-03   -0.20055E-03 13611   0.109E-01    0.175E-01
RMM:  14    -0.637043932132E+03    0.26753E-04   -0.13791E-03 13365   0.695E-02    0.949E-02
RMM:  15    -0.637044057269E+03   -0.12514E-03   -0.86686E-04 13091   0.568E-02    0.122E-01
RMM:  16    -0.637044064527E+03   -0.72574E-05   -0.49588E-04 12542   0.505E-02    0.825E-02
RMM:  17    -0.637044122553E+03   -0.58026E-04   -0.40808E-04 12440   0.419E-02    0.803E-02
RMM:  18    -0.637044123592E+03   -0.10393E-05   -0.29151E-04 12303   0.388E-02    0.338E-02
RMM:  19    -0.637044142576E+03   -0.18983E-04   -0.21723E-04 12174   0.318E-02    0.305E-02
RMM:  20    -0.637044148431E+03   -0.58552E-05   -0.13457E-04 11692   0.271E-02    0.246E-02
RMM:  21    -0.637044150370E+03   -0.19389E-05   -0.90248E-05 11029   0.223E-02
  10 F= -.63704415E+03 E0= -.63696509E+03  d E =-.312628E+00
 curvature:  -0.45 expect dE=-0.154E+00 dE for cont linesearch -0.319E-05
 trial: gam= 0.31130 g(F)=  0.294E+00 g(S)=  0.490E-01 ort = 0.327E-02 (trialstep = 0.827E+00)
 search vector abs. value=  0.491E+00
 bond charge predicted
       N       E                     dE             d eps       ncg     rms          rms(c)
DAV:   1    -0.635183154619E+03    0.18610E+01   -0.71043E+01  9744   0.544E+01    0.261E+00
RMM:   2    -0.637382463791E+03   -0.21993E+01   -0.20720E+01 15341   0.128E+01    0.658E+00
RMM:   3    -0.637328802179E+03    0.53662E-01   -0.19881E+00 12483   0.464E+00    0.444E+00
RMM:   4    -0.637303102874E+03    0.25699E-01   -0.37501E-01 14294   0.201E+00    0.314E+00
RMM:   5    -0.637272060696E+03    0.31042E-01   -0.11699E-01 14964   0.110E+00    0.226E+00
RMM:   6    -0.637249605808E+03    0.22455E-01   -0.55405E-02 15229   0.583E-01    0.951E-01
RMM:   7    -0.637249527201E+03    0.78607E-04   -0.32003E-02 14892   0.383E-01    0.911E-01
RMM:   8    -0.637251861212E+03   -0.23340E-02   -0.23368E-02 14671   0.442E-01    0.134E+00
RMM:   9    -0.637243709284E+03    0.81519E-02   -0.16851E-02 14844   0.359E-01    0.553E-01
RMM:  10    -0.637244419389E+03   -0.71011E-03   -0.11227E-02 14947   0.266E-01    0.656E-01
RMM:  11    -0.637242949793E+03    0.14696E-02   -0.55509E-03 14431   0.217E-01    0.358E-01
RMM:  12    -0.637242827936E+03    0.12186E-03   -0.40192E-03 14077   0.131E-01    0.238E-01
RMM:  13    -0.637242767469E+03    0.60466E-04   -0.21913E-03 13903   0.106E-01    0.181E-01
RMM:  14    -0.637242717983E+03    0.49487E-04   -0.14652E-03 13577   0.836E-02    0.983E-02
RMM:  15    -0.637242839393E+03   -0.12141E-03   -0.10233E-03 13337   0.650E-02    0.138E-01
RMM:  16    -0.637242796977E+03    0.42416E-04   -0.57445E-04 12538   0.588E-02    0.656E-02
RMM:  17    -0.637242817552E+03   -0.20576E-04   -0.42985E-04 12076   0.399E-02    0.423E-02
RMM:  18    -0.637242827581E+03   -0.10029E-04   -0.26445E-04 11766   0.346E-02    0.208E-02
RMM:  19    -0.637242841555E+03   -0.13973E-04   -0.17286E-04 11382   0.263E-02    0.211E-02
RMM:  20    -0.637242846456E+03   -0.49016E-05   -0.11445E-04 10915   0.247E-02    0.110E-02
WARNING in EDDRMM: call to ZHEGV failed, returncode =   8  4      9
RMM:  21    -0.637242850268E+03   -0.38116E-05   -0.73300E-05 10425   0.201E-02
  11 F= -.63724285E+03 E0= -.63716607E+03  d E =-.198700E+00
 trial-energy change:   -0.198700  1 .order   -0.198187   -0.284644   -0.111731
 step:   1.3466(harm=  1.3616)  dis= 0.05676  next Energy=  -637.278060 (dE=-0.234E+00)
 bond charge predicted
       N       E                     dE             d eps       ncg     rms          rms(c)
DAV:   1    -0.636465073333E+03    0.77777E+00   -0.28035E+01  9744   0.343E+01    0.164E+00
RMM:   2    -0.637330099771E+03   -0.86503E+00   -0.81876E+00 15316   0.803E+00    0.404E+00
RMM:   3    -0.637315827254E+03    0.14273E-01   -0.78526E-01 12484   0.295E+00    0.291E+00
RMM:   4    -0.637301125219E+03    0.14702E-01   -0.14945E-01 14275   0.127E+00    0.187E+00
RMM:   5    -0.637290539067E+03    0.10586E-01   -0.47345E-02 14934   0.692E-01    0.142E+00
RMM:   6    -0.637281617493E+03    0.89216E-02   -0.21923E-02 15163   0.374E-01    0.594E-01
RMM:   7    -0.637281699636E+03   -0.82144E-04   -0.12978E-02 14734   0.245E-01    0.579E-01
RMM:   8    -0.637282464942E+03   -0.76531E-03   -0.94042E-03 14548   0.283E-01    0.815E-01
RMM:   9    -0.637279477747E+03    0.29872E-02   -0.69176E-03 14733   0.231E-01    0.367E-01
RMM:  10    -0.637279690056E+03   -0.21231E-03   -0.44805E-03 14585   0.172E-01    0.408E-01
RMM:  11    -0.637279072773E+03    0.61728E-03   -0.23133E-03 14089   0.136E-01    0.199E-01
RMM:  12    -0.637279114904E+03   -0.42132E-04   -0.16503E-03 13440   0.846E-02    0.168E-01
RMM:  13    -0.637279053517E+03    0.61387E-04   -0.89705E-04 13011   0.693E-02    0.102E-01
RMM:  14    -0.637279050677E+03    0.28406E-05   -0.63305E-04 12479   0.526E-02    0.592E-02
RMM:  15    -0.637279094123E+03   -0.43446E-04   -0.40176E-04 12260   0.435E-02    0.827E-02
RMM:  16    -0.637279081476E+03    0.12647E-04   -0.23746E-04 11959   0.371E-02    0.394E-02
RMM:  17    -0.637279091434E+03   -0.99575E-05   -0.17842E-04 11399   0.273E-02    0.274E-02
RMM:  18    -0.637279095050E+03   -0.36160E-05   -0.11499E-04 11118   0.241E-02    0.125E-02
WARNING in EDDRMM: call to ZHEGV failed, returncode =   8  4     10
WARNING in EDDRMM: call to ZHEGV failed, returncode =   6  3      8
RMM:  19    -0.637279100596E+03   -0.55463E-05   -0.79053E-05 10363   0.201E-02
  12 F= -.63727910E+03 E0= -.63720330E+03  d E =-.234950E+00
 curvature:  -0.97 expect dE=-0.161E+00 dE for cont linesearch -0.124E-04
 trial: gam= 0.40122 g(F)=  0.146E+00 g(S)=  0.195E-01 ort = 0.250E-02 (trialstep = 0.931E+00)
 search vector abs. value=  0.246E+00
 bond charge predicted
       N       E                     dE             d eps       ncg     rms          rms(c)
DAV:   1    -0.635999402108E+03    0.12797E+01   -0.49749E+01 11520   0.476E+01    0.420E+00
RMM:   2    -0.638657965184E+03   -0.26586E+01   -0.17636E+01 14538   0.122E+01    0.129E+01
RMM:   3    -0.637702001015E+03    0.95596E+00   -0.22606E+00 12908   0.481E+00    0.734E+00
RMM:   4    -0.637466874221E+03    0.23513E+00   -0.49005E-01 13735   0.219E+00    0.353E+00
RMM:   5    -0.637445961101E+03    0.20913E-01   -0.15934E-01 13946   0.125E+00    0.316E+00
RMM:   6    -0.637394079373E+03    0.51882E-01   -0.72162E-02 13908   0.784E-01    0.160E+00
RMM:   7    -0.637391155332E+03    0.29240E-02   -0.42569E-02 14108   0.600E-01    0.160E+00
RMM:   8    -0.637391521259E+03   -0.36593E-03   -0.34821E-02 13553   0.593E-01    0.167E+00
RMM:   9    -0.637380891795E+03    0.10629E-01   -0.24554E-02 14012   0.460E-01    0.103E+00
RMM:  10    -0.637380840260E+03    0.51536E-04   -0.14006E-02 13359   0.391E-01    0.110E+00
RMM:  11    -0.637374656391E+03    0.61839E-02   -0.79361E-03 13898   0.260E-01    0.282E-01
RMM:  12    -0.637375327869E+03   -0.67148E-03   -0.53635E-03 14336   0.152E-01    0.401E-01
RMM:  13    -0.637374777626E+03    0.55024E-03   -0.26951E-03 13619   0.122E-01    0.150E-01
RMM:  14    -0.637374879086E+03   -0.10146E-03   -0.19564E-03 13330   0.717E-02    0.112E-01
RMM:  15    -0.637374955312E+03   -0.76227E-04   -0.10980E-03 13063   0.605E-02    0.811E-02
RMM:  16    -0.637375017189E+03   -0.61876E-04   -0.63082E-04 12690   0.519E-02    0.829E-02
RMM:  17    -0.637375059902E+03   -0.42714E-04   -0.40778E-04 12475   0.468E-02    0.928E-02
WARNING in EDDRMM: call to ZHEGV failed, returncode =   8  4      7
RMM:  18    -0.637375053647E+03    0.62552E-05   -0.27827E-04 12108   0.402E-02    0.523E-02
WARNING in EDDRMM: call to ZHEGV failed, returncode =   6  3      7
RMM:  19    -0.637375070603E+03   -0.16956E-04   -0.24094E-04 12047   0.315E-02    0.347E-02
RMM:  20    -0.637375071814E+03   -0.12105E-05   -0.14183E-04 11713   0.273E-02    0.172E-02
WARNING in EDDRMM: call to ZHEGV failed, returncode =   8  4      8
RMM:  21    -0.637375074668E+03   -0.28537E-05   -0.91375E-05 10376   0.217E-02
  13 F= -.63737507E+03 E0= -.63729904E+03  d E =-.959741E-01
 trial-energy change:   -0.095974  1 .order   -0.095895   -0.154783   -0.037006
 step:   1.2235(harm=  1.2235)  dis= 0.04052  next Energy=  -637.380809 (dE=-0.102E+00)
 bond charge predicted
       N       E                     dE             d eps       ncg     rms          rms(c)
DAV:   1    -0.637248605420E+03    0.12647E+00   -0.49322E+00 12024   0.150E+01    0.132E+00
RMM:   2    -0.637528057696E+03   -0.27945E+00   -0.17600E+00 14344   0.390E+00    0.459E+00
RMM:   3    -0.637418431439E+03    0.10963E+00   -0.22749E-01 12892   0.155E+00    0.251E+00
RMM:   4    -0.637390752154E+03    0.27679E-01   -0.50372E-02 13420   0.727E-01    0.115E+00
RMM:   5    -0.637388146624E+03    0.26055E-02   -0.17041E-02 13804   0.406E-01    0.997E-01
RMM:   6    -0.637383556338E+03    0.45903E-02   -0.74739E-03 13609   0.256E-01    0.590E-01
RMM:   7    -0.637382456868E+03    0.10995E-02   -0.43461E-03 13550   0.199E-01    0.468E-01
RMM:   8    -0.637382973701E+03   -0.51683E-03   -0.37661E-03 13483   0.187E-01    0.554E-01
RMM:   9    -0.637381718580E+03    0.12551E-02   -0.26978E-03 13652   0.158E-01    0.341E-01
RMM:  10    -0.637381567164E+03    0.15142E-03   -0.14448E-03 12678   0.126E-01    0.312E-01
RMM:  11    -0.637381057537E+03    0.50963E-03   -0.83399E-04 12966   0.805E-02    0.971E-02
RMM:  12    -0.637381090820E+03   -0.33283E-04   -0.48936E-04 12321   0.528E-02    0.109E-01
RMM:  13    -0.637381058613E+03    0.32207E-04   -0.26582E-04 11599   0.379E-02    0.485E-02
RMM:  14    -0.637381064140E+03   -0.55274E-05   -0.18793E-04 11180   0.250E-02    0.338E-02
RMM:  15    -0.637381073000E+03   -0.88598E-05   -0.11231E-04 10310   0.227E-02    0.361E-02
RMM:  16    -0.637381075671E+03   -0.26717E-05   -0.65701E-05  9604   0.215E-02
  14 F= -.63738108E+03 E0= -.63730488E+03  d E =-.101975E+00
 curvature:  -0.91 expect dE=-0.147E+00 dE for cont linesearch -0.372E-05
 trial: gam= 0.97528 g(F)=  0.502E-01 g(S)=  0.111E+00 ort = 0.101E-02 (trialstep = 0.613E+00)
 search vector abs. value=  0.398E+00
 bond charge predicted
       N       E                     dE             d eps       ncg     rms          rms(c)
DAV:   1    -0.636357837289E+03    0.10232E+01   -0.36681E+01 12792   0.423E+01    0.336E+00
RMM:   2    -0.638155475061E+03   -0.17976E+01   -0.13729E+01 14271   0.105E+01    0.947E+00
RMM:   3    -0.637614967800E+03    0.54051E+00   -0.17184E+00 12805   0.398E+00    0.517E+00
RMM:   4    -0.637499472501E+03    0.11550E+00   -0.37757E-01 14127   0.175E+00    0.267E+00
RMM:   5    -0.637491721914E+03    0.77506E-02   -0.98230E-02 13664   0.104E+00    0.272E+00
RMM:   6    -0.637451851097E+03    0.39871E-01   -0.46108E-02 13262   0.653E-01    0.121E+00
RMM:   7    -0.637455242104E+03   -0.33910E-02   -0.27540E-02 13394   0.544E-01    0.156E+00
RMM:   8    -0.637447972324E+03    0.72698E-02   -0.27952E-02 13765   0.521E-01    0.103E+00
RMM:   9    -0.637444429555E+03    0.35428E-02   -0.18930E-02 14172   0.356E-01    0.807E-01
RMM:  10    -0.637442524838E+03    0.19047E-02   -0.68898E-03 13452   0.288E-01    0.697E-01
RMM:  11    -0.637440283862E+03    0.22410E-02   -0.40342E-03 13673   0.174E-01    0.194E-01
RMM:  12    -0.637440642729E+03   -0.35887E-03   -0.24096E-03 13767   0.112E-01    0.272E-01
RMM:  13    -0.637440423622E+03    0.21911E-03   -0.13182E-03 12882   0.845E-02    0.116E-01
RMM:  14    -0.637440515210E+03   -0.91588E-04   -0.94982E-04 12839   0.563E-02    0.106E-01
RMM:  15    -0.637440570852E+03   -0.55643E-04   -0.57780E-04 12666   0.486E-02    0.831E-02
RMM:  16    -0.637440618435E+03   -0.47582E-04   -0.32241E-04 12234   0.435E-02    0.909E-02
RMM:  17    -0.637440638190E+03   -0.19755E-04   -0.27188E-04 12152   0.354E-02    0.389E-02
RMM:  18    -0.637440671931E+03   -0.33741E-04   -0.20583E-04 12000   0.309E-02    0.458E-02
WARNING in EDDRMM: call to ZHEGV failed, returncode =   8  4      7
RMM:  19    -0.637440676120E+03   -0.41890E-05   -0.13001E-04 11724   0.278E-02    0.139E-02
RMM:  20    -0.637440684304E+03   -0.81831E-05   -0.86070E-05 10983   0.213E-02
  15 F= -.63744068E+03 E0= -.63736558E+03  d E =-.596086E-01
 trial-energy change:   -0.059609  1 .order   -0.058458   -0.099638   -0.017279
 step:   0.7294(harm=  0.7410)  dis= 0.03225  next Energy=  -637.442340 (dE=-0.613E-01)
 bond charge predicted
       N       E                     dE             d eps       ncg     rms          rms(c)
DAV:   1    -0.637402770715E+03    0.37905E-01   -0.13398E+00 12840   0.806E+00    0.643E-01
RMM:   2    -0.637465811656E+03   -0.63041E-01   -0.49035E-01 14391   0.197E+00    0.171E+00
RMM:   3    -0.637448518733E+03    0.17293E-01   -0.61441E-02 12723   0.745E-01    0.996E-01
RMM:   4    -0.637444517031E+03    0.40017E-02   -0.12676E-02 14002   0.326E-01    0.575E-01
RMM:   5    -0.637443996733E+03    0.52030E-03   -0.35946E-03 13050   0.204E-01    0.516E-01
RMM:   6    -0.637442465330E+03    0.15314E-02   -0.17099E-03 13022   0.122E-01    0.193E-01
RMM:   7    -0.637442754267E+03   -0.28894E-03   -0.10579E-03 12539   0.106E-01    0.316E-01
RMM:   8    -0.637442342353E+03    0.41191E-03   -0.90511E-04 12969   0.983E-02    0.161E-01
RMM:   9    -0.637442306632E+03    0.35721E-04   -0.64604E-04 13387   0.668E-02    0.148E-01
RMM:  10    -0.637442212099E+03    0.94533E-04   -0.24425E-04 11951   0.540E-02    0.105E-01
RMM:  11    -0.637442170282E+03    0.41816E-04   -0.14768E-04 11135   0.327E-02    0.377E-02
RMM:  12    -0.637442180582E+03   -0.10300E-04   -0.78800E-05  9940   0.248E-02    0.427E-02
RMM:  13    -0.637442178619E+03    0.19630E-05   -0.47819E-05  8599   0.193E-02
  16 F= -.63744218E+03 E0= -.63736727E+03  d E =-.611029E-01
 curvature:  -0.90 expect dE=-0.586E-01 dE for cont linesearch -0.484E-06
 trial: gam= 0.35864 g(F)=  0.577E-01 g(S)=  0.753E-02 ort =-0.463E-03 (trialstep = 0.636E+00)
 search vector abs. value=  0.116E+00
 bond charge predicted
       N       E                     dE             d eps       ncg     rms          rms(c)
DAV:   1    -0.637112537459E+03    0.32964E+00   -0.10972E+01 10368   0.224E+01    0.917E-01
RMM:   2    -0.637473058907E+03   -0.36052E+00   -0.35274E+00 15230   0.467E+00    0.214E+00
RMM:   3    -0.637479401306E+03   -0.63424E-02   -0.31268E-01 12193   0.172E+00    0.132E+00
RMM:   4    -0.637481393799E+03   -0.19925E-02   -0.64969E-02 14635   0.668E-01    0.105E+00
RMM:   5    -0.637476108566E+03    0.52852E-02   -0.14261E-02 14715   0.366E-01    0.473E-01
RMM:   6    -0.637475724107E+03    0.38446E-03   -0.73498E-03 14684   0.174E-01    0.326E-01
RMM:   7    -0.637475838489E+03   -0.11438E-03   -0.34116E-03 14261   0.167E-01    0.425E-01
RMM:   8    -0.637475217144E+03    0.62134E-03   -0.30730E-03 14183   0.155E-01    0.298E-01
RMM:   9    -0.637474965711E+03    0.25143E-03   -0.20664E-03 14354   0.115E-01    0.212E-01
RMM:  10    -0.637474887153E+03    0.78558E-04   -0.10327E-03 13186   0.953E-02    0.155E-01
WARNING in EDDRMM: call to ZHEGV failed, returncode =   8  4      7
RMM:  11    -0.637474831674E+03    0.55479E-04   -0.70134E-04 12637   0.609E-02    0.951E-02
RMM:  12    -0.637474814903E+03    0.16771E-04   -0.40818E-04 12277   0.471E-02    0.737E-02
RMM:  13    -0.637474811760E+03    0.31427E-05   -0.23391E-04 11789   0.392E-02    0.529E-02
RMM:  14    -0.637474818025E+03   -0.62651E-05   -0.19015E-04 11445   0.284E-02    0.330E-02
WARNING in EDDRMM: call to ZHEGV failed, returncode =   8  4      7
RMM:  15    -0.637474820545E+03   -0.25195E-05   -0.11815E-04 10991   0.237E-02    0.278E-02
RMM:  16    -0.637474822239E+03   -0.16939E-05   -0.63621E-05 10498   0.205E-02
  17 F= -.63747482E+03 E0= -.63739996E+03  d E =-.326436E-01
 trial-energy change:   -0.032644  1 .order   -0.032297   -0.041354   -0.023240
 step:   1.2970(harm=  1.4518)  dis= 0.03341  next Energy=  -637.487293 (dE=-0.451E-01)
 bond charge predicted
       N       E                     dE             d eps       ncg     rms          rms(c)
DAV:   1    -0.637052394408E+03    0.42243E+00   -0.11414E+01 10056   0.233E+01    0.100E+00
RMM:   2    -0.637475963747E+03   -0.42357E+00   -0.41545E+00 15237   0.519E+00    0.219E+00
RMM:   3    -0.637495973153E+03   -0.20009E-01   -0.45468E-01 12302   0.177E+00    0.147E+00
RMM:   4    -0.637495388840E+03    0.58431E-03   -0.64455E-02 14490   0.698E-01    0.102E+00
RMM:   5    -0.637490373701E+03    0.50151E-02   -0.15769E-02 14816   0.385E-01    0.489E-01
RMM:   6    -0.637490062256E+03    0.31144E-03   -0.77258E-03 14802   0.176E-01    0.358E-01
RMM:   7    -0.637490084962E+03   -0.22706E-04   -0.36936E-03 14293   0.173E-01    0.439E-01
RMM:   8    -0.637489475391E+03    0.60957E-03   -0.33586E-03 14255   0.163E-01    0.328E-01
RMM:   9    -0.637489120106E+03    0.35529E-03   -0.23464E-03 14387   0.120E-01    0.205E-01
RMM:  10    -0.637489088683E+03    0.31423E-04   -0.11221E-03 13153   0.100E-01    0.175E-01
RMM:  11    -0.637489004762E+03    0.83921E-04   -0.77680E-04 12725   0.643E-02    0.987E-02
RMM:  12    -0.637488990771E+03    0.13991E-04   -0.44590E-04 12305   0.500E-02    0.779E-02
RMM:  13    -0.637488989304E+03    0.14670E-05   -0.27469E-04 11891   0.407E-02    0.565E-02
RMM:  14    -0.637488995279E+03   -0.59755E-05   -0.21185E-04 11607   0.302E-02    0.350E-02
RMM:  15    -0.637488998567E+03   -0.32881E-05   -0.13220E-04 11254   0.252E-02    0.300E-02
RMM:  16    -0.637489000409E+03   -0.18421E-05   -0.72123E-05 10832   0.210E-02
  18 F= -.63748900E+03 E0= -.63741412E+03  d E =-.468218E-01
 curvature:  -1.25 expect dE=-0.451E-01 dE for cont linesearch -0.269E-03
 trial: gam= 0.36915 g(F)=  0.318E-01 g(S)=  0.429E-02 ort = 0.500E-02 (trialstep = 0.768E+00)
 search vector abs. value=  0.556E-01
 bond charge predicted
       N       E                     dE             d eps       ncg     rms          rms(c)
DAV:   1    -0.637323334207E+03    0.16566E+00   -0.70015E+00 11448   0.170E+01    0.140E+00
RMM:   2    -0.637653355949E+03   -0.33002E+00   -0.22299E+00 14929   0.425E+00    0.472E+00
RMM:   3    -0.637541274034E+03    0.11208E+00   -0.30934E-01 12716   0.174E+00    0.229E+00
RMM:   4    -0.637519435008E+03    0.21839E-01   -0.64638E-02 13953   0.785E-01    0.124E+00
RMM:   5    -0.637516059638E+03    0.33754E-02   -0.22186E-02 14486   0.470E-01    0.975E-01
RMM:   6    -0.637510682632E+03    0.53770E-02   -0.10330E-02 14625   0.264E-01    0.516E-01
RMM:   7    -0.637511010295E+03   -0.32766E-03   -0.49772E-03 13734   0.233E-01    0.621E-01
RMM:   8    -0.637510056274E+03    0.95402E-03   -0.44285E-03 14372   0.198E-01    0.407E-01
RMM:   9    -0.637509465296E+03    0.59098E-03   -0.33979E-03 14672   0.143E-01    0.283E-01
RMM:  10    -0.637509250464E+03    0.21483E-03   -0.14092E-03 13437   0.127E-01    0.272E-01
RMM:  11    -0.637508926263E+03    0.32420E-03   -0.98131E-04 12939   0.811E-02    0.786E-02
RMM:  12    -0.637508977366E+03   -0.51103E-04   -0.59861E-04 12541   0.527E-02    0.918E-02
RMM:  13    -0.637508962687E+03    0.14679E-04   -0.32864E-04 12025   0.407E-02    0.476E-02
RMM:  14    -0.637508978058E+03   -0.15371E-04   -0.23015E-04 11489   0.276E-02    0.384E-02
RMM:  15    -0.637508984299E+03   -0.62411E-05   -0.15059E-04 11246   0.243E-02    0.244E-02
RMM:  16    -0.637508998573E+03   -0.14274E-04   -0.94059E-05 10950   0.239E-02    0.460E-02
RMM:  17    -0.637508992756E+03    0.58169E-05   -0.67181E-05 10765   0.211E-02
  19 F= -.63750899E+03 E0= -.63743359E+03  d E =-.199923E-01
 trial-energy change:   -0.019992  1 .order   -0.019968   -0.029146   -0.010789
 step:   1.2196(harm=  1.2196)  dis= 0.02583  next Energy=  -637.512139 (dE=-0.231E-01)
 bond charge predicted
       N       E                     dE             d eps       ncg     rms          rms(c)
DAV:   1    -0.637447749418E+03    0.61249E-01   -0.24145E+00 11736   0.999E+00    0.819E-01
RMM:   2    -0.637560745151E+03   -0.11300E+00   -0.77106E-01 14922   0.250E+00    0.275E+00
RMM:   3    -0.637523413353E+03    0.37332E-01   -0.10738E-01 12722   0.102E+00    0.137E+00
RMM:   4    -0.637515710154E+03    0.77032E-02   -0.22315E-02 13960   0.460E-01    0.723E-01
RMM:   5    -0.637514559105E+03    0.11510E-02   -0.76653E-03 14296   0.276E-01    0.572E-01
RMM:   6    -0.637512685232E+03    0.18739E-02   -0.36328E-03 14301   0.156E-01    0.294E-01
RMM:   7    -0.637512830378E+03   -0.14515E-03   -0.17420E-03 13270   0.140E-01    0.368E-01
RMM:   8    -0.637512525559E+03    0.30482E-03   -0.15638E-03 13730   0.119E-01    0.251E-01
RMM:   9    -0.637512289554E+03    0.23600E-03   -0.12079E-03 14258   0.896E-02    0.164E-01
RMM:  10    -0.637512231817E+03    0.57737E-04   -0.51319E-04 12890   0.754E-02    0.164E-01
RMM:  11    -0.637512110491E+03    0.12133E-03   -0.35405E-04 12263   0.506E-02    0.441E-02
RMM:  12    -0.637512131178E+03   -0.20686E-04   -0.22939E-04 11848   0.327E-02    0.559E-02
RMM:  13    -0.637512124912E+03    0.62653E-05   -0.12110E-04 11271   0.265E-02    0.276E-02
RMM:  14    -0.637512130153E+03   -0.52407E-05   -0.84179E-05 10491   0.186E-02
  20 F= -.63751213E+03 E0= -.63743640E+03  d E =-.231297E-01
 curvature:  -0.89 expect dE=-0.280E-01 dE for cont linesearch -0.172E-07
 trial: gam= 0.92622 g(F)=  0.106E-01 g(S)=  0.207E-01 ort =-0.327E-04 (trialstep = 0.605E+00)
 search vector abs. value=  0.789E-01
 bond charge predicted
       N       E                     dE             d eps       ncg     rms          rms(c)
DAV:   1    -0.637361643669E+03    0.15048E+00   -0.65349E+00 12816   0.165E+01    0.154E+00
RMM:   2    -0.637646339298E+03   -0.28470E+00   -0.22011E+00 14460   0.425E+00    0.369E+00
RMM:   3    -0.637559901399E+03    0.86438E-01   -0.31281E-01 12714   0.172E+00    0.240E+00
RMM:   4    -0.637534108295E+03    0.25793E-01   -0.63922E-02 14040   0.740E-01    0.110E+00
RMM:   5    -0.637534532229E+03   -0.42393E-03   -0.19549E-02 13906   0.471E-01    0.128E+00
RMM:   6    -0.637525847403E+03    0.86848E-02   -0.96508E-03 13536   0.294E-01    0.489E-01
RMM:   7    -0.637526324401E+03   -0.47700E-03   -0.67056E-03 14155   0.237E-01    0.600E-01
RMM:   8    -0.637525820870E+03    0.50353E-03   -0.48951E-03 13491   0.230E-01    0.561E-01
RMM:   9    -0.637524434953E+03    0.13859E-02   -0.32147E-03 13752   0.166E-01    0.288E-01
RMM:  10    -0.637524221807E+03    0.21315E-03   -0.15857E-03 13608   0.114E-01    0.259E-01
RMM:  11    -0.637523917689E+03    0.30412E-03   -0.72866E-04 12331   0.800E-02    0.871E-02
RMM:  12    -0.637523945581E+03   -0.27892E-04   -0.55145E-04 12601   0.462E-02    0.643E-02
RMM:  13    -0.637523951866E+03   -0.62849E-05   -0.29009E-04 11878   0.365E-02    0.391E-02
RMM:  14    -0.637523986096E+03   -0.34230E-04   -0.17588E-04 11408   0.290E-02    0.637E-02
RMM:  15    -0.637523987186E+03   -0.10906E-05   -0.12282E-04 11042   0.261E-02    0.256E-02
RMM:  16    -0.637524004958E+03   -0.17772E-04   -0.93320E-05 10791   0.209E-02    0.334E-02
WARNING in EDDRMM: call to ZHEGV failed, returncode =   6  3      7
RMM:  17    -0.637524009118E+03   -0.41599E-05   -0.56722E-05  9838   0.217E-02
  21 F= -.63752401E+03 E0= -.63744853E+03  d E =-.118790E-01
 trial-energy change:   -0.011879  1 .order   -0.011926   -0.018908   -0.004943
 step:   0.8247(harm=  0.8187)  dis= 0.02303  next Energy=  -637.524906 (dE=-0.128E-01)
 bond charge predicted
       N       E                     dE             d eps       ncg     rms          rms(c)
DAV:   1    -0.637503120163E+03    0.20885E-01   -0.86631E-01 13176   0.600E+00    0.561E-01
RMM:   2    -0.637540622964E+03   -0.37503E-01   -0.28938E-01 14498   0.154E+00    0.133E+00
RMM:   3    -0.637529378139E+03    0.11245E-01   -0.41244E-02 12601   0.618E-01    0.881E-01
RMM:   4    -0.637525919576E+03    0.34586E-02   -0.82623E-03 13886   0.271E-01    0.413E-01
RMM:   5    -0.637525956497E+03   -0.36921E-04   -0.26585E-03 13335   0.173E-01    0.462E-01
RMM:   6    -0.637524807302E+03    0.11492E-02   -0.12899E-03 12957   0.109E-01    0.170E-01
RMM:   7    -0.637524872330E+03   -0.65029E-04   -0.90331E-04 13408   0.858E-02    0.209E-01
RMM:   8    -0.637524811377E+03    0.60953E-04   -0.61755E-04 12358   0.845E-02    0.195E-01
RMM:   9    -0.637524653554E+03    0.15782E-03   -0.43385E-04 12384   0.637E-02    0.103E-01
RMM:  10    -0.637524623916E+03    0.29638E-04   -0.20859E-04 12155   0.441E-02    0.859E-02
RMM:  11    -0.637524595105E+03    0.28811E-04   -0.99120E-05 10741   0.308E-02    0.342E-02
RMM:  12    -0.637524600875E+03   -0.57698E-05   -0.75544E-05 10028   0.197E-02
  22 F= -.63752460E+03 E0= -.63744921E+03  d E =-.124707E-01
 curvature:  -1.03 expect dE=-0.176E-01 dE for cont linesearch -0.251E-04
 trial: gam= 0.53195 g(F)=  0.127E-01 g(S)=  0.433E-02 ort =-0.139E-02 (trialstep = 0.649E+00)
 search vector abs. value=  0.379E-01
 bond charge predicted
       N       E                     dE             d eps       ncg     rms          rms(c)
DAV:   1    -0.637418276084E+03    0.10632E+00   -0.34590E+00  9816   0.117E+01    0.564E-01
RMM:   2    -0.637532692413E+03   -0.11442E+00   -0.10975E+00 15161   0.273E+00    0.142E+00
RMM:   3    -0.637534541086E+03   -0.18487E-02   -0.13137E-01 12499   0.973E-01    0.762E-01
RMM:   4    -0.637533902922E+03    0.63816E-03   -0.18268E-02 14532   0.371E-01    0.455E-01
RMM:   5    -0.637532799423E+03    0.11035E-02   -0.43794E-03 14619   0.213E-01    0.271E-01
RMM:   6    -0.637532785403E+03    0.14020E-04   -0.23411E-03 14178   0.105E-01    0.254E-01
RMM:   7    -0.637532685216E+03    0.10019E-03   -0.15589E-03 14068   0.115E-01    0.226E-01
RMM:   8    -0.637532475775E+03    0.20944E-03   -0.12915E-03 14267   0.931E-02    0.185E-01
RMM:   9    -0.637532358370E+03    0.11740E-03   -0.60199E-04 12640   0.814E-02    0.119E-01
RMM:  10    -0.637532358435E+03   -0.65105E-07   -0.42569E-04 12420   0.480E-02    0.106E-01
RMM:  11    -0.637532324301E+03    0.34134E-04   -0.21342E-04 11679   0.424E-02    0.563E-02
RMM:  12    -0.637532322757E+03    0.15435E-05   -0.17828E-04 11377   0.259E-02    0.411E-02
RMM:  13    -0.637532321428E+03    0.13298E-05   -0.91547E-05 10908   0.261E-02
  23 F= -.63753232E+03 E0= -.63745702E+03  d E =-.772055E-02
 trial-energy change:   -0.007721  1 .order   -0.007547   -0.010582   -0.004513
 step:   1.0281(harm=  1.1311)  dis= 0.02034  next Energy=  -637.533676 (dE=-0.908E-02)
 bond charge predicted
       N       E                     dE             d eps       ncg     rms          rms(c)
DAV:   1    -0.637494982705E+03    0.37340E-01   -0.11844E+00 10032   0.686E+00    0.334E-01
RMM:   2    -0.637534528945E+03   -0.39546E-01   -0.37615E-01 15145   0.160E+00    0.863E-01
RMM:   3    -0.637534825321E+03   -0.29638E-03   -0.45394E-02 12528   0.571E-01    0.448E-01
RMM:   4    -0.637534730004E+03    0.95317E-04   -0.66108E-03 14379   0.224E-01    0.296E-01
RMM:   5    -0.637534237235E+03    0.49277E-03   -0.16424E-03 14099   0.131E-01    0.159E-01
RMM:   6    -0.637534232165E+03    0.50700E-05   -0.92157E-04 13179   0.643E-02    0.145E-01
RMM:   7    -0.637534218572E+03    0.13593E-04   -0.55977E-04 12991   0.705E-02    0.137E-01
RMM:   8    -0.637534166552E+03    0.52021E-04   -0.48893E-04 13349   0.589E-02    0.135E-01
RMM:   9    -0.637534090424E+03    0.76127E-04   -0.23006E-04 11705   0.511E-02    0.565E-02
RMM:  10    -0.637534102853E+03   -0.12429E-04   -0.17186E-04 11610   0.300E-02    0.640E-02
RMM:  11    -0.637534089413E+03    0.13440E-04   -0.83912E-05 10949   0.279E-02    0.293E-02
RMM:  12    -0.637534092229E+03   -0.28163E-05   -0.74761E-05 10348   0.170E-02
  24 F= -.63753409E+03 E0= -.63745890E+03  d E =-.949135E-02
 curvature:  -1.25 expect dE=-0.700E-02 dE for cont linesearch -0.909E-04
 ZBRENT: extrapolating
 opt :   1.1468  next Energy=  -637.534191 (dE=-0.959E-02)
 bond charge predicted
       N       E                     dE             d eps       ncg     rms          rms(c)
DAV:   1    -0.637530408425E+03    0.36810E-02   -0.11628E-01 10584   0.216E+00    0.105E-01
RMM:   2    -0.637534321047E+03   -0.39126E-02   -0.36680E-02 15133   0.502E-01    0.287E-01
RMM:   3    -0.637534279331E+03    0.41716E-04   -0.45148E-03 12267   0.182E-01    0.139E-01
RMM:   4    -0.637534301696E+03   -0.22365E-04   -0.69152E-04 13576   0.745E-02    0.116E-01
RMM:   5    -0.637534229442E+03    0.72253E-04   -0.18246E-04 11961   0.467E-02    0.500E-02
RMM:   6    -0.637534228713E+03    0.72932E-06   -0.12311E-04 11179   0.232E-02    0.426E-02
RMM:   7    -0.637534236402E+03   -0.76891E-05   -0.68077E-05 10510   0.278E-02
  25 F= -.63753424E+03 E0= -.63745905E+03  d E =-.963553E-02
 curvature:  -1.36 expect dE=-0.802E-02 dE for cont linesearch -0.992E-06
 trial: gam= 0.22287 g(F)=  0.522E-02 g(S)=  0.690E-03 ort = 0.166E-03 (trialstep = 0.748E+00)
 search vector abs. value=  0.787E-02
 bond charge predicted
       N       E                     dE             d eps       ncg     rms          rms(c)
DAV:   1    -0.637513418733E+03    0.20810E-01   -0.94706E-01 11736   0.633E+00    0.551E-01
RMM:   2    -0.637557440022E+03   -0.44021E-01   -0.31201E-01 14617   0.164E+00    0.165E+00
RMM:   3    -0.637542955608E+03    0.14484E-01   -0.40805E-02 12569   0.666E-01    0.951E-01
RMM:   4    -0.637538807269E+03    0.41483E-02   -0.91959E-03 13829   0.297E-01    0.419E-01
RMM:   5    -0.637538534427E+03    0.27284E-03   -0.29638E-03 13885   0.177E-01    0.389E-01
RMM:   6    -0.637537644687E+03    0.88974E-03   -0.15164E-03 13594   0.104E-01    0.176E-01
RMM:   7    -0.637537746540E+03   -0.10185E-03   -0.83522E-04 13030   0.914E-02    0.242E-01
RMM:   8    -0.637537676519E+03    0.70021E-04   -0.68423E-04 12655   0.858E-02    0.220E-01
RMM:   9    -0.637537480848E+03    0.19567E-03   -0.47920E-04 12775   0.626E-02    0.118E-01
RMM:  10    -0.637537460060E+03    0.20788E-04   -0.23324E-04 11833   0.511E-02    0.113E-01
RMM:  11    -0.637537393806E+03    0.66254E-04   -0.13068E-04 11068   0.350E-02    0.286E-02
RMM:  12    -0.637537401221E+03   -0.74156E-05   -0.94991E-05 10555   0.215E-02
  26 F= -.63753740E+03 E0= -.63746226E+03  d E =-.316482E-02
 trial-energy change:   -0.003165  1 .order   -0.003065   -0.004450   -0.001680
 step:   1.0930(harm=  1.2021)  dis= 0.00639  next Energy=  -637.537798 (dE=-0.356E-02)
 bond charge predicted
       N       E                     dE             d eps       ncg     rms          rms(c)
DAV:   1    -0.637532831878E+03    0.45619E-02   -0.20149E-01 12192   0.291E+00    0.261E-01
RMM:   2    -0.637542413722E+03   -0.95818E-02   -0.66440E-02 14569   0.764E-01    0.780E-01
RMM:   3    -0.637539078008E+03    0.33357E-02   -0.89545E-03 12443   0.314E-01    0.443E-01
RMM:   4    -0.637538179190E+03    0.89882E-03   -0.20466E-03 13704   0.138E-01    0.199E-01
RMM:   5    -0.637538112356E+03    0.66834E-04   -0.64840E-04 12645   0.826E-02    0.178E-01
RMM:   6    -0.637537926363E+03    0.18599E-03   -0.34595E-04 12432   0.506E-02    0.768E-02
RMM:   7    -0.637537952370E+03   -0.26006E-04   -0.19667E-04 12054   0.440E-02    0.109E-01
RMM:   8    -0.637537931833E+03    0.20536E-04   -0.14722E-04 11038   0.410E-02    0.933E-02
RMM:   9    -0.637537901583E+03    0.30250E-04   -0.11325E-04 11347   0.326E-02    0.576E-02
RMM:  10    -0.637537896101E+03    0.54824E-05   -0.56841E-05  9519   0.258E-02
  27 F= -.63753790E+03 E0= -.63746272E+03  d E =-.365970E-02
 curvature:  -0.75 expect dE=-0.284E-02 dE for cont linesearch -0.191E-04
 trial: gam= 0.57813 g(F)=  0.148E-02 g(S)=  0.231E-02 ort = 0.448E-03 (trialstep = 0.817E+00)
 search vector abs. value=  0.694E-02
 bond charge predicted
       N       E                     dE             d eps       ncg     rms          rms(c)
DAV:   1    -0.637514543096E+03    0.23358E-01   -0.10633E+00 12744   0.707E+00    0.744E-01
RMM:   2    -0.637573787921E+03   -0.59245E-01   -0.39361E-01 14017   0.194E+00    0.199E+00
RMM:   3    -0.637548980581E+03    0.24807E-01   -0.56254E-02 12774   0.789E-01    0.121E+00
RMM:   4    -0.637541924482E+03    0.70561E-02   -0.14523E-02 14172   0.341E-01    0.555E-01
RMM:   5    -0.637541642482E+03    0.28200E-03   -0.41812E-03 13142   0.220E-01    0.560E-01
RMM:   6    -0.637539693725E+03    0.19488E-02   -0.22867E-03 13659   0.139E-01    0.197E-01
RMM:   7    -0.637540091735E+03   -0.39801E-03   -0.15990E-03 13223   0.122E-01    0.348E-01
RMM:   8    -0.637539657815E+03    0.43392E-03   -0.10788E-03 12563   0.113E-01    0.233E-01
RMM:   9    -0.637539504484E+03    0.15333E-03   -0.68781E-04 12706   0.752E-02    0.164E-01
RMM:  10    -0.637539429722E+03    0.74761E-04   -0.28340E-04 11536   0.581E-02    0.131E-01
RMM:  11    -0.637539346127E+03    0.83595E-04   -0.15982E-04 11231   0.380E-02    0.324E-02
WARNING in EDDRMM: call to ZHEGV failed, returncode =   8  4      9
RMM:  12    -0.637539357967E+03   -0.11839E-04   -0.10724E-04 10704   0.228E-02    0.325E-02
RMM:  13    -0.637539359335E+03   -0.13685E-05   -0.50416E-05  8860   0.190E-02
  28 F= -.63753936E+03 E0= -.63746466E+03  d E =-.146323E-02
 trial-energy change:   -0.001463  1 .order   -0.001579   -0.003310    0.000152
 step:   0.7729(harm=  0.7813)  dis= 0.00350  next Energy=  -637.539363 (dE=-0.147E-02)
 bond charge predicted
       N       E                     dE             d eps       ncg     rms          rms(c)
DAV:   1    -0.637539308759E+03    0.49207E-04   -0.32066E-03 13920   0.386E-01    0.449E-02
RMM:   2    -0.637539567284E+03   -0.25852E-03   -0.12296E-03 13376   0.111E-01    0.168E-01
RMM:   3    -0.637539411950E+03    0.15533E-03   -0.19467E-04  9273   0.493E-02    0.638E-02
RMM:   4    -0.637539392136E+03    0.19814E-04   -0.49790E-05  7873   0.268E-02    0.307E-02
RMM:   5    -0.637539393232E+03   -0.10959E-05   -0.17927E-05  5900   0.204E-02
  29 F= -.63753939E+03 E0= -.63746466E+03  d E =-.149713E-02
 curvature:  -0.63 expect dE=-0.136E-02 dE for cont linesearch -0.546E-06
 trial: gam= 0.70366 g(F)=  0.116E-02 g(S)=  0.986E-03 ort = 0.774E-04 (trialstep = 0.808E+00)
 search vector abs. value=  0.569E-02
 bond charge predicted
       N       E                     dE             d eps       ncg     rms          rms(c)
DAV:   1    -0.637509075887E+03    0.30316E-01   -0.82264E-01  9864   0.640E+00    0.299E-01
RMM:   2    -0.637540120371E+03   -0.31044E-01   -0.30736E-01 15340   0.142E+00    0.569E-01
RMM:   3    -0.637541759521E+03   -0.16392E-02   -0.31214E-02 12264   0.510E-01    0.563E-01
RMM:   4    -0.637540997354E+03    0.76217E-03   -0.43542E-03 13834   0.217E-01    0.296E-01
RMM:   5    -0.637540529745E+03    0.46761E-03   -0.13590E-03 14082   0.111E-01    0.148E-01
RMM:   6    -0.637540470718E+03    0.59027E-04   -0.55378E-04 13087   0.572E-02    0.114E-01
RMM:   7    -0.637540461380E+03    0.93384E-05   -0.28928E-04 12393   0.490E-02    0.104E-01
RMM:   8    -0.637540457818E+03    0.35619E-05   -0.24941E-04 12554   0.443E-02    0.118E-01
RMM:   9    -0.637540401964E+03    0.55854E-04   -0.17044E-04 11840   0.435E-02    0.676E-02
RMM:  10    -0.637540393604E+03    0.83602E-05   -0.12699E-04 12024   0.310E-02    0.539E-02
RMM:  11    -0.637540384693E+03    0.89108E-05   -0.57704E-05 10452   0.265E-02
  30 F= -.63754038E+03 E0= -.63746595E+03  d E =-.991461E-03
 trial-energy change:   -0.000991  1 .order   -0.001122   -0.001780   -0.000464
 step:   1.0932(harm=  1.0932)  dis= 0.00465  next Energy=  -637.540597 (dE=-0.120E-02)
 bond charge predicted
       N       E                     dE             d eps       ncg     rms          rms(c)
DAV:   1    -0.637536543661E+03    0.38499E-02   -0.10205E-01 10008   0.226E+00    0.107E-01
RMM:   2    -0.637540549640E+03   -0.40060E-02   -0.38731E-02 15308   0.503E-01    0.241E-01
RMM:   3    -0.637540577567E+03   -0.27926E-04   -0.39617E-03 12324   0.180E-01    0.173E-01
RMM:   4    -0.637540529518E+03    0.48049E-04   -0.61392E-04 13391   0.815E-02    0.107E-01
RMM:   5    -0.637540473510E+03    0.56008E-04   -0.21032E-04 12472   0.425E-02    0.587E-02
RMM:   6    -0.637540464684E+03    0.88260E-05   -0.96818E-05 11470   0.257E-02
  31 F= -.63754046E+03 E0= -.63746617E+03  d E =-.107145E-02
 curvature:  -1.41 expect dE=-0.137E-02 dE for cont linesearch -0.224E-04
 ZBRENT: interpolating
 opt :   0.9953  next Energy=  -637.540479 (dE=-0.109E-02)
 bond charge predicted
       N       E                     dE             d eps       ncg     rms          rms(c)
DAV:   1    -0.637540005313E+03    0.46820E-03   -0.12208E-02 10440   0.779E-01    0.537E-02
RMM:   2    -0.637540519535E+03   -0.51422E-03   -0.46999E-03 14565   0.177E-01    0.119E-01
RMM:   3    -0.637540485900E+03    0.33635E-04   -0.49451E-04  9322   0.710E-02    0.844E-02
RMM:   4    -0.637540466895E+03    0.19005E-04   -0.93452E-05  8215   0.369E-02    0.457E-02
RMM:   5    -0.637540459556E+03    0.73387E-05   -0.22712E-05  6169   0.214E-02
  32 F= -.63754046E+03 E0= -.63746612E+03  d E =-.106632E-02
 curvature:  -0.93 expect dE=-0.747E-03 dE for cont linesearch -0.325E-04
 ZBRENT: interpolating
 opt :   1.0538  next Energy=  -637.540471 (dE=-0.108E-02)
 bond charge predicted
       N       E                     dE             d eps       ncg     rms          rms(c)
DAV:   1    -0.637540314378E+03    0.15252E-03   -0.43894E-03 12504   0.467E-01    0.247E-02
RMM:   2    -0.637540520131E+03   -0.20575E-03   -0.14637E-03 14360   0.987E-02    0.120E-01
RMM:   3    -0.637540457219E+03    0.62912E-04   -0.16078E-04  7752   0.432E-02    0.217E-02
RMM:   4    -0.637540462396E+03   -0.51763E-05   -0.25879E-05  6312   0.209E-02
  33 F= -.63754046E+03 E0= -.63746614E+03  d E =-.106916E-02
 curvature:  -0.17 expect dE=-0.165E-03 dE for cont linesearch -0.194E-05
 ZBRENT: bisectioning
 opt :   1.0246  next Energy=  -637.540469 (dE=-0.108E-02)
 bond charge predicted
       N       E                     dE             d eps       ncg     rms          rms(c)
DAV:   1    -0.637540421856E+03    0.35364E-04   -0.11095E-03 13752   0.237E-01    0.171E-02
RMM:   2    -0.637540496247E+03   -0.74392E-04   -0.38431E-04 10759   0.512E-02    0.849E-02
RMM:   3    -0.637540455091E+03    0.41156E-04   -0.43467E-05  6425   0.276E-02    0.188E-02
RMM:   4    -0.637540454598E+03    0.49293E-06   -0.96353E-06  5446   0.132E-02
  34 F= -.63754045E+03 E0= -.63746613E+03  d E =-.106137E-02
 curvature:  -0.61 expect dE=-0.453E-03 dE for cont linesearch -0.149E-04
 ZBRENT: interpolating
 opt :   1.0419  next Energy=  -637.540464 (dE=-0.107E-02)
 bond charge predicted
       N       E                     dE             d eps       ncg     rms          rms(c)
DAV:   1    -0.637540446145E+03    0.89453E-05   -0.38606E-04 13152   0.140E-01    0.170E-02
RMM:   2    -0.637540533143E+03   -0.86998E-04   -0.15173E-04  8356   0.376E-02    0.121E-01
RMM:   3    -0.637540457041E+03    0.76102E-04   -0.30650E-05  6336   0.254E-02    0.160E-02
RMM:   4    -0.637540455863E+03    0.11787E-05   -0.67250E-06  5027   0.114E-02
  35 F= -.63754046E+03 E0= -.63746614E+03  d E =-.106263E-02
 curvature:  -0.06 expect dE=-0.521E-04 dE for cont linesearch -0.563E-06
 ZBRENT: bisectioning
 opt :   1.0332  next Energy=  -637.540458 (dE=-0.106E-02)
 bond charge predicted
       N       E                     dE             d eps       ncg     rms          rms(c)
DAV:   1    -0.637540452616E+03    0.44255E-05   -0.91997E-05 11376   0.707E-02    0.794E-03
RMM:   2    -0.637540466956E+03   -0.14340E-04   -0.29024E-05  6263   0.177E-02    0.466E-02
RMM:   3    -0.637540455035E+03    0.11921E-04   -0.88916E-06  4959   0.171E-02    0.101E-02
RMM:   4    -0.637540454664E+03    0.37123E-06   -0.28121E-06  4835   0.587E-03
  36 F= -.63754045E+03 E0= -.63746613E+03  d E =-.106143E-02
 curvature:  -0.21 expect dE=-0.159E-03 dE for cont linesearch -0.280E-05
 ZBRENT: interpolating
 opt :   1.0380  next Energy=  -637.540456 (dE=-0.106E-02)
 bond charge predicted
       N       E                     dE             d eps       ncg     rms          rms(c)
DAV:   1    -0.637540454521E+03    0.51448E-06   -0.23371E-05  6696   0.399E-02    0.669E-03
RMM:   2    -0.637540466965E+03   -0.12444E-04   -0.14098E-05  5907   0.158E-02    0.487E-02
RMM:   3    -0.637540455240E+03    0.11725E-04   -0.52883E-06  4823   0.121E-02    0.606E-03
RMM:   4    -0.637540455189E+03    0.51128E-07   -0.18471E-06  4573   0.445E-03
  37 F= -.63754046E+03 E0= -.63746614E+03  d E =-.106196E-02
 curvature:  -0.03 expect dE=-0.258E-04 dE for cont linesearch -0.430E-07
 trial: gam= 0.13500 g(F)=  0.682E-03 g(S)=  0.989E-04 ort =-0.861E-04 (trialstep = 0.854E+00)
 search vector abs. value=  0.862E-03
 bond charge predicted
       N       E                     dE             d eps       ncg     rms          rms(c)
DAV:   1    -0.637538400724E+03    0.20545E-02   -0.12697E-01 11016   0.210E+00    0.187E-01
RMM:   2    -0.637542577801E+03   -0.41771E-02   -0.34172E-02 14734   0.553E-01    0.446E-01
RMM:   3    -0.637541406977E+03    0.11708E-02   -0.39190E-03 12447   0.215E-01    0.276E-01
RMM:   4    -0.637541105785E+03    0.30119E-03   -0.10662E-03 13648   0.981E-02    0.150E-01
RMM:   5    -0.637541078723E+03    0.27062E-04   -0.33816E-04 12000   0.644E-02    0.156E-01
RMM:   6    -0.637540937937E+03    0.14079E-03   -0.18281E-04 11476   0.428E-02    0.608E-02
RMM:   7    -0.637540949560E+03   -0.11622E-04   -0.12993E-04 11213   0.353E-02    0.820E-02
RMM:   8    -0.637540933226E+03    0.16333E-04   -0.77057E-05  9615   0.327E-02    0.709E-02
RMM:   9    -0.637540913261E+03    0.19965E-04   -0.55553E-05  9215   0.260E-02    0.388E-02
RMM:  10    -0.637540908169E+03    0.50924E-05   -0.27613E-05  7562   0.187E-02
  38 F= -.63754091E+03 E0= -.63746654E+03  d E =-.452980E-03
 trial-energy change:   -0.000453  1 .order   -0.000421   -0.000657   -0.000184
 step:   1.1876(harm=  1.1876)  dis= 0.00142  next Energy=  -637.540912 (dE=-0.457E-03)
 bond charge predicted
       N       E                     dE             d eps       ncg     rms          rms(c)
DAV:   1    -0.637540561238E+03    0.35202E-03   -0.19258E-02 11856   0.821E-01    0.731E-02
RMM:   2    -0.637541248394E+03   -0.68716E-03   -0.51233E-03 14612   0.217E-01    0.206E-01
RMM:   3    -0.637541022512E+03    0.22588E-03   -0.62768E-04 11382   0.872E-02    0.114E-01
RMM:   4    -0.637540974551E+03    0.47961E-04   -0.18009E-04 11746   0.447E-02    0.649E-02
RMM:   5    -0.637540966948E+03    0.76037E-05   -0.60719E-05  8990   0.290E-02
  39 F= -.63754097E+03 E0= -.63746663E+03  d E =-.511759E-03
 curvature:  -0.66 expect dE=-0.138E-03 dE for cont linesearch -0.143E-05
 ZBRENT: extrapolating
 opt :   1.2706  next Energy=  -637.540969 (dE=-0.514E-03)
 bond charge predicted
       N       E                     dE             d eps       ncg     rms          rms(c)
DAV:   1    -0.637540934932E+03    0.39620E-04   -0.12938E-03 14448   0.212E-01    0.383E-02
RMM:   2    -0.637541178367E+03   -0.24344E-03   -0.45329E-04 10993   0.711E-02    0.198E-01
RMM:   3    -0.637540957089E+03    0.22128E-03   -0.10777E-04  7970   0.435E-02    0.419E-02
RMM:   4    -0.637540950866E+03    0.62227E-05   -0.26833E-05  6653   0.216E-02
  40 F= -.63754095E+03 E0= -.63746663E+03  d E =-.495677E-03
 curvature:  -0.83 expect dE=-0.297E-03 dE for cont linesearch -0.101E-05
 trial: gam= 0.52326 g(F)=  0.170E-03 g(S)=  0.188E-03 ort =-0.324E-04 (trialstep = 0.938E+00)
 search vector abs. value=  0.560E-03
 bond charge predicted
       N       E                     dE             d eps       ncg     rms          rms(c)
DAV:   1    -0.637539990575E+03    0.96651E-03   -0.10266E-01 12816   0.177E+00    0.236E-01
RMM:   2    -0.637545090253E+03   -0.50997E-02   -0.26543E-02 13376   0.559E-01    0.699E-01
RMM:   3    -0.637542225110E+03    0.28651E-02   -0.45979E-03 12473   0.239E-01    0.396E-01
RMM:   4    -0.637541443870E+03    0.78124E-03   -0.12497E-03 13292   0.109E-01    0.179E-01
RMM:   5    -0.637541394921E+03    0.48949E-04   -0.41167E-04 11403   0.719E-02    0.165E-01
RMM:   6    -0.637541236894E+03    0.15803E-03   -0.25190E-04 11932   0.477E-02    0.749E-02
RMM:   7    -0.637541243344E+03   -0.64496E-05   -0.13703E-04 10847   0.402E-02    0.940E-02
RMM:   8    -0.637541222875E+03    0.20469E-04   -0.10179E-04  9783   0.355E-02    0.738E-02
RMM:   9    -0.637541205438E+03    0.17437E-04   -0.62692E-05  9133   0.254E-02    0.460E-02
RMM:  10    -0.637541205103E+03    0.33499E-06   -0.25862E-05  6553   0.209E-02
  41 F= -.63754121E+03 E0= -.63746697E+03  d E =-.254237E-03
 trial-energy change:   -0.000254  1 .order   -0.000218   -0.000320   -0.000117
 step:   1.4773(harm=  1.4773)  dis= 0.00161  next Energy=  -637.541203 (dE=-0.252E-03)
 bond charge predicted
       N       E                     dE             d eps       ncg     rms          rms(c)
DAV:   1    -0.637540789439E+03    0.41600E-03   -0.33833E-02 12648   0.101E+00    0.138E-01
RMM:   2    -0.637542348170E+03   -0.15587E-02   -0.89414E-03 13501   0.317E-01    0.361E-01
RMM:   3    -0.637541533899E+03    0.81427E-03   -0.14454E-03 11674   0.137E-01    0.234E-01
RMM:   4    -0.637541258852E+03    0.27505E-03   -0.41822E-04 12198   0.683E-02    0.951E-02
RMM:   5    -0.637541257794E+03    0.10579E-05   -0.14118E-04 10245   0.432E-02    0.101E-01
RMM:   6    -0.637541203006E+03    0.54789E-04   -0.83439E-05  9850   0.286E-02    0.438E-02
RMM:   7    -0.637541204848E+03   -0.18425E-05   -0.46189E-05  7986   0.242E-02
  42 F= -.63754120E+03 E0= -.63746701E+03  d E =-.253982E-03
 curvature:  -1.21 expect dE=-0.241E-03 dE for cont linesearch -0.503E-06
 trial: gam= 0.54770 g(F)=  0.155E-03 g(S)=  0.431E-04 ort =-0.152E-04 (trialstep = 0.105E+01)
 search vector abs. value=  0.350E-03
 bond charge predicted
       N       E                     dE             d eps       ncg     rms          rms(c)
DAV:   1    -0.637539410886E+03    0.17921E-02   -0.83939E-02 10320   0.174E+00    0.116E-01
RMM:   2    -0.637541857091E+03   -0.24462E-02   -0.21291E-02 15002   0.385E-01    0.312E-01
RMM:   3    -0.637541460278E+03    0.39681E-03   -0.20400E-03 11587   0.168E-01    0.170E-01
RMM:   4    -0.637541378193E+03    0.82085E-04   -0.54995E-04 12954   0.748E-02    0.973E-02
RMM:   5    -0.637541326295E+03    0.51898E-04   -0.18318E-04 11885   0.409E-02    0.704E-02
RMM:   6    -0.637541306009E+03    0.20286E-04   -0.86808E-05 10879   0.297E-02    0.609E-02
RMM:   7    -0.637541311050E+03   -0.50414E-05   -0.67264E-05  9706   0.276E-02
  43 F= -.63754131E+03 E0= -.63746717E+03  d E =-.106202E-03
 trial-energy change:   -0.000106  1 .order   -0.000125   -0.000199   -0.000052
 step:   1.4176(harm=  1.4176)  dis= 0.00165  next Energy=  -637.541340 (dE=-0.135E-03)
 bond charge predicted
       N       E                     dE             d eps       ncg     rms          rms(c)
DAV:   1    -0.637541037268E+03    0.26874E-03   -0.10352E-02 11136   0.621E-01    0.471E-02
RMM:   2    -0.637541473600E+03   -0.43633E-03   -0.29039E-03 14805   0.146E-01    0.171E-01
RMM:   3    -0.637541297764E+03    0.17584E-03   -0.32646E-04 10600   0.638E-02    0.511E-02
RMM:   4    -0.637541295104E+03    0.26594E-05   -0.99758E-05 10647   0.316E-02
  44 F= -.63754130E+03 E0= -.63746717E+03  d E =-.902560E-04
 curvature:  -1.30 expect dE=-0.224E-03 dE for cont linesearch -0.905E-05
 ZBRENT: interpolating
 opt :   1.2327  next Energy=  -637.541300 (dE=-0.948E-04)
 bond charge predicted
       N       E                     dE             d eps       ncg     rms          rms(c)
DAV:   1    -0.637541237437E+03    0.60327E-04   -0.26815E-03 12960   0.316E-01    0.401E-02
RMM:   2    -0.637541708683E+03   -0.47125E-03   -0.92345E-04 11257   0.923E-02    0.276E-01
RMM:   3    -0.637541301470E+03    0.40721E-03   -0.18588E-04  8072   0.548E-02    0.333E-02
RMM:   4    -0.637541295500E+03    0.59697E-05   -0.31758E-05  6389   0.209E-02
  45 F= -.63754130E+03 E0= -.63746716E+03  d E =-.906522E-04
 curvature:  -0.66 expect dE=-0.218E-03 dE for cont linesearch -0.677E-05
 ZBRENT: interpolating
 opt :   1.3343  next Energy=  -637.541297 (dE=-0.923E-04)
 bond charge predicted
       N       E                     dE             d eps       ncg     rms          rms(c)
DAV:   1    -0.637541273285E+03    0.28185E-04   -0.76778E-04 12552   0.173E-01    0.218E-02
RMM:   2    -0.637541377732E+03   -0.10445E-03   -0.29805E-04 10800   0.460E-02    0.117E-01
RMM:   3    -0.637541296698E+03    0.81035E-04   -0.46304E-05  6588   0.292E-02    0.345E-02
RMM:   4    -0.637541289388E+03    0.73102E-05   -0.12618E-05  5663   0.163E-02
  46 F= -.63754129E+03 E0= -.63746717E+03  d E =-.845393E-04
 curvature:  -0.20 expect dE=-0.907E-04 dE for cont linesearch -0.350E-05
 ZBRENT: interpolating
 opt :   1.2768  next Energy=  -637.541297 (dE=-0.920E-04)
 bond charge predicted
       N       E                     dE             d eps       ncg     rms          rms(c)
DAV:   1    -0.637541287967E+03    0.87303E-05   -0.24785E-04 13320   0.981E-02    0.133E-02
RMM:   2    -0.637541341655E+03   -0.53688E-04   -0.74778E-05  7191   0.292E-02    0.971E-02
RMM:   3    -0.637541293022E+03    0.48633E-04   -0.20262E-05  6127   0.232E-02    0.926E-03
RMM:   4    -0.637541292999E+03    0.23087E-07   -0.44891E-06  4920   0.824E-03
  47 F= -.63754129E+03 E0= -.63746716E+03  d E =-.881506E-04
 curvature:  -0.08 expect dE=-0.346E-04 dE for cont linesearch -0.287E-06
 trial: gam= 1.80279 g(F)=  0.134E-03 g(S)=  0.325E-03 ort = 0.365E-04 (trialstep = 0.221E+00)
 search vector abs. value=  0.173E-02
 bond charge predicted
       N       E                     dE             d eps       ncg     rms          rms(c)
DAV:   1    -0.637540958164E+03    0.33486E-03   -0.21342E-02 13392   0.930E-01    0.753E-02
RMM:   2    -0.637541678145E+03   -0.71998E-03   -0.57095E-03 14239   0.206E-01    0.186E-01
RMM:   3    -0.637541451176E+03    0.22697E-03   -0.59825E-04 10527   0.951E-02    0.114E-01
RMM:   4    -0.637541393903E+03    0.57274E-04   -0.18257E-04 10884   0.455E-02    0.524E-02
RMM:   5    -0.637541390622E+03    0.32807E-05   -0.43366E-05  6729   0.260E-02
  48 F= -.63754139E+03 E0= -.63746728E+03  d E =-.976229E-04
 trial-energy change:   -0.000098  1 .order   -0.000086   -0.000116   -0.000057
 step:   0.4309(harm=  0.4309)  dis= 0.00130  next Energy=  -637.541406 (dE=-0.113E-03)
 bond charge predicted
       N       E                     dE             d eps       ncg     rms          rms(c)
DAV:   1    -0.637541062689E+03    0.33121E-03   -0.19551E-02 14064   0.885E-01    0.831E-02
RMM:   2    -0.637541894442E+03   -0.83175E-03   -0.51944E-03 13872   0.205E-01    0.261E-01
RMM:   3    -0.637541485500E+03    0.40894E-03   -0.64290E-04 10655   0.100E-01    0.113E-01
RMM:   4    -0.637541429171E+03    0.56329E-04   -0.20534E-04 11261   0.481E-02    0.652E-02
RMM:   5    -0.637541424327E+03    0.48443E-05   -0.57020E-05  7355   0.286E-02
  49 F= -.63754142E+03 E0= -.63746735E+03  d E =-.131328E-03
 curvature:  -0.71 expect dE=-0.247E-03 dE for cont linesearch -0.106E-05
 trial: gam= 0.10529 g(F)=  0.119E-03 g(S)=  0.230E-03 ort = 0.508E-04 (trialstep = 0.263E+00)
 search vector abs. value=  0.379E-03
 bond charge predicted
       N       E                     dE             d eps       ncg     rms          rms(c)
DAV:   1    -0.637541588204E+03   -0.15903E-03   -0.62258E-03 13776   0.432E-01    0.121E-01
RMM:   2    -0.637542292731E+03   -0.70453E-03   -0.23214E-03 12067   0.183E-01    0.320E-01
RMM:   3    -0.637541675487E+03    0.61724E-03   -0.64955E-04 10478   0.107E-01    0.187E-01
RMM:   4    -0.637541485235E+03    0.19025E-03   -0.20432E-04 10600   0.496E-02    0.794E-02
RMM:   5    -0.637541491297E+03   -0.60624E-05   -0.79520E-05  7840   0.341E-02
  50 F= -.63754149E+03 E0= -.63746740E+03  d E =-.669704E-04
 trial-energy change:   -0.000067  1 .order   -0.000076   -0.000093   -0.000058
 step:   0.7050(harm=  0.7050)  dis= 0.00048  next Energy=  -637.541549 (dE=-0.125E-03)
 bond charge predicted
       N       E                     dE             d eps       ncg     rms          rms(c)
DAV:   1    -0.637541798819E+03   -0.31358E-03   -0.17580E-02 13584   0.726E-01    0.201E-01
RMM:   2    -0.637543736805E+03   -0.19380E-02   -0.66479E-03 12155   0.308E-01    0.526E-01
RMM:   3    -0.637542024996E+03    0.17118E-02   -0.18749E-03 11105   0.179E-01    0.304E-01
RMM:   4    -0.637541496735E+03    0.52826E-03   -0.53522E-04 12146   0.782E-02    0.122E-01
RMM:   5    -0.637541552717E+03   -0.55981E-04   -0.23077E-04 10017   0.549E-02    0.179E-01
RMM:   6    -0.637541390491E+03    0.16223E-03   -0.14658E-04 10013   0.423E-02    0.605E-02
RMM:   7    -0.637541403023E+03   -0.12532E-04   -0.84227E-05  8473   0.333E-02    0.886E-02
RMM:   8    -0.637541357396E+03    0.45627E-04   -0.44777E-05  6887   0.254E-02    0.260E-02
RMM:   9    -0.637541359789E+03   -0.23931E-05   -0.22698E-05  6141   0.201E-02
  51 F= -.63754136E+03 E0= -.63746731E+03  d E =0.645378E-04
 curvature:  -0.38 expect dE=-0.234E-03 dE for cont linesearch -0.862E-04
 ZBRENT: interpolating
 opt :   0.4531  next Energy=  -637.541512 (dE=-0.881E-04)
 bond charge predicted
       N       E                     dE             d eps       ncg     rms          rms(c)
DAV:   1    -0.637541544850E+03   -0.18745E-03   -0.61559E-03 13728   0.415E-01    0.110E-01
RMM:   2    -0.637542191599E+03   -0.64675E-03   -0.21661E-03 12351   0.176E-01    0.302E-01
RMM:   3    -0.637541641011E+03    0.55059E-03   -0.57349E-04 10937   0.978E-02    0.188E-01
RMM:   4    -0.637541458162E+03    0.18285E-03   -0.18704E-04 10470   0.501E-02    0.757E-02
RMM:   5    -0.637541457943E+03    0.21919E-06   -0.79992E-05  8834   0.321E-02
  52 F= -.63754146E+03 E0= -.63746735E+03  d E =-.336160E-04
 curvature:  -0.09 expect dE=-0.876E-04 dE for cont linesearch -0.301E-04
 ZBRENT: interpolating
 opt :   0.3366  next Energy=  -637.541499 (dE=-0.751E-04)
 bond charge predicted
       N       E                     dE             d eps       ncg     rms          rms(c)
DAV:   1    -0.637541479626E+03   -0.21464E-04   -0.12709E-03 13992   0.207E-01    0.764E-02
RMM:   2    -0.637542137596E+03   -0.65797E-03   -0.92210E-04 11024   0.109E-01    0.327E-01
RMM:   3    -0.637541504001E+03    0.63359E-03   -0.32240E-04  8957   0.783E-02    0.107E-01
RMM:   4    -0.637541446953E+03    0.57048E-04   -0.77822E-05  7867   0.334E-02    0.691E-02
RMM:   5    -0.637541429623E+03    0.17331E-04   -0.26337E-05  6164   0.226E-02    0.420E-02
RMM:   6    -0.637541424521E+03    0.51018E-05   -0.17864E-05  5853   0.198E-02
  53 F= -.63754142E+03 E0= -.63746734E+03  d E =-.194072E-06
 curvature:  -0.03 expect dE=-0.212E-04 dE for cont linesearch -0.576E-05
 ZBRENT: interpolating
 opt :   0.2946  next Energy=  -637.541495 (dE=-0.705E-04)
 bond charge predicted
       N       E                     dE             d eps       ncg     rms          rms(c)
DAV:   1    -0.637541427541E+03    0.20817E-05   -0.15474E-04 13416   0.762E-02    0.334E-02
RMM:   2    -0.637541635067E+03   -0.20753E-03   -0.18295E-04  8007   0.480E-02    0.186E-01
RMM:   3    -0.637541428018E+03    0.20705E-03   -0.73140E-05  7211   0.375E-02    0.299E-02
RMM:   4    -0.637541425305E+03    0.27127E-05   -0.98072E-06  5601   0.135E-02
  54 F= -.63754143E+03 E0= -.63746733E+03  d E =-.978522E-06
 curvature:  -0.02 expect dE=-0.817E-05 dE for cont linesearch -0.118E-05
 ZBRENT: interpolating
 opt :   0.2809  next Energy=  -637.541426 (dE=-0.215E-05)
 bond charge predicted
       N       E                     dE             d eps       ncg     rms          rms(c)
DAV:   1    -0.637541420439E+03    0.75785E-05   -0.25437E-05  7176   0.330E-02    0.132E-02
RMM:   2    -0.637541442031E+03   -0.21591E-04   -0.20565E-05  6105   0.197E-02    0.589E-02
RMM:   3    -0.637541423089E+03    0.18942E-04   -0.10146E-05  5529   0.165E-02    0.189E-02
RMM:   4    -0.637541420972E+03    0.21169E-05   -0.30980E-06  4768   0.721E-03
  55 F= -.63754142E+03 E0= -.63746733E+03  d E =0.335486E-05
 curvature:  -0.02 expect dE=-0.488E-05 dE for cont linesearch -0.201E-06
 ZBRENT: interpolating
 opt :   0.2735  next Energy=  -637.541421 (dE= 0.303E-05)
 bond charge predicted
       N       E                     dE             d eps       ncg     rms          rms(c)
DAV:   1    -0.637541420958E+03    0.21314E-05   -0.63917E-06  5712   0.165E-02    0.878E-03
RMM:   2    -0.637541435701E+03   -0.14743E-04   -0.98597E-06  5811   0.142E-02    0.505E-02
RMM:   3    -0.637541422160E+03    0.13541E-04   -0.53335E-06  4918   0.116E-02    0.982E-03
RMM:   4    -0.637541421635E+03    0.52513E-06   -0.13033E-06  4744   0.457E-03
  56 F= -.63754142E+03 E0= -.63746734E+03  d E =0.269200E-05
 curvature:  -0.02 expect dE=-0.680E-05 dE for cont linesearch -0.142E-06
 trial: gam= 0.88839 g(F)=  0.946E-04 g(S)=  0.184E-03 ort =-0.469E-04 (trialstep = 0.203E+00)
 search vector abs. value=  0.494E-03
 bond charge predicted
       N       E                     dE             d eps       ncg     rms          rms(c)
DAV:   1    -0.637541365668E+03    0.56492E-04   -0.39420E-03 10632   0.393E-01    0.301E-02
RMM:   2    -0.637541477550E+03   -0.11188E-03   -0.10567E-03 14427   0.891E-02    0.695E-02
RMM:   3    -0.637541457384E+03    0.20167E-04   -0.90245E-05  7210   0.403E-02    0.310E-02
RMM:   4    -0.637541461923E+03   -0.45393E-05   -0.27741E-05  6258   0.229E-02
  57 F= -.63754146E+03 E0= -.63746739E+03  d E =-.402880E-04
 trial-energy change:   -0.000040  1 .order   -0.000038   -0.000048   -0.000027
 step:   0.4729(harm=  0.4729)  dis= 0.00058  next Energy=  -637.541478 (dE=-0.559E-04)
 reached required accuracy - stopping structural energy minimisation
