<?xml version="1.0" encoding="ISO-8859-1"?>
<modeling>
 <generator>
  <i name="program" type="string">vasp </i>
  <i name="version" type="string">5.4.4.18Apr17-6-g9f103f2a35  </i>
  <i name="subversion" type="string">(build Oct 18 2021 20:38:43) complex            parallel </i>
  <i name="platform" type="string">LinuxIFC </i>
  <i name="date" type="string">2024 06 15 </i>
  <i name="time" type="string">16:25:54 </i>
 </generator>
 <incar>
  <i type="string" name="SYSTEM">HECN</i>
  <i type="int" name="ISTART">     0</i>
  <i type="string" name="PREC">normal</i>
  <i type="string" name="ALGO">Fast</i>
  <i type="int" name="ICHARG">     2</i>
  <i type="int" name="NELM">    60</i>
  <i type="int" name="IBRION">     2</i>
  <i name="EDIFF">      0.00001000</i>
  <i name="EDIFFG">     -0.01000000</i>
  <i type="int" name="NSW">   100</i>
  <i type="int" name="ISIF">     3</i>
  <i name="ENCUT">    400.00000000</i>
  <i name="POTIM">      0.50000000</i>
  <i type="logical" name="LREAL"> F  </i>
  <i type="int" name="ISMEAR">     0</i>
  <i name="SIGMA">      0.10000000</i>
  <i type="logical" name="LWAVE"> F  </i>
  <i type="logical" name="LCHARG"> F  </i>
  <v type="int" name="KPOINT_BSE">    -1     0     0     0</v>
  <i type="int" name="NELM">    60</i>
 </incar>
 <structure name="primitive_cell" >
  <crystal>
   <varray name="basis" >
    <v>       8.93249989       0.00000000       0.00000000 </v>
    <v>       0.00575300       9.05559834       0.00000000 </v>
    <v>       0.03210180      -0.01574346       8.93712807 </v>
   </varray>
   <i name="volume">    722.91652451 </i>
   <varray name="rec_basis" >
    <v>       0.11195074      -0.00007112      -0.00040225 </v>
    <v>       0.00000000       0.11042893       0.00019453 </v>
    <v>       0.00000000       0.00000000       0.11189277 </v>
   </varray>
  </crystal>
  <varray name="positions" >
   <v>      -0.00311999      -0.00795003      -0.00075998 </v>
   <v>      -0.25232999      -0.00252000       0.01202000 </v>
   <v>      -0.00162995      -0.25686004       0.00460000 </v>
   <v>      -0.00280000      -0.00228008       0.25899999 </v>
   <v>       0.00281000       0.25024000       0.00130000 </v>
   <v>      -0.01103011       0.00202000      -0.26291001 </v>
   <v>       0.26146999      -0.00015998      -0.00704004 </v>
   <v>      -0.00135002      -0.22426001       0.26102000 </v>
   <v>      -0.25720997      -0.02130006      -0.23549005 </v>
   <v>       0.23780002       0.01082000      -0.25392002 </v>
   <v>      -0.24282000      -0.25897003       0.01100000 </v>
   <v>       0.24762001      -0.25026001      -0.00025994 </v>
   <v>      -0.00485996      -0.25507996      -0.25488003 </v>
   <v>      -0.24281000       0.25603001      -0.00408003 </v>
   <v>       0.25398003      -0.00285005       0.24912000 </v>
   <v>       0.24788999       0.24839000      -0.00342003 </v>
   <v>      -0.00562996       0.23617001       0.26379999 </v>
   <v>      -0.25120996      -0.01212001       0.26967001 </v>
   <v>       0.00201000       0.25541000      -0.26105999 </v>
   <v>       0.24177002      -0.24659003      -0.24981998 </v>
   <v>      -0.24963995      -0.25112000      -0.25243996 </v>
   <v>      -0.24255004       0.24437997      -0.25103001 </v>
   <v>       0.25133999      -0.25041998       0.24910999 </v>
   <v>      -0.24367000      -0.26108997       0.25767000 </v>
   <v>      -0.24686002       0.24616999       0.25492002 </v>
   <v>       0.24982001       0.24942998       0.24825000 </v>
   <v>       0.24900999       0.25315000      -0.25146000 </v>
   <v>      -0.48411003       0.01358000      -0.01924992 </v>
   <v>      -0.00158006      -0.49023002      -0.01386996 </v>
   <v>       0.02362000      -0.00216999       0.49557002 </v>
   <v>      -0.49480995      -0.23869001       0.00855000 </v>
   <v>      -0.49285006      -0.00023001       0.24673000 </v>
   <v>      -0.24160996      -0.49684002       0.00288000 </v>
   <v>      -0.00999997      -0.23784997       0.49746000 </v>
   <v>      -0.00948001       0.48088003       0.24100999 </v>
   <v>       0.24446000      -0.00176004      -0.49712002 </v>
   <v>      -0.26367999       0.00417000      -0.48937000 </v>
   <v>       0.24328000      -0.49927003      -0.00489006 </v>
   <v>      -0.49572003       0.24673000       0.00262000 </v>
   <v>      -0.00796004      -0.49944001      -0.24861998 </v>
   <v>      -0.00195991       0.24229999      -0.49871997 </v>
   <v>      -0.49991002       0.00061000      -0.26528002 </v>
   <v>      -0.26123997      -0.47171998      -0.26185001 </v>
   <v>       0.49950005      -0.24518001      -0.25182996 </v>
   <v>       0.24457999      -0.24951001       0.49983999 </v>
   <v>      -0.24599997      -0.27062001       0.49116997 </v>
   <v>      -0.49520997       0.24631001      -0.25289998 </v>
   <v>       0.24803003      -0.49835000       0.24955001 </v>
   <v>      -0.26448999      -0.48531996       0.26666001 </v>
   <v>      -0.49167000       0.25676999       0.25376001 </v>
   <v>      -0.49620997      -0.26073003       0.25905001 </v>
   <v>      -0.24692999       0.26163001      -0.49466998 </v>
   <v>       0.25272001       0.24823001      -0.49984997 </v>
   <v>       0.25679999       0.49462002      -0.25454998 </v>
   <v>       0.47957999      -0.01691999       0.49717999 </v>
   <v>      -0.49498994       0.49745998      -0.00165997 </v>
   <v>      -0.00572008      -0.49550001       0.49779000 </v>
   <v>      -0.49436004       0.23264998       0.49544997 </v>
   <v>      -0.49424994      -0.25041998       0.49720000 </v>
   <v>      -0.49299998      -0.49666998       0.25878999 </v>
   <v>      -0.49498997      -0.49782002      -0.26087997 </v>
   <v>      -0.25963999      -0.49803000      -0.49932997 </v>
   <v>       0.25841001      -0.49937998      -0.49870999 </v>
   <v>      -0.49461000      -0.47166995       0.49917999 </v>
  </varray>
 </structure>
 <varray name="primitive_index" >
  <v type="int" >        1 </v>
  <v type="int" >       25 </v>
  <v type="int" >       38 </v>
  <v type="int" >       34 </v>
  <v type="int" >       23 </v>
  <v type="int" >       29 </v>
  <v type="int" >       22 </v>
  <v type="int" >       59 </v>
  <v type="int" >       58 </v>
  <v type="int" >       56 </v>
  <v type="int" >        9 </v>
  <v type="int" >       18 </v>
  <v type="int" >       12 </v>
  <v type="int" >       17 </v>
  <v type="int" >        2 </v>
  <v type="int" >       14 </v>
  <v type="int" >        8 </v>
  <v type="int" >       16 </v>
  <v type="int" >       10 </v>
  <v type="int" >       45 </v>
  <v type="int" >       49 </v>
  <v type="int" >       30 </v>
  <v type="int" >       36 </v>
  <v type="int" >       39 </v>
  <v type="int" >       24 </v>
  <v type="int" >       21 </v>
  <v type="int" >       42 </v>
  <v type="int" >       53 </v>
  <v type="int" >       54 </v>
  <v type="int" >       61 </v>
  <v type="int" >       28 </v>
  <v type="int" >       26 </v>
  <v type="int" >       40 </v>
  <v type="int" >       47 </v>
  <v type="int" >       27 </v>
  <v type="int" >       43 </v>
  <v type="int" >       31 </v>
  <v type="int" >       37 </v>
  <v type="int" >       35 </v>
  <v type="int" >       48 </v>
  <v type="int" >       44 </v>
  <v type="int" >       33 </v>
  <v type="int" >       63 </v>
  <v type="int" >        7 </v>
  <v type="int" >       20 </v>
  <v type="int" >       64 </v>
  <v type="int" >        5 </v>
  <v type="int" >        3 </v>
  <v type="int" >       60 </v>
  <v type="int" >       15 </v>
  <v type="int" >       55 </v>
  <v type="int" >       11 </v>
  <v type="int" >       19 </v>
  <v type="int" >       13 </v>
  <v type="int" >       57 </v>
  <v type="int" >        4 </v>
  <v type="int" >        6 </v>
  <v type="int" >       32 </v>
  <v type="int" >       51 </v>
  <v type="int" >       41 </v>
  <v type="int" >       52 </v>
  <v type="int" >       50 </v>
  <v type="int" >       46 </v>
  <v type="int" >       62 </v>
 </varray>
 <kpoints>
  <generation param="Gamma">
   <v type="int" name="divisions">       3        3        3 </v>
   <v name="usershift">      0.00000000       0.00000000       0.00000000 </v>
   <v name="genvec1">      0.33333333      -0.00000000      -0.00000000 </v>
   <v name="genvec2">      0.00000000       0.33333333       0.00000000 </v>
   <v name="genvec3">      0.00000000       0.00000000       0.33333333 </v>
   <v name="shift">      0.00000000       0.00000000       0.00000000 </v>
  </generation>
  <varray name="kpointlist" >
   <v>       0.00000000       0.00000000       0.00000000 </v>
   <v>       0.33333333       0.00000000       0.00000000 </v>
   <v>       0.00000000       0.33333333       0.00000000 </v>
   <v>       0.33333333       0.33333333       0.00000000 </v>
   <v>      -0.33333333       0.33333333       0.00000000 </v>
   <v>       0.00000000       0.00000000       0.33333333 </v>
   <v>       0.33333333       0.00000000       0.33333333 </v>
   <v>      -0.33333333       0.00000000       0.33333333 </v>
   <v>       0.00000000       0.33333333       0.33333333 </v>
   <v>       0.33333333       0.33333333       0.33333333 </v>
   <v>      -0.33333333       0.33333333       0.33333333 </v>
   <v>       0.00000000      -0.33333333       0.33333333 </v>
   <v>       0.33333333      -0.33333333       0.33333333 </v>
   <v>      -0.33333333      -0.33333333       0.33333333 </v>
  </varray>
  <varray name="weights" >
   <v>       0.03703704 </v>
   <v>       0.07407407 </v>
   <v>       0.07407407 </v>
   <v>       0.07407407 </v>
   <v>       0.07407407 </v>
   <v>       0.07407407 </v>
   <v>       0.07407407 </v>
   <v>       0.07407407 </v>
   <v>       0.07407407 </v>
   <v>       0.07407407 </v>
   <v>       0.07407407 </v>
   <v>       0.07407407 </v>
   <v>       0.07407407 </v>
   <v>       0.07407407 </v>
  </varray>
 </kpoints>
 <parameters>
  <separator name="general" >
   <i type="string" name="SYSTEM">HECN</i>
   <i type="logical" name="LCOMPAT"> F  </i>
  </separator>
  <separator name="electronic" >
   <i type="string" name="PREC">normal</i>
   <i name="ENMAX">    400.00000000</i>
   <i name="ENAUG">    644.87300000</i>
   <i name="EDIFF">      0.00001000</i>
   <i type="int" name="IALGO">    68</i>
   <i type="int" name="IWAVPR">    11</i>
   <i type="int" name="NBANDS">   336</i>
   <i name="NELECT">    532.00000000</i>
   <i type="int" name="TURBO">     0</i>
   <i type="int" name="IRESTART">     0</i>
   <i type="int" name="NREBOOT">     0</i>
   <i type="int" name="NMIN">     0</i>
   <i name="EREF">      0.00000000</i>
   <separator name="electronic smearing" >
    <i type="int" name="ISMEAR">     0</i>
    <i name="SIGMA">      0.10000000</i>
    <i name="KSPACING">      0.50000000</i>
    <i type="logical" name="KGAMMA"> T  </i>
   </separator>
   <separator name="electronic projectors" >
    <i type="logical" name="LREAL"> F  </i>
    <v name="ROPT">      0.00000000      0.00000000      0.00000000      0.00000000      0.00000000      0.00000000      0.00000000</v>
    <i type="int" name="LMAXPAW">  -100</i>
    <i type="int" name="LMAXMIX">     2</i>
    <i type="logical" name="NLSPLINE"> F  </i>
   </separator>
   <separator name="electronic startup" >
    <i type="int" name="ISTART">     0</i>
    <i type="int" name="ICHARG">     2</i>
    <i type="int" name="INIWAV">     1</i>
   </separator>
   <separator name="electronic spin" >
    <i type="int" name="ISPIN">     1</i>
    <i type="logical" name="LNONCOLLINEAR"> F  </i>
    <v name="MAGMOM">      1.00000000      1.00000000      1.00000000      1.00000000      1.00000000      1.00000000      1.00000000      1.00000000      1.00000000      1.00000000      1.00000000      1.00000000      1.00000000      1.00000000      1.00000000      1.00000000      1.00000000      1.00000000      1.00000000      1.00000000
      1.00000000      1.00000000      1.00000000      1.00000000      1.00000000      1.00000000      1.00000000      1.00000000      1.00000000      1.00000000      1.00000000      1.00000000      1.00000000      1.00000000      1.00000000      1.00000000      1.00000000      1.00000000      1.00000000      1.00000000
      1.00000000      1.00000000      1.00000000      1.00000000      1.00000000      1.00000000      1.00000000      1.00000000      1.00000000      1.00000000      1.00000000      1.00000000      1.00000000      1.00000000      1.00000000      1.00000000      1.00000000      1.00000000      1.00000000      1.00000000
      1.00000000      1.00000000      1.00000000      1.00000000</v>
    <i name="NUPDOWN">     -1.00000000</i>
    <i type="logical" name="LSORBIT"> F  </i>
    <v name="SAXIS">      0.00000000      0.00000000      1.00000000</v>
    <i type="logical" name="LSPIRAL"> F  </i>
    <v name="QSPIRAL">      0.00000000      0.00000000      0.00000000</v>
    <i type="logical" name="LZEROZ"> F  </i>
   </separator>
   <separator name="electronic exchange-correlation" >
    <i type="logical" name="LASPH"> F  </i>
    <i type="logical" name="LMETAGGA"> F  </i>
   </separator>
   <separator name="electronic convergence" >
    <i type="int" name="NELM">    60</i>
    <i type="int" name="NELMDL">    -5</i>
    <i type="int" name="NELMIN">     2</i>
    <i name="ENINI">    400.00000000</i>
    <separator name="electronic convergence detail" >
     <i type="logical" name="LDIAG"> T  </i>
     <i type="logical" name="LSUBROT"> F  </i>
     <i name="WEIMIN">      0.00100000</i>
     <i name="EBREAK">      0.00000001</i>
     <i name="DEPER">      0.30000000</i>
     <i type="int" name="NRMM">     4</i>
     <i name="TIME">      0.40000000</i>
    </separator>
   </separator>
   <separator name="electronic mixer" >
    <i name="AMIX">      0.40000000</i>
    <i name="BMIX">      1.00000000</i>
    <i name="AMIN">      0.10000000</i>
    <i name="AMIX_MAG">      1.60000000</i>
    <i name="BMIX_MAG">      1.00000000</i>
    <separator name="electronic mixer details" >
     <i type="int" name="IMIX">     4</i>
     <i type="logical" name="MIXFIRST"> F  </i>
     <i type="int" name="MAXMIX">   -45</i>
     <i name="WC">    100.00000000</i>
     <i type="int" name="INIMIX">     1</i>
     <i type="int" name="MIXPRE">     1</i>
     <i type="int" name="MREMOVE">     5</i>
    </separator>
   </separator>
   <separator name="electronic dipolcorrection" >
    <i type="logical" name="LDIPOL"> F  </i>
    <i type="logical" name="LMONO"> F  </i>
    <i type="int" name="IDIPOL">     0</i>
    <i name="EPSILON">      1.00000000</i>
    <v name="DIPOL">   -100.00000000   -100.00000000   -100.00000000</v>
    <i name="EFIELD">      0.00000000</i>
   </separator>
  </separator>
  <separator name="grids" >
   <i type="int" name="NGX">    48</i>
   <i type="int" name="NGY">    48</i>
   <i type="int" name="NGZ">    48</i>
   <i type="int" name="NGXF">    96</i>
   <i type="int" name="NGYF">    96</i>
   <i type="int" name="NGZF">    96</i>
   <i type="logical" name="ADDGRID"> F  </i>
  </separator>
  <separator name="ionic" >
   <i type="int" name="NSW">   100</i>
   <i type="int" name="IBRION">     2</i>
   <i type="int" name="MDALGO">     0</i>
   <i type="int" name="ISIF">     3</i>
   <i name="PSTRESS">      0.00000000</i>
   <i name="EDIFFG">     -0.01000000</i>
   <i type="int" name="NFREE">     1</i>
   <i name="POTIM">      0.50000000</i>
   <i name="SMASS">     -3.00000000</i>
   <i name="SCALEE">      1.00000000</i>
  </separator>
  <separator name="ionic md" >
   <i name="TEBEG">      0.00010000</i>
   <i name="TEEND">      0.00010000</i>
   <i type="int" name="NBLOCK">     1</i>
   <i type="int" name="KBLOCK">   100</i>
   <i type="int" name="NPACO">   256</i>
   <i name="APACO">     16.00000000</i>
  </separator>
  <separator name="symmetry" >
   <i type="int" name="ISYM">     2</i>
   <i name="SYMPREC">      0.00001000</i>
  </separator>
  <separator name="dos" >
   <i type="int" name="LORBIT">     0</i>
   <v name="RWIGS">     -1.00000000     -1.00000000     -1.00000000     -1.00000000     -1.00000000     -1.00000000     -1.00000000</v>
   <i type="int" name="NEDOS">   301</i>
   <i name="EMIN">     10.00000000</i>
   <i name="EMAX">    -10.00000000</i>
   <i name="EFERMI">      0.00000000</i>
  </separator>
  <separator name="writing" >
   <i type="int" name="NWRITE">     2</i>
   <i type="logical" name="LWAVE"> F  </i>
   <i type="logical" name="LDOWNSAMPLE"> F  </i>
   <i type="logical" name="LCHARG"> F  </i>
   <i type="logical" name="LPARD"> F  </i>
   <i type="logical" name="LVTOT"> F  </i>
   <i type="logical" name="LVHAR"> F  </i>
   <i type="logical" name="LELF"> F  </i>
   <i type="logical" name="LOPTICS"> F  </i>
   <v name="STM">      0.00000000      0.00000000      0.00000000      0.00000000      0.00000000      0.00000000      0.00000000</v>
  </separator>
  <separator name="performance" >
   <i type="int" name="NPAR">    24</i>
   <i type="int" name="NSIM">     4</i>
   <i type="int" name="NBLK">    -1</i>
   <i type="logical" name="LPLANE"> T  </i>
   <i type="logical" name="LSCALAPACK"> T  </i>
   <i type="logical" name="LSCAAWARE"> F  </i>
   <i type="logical" name="LSCALU"> F  </i>
   <i type="logical" name="LASYNC"> F  </i>
   <i type="logical" name="LORBITALREAL"> F  </i>
  </separator>
  <separator name="miscellaneous" >
   <i type="int" name="IDIOT">     3</i>
   <i type="int" name="ISPECIAL">     0</i>
   <i type="logical" name="LMUSIC"> F  </i>
   <v name="POMASS">     50.94100000     92.91000000     47.88000000     14.00100000     12.01100000     51.99600000    180.94800000</v>
   <v name="DARWINR">      0.00000000      0.00000000      0.00000000      0.00000000      0.00000000      0.00000000      0.00000000</v>
   <v name="DARWINV">      1.00000000      1.00000000      1.00000000      1.00000000      1.00000000      1.00000000      1.00000000</v>
   <i type="logical" name="LCORR"> T  </i>
  </separator>
  <i type="logical" name="GGA_COMPAT"> T  </i>
  <i type="logical" name="LBERRY"> F  </i>
  <i type="int" name="ICORELEVEL">     0</i>
  <i type="logical" name="LDAU"> F  </i>
  <i type="int" name="I_CONSTRAINED_M">     0</i>
  <separator name="electronic exchange-correlation" >
   <i type="string" name="GGA">--</i>
   <i type="int" name="VOSKOWN">     0</i>
   <i type="logical" name="LHFCALC"> F  </i>
   <i type="string" name="PRECFOCK"></i>
   <i type="logical" name="LSYMGRAD"> F  </i>
   <i type="logical" name="LHFONE"> F  </i>
   <i type="logical" name="LRHFCALC"> F  </i>
   <i type="logical" name="LTHOMAS"> F  </i>
   <i type="logical" name="LMODELHF"> F  </i>
   <i name="ENCUT4O">     -1.00000000</i>
   <i type="int" name="EXXOEP">     0</i>
   <i type="int" name="FOURORBIT">     0</i>
   <i name="AEXX">      0.00000000</i>
   <i name="HFALPHA">      0.00000000</i>
   <i name="MCALPHA">      0.00000000</i>
   <i name="ALDAX">      1.00000000</i>
   <i name="AGGAX">      1.00000000</i>
   <i name="ALDAC">      1.00000000</i>
   <i name="AGGAC">      1.00000000</i>
   <i type="int" name="NKREDX">     1</i>
   <i type="int" name="NKREDY">     1</i>
   <i type="int" name="NKREDZ">     1</i>
   <i type="logical" name="SHIFTRED"> F  </i>
   <i type="logical" name="ODDONLY"> F  </i>
   <i type="logical" name="EVENONLY"> F  </i>
   <i type="int" name="LMAXFOCK">     0</i>
   <i type="int" name="NMAXFOCKAE">     0</i>
   <i type="logical" name="LFOCKAEDFT"> F  </i>
   <i name="HFSCREEN">      0.00000000</i>
   <i name="HFSCREENC">      0.00000000</i>
   <i type="int" name="NBANDSGWLOW">     0</i>
  </separator>
  <separator name="vdW DFT" >
   <i type="logical" name="LUSE_VDW"> F  </i>
   <i name="Zab_VDW">     -0.84910000</i>
   <i name="PARAM1">      0.12340000</i>
   <i name="PARAM2">      1.00000000</i>
   <i name="PARAM3">      0.00000000</i>
  </separator>
  <separator name="model GW" >
   <i type="int" name="MODEL_GW">     0</i>
   <i name="MODEL_EPS0">      6.77734242</i>
   <i name="MODEL_ALPHA">      1.00000000</i>
  </separator>
  <separator name="linear response parameters" >
   <i type="logical" name="LEPSILON"> F  </i>
   <i type="logical" name="LRPA"> F  </i>
   <i type="logical" name="LNABLA"> F  </i>
   <i type="logical" name="LVEL"> F  </i>
   <i type="int" name="KINTER">     0</i>
   <i name="CSHIFT">      0.10000000</i>
   <i name="OMEGAMAX">     -1.00000000</i>
   <i name="DEG_THRESHOLD">      0.00200000</i>
   <i name="RTIME">     -0.10000000</i>
   <i name="WPLASMAI">      0.00000000</i>
   <v name="DFIELD">      0.00000000      0.00000000      0.00000000</v>
   <v name="WPLASMA">      0.00000000      0.00000000      0.00000000      0.00000000      0.00000000      0.00000000      0.00000000      0.00000000      0.00000000</v>
  </separator>
  <separator name="orbital magnetization" >
   <i type="logical" name="NUCIND"> F  </i>
   <v name="MAGPOS">      0.00000000      0.00000000      0.00000000</v>
   <i type="logical" name="LNICSALL"> T  </i>
   <i type="logical" name="ORBITALMAG"> F  </i>
   <i type="logical" name="LMAGBLOCH"> F  </i>
   <i type="logical" name="LCHIMAG"> F  </i>
   <i type="logical" name="LGAUGE"> T  </i>
   <i type="int" name="MAGATOM">     0</i>
   <v name="MAGDIPOL">      0.00000000      0.00000000      0.00000000</v>
   <v name="AVECCONST">      0.00000000      0.00000000      0.00000000</v>
  </separator>
  <separator name="response functions" >
   <i type="logical" name="LADDER"> F  </i>
   <i type="logical" name="LRPAFORCE"> F  </i>
   <i type="logical" name="LFXC"> F  </i>
   <i type="logical" name="LHARTREE"> T  </i>
   <i type="int" name="IBSE">     0</i>
   <v type="int" name="KPOINT">    -1     0     0     0</v>
   <i type="logical" name="LTCTE"> F  </i>
   <i type="logical" name="LTETE"> F  </i>
   <i type="logical" name="LTRIPLET"> F  </i>
   <i type="logical" name="LFXCEPS"> F  </i>
   <i type="logical" name="LFXHEG"> F  </i>
   <i type="int" name="NATURALO">     2</i>
   <i type="logical" name="L2ORDER"> F  </i>
   <i type="logical" name="LMP2LT"> F  </i>
   <i type="logical" name="LUSEW"> F  </i>
   <i name="ENCUTGW">     -2.00000000</i>
   <i name="ENCUTGWSOFT">     -2.00000000</i>
   <i name="ENCUTLF">     -1.00000000</i>
   <i type="int" name="LMAXMP2">    -1</i>
   <i name="SCISSOR">      0.00000000</i>
   <i type="int" name="NOMEGA">     0</i>
   <i type="int" name="NOMEGAR">     0</i>
   <i type="int" name="NBANDSGW">    -1</i>
   <i type="int" name="NBANDSO">    -1</i>
   <i type="int" name="NBANDSV">    -1</i>
   <i type="int" name="NELM">    60</i>
   <i type="int" name="NELMHF">     1</i>
   <i type="int" name="DIM">     3</i>
   <i type="int" name="ANTIRES">     0</i>
   <i name="OMEGAMAX">    -30.00000000</i>
   <i name="OMEGAMIN">    -30.00000000</i>
   <i name="OMEGATL">   -200.00000000</i>
   <i type="int" name="OMEGAGRID">   140</i>
   <i name="CSHIFT">     -0.10000000</i>
   <i type="logical" name="SELFENERGY"> F  </i>
   <i type="logical" name="LSPECTRAL"> F  </i>
   <i type="logical" name="LSPECTRALGW"> F  </i>
   <i type="logical" name="LSINGLES"> F  </i>
   <i type="logical" name="LFERMIGW"> F  </i>
   <i type="logical" name="ODDONLYGW"> F  </i>
   <i type="logical" name="EVENONLYGW"> F  </i>
   <i type="int" name="NKREDLFX">     1</i>
   <i type="int" name="NKREDLFY">     1</i>
   <i type="int" name="NKREDLFZ">     1</i>
   <i type="int" name="MAXMEM">  2800</i>
   <i type="int" name="TELESCOPE">     0</i>
   <i type="int" name="TAUPAR">     1</i>
   <i type="int" name="OMEGAPAR">    -1</i>
   <i name="LAMBDA">      1.00000000</i>
  </separator>
  <separator name="External order field" >
   <i name="OFIELD_KAPPA">      0.00000000</i>
   <v name="OFIELD_K">      0.00000000      0.00000000      0.00000000</v>
   <i name="OFIELD_Q6_NEAR">      0.00000000</i>
   <i name="OFIELD_Q6_FAR">      0.00000000</i>
   <i name="OFIELD_A">      0.00000000</i>
  </separator>
 </parameters>
 <atominfo>
  <atoms>      64 </atoms>
  <types>       7 </types>
  <array name="atoms" >
   <dimension dim="1">ion</dimension>
   <field type="string">element</field>
   <field type="int">atomtype</field>
   <set>
    <rc><c>V </c><c>   1</c></rc>
    <rc><c>V </c><c>   1</c></rc>
    <rc><c>V </c><c>   1</c></rc>
    <rc><c>V </c><c>   1</c></rc>
    <rc><c>V </c><c>   1</c></rc>
    <rc><c>V </c><c>   1</c></rc>
    <rc><c>V </c><c>   1</c></rc>
    <rc><c>Nb</c><c>   2</c></rc>
    <rc><c>Nb</c><c>   2</c></rc>
    <rc><c>Nb</c><c>   2</c></rc>
    <rc><c>Nb</c><c>   2</c></rc>
    <rc><c>Nb</c><c>   2</c></rc>
    <rc><c>Nb</c><c>   2</c></rc>
    <rc><c>Ti</c><c>   3</c></rc>
    <rc><c>Ti</c><c>   3</c></rc>
    <rc><c>Ti</c><c>   3</c></rc>
    <rc><c>Ti</c><c>   3</c></rc>
    <rc><c>Ti</c><c>   3</c></rc>
    <rc><c>Ti</c><c>   3</c></rc>
    <rc><c>Ti</c><c>   3</c></rc>
    <rc><c>N </c><c>   4</c></rc>
    <rc><c>N </c><c>   4</c></rc>
    <rc><c>N </c><c>   4</c></rc>
    <rc><c>N </c><c>   4</c></rc>
    <rc><c>N </c><c>   4</c></rc>
    <rc><c>N </c><c>   4</c></rc>
    <rc><c>N </c><c>   4</c></rc>
    <rc><c>N </c><c>   4</c></rc>
    <rc><c>N </c><c>   4</c></rc>
    <rc><c>N </c><c>   4</c></rc>
    <rc><c>N </c><c>   4</c></rc>
    <rc><c>N </c><c>   4</c></rc>
    <rc><c>N </c><c>   4</c></rc>
    <rc><c>C </c><c>   5</c></rc>
    <rc><c>C </c><c>   5</c></rc>
    <rc><c>C </c><c>   5</c></rc>
    <rc><c>C </c><c>   5</c></rc>
    <rc><c>C </c><c>   5</c></rc>
    <rc><c>C </c><c>   5</c></rc>
    <rc><c>C </c><c>   5</c></rc>
    <rc><c>C </c><c>   5</c></rc>
    <rc><c>C </c><c>   5</c></rc>
    <rc><c>C </c><c>   5</c></rc>
    <rc><c>C </c><c>   5</c></rc>
    <rc><c>C </c><c>   5</c></rc>
    <rc><c>C </c><c>   5</c></rc>
    <rc><c>C </c><c>   5</c></rc>
    <rc><c>C </c><c>   5</c></rc>
    <rc><c>C </c><c>   5</c></rc>
    <rc><c>C </c><c>   5</c></rc>
    <rc><c>C </c><c>   5</c></rc>
    <rc><c>C </c><c>   5</c></rc>
    <rc><c>Cr</c><c>   6</c></rc>
    <rc><c>Cr</c><c>   6</c></rc>
    <rc><c>Cr</c><c>   6</c></rc>
    <rc><c>Cr</c><c>   6</c></rc>
    <rc><c>Cr</c><c>   6</c></rc>
    <rc><c>Cr</c><c>   6</c></rc>
    <rc><c>Ta</c><c>   7</c></rc>
    <rc><c>Ta</c><c>   7</c></rc>
    <rc><c>Ta</c><c>   7</c></rc>
    <rc><c>Ta</c><c>   7</c></rc>
    <rc><c>Ta</c><c>   7</c></rc>
    <rc><c>Ta</c><c>   7</c></rc>
   </set>
  </array>
  <array name="atomtypes" >
   <dimension dim="1">type</dimension>
   <field type="int">atomspertype</field>
   <field type="string">element</field>
   <field>mass</field>
   <field>valence</field>
   <field type="string">pseudopotential</field>
   <set>
    <rc><c>   7</c><c>V </c><c>     50.94100000</c><c>     13.00000000</c><c> PAW_PBE V_sv 07Sep2000                 </c></rc>
    <rc><c>   6</c><c>Nb</c><c>     92.91000000</c><c>     13.00000000</c><c> PAW_PBE Nb_sv 17Jan2003                </c></rc>
    <rc><c>   7</c><c>Ti</c><c>     47.88000000</c><c>     12.00000000</c><c> PAW_PBE Ti_sv 07Sep2000                </c></rc>
    <rc><c>  13</c><c>N </c><c>     14.00100000</c><c>      5.00000000</c><c> PAW_PBE N 08Apr2002                    </c></rc>
    <rc><c>  19</c><c>C </c><c>     12.01100000</c><c>      4.00000000</c><c> PAW_PBE C 08Apr2002                    </c></rc>
    <rc><c>   6</c><c>Cr</c><c>     51.99600000</c><c>     12.00000000</c><c> PAW_PBE Cr_pv 07Sep2000                </c></rc>
    <rc><c>   6</c><c>Ta</c><c>    180.94800000</c><c>     11.00000000</c><c> PAW_PBE Ta_pv 07Sep2000                </c></rc>
   </set>
  </array>
 </atominfo>
 <structure name="initialpos" >
  <crystal>
   <varray name="basis" >
    <v>       8.93249989       0.00000000       0.00000000 </v>
    <v>       0.00575300       9.05559834       0.00000000 </v>
    <v>       0.03210180      -0.01574346       8.93712807 </v>
   </varray>
   <i name="volume">    722.91652451 </i>
   <varray name="rec_basis" >
    <v>       0.11195074      -0.00007112      -0.00040225 </v>
    <v>       0.00000000       0.11042893       0.00019453 </v>
    <v>       0.00000000       0.00000000       0.11189277 </v>
   </varray>
  </crystal>
  <varray name="positions" >
   <v>       0.99688001       0.99204997       0.99924002 </v>
   <v>       0.25398003       0.99714995       0.24912000 </v>
   <v>       0.24803003       0.50165000       0.24955001 </v>
   <v>       0.50501006       0.49745998       0.99834003 </v>
   <v>       0.50479003       0.24631001       0.74710002 </v>
   <v>       0.99427992       0.50449999       0.49779000 </v>
   <v>       0.49950005       0.75481999       0.74817004 </v>
   <v>       0.99437004       0.23617001       0.26379999 </v>
   <v>       0.75718000       0.74102998       0.01100000 </v>
   <v>       0.00201000       0.25541000       0.73894001 </v>
   <v>       0.75307001       0.26163001       0.50533002 </v>
   <v>       0.99514004       0.74492004       0.74511997 </v>
   <v>       0.25679999       0.49462002       0.74545002 </v>
   <v>       0.24788999       0.24839000       0.99657997 </v>
   <v>       0.50833000       0.25676999       0.25376001 </v>
   <v>       0.74879004       0.98787999       0.26967001 </v>
   <v>       0.75719000       0.25603001       0.99591997 </v>
   <v>       0.24762001       0.74973999       0.99974006 </v>
   <v>       0.25272001       0.24823001       0.50015003 </v>
   <v>       0.24457999       0.75048999       0.49983999 </v>
   <v>       0.24982001       0.24942998       0.24825000 </v>
   <v>       0.26146999       0.99984002       0.99295996 </v>
   <v>       0.00281000       0.25024000       0.00130000 </v>
   <v>       0.75313998       0.24617000       0.25492002 </v>
   <v>       0.74767001       0.99748000       0.01202000 </v>
   <v>       0.50714994       0.99977000       0.24673000 </v>
   <v>       0.99051999       0.48088002       0.24100998 </v>
   <v>       0.50519005       0.76130999       0.00855000 </v>
   <v>       0.98896989       0.00202000       0.73708999 </v>
   <v>       0.75744996       0.24437997       0.74896999 </v>
   <v>       0.73632001       0.00417000       0.51063000 </v>
   <v>       0.50563996       0.23264999       0.49544997 </v>
   <v>       0.50008998       0.00061000       0.73471998 </v>
   <v>       0.99720000       0.99771992       0.25899999 </v>
   <v>       0.50427997       0.24673000       0.00262000 </v>
   <v>       0.25133999       0.74958002       0.24910999 </v>
   <v>       0.24328000       0.50072997       0.99510994 </v>
   <v>       0.99837005       0.74313996       0.00460000 </v>
   <v>       0.75633000       0.73891003       0.25767000 </v>
   <v>       0.75839004       0.50315998       0.00288000 </v>
   <v>       0.50700002       0.50333002       0.25878999 </v>
   <v>       0.24900999       0.25315000       0.74854000 </v>
   <v>       0.24446000       0.99823996       0.50287998 </v>
   <v>       0.99804009       0.24229999       0.50128003 </v>
   <v>       0.24177002       0.75340997       0.75018002 </v>
   <v>       0.25841001       0.50062002       0.50129001 </v>
   <v>       0.99000004       0.76215003       0.49746000 </v>
   <v>       0.99203996       0.50055999       0.75138002 </v>
   <v>       0.75036005       0.74888000       0.74756004 </v>
   <v>       0.74036002       0.50197000       0.50067003 </v>
   <v>       0.50575006       0.74958002       0.49720000 </v>
   <v>       0.50501003       0.50217998       0.73912003 </v>
   <v>       0.51588997       0.01358000       0.98075008 </v>
   <v>       0.99841994       0.50976998       0.98613004 </v>
   <v>       0.50379003       0.73926997       0.25905001 </v>
   <v>       0.23780002       0.01082000       0.74607998 </v>
   <v>       0.47957999       0.98308000       0.49717999 </v>
   <v>       0.74279003       0.97869994       0.76450995 </v>
   <v>       0.99864998       0.77573999       0.26102000 </v>
   <v>       0.73551001       0.51468004       0.26666001 </v>
   <v>       0.02362000       0.99783001       0.49557002 </v>
   <v>       0.50539000       0.52833005       0.49917999 </v>
   <v>       0.73876003       0.52828003       0.73814999 </v>
   <v>       0.75400003       0.72937999       0.49116997 </v>
  </varray>
 </structure>
 <calculation>
  <scstep>
   <time name="dav">   24.07   24.20</time>
   <time name="total">   24.11   24.26</time>
   <energy>
    <i name="alphaZ">   3895.89120562 </i>
    <i name="ewald"> -45708.31415416 </i>
    <i name="hartreedc"> -11261.16433631 </i>
    <i name="XCdc">   2263.71753241 </i>
    <i name="pawpsdc">  36593.38780799 </i>
    <i name="pawaedc"> -36677.66863080 </i>
    <i name="eentropy">     -0.10379612 </i>
    <i name="bandstr">   2048.92466221 </i>
    <i name="atom">  56496.60443680 </i>
    <i name="e_fr_energy">   7651.27472766 </i>
    <i name="e_wo_entrp">   7651.37852378 </i>
    <i name="e_0_energy">   7651.32662572 </i>
   </energy>
  </scstep>
  <scstep>
   <time name="dav">   24.35   24.38</time>
   <time name="total">   24.35   24.38</time>
   <energy>
    <i name="e_fr_energy">    533.76458732 </i>
    <i name="e_wo_entrp">    533.92902044 </i>
    <i name="e_0_energy">    533.84680388 </i>
   </energy>
  </scstep>
  <scstep>
   <time name="dav">   34.11   34.17</time>
   <time name="total">   34.11   34.17</time>
   <energy>
    <i name="e_fr_energy">   -618.05713950 </i>
    <i name="e_wo_entrp">   -617.93043903 </i>
    <i name="e_0_energy">   -617.99378927 </i>
   </energy>
  </scstep>
  <scstep>
   <time name="dav">   37.55   37.64</time>
   <time name="total">   37.55   37.64</time>
   <energy>
    <i name="e_fr_energy">   -773.12876809 </i>
    <i name="e_wo_entrp">   -773.01060679 </i>
    <i name="e_0_energy">   -773.06968744 </i>
   </energy>
  </scstep>
  <scstep>
   <time name="dav">   42.60   42.73</time>
   <time name="total">   42.87   43.01</time>
   <energy>
    <i name="e_fr_energy">   -794.18271884 </i>
    <i name="e_wo_entrp">   -794.06099938 </i>
    <i name="e_0_energy">   -794.12185911 </i>
   </energy>
  </scstep>
  <scstep>
   <time name="diag">    2.03    2.03</time>
   <time name="diis">   21.02   21.09</time>
   <time name="orth">    0.50    0.50</time>
   <time name="total">   23.85   23.92</time>
   <energy>
    <i name="e_fr_energy">   -905.39813387 </i>
    <i name="e_wo_entrp">   -905.18596062 </i>
    <i name="e_0_energy">   -905.29204724 </i>
   </energy>
  </scstep>
  <scstep>
   <time name="diag">    2.03    2.03</time>
   <time name="diis">   23.57   23.59</time>
   <time name="orth">    0.50    0.50</time>
   <time name="total">   26.40   26.43</time>
   <energy>
    <i name="e_fr_energy">   -650.03121810 </i>
    <i name="e_wo_entrp">   -649.85274637 </i>
    <i name="e_0_energy">   -649.94198223 </i>
   </energy>
  </scstep>
  <scstep>
   <time name="diag">    2.04    2.05</time>
   <time name="diis">   23.87   23.94</time>
   <time name="orth">    0.49    0.49</time>
   <time name="total">   26.69   26.79</time>
   <energy>
    <i name="e_fr_energy">   -639.51760139 </i>
    <i name="e_wo_entrp">   -639.35508350 </i>
    <i name="e_0_energy">   -639.43634244 </i>
   </energy>
  </scstep>
  <scstep>
   <time name="diag">    2.02    2.02</time>
   <time name="diis">   23.59   23.70</time>
   <time name="orth">    0.50    0.50</time>
   <time name="total">   26.40   26.52</time>
   <energy>
    <i name="e_fr_energy">   -628.30925927 </i>
    <i name="e_wo_entrp">   -628.11213128 </i>
    <i name="e_0_energy">   -628.21069528 </i>
   </energy>
  </scstep>
  <scstep>
   <time name="diag">    2.03    2.03</time>
   <time name="diis">   24.29   24.34</time>
   <time name="orth">    0.49    0.49</time>
   <time name="total">   27.12   27.18</time>
   <energy>
    <i name="e_fr_energy">   -624.30682175 </i>
    <i name="e_wo_entrp">   -624.11459975 </i>
    <i name="e_0_energy">   -624.21071075 </i>
   </energy>
  </scstep>
  <scstep>
   <time name="diag">    2.03    2.03</time>
   <time name="diis">   24.41   24.45</time>
   <time name="orth">    0.50    0.51</time>
   <time name="total">   27.24   27.30</time>
   <energy>
    <i name="e_fr_energy">   -624.50065554 </i>
    <i name="e_wo_entrp">   -624.29409153 </i>
    <i name="e_0_energy">   -624.39737353 </i>
   </energy>
  </scstep>
  <scstep>
   <time name="diag">    2.03    2.03</time>
   <time name="diis">   24.40   24.43</time>
   <time name="orth">    0.50    0.50</time>
   <time name="total">   27.23   27.26</time>
   <energy>
    <i name="e_fr_energy">   -623.42675313 </i>
    <i name="e_wo_entrp">   -623.20435307 </i>
    <i name="e_0_energy">   -623.31555310 </i>
   </energy>
  </scstep>
  <scstep>
   <time name="diag">    2.07    2.07</time>
   <time name="diis">   24.90   25.00</time>
   <time name="orth">    0.50    0.50</time>
   <time name="total">   27.77   27.88</time>
   <energy>
    <i name="e_fr_energy">   -622.80941289 </i>
    <i name="e_wo_entrp">   -622.58084995 </i>
    <i name="e_0_energy">   -622.69513142 </i>
   </energy>
  </scstep>
  <scstep>
   <time name="diag">    2.04    2.04</time>
   <time name="diis">   23.85   23.90</time>
   <time name="orth">    0.50    0.50</time>
   <time name="total">   26.69   26.75</time>
   <energy>
    <i name="e_fr_energy">   -623.45567182 </i>
    <i name="e_wo_entrp">   -623.23516581 </i>
    <i name="e_0_energy">   -623.34541881 </i>
   </energy>
  </scstep>
  <scstep>
   <time name="diag">    2.04    2.04</time>
   <time name="diis">   23.68   23.74</time>
   <time name="orth">    0.50    0.50</time>
   <time name="total">   26.53   26.59</time>
   <energy>
    <i name="e_fr_energy">   -622.62739731 </i>
    <i name="e_wo_entrp">   -622.39429555 </i>
    <i name="e_0_energy">   -622.51084643 </i>
   </energy>
  </scstep>
  <scstep>
   <time name="diag">    2.02    2.02</time>
   <time name="diis">   22.82   22.86</time>
   <time name="orth">    0.49    0.49</time>
   <time name="total">   25.64   25.70</time>
   <energy>
    <i name="e_fr_energy">   -622.86350018 </i>
    <i name="e_wo_entrp">   -622.64763702 </i>
    <i name="e_0_energy">   -622.75556860 </i>
   </energy>
  </scstep>
  <scstep>
   <time name="diag">    2.04    2.04</time>
   <time name="diis">   23.52   23.58</time>
   <time name="orth">    0.51    0.51</time>
   <time name="total">   26.38   26.44</time>
   <energy>
    <i name="e_fr_energy">   -622.34863797 </i>
    <i name="e_wo_entrp">   -622.13008001 </i>
    <i name="e_0_energy">   -622.23935899 </i>
   </energy>
  </scstep>
  <scstep>
   <time name="diag">    2.07    2.08</time>
   <time name="diis">   23.62   23.67</time>
   <time name="orth">    0.49    0.49</time>
   <time name="total">   26.48   26.55</time>
   <energy>
    <i name="e_fr_energy">   -622.44113961 </i>
    <i name="e_wo_entrp">   -622.20738832 </i>
    <i name="e_0_energy">   -622.32426397 </i>
   </energy>
  </scstep>
  <scstep>
   <time name="diag">    2.02    2.02</time>
   <time name="diis">   23.82   23.85</time>
   <time name="orth">    0.50    0.50</time>
   <time name="total">   26.63   26.67</time>
   <energy>
    <i name="e_fr_energy">   -622.28106725 </i>
    <i name="e_wo_entrp">   -622.06812551 </i>
    <i name="e_0_energy">   -622.17459638 </i>
   </energy>
  </scstep>
  <scstep>
   <time name="diag">    2.02    2.02</time>
   <time name="diis">   24.12   24.22</time>
   <time name="orth">    0.50    0.50</time>
   <time name="total">   26.94   27.04</time>
   <energy>
    <i name="e_fr_energy">   -622.17214871 </i>
    <i name="e_wo_entrp">   -621.95040748 </i>
    <i name="e_0_energy">   -622.06127810 </i>
   </energy>
  </scstep>
  <scstep>
   <time name="diag">    2.03    2.03</time>
   <time name="diis">   23.33   23.36</time>
   <time name="orth">    0.49    0.49</time>
   <time name="total">   26.15   26.19</time>
   <energy>
    <i name="e_fr_energy">   -622.17430719 </i>
    <i name="e_wo_entrp">   -621.95177913 </i>
    <i name="e_0_energy">   -622.06304316 </i>
   </energy>
  </scstep>
  <scstep>
   <time name="diag">    2.04    2.05</time>
   <time name="diis">   24.83   24.87</time>
   <time name="orth">    0.50    0.50</time>
   <time name="total">   27.66   27.73</time>
   <energy>
    <i name="e_fr_energy">   -622.17204589 </i>
    <i name="e_wo_entrp">   -621.95152030 </i>
    <i name="e_0_energy">   -622.06178309 </i>
   </energy>
  </scstep>
  <scstep>
   <time name="diag">    2.03    2.03</time>
   <time name="diis">   23.50   23.60</time>
   <time name="orth">    0.50    0.50</time>
   <time name="total">   26.33   26.43</time>
   <energy>
    <i name="e_fr_energy">   -622.18768162 </i>
    <i name="e_wo_entrp">   -621.96790069 </i>
    <i name="e_0_energy">   -622.07779115 </i>
   </energy>
  </scstep>
  <scstep>
   <time name="diag">    2.03    2.03</time>
   <time name="diis">   24.80   24.86</time>
   <time name="orth">    0.51    0.51</time>
   <time name="total">   27.64   27.72</time>
   <energy>
    <i name="e_fr_energy">   -622.16177133 </i>
    <i name="e_wo_entrp">   -621.94081720 </i>
    <i name="e_0_energy">   -622.05129427 </i>
   </energy>
  </scstep>
  <scstep>
   <time name="diag">    2.06    2.08</time>
   <time name="diis">   24.89   24.95</time>
   <time name="orth">    0.49    0.49</time>
   <time name="total">   27.75   27.84</time>
   <energy>
    <i name="e_fr_energy">   -622.15910553 </i>
    <i name="e_wo_entrp">   -621.93731953 </i>
    <i name="e_0_energy">   -622.04821253 </i>
   </energy>
  </scstep>
  <scstep>
   <time name="diag">    2.03    2.03</time>
   <time name="diis">   23.27   23.30</time>
   <time name="orth">    0.49    0.49</time>
   <time name="total">   26.10   26.13</time>
   <energy>
    <i name="e_fr_energy">   -622.16086819 </i>
    <i name="e_wo_entrp">   -621.93884379 </i>
    <i name="e_0_energy">   -622.04985599 </i>
   </energy>
  </scstep>
  <scstep>
   <time name="diag">    2.05    2.05</time>
   <time name="diis">   24.11   24.18</time>
   <time name="orth">    0.49    0.50</time>
   <time name="total">   26.96   27.03</time>
   <energy>
    <i name="e_fr_energy">   -622.16065806 </i>
    <i name="e_wo_entrp">   -621.93888415 </i>
    <i name="e_0_energy">   -622.04977111 </i>
   </energy>
  </scstep>
  <scstep>
   <time name="diag">    2.03    2.03</time>
   <time name="diis">   22.29   22.37</time>
   <time name="orth">    0.49    0.49</time>
   <time name="total">   25.12   25.20</time>
   <energy>
    <i name="e_fr_energy">   -622.16092167 </i>
    <i name="e_wo_entrp">   -621.93926781 </i>
    <i name="e_0_energy">   -622.05009474 </i>
   </energy>
  </scstep>
  <scstep>
   <time name="diag">    2.03    2.03</time>
   <time name="diis">   21.84   22.34</time>
   <time name="orth">    0.50    0.51</time>
   <time name="total">   24.67   25.18</time>
   <energy>
    <i name="e_fr_energy">   -622.16125903 </i>
    <i name="e_wo_entrp">   -621.93945203 </i>
    <i name="e_0_energy">   -622.05035553 </i>
   </energy>
  </scstep>
  <scstep>
   <time name="diag">    1.98    2.03</time>
   <time name="diis">   20.12   20.86</time>
   <time name="orth">    0.49    0.50</time>
   <time name="total">   22.89   23.70</time>
   <energy>
    <i name="e_fr_energy">   -622.16153305 </i>
    <i name="e_wo_entrp">   -621.93988522 </i>
    <i name="e_0_energy">   -622.05070913 </i>
   </energy>
  </scstep>
  <scstep>
   <time name="diag">    2.03    2.03</time>
   <time name="diis">   20.59   20.72</time>
   <time name="orth">    0.49    0.49</time>
   <time name="total">   23.42   23.55</time>
   <energy>
    <i name="e_fr_energy">   -622.16162255 </i>
    <i name="e_wo_entrp">   -621.93993823 </i>
    <i name="e_0_energy">   -622.05078039 </i>
   </energy>
  </scstep>
  <scstep>
   <time name="diag">    1.98    2.03</time>
   <time name="diis">   19.59   20.32</time>
   <time name="orth">    0.49    0.50</time>
   <time name="total">   22.36   23.16</time>
   <energy>
    <i name="e_fr_energy">   -622.16172514 </i>
    <i name="e_wo_entrp">   -621.94004475 </i>
    <i name="e_0_energy">   -622.05088494 </i>
   </energy>
  </scstep>
  <scstep>
   <time name="diag">    2.01    2.03</time>
   <time name="diis">   19.99   20.03</time>
   <time name="orth">    0.49    0.49</time>
   <time name="total">   22.80   22.87</time>
   <energy>
    <i name="e_fr_energy">   -622.16180197 </i>
    <i name="e_wo_entrp">   -621.94007747 </i>
    <i name="e_0_energy">   -622.05093972 </i>
   </energy>
  </scstep>
  <scstep>
   <time name="diag">    2.02    2.02</time>
   <time name="diis">   19.09   19.27</time>
   <time name="orth">    0.49    0.50</time>
   <time name="total">   21.89   22.09</time>
   <energy>
    <i name="e_fr_energy">   -622.16185058 </i>
    <i name="e_wo_entrp">   -621.94013145 </i>
    <i name="e_0_energy">   -622.05099101 </i>
   </energy>
  </scstep>
  <scstep>
   <time name="diag">    2.02    2.02</time>
   <time name="diis">   17.74   18.36</time>
   <time name="orth">    0.49    0.50</time>
   <time name="total">   20.54   21.18</time>
   <energy>
    <i name="e_fr_energy">   -622.16187511 </i>
    <i name="e_wo_entrp">   -621.94016163 </i>
    <i name="e_0_energy">   -622.05101837 </i>
   </energy>
  </scstep>
  <scstep>
   <time name="diag">    2.03    2.03</time>
   <time name="diis">   18.37   18.42</time>
   <time name="orth">    0.49    0.49</time>
   <time name="total">   21.19   21.25</time>
   <energy>
    <i name="e_fr_energy">   -622.16190019 </i>
    <i name="e_wo_entrp">   -621.94018723 </i>
    <i name="e_0_energy">   -622.05104371 </i>
   </energy>
  </scstep>
  <scstep>
   <time name="diag">    2.02    2.02</time>
   <time name="diis">   17.25   17.31</time>
   <time name="orth">    0.49    0.49</time>
   <time name="total">   20.07   20.13</time>
   <energy>
    <i name="e_fr_energy">   -622.16191466 </i>
    <i name="e_wo_entrp">   -621.94020159 </i>
    <i name="e_0_energy">   -622.05105812 </i>
   </energy>
  </scstep>
  <scstep>
   <time name="diag">    2.00    2.06</time>
   <time name="diis">   15.74   16.29</time>
   <time name="orth">    0.49    0.49</time>
   <time name="total">   18.52   19.14</time>
   <energy>
    <i name="e_fr_energy">   -622.16192554 </i>
    <i name="e_wo_entrp">   -621.94021574 </i>
    <i name="e_0_energy">   -622.05107064 </i>
   </energy>
  </scstep>
  <scstep>
   <time name="diag">    2.03    2.03</time>
   <time name="diis">   15.41   15.45</time>
   <time name="orth">    0.50    0.50</time>
   <time name="total">   17.96   18.01</time>
   <energy>
    <i name="alphaZ">   3895.89120562 </i>
    <i name="ewald"> -45708.31415416 </i>
    <i name="hartreedc"> -10434.31796125 </i>
    <i name="XCdc">   2238.65159325 </i>
    <i name="pawpsdc">  36606.20644459 </i>
    <i name="pawaedc"> -36731.59309394 </i>
    <i name="eentropy">     -0.22170826 </i>
    <i name="bandstr">  -6985.06869500 </i>
    <i name="atom">  56496.60443680 </i>
    <i name="e_fr_energy">   -622.16193235 </i>
    <i name="e_wo_entrp">   -621.94022409 </i>
    <i name="e_0_energy">   -622.05107822 </i>
   </energy>
  </scstep>
  <structure>
   <crystal>
    <varray name="basis" >
     <v>       8.93249989       0.00000000       0.00000000 </v>
     <v>       0.00575300       9.05559834       0.00000000 </v>
     <v>       0.03210180      -0.01574346       8.93712807 </v>
    </varray>
    <i name="volume">    722.91652451 </i>
    <varray name="rec_basis" >
     <v>       0.11195074      -0.00007112      -0.00040225 </v>
     <v>       0.00000000       0.11042893       0.00019453 </v>
     <v>       0.00000000       0.00000000       0.11189277 </v>
    </varray>
   </crystal>
   <varray name="positions" >
    <v>       0.99688001       0.99204997       0.99924002 </v>
    <v>       0.25398003       0.99714995       0.24912000 </v>
    <v>       0.24803003       0.50165000       0.24955001 </v>
    <v>       0.50501006       0.49745998       0.99834003 </v>
    <v>       0.50479003       0.24631001       0.74710002 </v>
    <v>       0.99427992       0.50449999       0.49779000 </v>
    <v>       0.49950005       0.75481999       0.74817004 </v>
    <v>       0.99437004       0.23617001       0.26379999 </v>
    <v>       0.75718000       0.74102998       0.01100000 </v>
    <v>       0.00201000       0.25541000       0.73894001 </v>
    <v>       0.75307001       0.26163001       0.50533002 </v>
    <v>       0.99514004       0.74492004       0.74511997 </v>
    <v>       0.25679999       0.49462002       0.74545002 </v>
    <v>       0.24788999       0.24839000       0.99657997 </v>
    <v>       0.50833000       0.25676999       0.25376001 </v>
    <v>       0.74879004       0.98787999       0.26967001 </v>
    <v>       0.75719000       0.25603001       0.99591997 </v>
    <v>       0.24762001       0.74973999       0.99974006 </v>
    <v>       0.25272001       0.24823001       0.50015003 </v>
    <v>       0.24457999       0.75048999       0.49983999 </v>
    <v>       0.24982001       0.24942998       0.24825000 </v>
    <v>       0.26146999       0.99984002       0.99295996 </v>
    <v>       0.00281000       0.25024000       0.00130000 </v>
    <v>       0.75313998       0.24617000       0.25492002 </v>
    <v>       0.74767001       0.99748000       0.01202000 </v>
    <v>       0.50714994       0.99977000       0.24673000 </v>
    <v>       0.99051999       0.48088002       0.24100998 </v>
    <v>       0.50519005       0.76130999       0.00855000 </v>
    <v>       0.98896989       0.00202000       0.73708999 </v>
    <v>       0.75744996       0.24437997       0.74896999 </v>
    <v>       0.73632001       0.00417000       0.51063000 </v>
    <v>       0.50563996       0.23264999       0.49544997 </v>
    <v>       0.50008998       0.00061000       0.73471998 </v>
    <v>       0.99720000       0.99771992       0.25899999 </v>
    <v>       0.50427997       0.24673000       0.00262000 </v>
    <v>       0.25133999       0.74958002       0.24910999 </v>
    <v>       0.24328000       0.50072997       0.99510994 </v>
    <v>       0.99837005       0.74313996       0.00460000 </v>
    <v>       0.75633000       0.73891003       0.25767000 </v>
    <v>       0.75839004       0.50315998       0.00288000 </v>
    <v>       0.50700002       0.50333002       0.25878999 </v>
    <v>       0.24900999       0.25315000       0.74854000 </v>
    <v>       0.24446000       0.99823996       0.50287998 </v>
    <v>       0.99804009       0.24229999       0.50128003 </v>
    <v>       0.24177002       0.75340997       0.75018002 </v>
    <v>       0.25841001       0.50062002       0.50129001 </v>
    <v>       0.99000004       0.76215003       0.49746000 </v>
    <v>       0.99203996       0.50055999       0.75138002 </v>
    <v>       0.75036005       0.74888000       0.74756004 </v>
    <v>       0.74036002       0.50197000       0.50067003 </v>
    <v>       0.50575006       0.74958002       0.49720000 </v>
    <v>       0.50501003       0.50217998       0.73912003 </v>
    <v>       0.51588997       0.01358000       0.98075008 </v>
    <v>       0.99841994       0.50976998       0.98613004 </v>
    <v>       0.50379003       0.73926997       0.25905001 </v>
    <v>       0.23780002       0.01082000       0.74607998 </v>
    <v>       0.47957999       0.98308000       0.49717999 </v>
    <v>       0.74279003       0.97869994       0.76450995 </v>
    <v>       0.99864998       0.77573999       0.26102000 </v>
    <v>       0.73551001       0.51468004       0.26666001 </v>
    <v>       0.02362000       0.99783001       0.49557002 </v>
    <v>       0.50539000       0.52833005       0.49917999 </v>
    <v>       0.73876003       0.52828003       0.73814999 </v>
    <v>       0.75400003       0.72937999       0.49116997 </v>
   </varray>
  </structure>
  <varray name="forces" >
   <v>      -0.03603327      -0.21242075       0.26964577 </v>
   <v>       0.28295505      -0.38210668       0.02630385 </v>
   <v>       0.75227146       0.53739261      -0.18157698 </v>
   <v>      -0.35352995      -0.90120811       0.05325495 </v>
   <v>      -0.77792855      -0.55837845       0.88096466 </v>
   <v>       0.02746941      -0.76805278       0.65906684 </v>
   <v>      -0.28875767       0.92283040      -0.16327634 </v>
   <v>       0.74082902       0.53755423      -1.13452786 </v>
   <v>      -0.90701478       1.02972248      -0.37351848 </v>
   <v>       0.24613240      -0.29164165       0.60610100 </v>
   <v>      -0.71514943      -0.83456497       0.16491791 </v>
   <v>       1.22802688       0.70533738       0.68971966 </v>
   <v>      -0.15751950       0.27317175       0.58308803 </v>
   <v>       0.24014969      -0.27131274       0.14759708 </v>
   <v>      -0.56638920      -0.53410707      -0.43163527 </v>
   <v>      -1.32517975       0.66054955      -0.44092592 </v>
   <v>      -0.48807036      -0.20562573      -0.34394792 </v>
   <v>       0.41900243       0.27071349       0.02702532 </v>
   <v>       0.51662403      -0.04834611      -0.12864907 </v>
   <v>       0.86172684       0.06733112      -0.01997483 </v>
   <v>       0.29597684       0.08696587       0.06176025 </v>
   <v>      -0.49767487       0.16546021       0.25656501 </v>
   <v>      -0.07490945      -0.50681547      -0.05769636 </v>
   <v>      -0.60206934       0.00835326      -0.30959828 </v>
   <v>       0.13302294       0.22005706      -0.91414587 </v>
   <v>      -0.45651695      -0.07659337       0.55524932 </v>
   <v>       0.75280429       0.54039957       0.77617533 </v>
   <v>      -0.43869128      -0.46431048      -0.53061958 </v>
   <v>       0.15023942      -0.05102282       1.08680230 </v>
   <v>      -0.93736325       0.22640660       0.65399616 </v>
   <v>       0.25528583      -0.38614903      -0.81293293 </v>
   <v>      -0.65093804       0.24027328       0.19418347 </v>
   <v>       0.54063719      -0.03422938       0.65438770 </v>
   <v>       0.17369684       0.97410913      -1.66178022 </v>
   <v>       0.08733317       0.21050239      -0.61145531 </v>
   <v>       0.20986964      -0.16092749      -0.00354765 </v>
   <v>       0.56954475      -0.02011418       0.96430917 </v>
   <v>       0.73265130       0.47094888      -0.14876704 </v>
   <v>      -0.70885998       2.13731238      -1.22042777 </v>
   <v>      -0.77580215      -0.63730294      -0.18017649 </v>
   <v>      -2.19681406      -0.24292833      -1.68860552 </v>
   <v>       0.85545267      -0.75581049       0.03231023 </v>
   <v>       2.89147163      -0.09416124      -0.20070453 </v>
   <v>       0.78743424       1.11531467      -0.11255796 </v>
   <v>       0.93674024       0.10546236       0.03096689 </v>
   <v>      -1.22493308       0.04771150      -1.05493808 </v>
   <v>       1.72564432      -1.62297629       0.56096550 </v>
   <v>       0.59211289       0.01543130      -0.30682311 </v>
   <v>      -1.13779436       2.36283194       0.72658839 </v>
   <v>       1.89669254      -1.17615295       0.42865434 </v>
   <v>      -1.41071027       2.24119326       0.35072992 </v>
   <v>      -0.86650571      -0.12458685       1.70962931 </v>
   <v>       0.33281708       0.82764249      -0.67015740 </v>
   <v>       0.45494454       0.74671628      -0.57178083 </v>
   <v>      -0.42090079       0.31864817      -0.46015387 </v>
   <v>       0.27057440       0.31871645       0.53008688 </v>
   <v>      -0.41856857      -0.25869729       0.06587935 </v>
   <v>      -0.86927325      -0.79556769       0.49455739 </v>
   <v>       1.52803154      -2.45597176      -2.19283199 </v>
   <v>       2.33043009      -2.98093734      -2.94078972 </v>
   <v>      -2.08496740       0.94974259       1.75652923 </v>
   <v>      -3.10068968      -2.40744861       0.14148010 </v>
   <v>       0.98754687      -3.42722700       2.12727686 </v>
   <v>      -0.31658749       4.35289340       1.60175502 </v>
  </varray>
  <varray name="stress" >
   <v>    -241.09474193       6.40498953      -1.79996484 </v>
   <v>       6.40498947    -243.64263739       2.03317579 </v>
   <v>      -1.79996339       2.03317539    -236.17496258 </v>
  </varray>
  <energy>
   <i name="e_fr_energy">   -622.16193235 </i>
   <i name="e_wo_entrp">   -622.05107822 </i>
   <i name="e_0_energy">     -0.22170826 </i>
  </energy>
  <time name="totalsc"> 1058.32 1064.44</time>
 </calculation>
 <calculation>
  <scstep>
   <time name="dav">   30.93   31.51</time>
   <time name="total">   31.22   31.81</time>
   <energy>
    <i name="alphaZ">   5031.54831157 </i>
    <i name="ewald"> -49766.92231367 </i>
    <i name="hartreedc"> -11371.54702788 </i>
    <i name="XCdc">   2437.73381806 </i>
    <i name="pawpsdc">  36606.21801229 </i>
    <i name="pawaedc"> -36731.61350449 </i>
    <i name="eentropy">     -0.05848741 </i>
    <i name="bandstr">  -3590.40949291 </i>
    <i name="atom">  56496.60443680 </i>
    <i name="e_fr_energy">   -888.44624765 </i>
    <i name="e_wo_entrp">   -888.38776023 </i>
    <i name="e_0_energy">   -888.41700394 </i>
   </energy>
  </scstep>
  <scstep>
   <time name="diag">    2.03    2.03</time>
   <time name="diis">   18.31   18.35</time>
   <time name="orth">    0.49    0.49</time>
   <time name="total">   21.12   21.17</time>
   <energy>
    <i name="e_fr_energy">   -820.37736664 </i>
    <i name="e_wo_entrp">   -820.27005233 </i>
    <i name="e_0_energy">   -820.32370949 </i>
   </energy>
  </scstep>
  <scstep>
   <time name="diag">    2.03    2.03</time>
   <time name="diis">   23.09   23.13</time>
   <time name="orth">    0.49    0.49</time>
   <time name="total">   25.91   25.96</time>
   <energy>
    <i name="e_fr_energy">   -709.08436815 </i>
    <i name="e_wo_entrp">   -708.96429648 </i>
    <i name="e_0_energy">   -709.02433232 </i>
   </energy>
  </scstep>
  <scstep>
   <time name="diag">    2.02    2.02</time>
   <time name="diis">   20.74   20.79</time>
   <time name="orth">    0.49    0.49</time>
   <time name="total">   23.55   23.60</time>
   <energy>
    <i name="e_fr_energy">   -657.49528332 </i>
    <i name="e_wo_entrp">   -657.38569606 </i>
    <i name="e_0_energy">   -657.44048969 </i>
   </energy>
  </scstep>
  <scstep>
   <time name="diag">    2.00    2.02</time>
   <time name="diis">   19.37   19.40</time>
   <time name="orth">    0.49    0.49</time>
   <time name="total">   22.15   22.22</time>
   <energy>
    <i name="e_fr_energy">   -638.56320078 </i>
    <i name="e_wo_entrp">   -638.42985477 </i>
    <i name="e_0_energy">   -638.49652778 </i>
   </energy>
  </scstep>
  <scstep>
   <time name="diag">    2.06    2.08</time>
   <time name="diis">   20.08   20.21</time>
   <time name="orth">    0.49    0.49</time>
   <time name="total">   22.93   23.08</time>
   <energy>
    <i name="e_fr_energy">   -624.27056410 </i>
    <i name="e_wo_entrp">   -624.13329353 </i>
    <i name="e_0_energy">   -624.20192882 </i>
   </energy>
  </scstep>
  <scstep>
   <time name="diag">    1.98    2.03</time>
   <time name="diis">   23.98   24.87</time>
   <time name="orth">    0.49    0.50</time>
   <time name="total">   26.74   27.69</time>
   <energy>
    <i name="e_fr_energy">   -622.58316105 </i>
    <i name="e_wo_entrp">   -622.43919471 </i>
    <i name="e_0_energy">   -622.51117788 </i>
   </energy>
  </scstep>
  <scstep>
   <time name="diag">    2.04    2.05</time>
   <time name="diis">   24.48   24.58</time>
   <time name="orth">    0.49    0.49</time>
   <time name="total">   27.31   27.41</time>
   <energy>
    <i name="e_fr_energy">   -621.43611934 </i>
    <i name="e_wo_entrp">   -621.28619540 </i>
    <i name="e_0_energy">   -621.36115737 </i>
   </energy>
  </scstep>
  <scstep>
   <time name="diag">    2.05    2.05</time>
   <time name="diis">   23.27   23.31</time>
   <time name="orth">    0.49    0.49</time>
   <time name="total">   26.10   26.15</time>
   <energy>
    <i name="e_fr_energy">   -621.62303598 </i>
    <i name="e_wo_entrp">   -621.47719782 </i>
    <i name="e_0_energy">   -621.55011690 </i>
   </energy>
  </scstep>
  <scstep>
   <time name="diag">    2.04    2.04</time>
   <time name="diis">   22.83   22.90</time>
   <time name="orth">    0.49    0.49</time>
   <time name="total">   25.66   25.73</time>
   <energy>
    <i name="e_fr_energy">   -621.14264148 </i>
    <i name="e_wo_entrp">   -620.99074119 </i>
    <i name="e_0_energy">   -621.06669133 </i>
   </energy>
  </scstep>
  <scstep>
   <time name="diag">    2.10    2.18</time>
   <time name="diis">   25.46   26.39</time>
   <time name="orth">    0.49    0.49</time>
   <time name="total">   28.34   29.36</time>
   <energy>
    <i name="e_fr_energy">   -621.42395862 </i>
    <i name="e_wo_entrp">   -621.26844842 </i>
    <i name="e_0_energy">   -621.34620352 </i>
   </energy>
  </scstep>
  <scstep>
   <time name="diag">    2.03    2.03</time>
   <time name="diis">   25.30   25.32</time>
   <time name="orth">    0.49    0.49</time>
   <time name="total">   28.13   28.16</time>
   <energy>
    <i name="e_fr_energy">   -621.43830286 </i>
    <i name="e_wo_entrp">   -621.29253118 </i>
    <i name="e_0_energy">   -621.36541702 </i>
   </energy>
  </scstep>
  <scstep>
   <time name="diag">    2.04    2.04</time>
   <time name="diis">   25.06   25.10</time>
   <time name="orth">    0.49    0.49</time>
   <time name="total">   27.90   27.94</time>
   <energy>
    <i name="e_fr_energy">   -621.51862669 </i>
    <i name="e_wo_entrp">   -621.36855476 </i>
    <i name="e_0_energy">   -621.44359073 </i>
   </energy>
  </scstep>
  <scstep>
   <time name="diag">    2.04    2.04</time>
   <time name="diis">   25.54   25.56</time>
   <time name="orth">    0.49    0.49</time>
   <time name="total">   28.37   28.40</time>
   <energy>
    <i name="e_fr_energy">   -621.53938366 </i>
    <i name="e_wo_entrp">   -621.38825860 </i>
    <i name="e_0_energy">   -621.46382113 </i>
   </energy>
  </scstep>
  <scstep>
   <time name="diag">    2.02    2.05</time>
   <time name="diis">   25.39   25.44</time>
   <time name="orth">    0.52    0.53</time>
   <time name="total">   28.23   28.32</time>
   <energy>
    <i name="e_fr_energy">   -621.57696558 </i>
    <i name="e_wo_entrp">   -621.42913438 </i>
    <i name="e_0_energy">   -621.50304998 </i>
   </energy>
  </scstep>
  <scstep>
   <time name="diag">    2.03    2.03</time>
   <time name="diis">   24.68   24.70</time>
   <time name="orth">    0.49    0.49</time>
   <time name="total">   27.50   27.53</time>
   <energy>
    <i name="e_fr_energy">   -621.59201307 </i>
    <i name="e_wo_entrp">   -621.43902194 </i>
    <i name="e_0_energy">   -621.51551751 </i>
   </energy>
  </scstep>
  <scstep>
   <time name="diag">    2.00    2.06</time>
   <time name="diis">   24.99   25.38</time>
   <time name="orth">    0.49    0.49</time>
   <time name="total">   27.78   28.24</time>
   <energy>
    <i name="e_fr_energy">   -621.59362509 </i>
    <i name="e_wo_entrp">   -621.44291153 </i>
    <i name="e_0_energy">   -621.51826831 </i>
   </energy>
  </scstep>
  <scstep>
   <time name="diag">    2.01    2.03</time>
   <time name="diis">   25.28   25.31</time>
   <time name="orth">    0.49    0.49</time>
   <time name="total">   28.08   28.14</time>
   <energy>
    <i name="e_fr_energy">   -621.60049992 </i>
    <i name="e_wo_entrp">   -621.45094895 </i>
    <i name="e_0_energy">   -621.52572443 </i>
   </energy>
  </scstep>
  <scstep>
   <time name="diag">    2.02    2.03</time>
   <time name="diis">   25.70   25.82</time>
   <time name="orth">    0.51    0.51</time>
   <time name="total">   28.55   28.67</time>
   <energy>
    <i name="e_fr_energy">   -621.60256868 </i>
    <i name="e_wo_entrp">   -621.45227260 </i>
    <i name="e_0_energy">   -621.52742064 </i>
   </energy>
  </scstep>
  <scstep>
   <time name="diag">    2.00    2.05</time>
   <time name="diis">   25.47   26.41</time>
   <time name="orth">    0.49    0.50</time>
   <time name="total">   28.25   29.26</time>
   <energy>
    <i name="e_fr_energy">   -621.60346300 </i>
    <i name="e_wo_entrp">   -621.45270513 </i>
    <i name="e_0_energy">   -621.52808407 </i>
   </energy>
  </scstep>
  <scstep>
   <time name="diag">    1.98    2.02</time>
   <time name="diis">   24.86   25.83</time>
   <time name="orth">    0.49    0.49</time>
   <time name="total">   27.61   28.64</time>
   <energy>
    <i name="e_fr_energy">   -621.60470559 </i>
    <i name="e_wo_entrp">   -621.45398206 </i>
    <i name="e_0_energy">   -621.52934383 </i>
   </energy>
  </scstep>
  <scstep>
   <time name="diag">    1.98    2.02</time>
   <time name="diis">   24.11   24.96</time>
   <time name="orth">    0.50    0.50</time>
   <time name="total">   26.89   27.79</time>
   <energy>
    <i name="e_fr_energy">   -621.60551487 </i>
    <i name="e_wo_entrp">   -621.45495870 </i>
    <i name="e_0_energy">   -621.53023678 </i>
   </energy>
  </scstep>
  <scstep>
   <time name="diag">    1.98    2.02</time>
   <time name="diis">   24.22   24.24</time>
   <time name="orth">    0.50    0.50</time>
   <time name="total">   27.00   27.06</time>
   <energy>
    <i name="e_fr_energy">   -621.60602480 </i>
    <i name="e_wo_entrp">   -621.45546956 </i>
    <i name="e_0_energy">   -621.53074718 </i>
   </energy>
  </scstep>
  <scstep>
   <time name="diag">    2.02    2.02</time>
   <time name="diis">   23.40   23.44</time>
   <time name="orth">    0.50    0.50</time>
   <time name="total">   26.22   26.26</time>
   <energy>
    <i name="e_fr_energy">   -621.60636488 </i>
    <i name="e_wo_entrp">   -621.45576207 </i>
    <i name="e_0_energy">   -621.53106348 </i>
   </energy>
  </scstep>
  <scstep>
   <time name="diag">    2.03    2.03</time>
   <time name="diis">   22.36   22.38</time>
   <time name="orth">    0.50    0.50</time>
   <time name="total">   25.18   25.21</time>
   <energy>
    <i name="e_fr_energy">   -621.60654857 </i>
    <i name="e_wo_entrp">   -621.45577816 </i>
    <i name="e_0_energy">   -621.53116336 </i>
   </energy>
  </scstep>
  <scstep>
   <time name="diag">    2.03    2.03</time>
   <time name="diis">   21.50   21.55</time>
   <time name="orth">    0.49    0.49</time>
   <time name="total">   24.33   24.37</time>
   <energy>
    <i name="e_fr_energy">   -621.60667296 </i>
    <i name="e_wo_entrp">   -621.45607857 </i>
    <i name="e_0_energy">   -621.53137576 </i>
   </energy>
  </scstep>
  <scstep>
   <time name="diag">    2.02    2.02</time>
   <time name="diis">   20.45   20.49</time>
   <time name="orth">    0.49    0.49</time>
   <time name="total">   23.27   23.31</time>
   <energy>
    <i name="e_fr_energy">   -621.60674217 </i>
    <i name="e_wo_entrp">   -621.45610940 </i>
    <i name="e_0_energy">   -621.53142579 </i>
   </energy>
  </scstep>
  <scstep>
   <time name="diag">    1.97    2.02</time>
   <time name="diis">   19.80   20.56</time>
   <time name="orth">    0.49    0.50</time>
   <time name="total">   22.56   23.38</time>
   <energy>
    <i name="e_fr_energy">   -621.60678966 </i>
    <i name="e_wo_entrp">   -621.45617428 </i>
    <i name="e_0_energy">   -621.53148197 </i>
   </energy>
  </scstep>
  <scstep>
   <time name="diag">    1.98    2.02</time>
   <time name="diis">   19.23   19.90</time>
   <time name="orth">    0.50    0.50</time>
   <time name="total">   22.00   22.72</time>
   <energy>
    <i name="e_fr_energy">   -621.60682450 </i>
    <i name="e_wo_entrp">   -621.45617593 </i>
    <i name="e_0_energy">   -621.53150022 </i>
   </energy>
  </scstep>
  <scstep>
   <time name="diag">    2.02    2.02</time>
   <time name="diis">   18.98   18.99</time>
   <time name="orth">    0.49    0.49</time>
   <time name="total">   21.79   21.81</time>
   <energy>
    <i name="e_fr_energy">   -621.60684579 </i>
    <i name="e_wo_entrp">   -621.45622520 </i>
    <i name="e_0_energy">   -621.53153549 </i>
   </energy>
  </scstep>
  <scstep>
   <time name="diag">    2.02    2.02</time>
   <time name="diis">   18.37   18.40</time>
   <time name="orth">    0.49    0.49</time>
   <time name="total">   21.18   21.22</time>
   <energy>
    <i name="e_fr_energy">   -621.60685819 </i>
    <i name="e_wo_entrp">   -621.45623276 </i>
    <i name="e_0_energy">   -621.53154548 </i>
   </energy>
  </scstep>
  <scstep>
   <time name="diag">    2.00    2.02</time>
   <time name="diis">   17.71   17.72</time>
   <time name="orth">    0.49    0.49</time>
   <time name="total">   20.50   20.53</time>
   <energy>
    <i name="e_fr_energy">   -621.60686740 </i>
    <i name="e_wo_entrp">   -621.45623708 </i>
    <i name="e_0_energy">   -621.53155224 </i>
   </energy>
  </scstep>
  <scstep>
   <time name="diag">    2.06    2.06</time>
   <time name="diis">   16.65   16.67</time>
   <time name="orth">    0.49    0.49</time>
   <time name="total">   19.23   19.26</time>
   <energy>
    <i name="alphaZ">   5031.54831157 </i>
    <i name="ewald"> -49766.92231367 </i>
    <i name="hartreedc">  -9003.13163295 </i>
    <i name="XCdc">   2306.65934244 </i>
    <i name="pawpsdc">  39427.98787907 </i>
    <i name="pawaedc"> -39531.06306678 </i>
    <i name="eentropy">     -0.15062676 </i>
    <i name="bandstr">  -5583.13920302 </i>
    <i name="atom">  56496.60443680 </i>
    <i name="e_fr_energy">   -621.60687331 </i>
    <i name="e_wo_entrp">   -621.45624654 </i>
    <i name="e_0_energy">   -621.53155993 </i>
   </energy>
  </scstep>
  <structure>
   <crystal>
    <varray name="basis" >
     <v>       8.20003038       0.01945899      -0.00546847 </v>
     <v>       0.02500840       8.30519980       0.00625859 </v>
     <v>       0.02396384      -0.00818873       8.21920303 </v>
    </varray>
    <i name="volume">    559.74899888 </i>
    <varray name="rec_basis" >
     <v>       0.12195140      -0.00036695      -0.00035593 </v>
     <v>      -0.00028565       0.12040726       0.00012079 </v>
     <v>       0.00008136      -0.00009193       0.12166597 </v>
    </varray>
   </crystal>
   <varray name="positions" >
    <v>       0.99668090       0.99092085       0.00069556 </v>
    <v>       0.25550901       0.99511457       0.24926198 </v>
    <v>       0.25209457       0.50451120       0.24856985 </v>
    <v>       0.50310278       0.49265940       0.99862750 </v>
    <v>       0.50057342       0.24334358       0.75185547 </v>
    <v>       0.99441812       0.50041446       0.50134764 </v>
    <v>       0.49794053       0.75973473       0.74728868 </v>
    <v>       0.99839128       0.23902312       0.25767580 </v>
    <v>       0.75228510       0.74651220       0.00898375 </v>
    <v>       0.00332855       0.25386200       0.74221175 </v>
    <v>       0.74920730       0.25718551       0.50622025 </v>
    <v>       0.00175657       0.74868411       0.74884308 </v>
    <v>       0.25593701       0.49608079       0.74859753 </v>
    <v>       0.24918506       0.24694599       0.99737670 </v>
    <v>       0.50528126       0.25392055       0.25143004 </v>
    <v>       0.74163929       0.99139486       0.26728989 </v>
    <v>       0.75456141       0.25493133       0.99406334 </v>
    <v>       0.24988151       0.75118244       0.99988594 </v>
    <v>       0.25551285       0.24797124       0.49945558 </v>
    <v>       0.24923416       0.75084850       0.49973216 </v>
    <v>       0.25141703       0.24989386       0.24858338 </v>
    <v>       0.25877660       0.00072390       0.99434490 </v>
    <v>       0.00240829       0.24753946       0.00098855 </v>
    <v>       0.74989430       0.24621159       0.25324880 </v>
    <v>       0.74840543       0.99864375       0.00708544 </v>
    <v>       0.50467387       0.99936716       0.24972724 </v>
    <v>       0.99456882       0.48376623       0.24519978 </v>
    <v>       0.50283266       0.75883145       0.00568571 </v>
    <v>       0.98976039       0.00175838       0.74295656 </v>
    <v>       0.75237398       0.24559227       0.75250026 </v>
    <v>       0.73771586       0.00210521       0.50624179 </v>
    <v>       0.50211978       0.23393184       0.49649817 </v>
    <v>       0.50299727       0.00043379       0.73825237 </v>
    <v>       0.99816701       0.00289378       0.25002970 </v>
    <v>       0.50476278       0.24784568      -0.00068064 </v>
    <v>       0.25247407       0.74872266       0.24909084 </v>
    <v>       0.24633736       0.50063187       0.00031529 </v>
    <v>       0.00232822       0.74564749       0.00379695 </v>
    <v>       0.75251794       0.75028486       0.25108212 </v>
    <v>       0.75420577       0.49976313       0.00190741 </v>
    <v>       0.49516907       0.50202000       0.24967489 </v>
    <v>       0.25363208       0.24912381       0.74871441 </v>
    <v>       0.26008048       0.99773644       0.50179657 </v>
    <v>       0.00229122       0.24824065       0.50067244 </v>
    <v>       0.24682820       0.75397210       0.75034718 </v>
    <v>       0.25181469       0.50086429       0.49559545 </v>
    <v>       0.99931458       0.75350907       0.50048809 </v>
    <v>       0.99524375       0.50063932       0.74972378 </v>
    <v>       0.74419285       0.76147453       0.75148217 </v>
    <v>       0.75059939       0.49570821       0.50298390 </v>
    <v>       0.49811659       0.76152301       0.49909324 </v>
    <v>       0.50029746       0.50153231       0.74834862 </v>
    <v>       0.51769761       0.01798288       0.97713256 </v>
    <v>       0.00088554       0.51374266       0.98304356 </v>
    <v>       0.50152466       0.74096321       0.25656610 </v>
    <v>       0.23924996       0.01252290       0.74894139 </v>
    <v>       0.47731900       0.98170244       0.49753561 </v>
    <v>       0.73808839       0.97446628       0.76717957 </v>
    <v>       0.00695355       0.76263551       0.24918308 </v>
    <v>       0.74816349       0.49877184       0.25078562 </v>
    <v>       0.01232216       0.00290614       0.50505177 </v>
    <v>       0.48864930       0.51550598       0.49994370 </v>
    <v>       0.74406406       0.51004183       0.74963304 </v>
    <v>       0.75224419       0.75258456       0.49981625 </v>
   </varray>
  </structure>
  <varray name="forces" >
   <v>       0.74443059       0.37832614      -0.26536024 </v>
   <v>       0.25378964       0.13165419      -0.27781538 </v>
   <v>       0.54468930       0.15200693      -0.66429004 </v>
   <v>      -1.04487753      -0.61844937       0.44336189 </v>
   <v>      -0.84366078      -0.41139162       0.79239661 </v>
   <v>       1.60380705      -0.94416445       0.59490769 </v>
   <v>      -0.73058075       0.37037823       0.31475707 </v>
   <v>       1.21314977       0.86295319      -1.73674835 </v>
   <v>      -1.30668931       1.03523979      -1.45207169 </v>
   <v>       0.57455702      -0.70642421       1.91749911 </v>
   <v>      -0.03217234      -1.70801712      -0.19650262 </v>
   <v>      -0.05104724       0.72764223       1.41552274 </v>
   <v>      -1.57759472       0.32145189       1.04018475 </v>
   <v>       0.63810879      -0.36078326       0.52454317 </v>
   <v>      -1.36653967      -0.51103989      -1.02227365 </v>
   <v>      -0.03819785       1.42726123      -2.12609313 </v>
   <v>      -0.52324861      -1.12791187       0.54443883 </v>
   <v>       1.56622017       0.51393443      -0.04347235 </v>
   <v>      -0.06467001       0.02275355      -0.45209789 </v>
   <v>       0.14454662       0.25937319      -0.10460556 </v>
   <v>       0.95665553      -0.04348713      -0.06949609 </v>
   <v>      -0.14791796      -0.00214045       0.46678403 </v>
   <v>       0.00452944      -0.05640208       0.01687043 </v>
   <v>      -1.06352095      -0.77719413      -1.34681083 </v>
   <v>       0.49069417       1.11533999      -0.51141040 </v>
   <v>      -1.13894442      -0.29307126      -0.31334256 </v>
   <v>       1.84009534       2.27234830       0.10463164 </v>
   <v>      -1.32638153      -0.10759237      -0.45600973 </v>
   <v>      -0.28939268       0.09288195       2.96271674 </v>
   <v>      -1.34059644      -0.14726747       1.04562753 </v>
   <v>       0.48987388      -0.07250704       0.89430035 </v>
   <v>      -1.22807092       0.76642249       0.52165836 </v>
   <v>      -0.20516106       0.45792996       0.52552953 </v>
   <v>       0.36104540      -1.33618368      -1.28514253 </v>
   <v>      -0.43146848       0.56956869      -0.29092168 </v>
   <v>       2.05305624      -0.10612712      -0.07684679 </v>
   <v>       0.37447169      -0.13185387       1.35996305 </v>
   <v>       0.97111118       0.51145178      -0.93153175 </v>
   <v>      -1.16994239       0.17253914       0.76667828 </v>
   <v>      -0.21734684      -1.15409145      -0.27719098 </v>
   <v>      -0.80669805      -0.16093168      -1.57135125 </v>
   <v>       1.38798134      -0.94336919       0.14922611 </v>
   <v>      -0.86877576       0.27838219       0.13695792 </v>
   <v>       1.07182974       1.96085732      -0.25621357 </v>
   <v>       2.00203505       1.02518089       0.07917751 </v>
   <v>      -3.34153013      -0.31824098      -0.98351901 </v>
   <v>       1.37510717      -1.69178311      -0.26161739 </v>
   <v>       0.99960885       0.05818814      -0.38113999 </v>
   <v>      -0.60194509      -1.77220620       0.67433635 </v>
   <v>      -0.10122300       1.88004489      -0.73473001 </v>
   <v>      -1.09568087      -0.55790999       0.13408424 </v>
   <v>      -0.20049914      -0.25852065       1.64673829 </v>
   <v>      -0.81593127      -0.21452756       0.04716522 </v>
   <v>       0.48462333      -0.10906367       0.34560138 </v>
   <v>      -0.75517682       0.43778381      -0.58447627 </v>
   <v>       0.61337983      -0.77709368       0.59687810 </v>
   <v>       1.60241361       1.27135558      -0.52439810 </v>
   <v>      -0.77079893       2.67205699       0.43659672 </v>
   <v>      -0.32763842      -1.77129758       0.22375161 </v>
   <v>      -0.62224413       0.09828637      -0.11576752 </v>
   <v>      -0.24660112      -0.22928177      -1.49046860 </v>
   <v>       3.04546562      -1.30809195      -1.02702210 </v>
   <v>       0.39121955      -0.37514068       1.25206278 </v>
   <v>      -1.10573073      -0.74003495      -0.14421000 </v>
  </varray>
  <varray name="stress" >
   <v>     582.22283929      -9.25225639       2.56140665 </v>
   <v>      -9.25225811     506.55773249      -4.31750817 </v>
   <v>       2.56140606      -4.31750401     590.02809558 </v>
  </varray>
  <energy>
   <i name="e_fr_energy">   -621.60687331 </i>
   <i name="e_wo_entrp">   -621.53155993 </i>
   <i name="e_0_energy">     -0.15062676 </i>
  </energy>
  <time name="totalsc">  888.08  898.02</time>
 </calculation>
 <calculation>
  <scstep>
   <time name="dav">   29.81   30.06</time>
   <time name="total">   30.11   30.36</time>
   <energy>
    <i name="alphaZ">   4436.12359634 </i>
    <i name="ewald"> -47767.92198249 </i>
    <i name="hartreedc">  -8581.97568260 </i>
    <i name="XCdc">   2211.82687989 </i>
    <i name="pawpsdc">  39427.88254704 </i>
    <i name="pawaedc"> -39531.00494918 </i>
    <i name="eentropy">     -0.25463739 </i>
    <i name="bandstr">  -7408.90633366 </i>
    <i name="atom">  56496.60443680 </i>
    <i name="e_fr_energy">   -717.62612525 </i>
    <i name="e_wo_entrp">   -717.37148786 </i>
    <i name="e_0_energy">   -717.49880656 </i>
   </energy>
  </scstep>
  <scstep>
   <time name="diag">    2.04    2.04</time>
   <time name="diis">   22.77   22.91</time>
   <time name="orth">    0.49    0.49</time>
   <time name="total">   25.59   25.74</time>
   <energy>
    <i name="e_fr_energy">   -988.13956273 </i>
    <i name="e_wo_entrp">   -987.96721891 </i>
    <i name="e_0_energy">   -988.05339082 </i>
   </energy>
  </scstep>
  <scstep>
   <time name="diag">    2.03    2.03</time>
   <time name="diis">   21.35   21.43</time>
   <time name="orth">    0.49    0.49</time>
   <time name="total">   24.16   24.26</time>
   <energy>
    <i name="e_fr_energy">   -680.73297908 </i>
    <i name="e_wo_entrp">   -680.60976120 </i>
    <i name="e_0_energy">   -680.67137014 </i>
   </energy>
  </scstep>
  <scstep>
   <time name="diag">    2.04    2.04</time>
   <time name="diis">   22.08   22.25</time>
   <time name="orth">    0.49    0.49</time>
[...]
      </set>
     </set>
    </set>
   </array>
  </eigenvalues>
  <separator name="orbital magnetization" >
   <v name="MAGDIPOLOUT">      0.00000000      0.00000000      0.00000000</v>
  </separator>
  <dos>
   <i name="efermi">      9.15279526 </i>
   <total>
    <array>
     <dimension dim="1">gridpoints</dimension>
     <dimension dim="2">spin</dimension>
     <field>energy</field>
     <field>total</field>
     <field>integrated</field>
     <set>
      <set comment="spin 1">
       <r>   -59.2692     0.0000     0.0000 </r>
       <r>   -59.0208     0.0000     0.0000 </r>
       <r>   -58.7723     0.0000     0.0000 </r>
       <r>   -58.5239     0.0000     0.0000 </r>
       <r>   -58.2754     0.0000     0.0000 </r>
       <r>   -58.0270     0.0000     0.0000 </r>
       <r>   -57.7785     0.0000     0.0000 </r>
       <r>   -57.5301     0.0000     0.0000 </r>
       <r>   -57.2816     0.0000     0.0000 </r>
       <r>   -57.0332     0.0000     0.0000 </r>
       <r>   -56.7848     0.0000     0.0000 </r>
       <r>   -56.5363     0.0000     0.0000 </r>
       <r>   -56.2879     0.0000     0.0000 </r>
       <r>   -56.0394     0.1075     0.0267 </r>
       <r>   -55.7910    20.0766     5.0147 </r>
       <r>   -55.5425    35.5297    13.8419 </r>
       <r>   -55.2941     0.6362    14.0000 </r>
       <r>   -55.0456     0.0000    14.0000 </r>
       <r>   -54.7972     0.0000    14.0000 </r>
       <r>   -54.5487     0.0000    14.0000 </r>
       <r>   -54.3003     0.0000    14.0000 </r>
       <r>   -54.0518     0.0000    14.0000 </r>
       <r>   -53.8034     0.0000    14.0000 </r>
       <r>   -53.5549     0.0000    14.0000 </r>
       <r>   -53.3065     0.0000    14.0000 </r>
       <r>   -53.0580     0.0000    14.0000 </r>
       <r>   -52.8096     0.0000    14.0000 </r>
       <r>   -52.5612     0.0000    14.0000 </r>
       <r>   -52.3127     0.0000    14.0000 </r>
       <r>   -52.0643     0.0000    14.0000 </r>
       <r>   -51.8158     0.0000    14.0000 </r>
       <r>   -51.5674     0.0000    14.0000 </r>
       <r>   -51.3189     0.0000    14.0000 </r>
       <r>   -51.0705     0.0000    14.0000 </r>
       <r>   -50.8220     0.0000    14.0000 </r>
       <r>   -50.5736     0.0000    14.0000 </r>
       <r>   -50.3251     0.0000    14.0000 </r>
       <r>   -50.0767     0.0000    14.0000 </r>
       <r>   -49.8282     0.0000    14.0000 </r>
       <r>   -49.5798     0.0000    14.0000 </r>
       <r>   -49.3313     0.0000    14.0000 </r>
       <r>   -49.0829     0.0000    14.0000 </r>
       <r>   -48.8344     0.0008    14.0002 </r>
       <r>   -48.5860     4.8765    15.2117 </r>
       <r>   -48.3376    20.8180    20.3839 </r>
       <r>   -48.0891    19.8395    25.3130 </r>
       <r>   -47.8407     6.3630    26.8939 </r>
       <r>   -47.5922     4.4493    27.9993 </r>
       <r>   -47.3438     0.0029    28.0000 </r>
       <r>   -47.0953     0.0002    28.0000 </r>
       <r>   -46.8469     2.6189    28.6507 </r>
       <r>   -46.5984    19.9763    33.6138 </r>
       <r>   -46.3500    17.6408    37.9966 </r>
       <r>   -46.1015     8.0114    39.9870 </r>
       <r>   -45.8531     0.0525    40.0000 </r>
       <r>   -45.6046     0.0000    40.0000 </r>
       <r>   -45.3562     0.0000    40.0000 </r>
       <r>   -45.1077     0.0000    40.0000 </r>
       <r>   -44.8593     0.0000    40.0000 </r>
       <r>   -44.6108     0.0000    40.0000 </r>
       <r>   -44.3624     0.0000    40.0000 </r>
       <r>   -44.1140     0.0000    40.0000 </r>
       <r>   -43.8655     0.0000    40.0000 </r>
       <r>   -43.6171     0.0000    40.0000 </r>
       <r>   -43.3686     0.0000    40.0000 </r>
       <r>   -43.1202     0.0000    40.0000 </r>
       <r>   -42.8717     0.0000    40.0000 </r>
       <r>   -42.6233     0.0000    40.0000 </r>
       <r>   -42.3748     0.0000    40.0000 </r>
       <r>   -42.1264     0.0000    40.0000 </r>
       <r>   -41.8779     0.0000    40.0000 </r>
       <r>   -41.6295     0.0000    40.0000 </r>
       <r>   -41.3810     0.0000    40.0000 </r>
       <r>   -41.1326     0.0000    40.0000 </r>
       <r>   -40.8841     0.0000    40.0000 </r>
       <r>   -40.6357     0.0000    40.0000 </r>
       <r>   -40.3872     0.0000    40.0000 </r>
       <r>   -40.1388     0.0000    40.0000 </r>
       <r>   -39.8904     0.0000    40.0000 </r>
       <r>   -39.6419     0.0000    40.0000 </r>
       <r>   -39.3935     0.0000    40.0000 </r>
       <r>   -39.1450     0.0000    40.0000 </r>
       <r>   -38.8966     0.0000    40.0000 </r>
       <r>   -38.6481     0.0000    40.0000 </r>
       <r>   -38.3997     0.0000    40.0000 </r>
       <r>   -38.1512     0.0000    40.0000 </r>
       <r>   -37.9028     0.0000    40.0000 </r>
       <r>   -37.6543     0.0000    40.0000 </r>
       <r>   -37.4059     0.0000    40.0000 </r>
       <r>   -37.1574     0.0000    40.0000 </r>
       <r>   -36.9090     0.0000    40.0000 </r>
       <r>   -36.6605     0.0000    40.0000 </r>
       <r>   -36.4121     0.0000    40.0000 </r>
       <r>   -36.1637     0.0000    40.0000 </r>
       <r>   -35.9152     0.0000    40.0000 </r>
       <r>   -35.6668     0.0000    40.0000 </r>
       <r>   -35.4183     0.0000    40.0000 </r>
       <r>   -35.1699     0.0000    40.0000 </r>
       <r>   -34.9214     0.1120    40.0278 </r>
       <r>   -34.6730    18.1209    44.5299 </r>
       <r>   -34.4245    89.2785    66.7109 </r>
       <r>   -34.1761    37.2299    75.9606 </r>
       <r>   -33.9276     0.1588    76.0000 </r>
       <r>   -33.6792     0.0000    76.0000 </r>
       <r>   -33.4307     0.0000    76.0000 </r>
       <r>   -33.1823     0.0000    76.0000 </r>
       <r>   -32.9338     0.0000    76.0000 </r>
       <r>   -32.6854     0.0000    76.0000 </r>
       <r>   -32.4369     0.0000    76.0000 </r>
       <r>   -32.1885     0.0000    76.0000 </r>
       <r>   -31.9401     0.0000    76.0000 </r>
       <r>   -31.6916     0.0000    76.0000 </r>
       <r>   -31.4432     0.0000    76.0000 </r>
       <r>   -31.1947     0.0000    76.0000 </r>
       <r>   -30.9463     0.0000    76.0000 </r>
       <r>   -30.6978     0.0000    76.0000 </r>
       <r>   -30.4494     0.0000    76.0000 </r>
       <r>   -30.2009     0.0000    76.0000 </r>
       <r>   -29.9525     3.1972    76.7943 </r>
       <r>   -29.7040    89.6081    99.0572 </r>
       <r>   -29.4556    72.9434   117.1798 </r>
       <r>   -29.2071     3.3011   117.9999 </r>
       <r>   -28.9587     0.0003   118.0000 </r>
       <r>   -28.7102     0.0000   118.0000 </r>
       <r>   -28.4618     0.0000   118.0000 </r>
       <r>   -28.2133     0.0000   118.0000 </r>
       <r>   -27.9649     0.0000   118.0000 </r>
       <r>   -27.7165     0.0000   118.0000 </r>
       <r>   -27.4680     0.0000   118.0000 </r>
       <r>   -27.2196     0.0000   118.0000 </r>
       <r>   -26.9711     0.0000   118.0000 </r>
       <r>   -26.7227     0.0000   118.0000 </r>
       <r>   -26.4742     0.0009   118.0002 </r>
       <r>   -26.2258     5.7777   119.4357 </r>
       <r>   -25.9773    63.3950   135.1860 </r>
       <r>   -25.7289    71.0396   152.8355 </r>
       <r>   -25.4804     4.6868   154.0000 </r>
       <r>   -25.2320     0.0387   154.0096 </r>
       <r>   -24.9835    17.8489   158.4441 </r>
       <r>   -24.7351    54.7919   172.0570 </r>
       <r>   -24.4866    61.2207   187.2671 </r>
       <r>   -24.2382    23.3258   193.0623 </r>
       <r>   -23.9897    11.8142   195.9975 </r>
       <r>   -23.7413     0.0100   196.0000 </r>
       <r>   -23.4929     0.0000   196.0000 </r>
       <r>   -23.2444     0.2054   196.0510 </r>
       <r>   -22.9960    17.8320   200.4813 </r>
       <r>   -22.7475    60.9853   215.6329 </r>
       <r>   -22.4991    42.5385   226.2015 </r>
       <r>   -22.2506    22.7937   231.8645 </r>
       <r>   -22.0022     0.5453   232.0000 </r>
       <r>   -21.7537     0.0000   232.0000 </r>
       <r>   -21.5053     0.0000   232.0000 </r>
       <r>   -21.2568     0.0000   232.0000 </r>
       <r>   -21.0084     0.0000   232.0000 </r>
       <r>   -20.7599     0.0000   232.0000 </r>
       <r>   -20.5115     0.0000   232.0000 </r>
       <r>   -20.2630     0.0000   232.0000 </r>
       <r>   -20.0146     0.0000   232.0000 </r>
       <r>   -19.7661     0.0000   232.0000 </r>
       <r>   -19.5177     0.0000   232.0000 </r>
       <r>   -19.2693     0.0000   232.0000 </r>
       <r>   -19.0208     0.0000   232.0000 </r>
       <r>   -18.7724     0.0000   232.0000 </r>
       <r>   -18.5239     0.0000   232.0000 </r>
       <r>   -18.2755     0.0000   232.0000 </r>
       <r>   -18.0270     0.0000   232.0000 </r>
       <r>   -17.7786     0.0000   232.0000 </r>
       <r>   -17.5301     0.0000   232.0000 </r>
       <r>   -17.2817     0.0000   232.0000 </r>
       <r>   -17.0332     0.0000   232.0000 </r>
       <r>   -16.7848     0.0000   232.0000 </r>
       <r>   -16.5363     0.0000   232.0000 </r>
       <r>   -16.2879     0.0000   232.0000 </r>
       <r>   -16.0394     0.0000   232.0000 </r>
       <r>   -15.7910     0.0000   232.0000 </r>
       <r>   -15.5425     0.0000   232.0000 </r>
       <r>   -15.2941     0.0000   232.0000 </r>
       <r>   -15.0457     0.0000   232.0000 </r>
       <r>   -14.7972     0.0000   232.0000 </r>
       <r>   -14.5488     0.0000   232.0000 </r>
       <r>   -14.3003     0.0000   232.0000 </r>
       <r>   -14.0519     0.0000   232.0000 </r>
       <r>   -13.8034     0.0000   232.0000 </r>
       <r>   -13.5550     0.0000   232.0000 </r>
       <r>   -13.3065     0.0000   232.0000 </r>
       <r>   -13.0581     0.0000   232.0000 </r>
       <r>   -12.8096     0.0000   232.0000 </r>
       <r>   -12.5612     0.0000   232.0000 </r>
       <r>   -12.3127     0.0000   232.0000 </r>
       <r>   -12.0643     0.0000   232.0000 </r>
       <r>   -11.8158     0.0000   232.0000 </r>
       <r>   -11.5674     0.0000   232.0000 </r>
       <r>   -11.3189     0.0000   232.0000 </r>
       <r>   -11.0705     0.0000   232.0000 </r>
       <r>   -10.8221     0.0000   232.0000 </r>
       <r>   -10.5736     0.0000   232.0000 </r>
       <r>   -10.3252     0.0000   232.0000 </r>
       <r>   -10.0767     0.0000   232.0000 </r>
       <r>    -9.8283     0.0000   232.0000 </r>
       <r>    -9.5798     0.0000   232.0000 </r>
       <r>    -9.3314     0.0000   232.0000 </r>
       <r>    -9.0829     0.0000   232.0000 </r>
       <r>    -8.8345     0.0000   232.0000 </r>
       <r>    -8.5860     0.0000   232.0000 </r>
       <r>    -8.3376     0.0000   232.0000 </r>
       <r>    -8.0891     0.0000   232.0000 </r>
       <r>    -7.8407     0.0000   232.0000 </r>
       <r>    -7.5922     0.0000   232.0000 </r>
       <r>    -7.3438     0.0544   232.0135 </r>
       <r>    -7.0953     3.4843   232.8792 </r>
       <r>    -6.8469     5.1000   234.1462 </r>
       <r>    -6.5985    10.4309   236.7378 </r>
       <r>    -6.3500    14.1307   240.2485 </r>
       <r>    -6.1016    18.2477   244.7821 </r>
       <r>    -5.8531    27.9435   251.7246 </r>
       <r>    -5.6047    21.8260   257.1472 </r>
       <r>    -5.3562     3.4321   257.9999 </r>
       <r>    -5.1078     0.0005   258.0000 </r>
       <r>    -4.8593     0.0000   258.0000 </r>
       <r>    -4.6109     0.0000   258.0000 </r>
       <r>    -4.3624     0.0000   258.0000 </r>
       <r>    -4.1140     0.0016   258.0004 </r>
       <r>    -3.8655     1.0880   258.2707 </r>
       <r>    -3.6171     5.6700   259.6794 </r>
       <r>    -3.3686     2.6871   260.3470 </r>
       <r>    -3.1202     7.6959   262.2590 </r>
       <r>    -2.8717     9.0555   264.5088 </r>
       <r>    -2.6233    17.3542   268.8204 </r>
       <r>    -2.3749    18.6982   273.4659 </r>
       <r>    -2.1264    23.7427   279.3647 </r>
       <r>    -1.8780    24.8828   285.5468 </r>
       <r>    -1.6295    22.0226   291.0183 </r>
       <r>    -1.3811    15.7517   294.9317 </r>
       <r>    -1.1326     4.2128   295.9784 </r>
       <r>    -0.8842     0.0870   296.0000 </r>
       <r>    -0.6357     0.0000   296.0000 </r>
       <r>    -0.3873     0.0000   296.0000 </r>
       <r>    -0.1388     0.0000   296.0000 </r>
       <r>     0.1096     0.0000   296.0000 </r>
       <r>     0.3581     0.0000   296.0000 </r>
       <r>     0.6065     0.0000   296.0000 </r>
       <r>     0.8550     0.0040   296.0010 </r>
       <r>     1.1034     0.4704   296.1179 </r>
       <r>     1.3518     1.7604   296.5552 </r>
       <r>     1.6003     6.7788   298.2394 </r>
       <r>     1.8487     9.4563   300.5888 </r>
       <r>     2.0972    13.1163   303.8475 </r>
       <r>     2.3456    21.6113   309.2167 </r>
       <r>     2.5941    27.6027   316.0745 </r>
       <r>     2.8425    30.9246   323.7577 </r>
       <r>     3.0910    30.3364   331.2947 </r>
       <r>     3.3394    33.2457   339.5545 </r>
       <r>     3.5879    34.8482   348.2124 </r>
       <r>     3.8363    41.5401   358.5329 </r>
       <r>     4.0848    49.8100   370.9081 </r>
       <r>     4.3332    58.2045   385.3688 </r>
       <r>     4.5817    64.2875   401.3408 </r>
       <r>     4.8301    65.2300   417.5470 </r>
       <r>     5.0786    60.6475   432.6147 </r>
       <r>     5.3270    50.9917   445.2834 </r>
       <r>     5.5754    40.3189   455.3006 </r>
       <r>     5.8239    33.0951   463.5229 </r>
       <r>     6.0723    32.4448   471.5838 </r>
       <r>     6.3208    26.2800   478.1129 </r>
       <r>     6.5692    17.9349   482.5688 </r>
       <r>     6.8177    15.1111   486.3231 </r>
       <r>     7.0661     5.1811   487.6103 </r>
       <r>     7.3146     7.7602   489.5383 </r>
       <r>     7.5630    15.0817   493.2853 </r>
       <r>     7.8115    20.5723   498.3965 </r>
       <r>     8.0599    22.2190   503.9167 </r>
       <r>     8.3084    22.0445   509.3936 </r>
       <r>     8.5568    19.1306   514.1465 </r>
       <r>     8.8053    31.2515   521.9109 </r>
       <r>     9.0537    28.6857   529.0377 </r>
       <r>     9.3022    30.4932   536.6137 </r>
       <r>     9.5506    42.7496   547.2347 </r>
       <r>     9.7990    55.0587   560.9139 </r>
       <r>    10.0475    53.1738   574.1247 </r>
       <r>    10.2959    55.0197   587.7942 </r>
       <r>    10.5444    54.8617   601.4244 </r>
       <r>    10.7928    54.1745   614.8839 </r>
       <r>    11.0413    58.1444   629.3297 </r>
       <r>    11.2897    58.4821   643.8594 </r>
       <r>    11.5382    54.8730   657.4925 </r>
       <r>    11.7866    47.5197   669.2986 </r>
       <r>    12.0351    10.8441   671.9928 </r>
       <r>    12.2835     0.0291   672.0000 </r>
       <r>    12.5320     0.0000   672.0000 </r>
       <r>    12.7804     0.0000   672.0000 </r>
       <r>    13.0289     0.0000   672.0000 </r>
       <r>    13.2773     0.0000   672.0000 </r>
       <r>    13.5258     0.0000   672.0000 </r>
       <r>    13.7742     0.0000   672.0000 </r>
       <r>    14.0226     0.0000   672.0000 </r>
       <r>    14.2711     0.0000   672.0000 </r>
       <r>    14.5195     0.0000   672.0000 </r>
       <r>    14.7680     0.0000   672.0000 </r>
       <r>    15.0164     0.0000   672.0000 </r>
       <r>    15.2649     0.0000   672.0000 </r>
      </set>
     </set>
    </array>
   </total>
  </dos>
 </calculation>
 <structure name="finalpos" >
  <crystal>
   <varray name="basis" >
    <v>       8.61921898       0.00299582      -0.00445703 </v>
    <v>       0.00878503       8.60639995      -0.00412667 </v>
    <v>       0.02652128      -0.01916390       8.64187872 </v>
   </varray>
   <i name="volume">    641.05852454 </i>
   <varray name="rec_basis" >
    <v>       0.11601965      -0.00011860      -0.00035632 </v>
    <v>      -0.00004025       0.11619277       0.00025779 </v>
    <v>       0.00005982       0.00005542       0.11571552 </v>
   </varray>
  </crystal>
  <varray name="positions" >
   <v>       0.02140660       0.98501293      -0.00133365 </v>
   <v>       0.26127005       0.98488937       0.25970590 </v>
   <v>       0.26781720       0.51265733       0.24364652 </v>
   <v>       0.49407236       0.47942218       0.00043226 </v>
   <v>       0.48100457       0.23915161       0.76099243 </v>
   <v>       0.00119947       0.49306049       0.51490008 </v>
   <v>       0.50159529       0.76433417       0.73963056 </v>
   <v>       0.00122136       0.25025998       0.25021812 </v>
   <v>       0.73714047       0.75201560      -0.00003066 </v>
   <v>       0.00960458       0.24557224       0.74927469 </v>
   <v>       0.75490743       0.25028581       0.50272010 </v>
   <v>       0.00247025       0.75555295       0.75337709 </v>
   <v>       0.25047589       0.50295866       0.75696735 </v>
   <v>       0.25013580       0.24333222       0.00331060 </v>
   <v>       0.49646089       0.24261589       0.24402362 </v>
   <v>       0.74617092       0.00182767       0.24127793 </v>
   <v>       0.74925221       0.24629842       0.99520331 </v>
   <v>       0.26553439       0.75631813       0.00068695 </v>
   <v>       0.25168762       0.24985760       0.49736657 </v>
   <v>       0.25076528       0.75123663       0.50255603 </v>
   <v>       0.25500426       0.24819758       0.24953183 </v>
   <v>       0.25724944       0.00021013       0.00492439 </v>
   <v>       0.00127214       0.24103295       0.00087236 </v>
   <v>       0.74391269       0.24398975       0.24455778 </v>
   <v>       0.74795720       0.00350502      -0.00121360 </v>
   <v>       0.49836339       0.99554814       0.24299586 </v>
   <v>       0.00235656       0.49955276       0.24516735 </v>
   <v>       0.49892436       0.75636170      -0.00235198 </v>
   <v>       0.99309539       0.00079879       0.75412099 </v>
   <v>       0.74522289       0.24202908       0.75183213 </v>
   <v>       0.74796398       0.00041074       0.49686535 </v>
   <v>       0.49723193       0.24455946       0.49827850 </v>
   <v>       0.49776655       0.00644769       0.74999960 </v>
   <v>       0.00628094      -0.00145535       0.24375344 </v>
   <v>       0.49840240       0.24852113      -0.00258335 </v>
   <v>       0.25849143       0.74895047       0.25172990 </v>
   <v>       0.24780252       0.50102491       0.00847250 </v>
   <v>       0.00767141       0.75247096       0.00055135 </v>
   <v>       0.74522645       0.75264943       0.25004402 </v>
   <v>       0.75227488       0.49568402       0.00026891 </v>
   <v>       0.49549497       0.50426714       0.24414152 </v>
   <v>       0.25577465       0.24347620       0.75242544 </v>
   <v>       0.25981419       0.99936791       0.50637848 </v>
   <v>       0.00731443       0.25400858       0.50038885 </v>
   <v>       0.25755841       0.76055992       0.75181880 </v>
   <v>       0.24467281       0.49969840       0.49478255 </v>
   <v>       0.00310739       0.74622191       0.49943098 </v>
   <v>       0.99828220       0.49967352       0.75408335 </v>
   <v>       0.74340426       0.75800324       0.75009871 </v>
   <v>       0.75224349       0.50126147       0.50051306 </v>
   <v>       0.49522607       0.75917778       0.50199845 </v>
   <v>       0.49890235       0.49891768       0.75497665 </v>
   <v>       0.50948311       0.02165894       0.98173525 </v>
   <v>       0.00773026       0.52828859       0.98312709 </v>
   <v>       0.49287140       0.76060404       0.27028420 </v>
   <v>       0.23486298      -0.00241675       0.75254901 </v>
   <v>       0.48084151       0.99150569       0.47426067 </v>
   <v>       0.71712960       0.98396478       0.77844615 </v>
   <v>       0.00611891       0.74787178       0.24762148 </v>
   <v>       0.74207756       0.49549321       0.24642318 </v>
   <v>       0.01084555       0.00462950       0.49822374 </v>
   <v>       0.49512181       0.50034279       0.50008395 </v>
   <v>       0.74530029       0.50251263       0.75446851 </v>
   <v>       0.74915871       0.75376158       0.49899695 </v>
  </varray>
 </structure>
</modeling>
