HECN                                    
           1
     8.932500    0.000000    0.000000
     0.005753    9.055598    0.000000
     0.032102   -0.015743    8.937128
   V    Nb   Ti   N    C    Cr   Ta
   7   6   7  13  19   6   6
Direct configuration=     1
   0.99688001  0.99204997  0.99924002
   0.25398003  0.99714995  0.24912000
   0.24803003  0.50165000  0.24955001
   0.50501006  0.49745998  0.99834003
   0.50479003  0.24631001  0.74710002
   0.99427992  0.50449999  0.49779000
   0.49950005  0.75481999  0.74817004
   0.99437004  0.23617001  0.26379999
   0.75718000  0.74102998  0.01100000
   0.00201000  0.25541000  0.73894001
   0.75307001  0.26163001  0.50533002
   0.99514004  0.74492004  0.74511997
   0.25679999  0.49462002  0.74545002
   0.24788999  0.24839000  0.99657997
   0.50833000  0.25676999  0.25376001
   0.74879004  0.98787999  0.26967001
   0.75719000  0.25603001  0.99591997
   0.24762001  0.74973999  0.99974006
   0.25272001  0.24823001  0.50015003
   0.24457999  0.75048999  0.49983999
   0.24982001  0.24942998  0.24825000
   0.26146999  0.99984002  0.99295996
   0.00281000  0.25024000  0.00130000
   0.75313998  0.24617000  0.25492002
   0.74767001  0.99748000  0.01202000
   0.50714994  0.99977000  0.24673000
   0.99051999  0.48088002  0.24100998
   0.50519005  0.76130999  0.00855000
   0.98896989  0.00202000  0.73708999
   0.75744996  0.24437997  0.74896999
   0.73632001  0.00417000  0.51063000
   0.50563996  0.23264999  0.49544997
   0.50008998  0.00061000  0.73471998
   0.99720000  0.99771992  0.25899999
   0.50427997  0.24673000  0.00262000
   0.25133999  0.74958002  0.24910999
   0.24328000  0.50072997  0.99510994
   0.99837005  0.74313996  0.00460000
   0.75633000  0.73891003  0.25767000
   0.75839004  0.50315998  0.00288000
   0.50700002  0.50333002  0.25878999
   0.24900999  0.25315000  0.74854000
   0.24446000  0.99823996  0.50287998
   0.99804009  0.24229999  0.50128003
   0.24177002  0.75340997  0.75018002
   0.25841001  0.50062002  0.50129001
   0.99000004  0.76215003  0.49746000
   0.99203996  0.50055999  0.75138002
   0.75036005  0.74888000  0.74756004
   0.74036002  0.50197000  0.50067003
   0.50575006  0.74958002  0.49720000
   0.50501003  0.50217998  0.73912003
   0.51588997  0.01358000  0.98075008
   0.99841994  0.50976998  0.98613004
   0.50379003  0.73926997  0.25905001
   0.23780002  0.01082000  0.74607998
   0.47957999  0.98308000  0.49717999
   0.74279003  0.97869994  0.76450995
   0.99864998  0.77573999  0.26102000
   0.73551001  0.51468004  0.26666001
   0.02362000  0.99783001  0.49557002
   0.50539000  0.52833005  0.49917999
   0.73876003  0.52828003  0.73814999
   0.75400003  0.72937999  0.49116997
HECN                                    
           1
     8.200030    0.019459   -0.005468
     0.025008    8.305200    0.006259
     0.023964   -0.008189    8.219203
   V    Nb   Ti   N    C    Cr   Ta
   7   6   7  13  19   6   6
Direct configuration=     2
   0.99668090  0.99092085  0.00069556
   0.25550901  0.99511457  0.24926198
   0.25209457  0.50451120  0.24856985
   0.50310278  0.49265940  0.99862750
   0.50057342  0.24334358  0.75185547
   0.99441812  0.50041446  0.50134764
   0.49794053  0.75973473  0.74728868
   0.99839128  0.23902312  0.25767580
   0.75228510  0.74651220  0.00898375
   0.00332855  0.25386200  0.74221175
   0.74920730  0.25718551  0.50622025
   0.00175657  0.74868411  0.74884308
   0.25593701  0.49608079  0.74859753
   0.24918506  0.24694599  0.99737670
   0.50528126  0.25392055  0.25143004
   0.74163929  0.99139486  0.26728989
   0.75456141  0.25493133  0.99406334
   0.24988151  0.75118244  0.99988594
   0.25551285  0.24797124  0.49945558
   0.24923416  0.75084850  0.49973216
   0.25141703  0.24989386  0.24858338
   0.25877660  0.00072390  0.99434490
   0.00240829  0.24753946  0.00098855
   0.74989430  0.24621159  0.25324880
   0.74840543  0.99864375  0.00708544
   0.50467387  0.99936716  0.24972724
   0.99456882  0.48376623  0.24519978
   0.50283266  0.75883145  0.00568571
   0.98976039  0.00175838  0.74295656
   0.75237398  0.24559227  0.75250026
   0.73771586  0.00210521  0.50624179
   0.50211978  0.23393184  0.49649817
   0.50299727  0.00043379  0.73825237
   0.99816701  0.00289378  0.25002970
   0.50476278  0.24784568 -0.00068064
   0.25247407  0.74872266  0.24909084
   0.24633736  0.50063187  0.00031529
   0.00232822  0.74564749  0.00379695
   0.75251794  0.75028486  0.25108212
   0.75420577  0.49976313  0.00190741
   0.49516907  0.50202000  0.24967489
   0.25363208  0.24912381  0.74871441
   0.26008048  0.99773644  0.50179657
   0.00229122  0.24824065  0.50067244
   0.24682820  0.75397210  0.75034718
   0.25181469  0.50086429  0.49559545
   0.99931458  0.75350907  0.50048809
   0.99524375  0.50063932  0.74972378
   0.74419285  0.76147453  0.75148217
   0.75059939  0.49570821  0.50298390
   0.49811659  0.76152301  0.49909324
   0.50029746  0.50153231  0.74834862
   0.51769761  0.01798288  0.97713256
   0.00088554  0.51374266  0.98304356
   0.50152466  0.74096321  0.25656610
   0.23924996  0.01252290  0.74894139
   0.47731900  0.98170244  0.49753561
   0.73808839  0.97446628  0.76717957
   0.00695355  0.76263551  0.24918308
   0.74816349  0.49877184  0.25078562
   0.01232216  0.00290614  0.50505177
   0.48864930  0.51550598  0.49994370
   0.74406406  0.51004183  0.74963304
   0.75224419  0.75258456  0.49981625
HECN                                    
           1
     8.552856    0.010086   -0.002834
     0.015733    8.666662    0.003244
     0.027884   -0.011828    8.565023
   V    Nb   Ti   N    C    Cr   Ta
   7   6   7  13  19   6   6
Direct configuration=     3
   0.99678343  0.99151422 -0.00006719
   0.25470410  0.99618553  0.24918626
   0.24996577  0.50301305  0.24908295
   0.50409741  0.49517852  0.99847568
   0.50278053  0.24489831  0.74936500
   0.99433918  0.50256184  0.49948257
   0.49876537  0.75715115  0.74775282
   0.99628702  0.23752712  0.26088320
   0.75486121  0.74362601  0.01004371
   0.00263356  0.25467796  0.74049703
   0.75122823  0.25951545  0.50575355
  -0.00171185  0.74671676  0.74689223
   0.25639056  0.49531376  0.74694985
   0.24850340  0.24770632  0.99695836
   0.50687824  0.25541246  0.25265033
   0.74539675  0.98953905  0.26854044
   0.75593996  0.25550441  0.99503626
   0.24869661  0.75042768  0.99980932
   0.25404730  0.24811031  0.49981823
   0.24679250  0.75066588  0.49978715
   0.25057951  0.24965232  0.24840839
   0.26019051  0.00025691  0.99362081
   0.00261578  0.24895722  0.00115074
   0.75159804  0.24618509  0.25412529
   0.74802276  0.99803146  0.00967022
   0.50597154  0.99957689  0.24815808
   0.99244646  0.48225698  0.24300504
   0.50406753  0.76012919  0.00718577
   0.98934317  0.00189909  0.73988345
   0.75503774  0.24495071  0.75065348
   0.73698238  0.00318965  0.50853888
   0.50396814  0.23325467  0.49595090
   0.50147026  0.00053132  0.73640113
   0.99766932  0.00017400  0.25472979
   0.50451202  0.24725899  0.00104841
   0.25187791  0.74917435  0.24910013
   0.24473111  0.50068922 -0.00241222
   0.00025473  0.74433504  0.00421718
   0.75453493  0.74430328  0.25453854
   0.75639741  0.50154169  0.00241692
   0.50137864  0.50268988  0.25445271
   0.25120161  0.25124419  0.74861983
   0.25188379  0.99801967  0.50235836
   0.00006827  0.24512549  0.50099157
   0.24417470  0.75368314  0.75025808
   0.25527775  0.50072563  0.49858049
   0.99441503  0.75806011  0.49889535
   0.99356334  0.50060094  0.75059018
   0.74744343  0.75485363  0.74943508
   0.74521782  0.49901052  0.50176587
   0.50213646  0.75524170  0.49810908
   0.50276615  0.50187036  0.74351636
   0.51675595  0.01567119  0.97902844
  -0.00040210  0.51165794  0.98466089
   0.50271638  0.74007011  0.25786857
   0.23849027  0.01163142  0.74744285
   0.47850353  0.98242333  0.49734959
   0.74054915  0.97668516  0.76578126
   0.00258414  0.76952373  0.25537473
   0.74150948  0.50713636  0.25908932
   0.01825344  0.00022994  0.50009151
   0.49741708  0.52222115  0.49954442
   0.74125379  0.51963196  0.74360941
   0.75319174  0.74039836  0.49529751
HECN                                    
           1
     8.538243    0.010474   -0.002943
     0.016117    8.651691    0.003369
     0.027721   -0.011677    8.550700
   V    Nb   Ti   N    C    Cr   Ta
   7   6   7  13  19   6   6
Direct configuration=     4
   0.99677932  0.99149067 -0.00003688
   0.25473601  0.99614306  0.24918925
   0.25005038  0.50307260  0.24906255
   0.50405779  0.49507849  0.99848169
   0.50269278  0.24483654  0.74946399
   0.99434219  0.50247664  0.49955667
   0.49873275  0.75725365  0.74773443
   0.99637070  0.23758655  0.26075571
   0.75475907  0.74374043  0.01000166
   0.00266109  0.25464563  0.74056516
   0.75114786  0.25942289  0.50577209
  -0.00157406  0.74679504  0.74696975
   0.25637257  0.49534420  0.74701536
   0.24853042  0.24767618  0.99697497
   0.50681477  0.25535315  0.25260183
   0.74524765  0.98961251  0.26849081
   0.75588521  0.25548158  0.99499760
   0.24874370  0.75045769  0.99981236
   0.25410549  0.24810485  0.49980380
   0.24688947  0.75067324  0.49978494
   0.25061277  0.24966195  0.24841534
   0.26013438  0.00027539  0.99364962
   0.00260747  0.24890093  0.00114427
   0.75153039  0.24618605  0.25409047
   0.74803802  0.99805575  0.00956749
   0.50591998  0.99956853  0.24822047
   0.99253078  0.48231702  0.24309226
   0.50401845  0.76007760  0.00712615
   0.98935969  0.00189357  0.74000559
   0.75493197  0.24497608  0.75072692
   0.73701149  0.00314660  0.50844756
   0.50389477  0.23328147  0.49597269
   0.50153087  0.00052754  0.73647468
   0.99768928  0.00028190  0.25454302
   0.50452203  0.24728226  0.00097969
   0.25190157  0.74915645  0.24909975
   0.24479486  0.50068706 -0.00230384
   0.00033713  0.74438722  0.00420047
   0.75445517  0.74454055  0.25440128
   0.75631031  0.50147098  0.00239668
   0.50113210  0.50266293  0.25426289
   0.25129802  0.25116015  0.74862353
   0.25220927  0.99800880  0.50233591
   0.00015669  0.24524923  0.50097891
   0.24428008  0.75369474  0.75026159
   0.25514028  0.50073092  0.49846189
   0.99460934  0.75787973  0.49895852
   0.99363008  0.50060253  0.75055572
   0.74731464  0.75511629  0.74951659
   0.74543134  0.49887972  0.50181416
   0.50197712  0.75549083  0.49814835
   0.50266804  0.50185690  0.74370845
   0.51679348  0.01576296  0.97895311
  -0.00035085  0.51174072  0.98459662
   0.50266912  0.74010549  0.25781683
   0.23852046  0.01166687  0.74750241
   0.47845646  0.98239466  0.49735699
   0.74045131  0.97659700  0.76583683
   0.00275740  0.76925044  0.25512848
   0.74177341  0.50680456  0.25875907
   0.01801797  0.00033596  0.50028878
   0.49706859  0.52195422  0.49956030
   0.74136484  0.51925154  0.74384864
   0.75315464  0.74088206  0.49547731
HECN                                    
           1
     8.571988    0.015348   -0.005018
     0.021185    8.597250    0.002687
     0.025767   -0.012280    8.607795
   V    Nb   Ti   N    C    Cr   Ta
   7   6   7  13  19   6   6
Direct configuration=     5
   0.99837352  0.99128370  0.00080456
   0.25654539  0.99478569  0.24876367
   0.25561951  0.50586659  0.24679635
   0.49995290  0.48946763  0.99976948
   0.49696749  0.24125074  0.75583402
   0.99792705  0.49680922  0.50393931
   0.49588998  0.76265724  0.74766519
   0.00292995  0.24167000  0.25095796
   0.74707655  0.75197167  0.00493604
   0.00520252  0.25154226  0.74797209
   0.74770783  0.25241446  0.50608376
   0.00418050  0.75208147  0.75371875
   0.25229030  0.49753690  0.75223778
   0.25117601  0.24540043  0.99882531
   0.50091494  0.25198425  0.24825137
   0.73913135  0.99496690  0.26184299
   0.75215796  0.25224458  0.99431724
   0.25413486  0.75290487  0.99989121
   0.25696144  0.24789877  0.49808494
   0.25157386  0.75173906  0.49955601
   0.25410962  0.24999301  0.24848247
   0.25752240  0.00107437  0.99574134
   0.00235206  0.24655056  0.00111347
   0.74606362  0.24537666  0.24947342
   0.74960568  0.00133762  0.00411045
   0.50159033  0.99870214  0.25006960
   0.99896469  0.49014286  0.24664891
   0.49905047  0.75787134  0.00376414
   0.98942848  0.00184205  0.75086872
   0.74739882  0.24641601  0.75636342
   0.73983297 -0.00015729  0.50666026
   0.49805677  0.23625193  0.49801303
   0.50387602  0.00120351  0.74104853
   0.99954429  0.00204435  0.24379181
   0.50402397  0.24950558 -0.00272311
   0.25705351  0.74799578  0.24876843
   0.24821222  0.50032878  0.00528043
   0.00634046  0.74751358  0.00219761
   0.74806655  0.75429573  0.25021314
   0.75224376  0.49534585  0.00131457
   0.48859385  0.50111786  0.24263407
   0.25870567  0.24523339  0.74922829
   0.26440339  0.99801375  0.50147299
   0.00621636  0.25442991  0.50018273
   0.25302570  0.75641118  0.75068985
   0.24349430  0.50026659  0.49117510
   0.00588478  0.74676569  0.50132542
   0.99856884  0.50051158  0.74848189
   0.74028756  0.76277771  0.75421239
   0.75352756  0.49839093  0.50180130
   0.49234833  0.76528176  0.50032936
   0.49753439  0.50035123  0.75537921
   0.51667262  0.01925818  0.97533357
   0.00313770  0.51483607  0.98219094
   0.49933660  0.74251176  0.25412754
   0.24094025  0.01182003  0.75145342
   0.47847521  0.98275591  0.49622094
   0.73419779  0.97692820  0.76972068
   0.00996814  0.75449435  0.24431588
   0.75169141  0.49367851  0.24518851
   0.00796340  0.00412503  0.50545110
   0.48923681  0.50832285  0.49758681
   0.74758005  0.50339709  0.75732086
   0.74815905  0.75820937  0.50272862
HECN                                    
           1
     8.567802    0.014743   -0.004760
     0.020557    8.604004    0.002771
     0.026010   -0.012205    8.600713
   V    Nb   Ti   N    C    Cr   Ta
   7   6   7  13  19   6   6
Direct configuration=     6
   0.99817650  0.99130964  0.00070083
   0.25632174  0.99495526  0.24881607
   0.25493168  0.50551822  0.24707540
   0.50045963  0.49016775  0.99961097
   0.49767443  0.24169791  0.75504929
   0.99748356  0.49751691  0.50339921
   0.49624163  0.76198250  0.74767375
   0.00212012  0.24116078  0.25216504
   0.74802656  0.75094365  0.00556039
   0.00488805  0.25192978  0.74705934
   0.74813233  0.25328909  0.50604552
   0.00346967  0.75142191  0.75288690
   0.25279470  0.49726286  0.75159436
   0.25084890  0.24568469  0.99859725
   0.50164379  0.25240441  0.24878765
   0.73988767  0.99429813  0.26266228
   0.75261827  0.25264840  0.99440122
   0.25346893  0.75259976  0.99988131
   0.25660860  0.24792470  0.49829666
   0.25099515  0.75160634  0.49958407
   0.25367758  0.24995193  0.24847409
   0.25784512  0.00097443  0.99548366
   0.00238344  0.24684394  0.00111730
   0.74673916  0.24547736  0.25004252
   0.74941240  0.00092809  0.00478280
   0.50212517  0.99880998  0.24984188
   0.99817021  0.48916637  0.24621038
   0.49966424  0.75814643  0.00417858
   0.98941965  0.00184840  0.74953013
   0.74832953  0.24623570  0.75566909
   0.73948416  0.00025535  0.50688044
   0.49877826  0.23588071  0.49776176
   0.50358617  0.00111926  0.74048485
   0.99931555  0.00182455  0.24511654
   0.50408579  0.24922803 -0.00226684
   0.25641687  0.74814103  0.24880912
   0.24778972  0.50037368  0.00434578
   0.00559900  0.74712374  0.00244420
   0.74885678  0.75307756  0.25072931
   0.75274578  0.49611019  0.00144809
   0.49014329  0.50130995  0.24406740
   0.25778993  0.24597375  0.74915361
   0.26289674  0.99801398  0.50157896
   0.00546835  0.25328430  0.50028057
   0.25194531  0.75607269  0.75063679
   0.24493344  0.50032380  0.49207335
   0.00449070  0.74815383  0.50103353
   0.99795868  0.50052329  0.74873729
   0.74115624  0.76182081  0.75363390
   0.75252717  0.49845251  0.50180265
   0.49353871  0.76405886  0.50006080
   0.49816822  0.50053874  0.75394127
   0.51668793  0.01882188  0.97577955
   0.00270697  0.51444993  0.98248724
   0.49974865  0.74221118  0.25458222
   0.24064116  0.01180105  0.75096649
   0.47847295  0.98271083  0.49636092
   0.73497036  0.97688639  0.76924229
   0.00907642  0.75633695  0.24564817
   0.75046540  0.49531784  0.24686055
   0.00920584  0.00365130  0.50481524
   0.49020352  0.51002394  0.49783035
   0.74681051  0.50537655  0.75566074
   0.74877738  0.75604597  0.50183507
HECN                                    
           1
     8.625582    0.003640   -0.001159
     0.009453    8.657222    0.000109
     0.029863   -0.015009    8.676089
   V    Nb   Ti   N    C    Cr   Ta
   7   6   7  13  19   6   6
Direct configuration=     7
   0.00113253  0.99075409  0.00103686
   0.25745739  0.99384897  0.24908077
   0.25904312  0.50742518  0.24451457
   0.49676061  0.48621072  0.00124998
   0.49356830  0.23972627  0.75881657
   0.00094549  0.49428977  0.50772447
   0.49484346  0.76379245  0.74734858
   0.00444251  0.24241843  0.25048536
   0.74489528  0.75212947  0.00318571
   0.00761369  0.24959207  0.74901905
   0.74983809  0.25094072  0.50530532
   0.00385759  0.75256542  0.75502375
   0.25043901  0.49720291  0.75401919
   0.25273582  0.24401205  0.99946688
   0.49773499  0.25054029  0.24545840
   0.73854289  0.99829684  0.25643264
   0.75055545  0.24865166  0.99591334
   0.25844849  0.75455672  0.99989926
   0.25487826  0.24776569  0.49784678
   0.25078537  0.75197414  0.49943147
   0.25541354  0.24910326  0.24828647
   0.25684583  0.00144624  0.99714917
   0.00259699  0.24611716  0.00103401
   0.74526153  0.24426120  0.24794924
   0.74970306  0.00352042  0.00150409
   0.49945549  0.99836100  0.25023074
   0.00067895  0.49563304  0.24741760
   0.49765709  0.75761346  0.00233285
   0.99004366  0.00229551  0.75380147
   0.74647644  0.24718442  0.75636624
   0.74310279  0.00039839  0.50727714
   0.49703808  0.24096126  0.49839988
   0.50416880  0.00293523  0.74335268
   0.00084286 -0.00317688  0.24412978
   0.50239328  0.24986085 -0.00334416
   0.25965635  0.74876307  0.24850639
   0.24815474  0.50003303  0.00643033
   0.00618460  0.74877028  0.00047343
   0.74737657  0.75216012  0.25323457
   0.75220493  0.49538552  0.00149629
   0.49234075  0.50124434  0.24260402
   0.25954902  0.24451563  0.74974075
   0.25733511  0.99913683  0.50245824
   0.00685751  0.25580405  0.49966924
   0.25566261  0.75848042  0.75100780
   0.24144843  0.49980529  0.49178610
   0.00427755  0.74586885  0.49985088
   0.99946787  0.50107249  0.74876288
   0.74124466  0.75546619  0.75389843
   0.75155051  0.50207494  0.50111742
   0.49316176  0.75831827  0.49986583
   0.49950600  0.50005704  0.75518707
   0.51597643  0.01990671  0.97415938
   0.00453125  0.51724681  0.98083490
   0.49664829  0.74210012  0.25475950
   0.24139464  0.00928758  0.75242001
   0.48103899  0.98574485  0.49397455
   0.72974287  0.98199564  0.77272464
   0.00735263  0.75442189  0.24772993
   0.74633890  0.49730224  0.24706099
   0.01194698  0.00388158  0.50114985
   0.49504680  0.50890142  0.49607564
   0.74578313  0.50640448  0.75517397
   0.74802378  0.75264166  0.50070094
HECN                                    
           1
     8.624081    0.003928   -0.001253
     0.009741    8.655840    0.000178
     0.029763   -0.014936    8.674132
   V    Nb   Ti   N    C    Cr   Ta
   7   6   7  13  19   6   6
Direct configuration=     8
   0.00105629  0.99076833  0.00102824
   0.25742814  0.99387749  0.24907398
   0.25893697  0.50737584  0.24458053
   0.49685618  0.48631297  0.00120777
   0.49367434  0.23977727  0.75871955
   0.00085633  0.49437292  0.50761317
   0.49487946  0.76374578  0.74735692
   0.00438254  0.24238590  0.25052862
   0.74497600  0.75209898  0.00324681
   0.00754348  0.24965231  0.74896864
   0.74979416  0.25100129  0.50532442
   0.00384757  0.75253587  0.75496873
   0.25049981  0.49720451  0.75395674
   0.25268721  0.24405516  0.99944453
   0.49783585  0.25058856  0.24554409
   0.73857738  0.99819372  0.25659298
   0.75060881  0.24875488  0.99587442
   0.25831996  0.75450604  0.99989884
   0.25492290  0.24776986  0.49785834
   0.25079077  0.75196466  0.49943539
   0.25536878  0.24912511  0.24829132
   0.25687161  0.00143408  0.99710628
   0.00259151  0.24613592  0.00103616
   0.74529967  0.24429265  0.24800313
   0.74969544  0.00345352  0.00158849
   0.49952438  0.99837267  0.25022071
   0.00061402  0.49546603  0.24738650
   0.49770887  0.75762729  0.00238035
   0.99002759  0.00228392  0.75369151
   0.74652422  0.24715998  0.75634826
   0.74300943  0.00039457  0.50726696
   0.49708281  0.24083017  0.49838339
   0.50415374  0.00288831  0.74327884
   0.00080362 -0.00304783  0.24415524
   0.50243691  0.24984458 -0.00331645
   0.25957275  0.74874690  0.24851422
   0.24814536  0.50004179  0.00637667
   0.00616942  0.74872778  0.00052416
   0.74741481  0.75218383  0.25317006
   0.75221891  0.49540424  0.00149505
   0.49228405  0.50124598  0.24264172
   0.25950370  0.24455320  0.74972566
   0.25747856  0.99910803  0.50243553
   0.00682158  0.25573897  0.49968497
   0.25556663  0.75841814  0.75099827
   0.24153835  0.49981879  0.49179346
   0.00428311  0.74592785  0.49988134
   0.99942892  0.50105827  0.74876224
   0.74124259  0.75563021  0.75389167
   0.75157557  0.50198147  0.50113502
   0.49317167  0.75846646  0.49987089
   0.49947152  0.50006942  0.75515502
   0.51599473  0.01987875  0.97420108
   0.00448408  0.51717457  0.98087744
   0.49672828  0.74210309  0.25475490
   0.24137531  0.00935242  0.75238262
   0.48097266  0.98566647  0.49403600
   0.72987759  0.98186391  0.77263488
   0.00739718  0.75447136  0.24767633
   0.74644529  0.49725115  0.24705577
   0.01187622  0.00387558  0.50124425
   0.49492188  0.50893025  0.49612087
   0.74580959  0.50637799  0.75518648
   0.74804333  0.75272957  0.50073015
HECN                                    
           1
     8.558801   -0.001350    0.000989
     0.004401    8.588732    0.001041
     0.031791   -0.013975    8.609999
   V    Nb   Ti   N    C    Cr   Ta
   7   6   7  13  19   6   6
Direct configuration=     9
   0.00544908  0.98911047  0.00187481
   0.25846935  0.99198546  0.25022058
   0.26384497  0.50976217  0.24216501
   0.49367534  0.48246529  0.00268486
   0.48912503  0.23821657  0.76194715
   0.00284967  0.49234753  0.51244302
   0.49509977  0.76536454  0.74630579
   0.00566619  0.24292193  0.24967435
   0.74214833  0.75308689  0.00207118
   0.00957658  0.24737800  0.74955405
   0.75204294  0.25060060  0.50416578
   0.00414549  0.75409263  0.75456475
   0.25081337  0.49761889  0.75555435
   0.25381436  0.24224574  0.99997438
   0.49427830  0.24862036  0.24295695
   0.73794530  0.00084491  0.25104081
   0.74875457  0.24587371  0.99721531
   0.26232525  0.75665328  0.00019202
   0.25330590  0.24833820  0.49776669
   0.25079732  0.75192275  0.49949728
   0.25623896  0.24819018  0.24808185
   0.25603999  0.00166192  0.99910819
   0.00278685  0.24542755  0.00108651
   0.74468321  0.24391498  0.24665611
   0.74964108  0.00505322 -0.00082774
   0.49733509  0.99799759  0.25084674
   0.00161276  0.49994624  0.24824782
   0.49700760  0.75747202  0.00039467
   0.99152835  0.00245732  0.75541308
   0.74578850  0.24716530  0.75563925
   0.74622187  0.00042994  0.50669437
   0.49675311  0.24565917  0.49862405
   0.50403432  0.00491384  0.74549836
   0.00195030 -0.00444903  0.24478082
   0.50066197  0.24962830 -0.00385165
   0.26038109  0.74973689  0.24841287
   0.24781938  0.49995948  0.00721883
   0.00606718  0.75016495  0.00077425
   0.74635571  0.75132026  0.25377496
   0.75212104  0.49573459  0.00142934
   0.49553006  0.50113956  0.24263959
   0.25983189  0.24390665  0.75041196
   0.25486021  0.99957544  0.50304010
   0.00716363  0.25546338  0.49950049
   0.25751822  0.76032947  0.75133414
   0.24196169  0.49946558  0.49266150
   0.00288251  0.74560622  0.49922480
   0.99948263  0.50114497  0.74953753
   0.74181460  0.75349906  0.75307701
   0.75093801  0.50289422  0.50066951
   0.49392290  0.75465654  0.49957535
   0.49989693  0.49956876  0.75470577
   0.51513867  0.02115239  0.97323973
   0.00661861  0.52081111  0.97892163
   0.49442756  0.74176364  0.25649490
   0.24131083  0.00641418  0.75373463
   0.48158518  0.98742859  0.49084247
   0.72495239  0.98254191  0.77607735
   0.00635230  0.75246465  0.24870878
   0.74240032  0.49873179  0.24795792
   0.01331651  0.00444286  0.49798019
   0.49598361  0.50738030  0.49532056
   0.74497451  0.50664440  0.75403912
   0.74798110  0.75113944  0.50043328
HECN                                    
           1
     8.578598    0.000251    0.000309
     0.006020    8.609083    0.000780
     0.031176   -0.014266    8.629448
   V    Nb   Ti   N    C    Cr   Ta
   7   6   7  13  19   6   6
Direct configuration=    10
   0.00410715  0.98961636  0.00161647
   0.25815163  0.99256356  0.24987030
   0.26234458  0.50903185  0.24290345
   0.49464816  0.48364189  0.00223322
   0.49051572  0.23869451  0.76096065
   0.00224133  0.49296632  0.51096751
   0.49503206  0.76486973  0.74662700
   0.00527377  0.24275784  0.24993546
   0.74301211  0.75278545  0.00243016
   0.00895580  0.24807273  0.74937529
   0.75135576  0.25072260  0.50451993
   0.00405413  0.75361677  0.75468824
   0.25071761  0.49749223  0.75506629
   0.25347032  0.24279855  0.99981253
   0.49536555  0.24922248  0.24374703
   0.73813750  0.00003458  0.25273713
   0.74932182  0.24675466  0.99680541
   0.26110097  0.75599628  0.00010283
   0.25379990  0.24816480  0.49779458
   0.25079533  0.75193556  0.49947837
   0.25597321  0.24847576  0.24814589
   0.25629423  0.00159250  0.99849651
   0.00272730  0.24564401  0.00107112
   0.74487155  0.24403048  0.24706759
   0.74965719  0.00456425 -0.00008950
   0.49800420  0.99811265  0.25065529
   0.00130680  0.49857680  0.24798489
   0.49722176  0.75751955  0.00100127
   0.99106986  0.00240410  0.75488723
   0.74601326  0.24716379  0.75585581
   0.74524019  0.00041851  0.50686956
   0.49685297  0.24418337  0.49855065
   0.50407061  0.00429487  0.74482031
   0.00160022 -0.00402098  0.24458974
   0.50120434  0.24969472 -0.00368829
   0.26013389  0.74943417  0.24844393
   0.24791907  0.49998472  0.00696150
   0.00609817  0.74972574  0.00069788
   0.74667955  0.75158441  0.25359004
   0.75215088  0.49563364  0.00144942
   0.49453819  0.50117148  0.24264049
   0.25973178  0.24410422  0.75020229
   0.25566027  0.99943309  0.50285520
   0.00705915  0.25554754  0.49955687
   0.25692154  0.75974496  0.75123174
   0.24183247  0.49957348  0.49239632
   0.00331050  0.74570476  0.49942526
   0.99946627  0.50111848  0.74930067
   0.74164014  0.75415027  0.75332589
   0.75113262  0.50261536  0.50081171
   0.49369404  0.75582081  0.49966559
   0.49976699  0.49972168  0.75484304
   0.51539994  0.02076326  0.97353341
   0.00596552  0.51969923  0.97951944
   0.49513079  0.74186787  0.25596311
   0.24133120  0.00731224  0.75332147
   0.48139742  0.98688983  0.49181825
   0.72645754  0.98233572  0.77502525
   0.00667205  0.75307818  0.24839321
   0.74363614  0.49828005  0.24768202
   0.01287603  0.00426911  0.49897755
   0.49565940  0.50785379  0.49556510
   0.74522955  0.50656310  0.75438960
   0.74800039  0.75162543  0.50052392
HECN                                    
           1
     8.590721    0.001457   -0.000839
     0.007239    8.613429    0.001869
     0.030064   -0.013176    8.628349
   V    Nb   Ti   N    C    Cr   Ta
   7   6   7  13  19   6   6
Direct configuration=    11
   0.00816914  0.98807940  0.00242993
   0.25842936  0.99103733  0.25138125
   0.26504912  0.51060175  0.24200480
   0.49371751  0.48202774  0.00252440
   0.48779974  0.23857413  0.76161208
   0.00245288  0.49297797  0.51367553
   0.49671824  0.76544171  0.74538690
   0.00547057  0.24375932  0.24936154
   0.74133071  0.75317017  0.00226383
   0.00919406  0.24668624  0.74943422
   0.75273796  0.25108347  0.50360270
   0.00413701  0.75511940  0.75308372
   0.25226568  0.49860179  0.75538890
   0.25304330  0.24181405  0.00005299
   0.49373854  0.24778472  0.24313841
   0.73852741  0.00055032  0.24976699
   0.74864369  0.24639774  0.99733991
   0.26240605  0.75731266  0.00040340
   0.25322532  0.24918117  0.49789146
   0.25102727  0.75150520  0.49968844
   0.25580393  0.24808793  0.24809466
   0.25599072  0.00131654  0.00016316
   0.00268398  0.24524881  0.00113647
   0.74481638  0.24429394  0.24648447
   0.74971764  0.00479085 -0.00034650
   0.49705866  0.99765972  0.25095428
   0.00150021  0.49956762  0.24813412
   0.49763930  0.75768706 -0.00031550
   0.99245052  0.00211998  0.75475628
   0.74599610  0.24612051  0.75465234
   0.74642474  0.00051302  0.50593228
   0.49736308  0.24622781  0.49854373
   0.50286318  0.00572474  0.74504333
   0.00186651 -0.00232708  0.24512255
   0.50017915  0.24900994 -0.00334096
   0.25929809  0.75003209  0.24868158
   0.24742280  0.50019678  0.00695230
   0.00602862  0.75046584  0.00157797
   0.74586373  0.75196778  0.25228739
   0.75228293  0.49625721  0.00118223
   0.49567233  0.50090025  0.24278737
   0.25900019  0.24401637  0.75061703
   0.25747915  0.99926412  0.50305065
   0.00693537  0.25427689  0.49970567
   0.25710324  0.76066803  0.75127147
   0.24369872  0.49953526  0.49325618
   0.00265291  0.74608968  0.49969889
   0.99894155  0.50081004  0.75022793
   0.74200698  0.75613722  0.75243494
   0.75171672  0.50116553  0.50082981
   0.49412271  0.75616244  0.49950919
   0.49908640  0.49939030  0.75425057
   0.51412424  0.02097753  0.97454921
   0.00718511  0.52214659  0.97907545
   0.49471727  0.74216916  0.25822693
   0.24073319  0.00497043  0.75418383
   0.48114682  0.98750201  0.48915028
   0.72459897  0.98056072  0.77597916
   0.00657622  0.75092909  0.24832586
   0.74292107  0.49781844  0.24776473
   0.01126000  0.00451230  0.49773868
   0.49358754  0.50531935  0.49612200
   0.74502261  0.50493690  0.75407857
   0.74837722  0.75307369  0.50103813
HECN                                    
           1
     8.598335    0.002215   -0.001559
     0.008005    8.616158    0.002554
     0.029365   -0.012491    8.627659
   V    Nb   Ti   N    C    Cr   Ta
   7   6   7  13  19   6   6
Direct configuration=    12
   0.01071663  0.98711426  0.00294130
   0.25860379  0.99007922  0.25233037
   0.26674494  0.51158697  0.24144049