   2   2   0   0
  0.1585226E+02  0.3165000E-09  0.3165000E-09  0.3165000E-09  0.5000000E-15
  1.000000000000000E-004
  CAR 
 HECN                                    
     37.25581993    -34.87517068  301      6.86232945      1.00000000
    -34.875  0.0000E+00  0.0000E+00
    -34.635  0.0000E+00  0.0000E+00
    -34.394  0.0000E+00  0.0000E+00
    -34.154  0.0000E+00  0.0000E+00
    -33.913  0.0000E+00  0.0000E+00
    -33.673  0.0000E+00  0.0000E+00
    -33.433  0.0000E+00  0.0000E+00
    -33.192  0.0000E+00  0.0000E+00
    -32.952  0.0000E+00  0.0000E+00
    -32.711  0.0000E+00  0.0000E+00
    -32.471  0.0000E+00  0.0000E+00
    -32.230  0.0000E+00  0.0000E+00
    -31.990  0.4871E-09  0.1171E-09
    -31.749  0.5635E-03  0.1355E-03
    -31.509  0.3863E-01  0.9424E-02
    -31.269  0.1136E+00  0.3675E-01
    -31.028  0.6646E-01  0.5272E-01
    -30.788  0.8838E-01  0.7397E-01
    -30.547  0.1499E+00  0.1100E+00
    -30.307  0.4124E-01  0.1199E+00
    -30.066  0.2736E-03  0.1200E+00
    -29.826  0.7618E-10  0.1200E+00
    -29.586  0.0000E+00  0.1200E+00
    -29.345  0.0000E+00  0.1200E+00
    -29.105  0.0000E+00  0.1200E+00
    -28.864  0.0000E+00  0.1200E+00
    -28.624  0.0000E+00  0.1200E+00
    -28.383  0.0000E+00  0.1200E+00
    -28.143  0.0000E+00  0.1200E+00
    -27.903  0.0000E+00  0.1200E+00
    -27.662  0.0000E+00  0.1200E+00
    -27.422  0.0000E+00  0.1200E+00
    -27.181  0.0000E+00  0.1200E+00
    -26.941  0.0000E+00  0.1200E+00
    -26.700  0.0000E+00  0.1200E+00
    -26.460  0.0000E+00  0.1200E+00
    -26.219  0.0000E+00  0.1200E+00
    -25.979  0.0000E+00  0.1200E+00
    -25.739  0.0000E+00  0.1200E+00
    -25.498  0.0000E+00  0.1200E+00
    -25.258  0.0000E+00  0.1200E+00
    -25.017  0.0000E+00  0.1200E+00
    -24.777  0.0000E+00  0.1200E+00
    -24.536  0.0000E+00  0.1200E+00
    -24.296  0.0000E+00  0.1200E+00
    -24.056  0.0000E+00  0.1200E+00
    -23.815  0.0000E+00  0.1200E+00
    -23.575  0.0000E+00  0.1200E+00
    -23.334  0.0000E+00  0.1200E+00
    -23.094  0.0000E+00  0.1200E+00
    -22.853  0.0000E+00  0.1200E+00
    -22.613  0.0000E+00  0.1200E+00
    -22.372  0.0000E+00  0.1200E+00
    -22.132  0.0000E+00  0.1200E+00
    -21.892  0.0000E+00  0.1200E+00
    -21.651  0.0000E+00  0.1200E+00
    -21.411  0.0000E+00  0.1200E+00
    -21.170  0.0000E+00  0.1200E+00
    -20.930  0.0000E+00  0.1200E+00
    -20.689  0.0000E+00  0.1200E+00
    -20.449  0.0000E+00  0.1200E+00
    -20.209  0.0000E+00  0.1200E+00
    -19.968  0.0000E+00  0.1200E+00
    -19.728  0.0000E+00  0.1200E+00
    -19.487  0.0000E+00  0.1200E+00
    -19.247  0.0000E+00  0.1200E+00
    -19.006  0.0000E+00  0.1200E+00
    -18.766  0.0000E+00  0.1200E+00
    -18.525  0.0000E+00  0.1200E+00
    -18.285  0.0000E+00  0.1200E+00
    -18.045  0.0000E+00  0.1200E+00
    -17.804  0.0000E+00  0.1200E+00
    -17.564  0.0000E+00  0.1200E+00
    -17.323  0.0000E+00  0.1200E+00
    -17.083  0.0000E+00  0.1200E+00
    -16.842  0.0000E+00  0.1200E+00
    -16.602  0.0000E+00  0.1200E+00
    -16.362  0.0000E+00  0.1200E+00
    -16.121  0.0000E+00  0.1200E+00
    -15.881  0.0000E+00  0.1200E+00
    -15.640  0.0000E+00  0.1200E+00
    -15.400  0.0000E+00  0.1200E+00
    -15.159  0.0000E+00  0.1200E+00
    -14.919  0.0000E+00  0.1200E+00
    -14.678  0.0000E+00  0.1200E+00
    -14.438  0.0000E+00  0.1200E+00
    -14.198  0.0000E+00  0.1200E+00
    -13.957  0.0000E+00  0.1200E+00
    -13.717  0.0000E+00  0.1200E+00
    -13.476  0.0000E+00  0.1200E+00
    -13.236  0.0000E+00  0.1200E+00
    -12.995  0.0000E+00  0.1200E+00
    -12.755  0.0000E+00  0.1200E+00
    -12.515  0.0000E+00  0.1200E+00
    -12.274  0.0000E+00  0.1200E+00
    -12.034  0.0000E+00  0.1200E+00
    -11.793  0.0000E+00  0.1200E+00
    -11.553  0.0000E+00  0.1200E+00
    -11.312  0.0000E+00  0.1200E+00
    -11.072  0.0000E+00  0.1200E+00
    -10.832  0.0000E+00  0.1200E+00
    -10.591  0.0000E+00  0.1200E+00
    -10.351  0.0000E+00  0.1200E+00
    -10.110  0.0000E+00  0.1200E+00
     -9.870  0.0000E+00  0.1200E+00
     -9.629  0.0000E+00  0.1200E+00
     -9.389  0.0000E+00  0.1200E+00
     -9.148  0.0000E+00  0.1200E+00
     -8.908  0.0000E+00  0.1200E+00
     -8.668  0.0000E+00  0.1200E+00
     -8.427  0.0000E+00  0.1200E+00
     -8.187  0.0000E+00  0.1200E+00
     -7.946  0.0000E+00  0.1200E+00
     -7.706  0.0000E+00  0.1200E+00
     -7.465  0.0000E+00  0.1200E+00
     -7.225  0.0000E+00  0.1200E+00
     -6.985  0.0000E+00  0.1200E+00
     -6.744  0.0000E+00  0.1200E+00
     -6.504  0.0000E+00  0.1200E+00
     -6.263  0.0000E+00  0.1200E+00
     -6.023  0.0000E+00  0.1200E+00
     -5.782  0.0000E+00  0.1200E+00
     -5.542  0.0000E+00  0.1200E+00
     -5.301  0.0000E+00  0.1200E+00
     -5.061  0.0000E+00  0.1200E+00
     -4.821  0.0000E+00  0.1200E+00
     -4.580  0.0000E+00  0.1200E+00
     -4.340  0.0000E+00  0.1200E+00
     -4.099  0.0000E+00  0.1200E+00
     -3.859  0.0000E+00  0.1200E+00
     -3.618  0.0000E+00  0.1200E+00
     -3.378  0.0000E+00  0.1200E+00
     -3.138  0.0000E+00  0.1200E+00
     -2.897  0.0000E+00  0.1200E+00
     -2.657  0.4111E-11  0.1200E+00
     -2.416  0.1657E-04  0.1200E+00
     -2.176  0.2455E-02  0.1206E+00
     -1.935  0.6091E-03  0.1207E+00
     -1.695  0.3292E-07  0.1207E+00
     -1.454  0.3078E-16  0.1207E+00
     -1.214  0.0000E+00  0.1207E+00
     -0.974  0.0000E+00  0.1207E+00
     -0.733  0.0000E+00  0.1207E+00
     -0.493  0.0000E+00  0.1207E+00
     -0.252  0.2428E-08  0.1207E+00
     -0.012  0.7435E-03  0.1209E+00
      0.229  0.1683E-01  0.1250E+00
      0.469  0.9103E-03  0.1252E+00
      0.709  0.1587E-04  0.1252E+00
      0.950  0.1946E-01  0.1299E+00
      1.190  0.1749E-01  0.1341E+00
      1.431  0.1882E-03  0.1341E+00
      1.671  0.5575E-02  0.1355E+00
      1.912  0.7536E-03  0.1356E+00
      2.152  0.3118E-01  0.1431E+00
      2.393  0.5442E-02  0.1444E+00
      2.633  0.5466E-04  0.1445E+00
      2.873  0.2022E-01  0.1493E+00
      3.114  0.5603E-01  0.1628E+00
      3.354  0.9953E-02  0.1652E+00
      3.595  0.2546E-05  0.1652E+00
      3.835  0.3119E-02  0.1659E+00
      4.076  0.4553E-01  0.1769E+00
      4.316  0.3469E-01  0.1852E+00
      4.556  0.1723E-01  0.1894E+00
      4.797  0.3490E-01  0.1978E+00
      5.037  0.2614E-01  0.2040E+00
      5.278  0.4753E-01  0.2155E+00
      5.518  0.3633E-03  0.2156E+00
      5.759  0.1416E-01  0.2190E+00
      5.999  0.3445E-01  0.2272E+00
      6.239  0.3437E-01  0.2355E+00
      6.480  0.4129E-02  0.2365E+00
      6.720  0.1448E-01  0.2400E+00
      6.961  0.9770E-04  0.2400E+00
      7.201  0.1058E-01  0.2425E+00
      7.442  0.9356E-02  0.2448E+00
      7.682  0.3366E-01  0.2529E+00
      7.923  0.1980E-02  0.2534E+00
      8.163  0.2794E-01  0.2601E+00
      8.403  0.8901E-02  0.2622E+00
      8.644  0.7504E-06  0.2622E+00
      8.884  0.3960E-05  0.2622E+00
      9.125  0.1410E-01  0.2656E+00
      9.365  0.2466E-01  0.2715E+00
      9.606  0.4368E-02  0.2726E+00
      9.846  0.3216E-01  0.2803E+00
     10.086  0.1050E+00  0.3056E+00
     10.327  0.1885E-01  0.3101E+00
     10.567  0.4440E-01  0.3208E+00
     10.808  0.9036E-02  0.3230E+00
     11.048  0.6817E-03  0.3231E+00
     11.289  0.1681E-01  0.3272E+00
     11.529  0.9892E-03  0.3274E+00
     11.770  0.4991E-08  0.3274E+00
     12.010  0.4883E-04  0.3274E+00
     12.250  0.7350E-02  0.3292E+00
     12.491  0.1843E-02  0.3296E+00
     12.731  0.5309E-03  0.3298E+00
     12.972  0.3970E-01  0.3393E+00
     13.212  0.3351E-01  0.3474E+00
     13.453  0.1924E-03  0.3474E+00
     13.693  0.7116E-09  0.3474E+00
     13.933  0.5129E-03  0.3475E+00
     14.174  0.2200E-01  0.3528E+00
     14.414  0.2130E-02  0.3533E+00
     14.655  0.2347E-07  0.3533E+00
     14.895  0.1376E-08  0.3533E+00
     15.136  0.6975E-03  0.3535E+00
     15.376  0.2361E-01  0.3592E+00
     15.617  0.9489E-02  0.3615E+00
     15.857  0.8976E-04  0.3615E+00
     16.097  0.4437E-10  0.3615E+00
     16.338  0.0000E+00  0.3615E+00
     16.578  0.0000E+00  0.3615E+00
     16.819  0.0000E+00  0.3615E+00
     17.059  0.2686E-12  0.3615E+00
     17.300  0.1482E-04  0.3615E+00
     17.540  0.1918E-01  0.3661E+00
     17.780  0.1777E-01  0.3704E+00
     18.021  0.3193E-04  0.3704E+00
     18.261  0.2603E-01  0.3766E+00
     18.502  0.2323E-01  0.3822E+00
     18.742  0.6445E-02  0.3838E+00
     18.983  0.1814E-01  0.3881E+00
     19.223  0.7121E-04  0.3881E+00
     19.464  0.8944E-11  0.3881E+00
     19.704  0.0000E+00  0.3881E+00
     19.944  0.0000E+00  0.3881E+00
     20.185  0.0000E+00  0.3881E+00
     20.425  0.3397E-09  0.3881E+00
     20.666  0.4804E-03  0.3883E+00
     20.906  0.3205E-01  0.3960E+00
     21.147  0.8128E-02  0.3979E+00
     21.387  0.3265E-01  0.4058E+00
     21.627  0.8765E-02  0.4079E+00
     21.868  0.4079E-01  0.4177E+00
     22.108  0.4013E-03  0.4178E+00
     22.349  0.2549E-01  0.4239E+00
     22.589  0.5358E-01  0.4368E+00
     22.830  0.4102E-01  0.4467E+00
     23.070  0.2393E-02  0.4472E+00
     23.310  0.1188E-02  0.4475E+00
     23.551  0.1666E-01  0.4515E+00
     23.791  0.1201E-01  0.4544E+00
     24.032  0.7834E-02  0.4563E+00
     24.272  0.3034E-05  0.4563E+00
     24.513  0.5025E-03  0.4564E+00
     24.753  0.2198E-01  0.4617E+00
     24.994  0.2179E-02  0.4622E+00
     25.234  0.1114E-01  0.4649E+00
     25.474  0.7327E-02  0.4667E+00
     25.715  0.2307E-05  0.4667E+00
     25.955  0.8743E-04  0.4667E+00
     26.196  0.2644E-01  0.4730E+00
     26.436  0.1044E-01  0.4756E+00
     26.677  0.1297E-05  0.4756E+00
     26.917  0.2295E-06  0.4756E+00
     27.157  0.4665E-02  0.4767E+00
     27.398  0.1984E-01  0.4814E+00
     27.638  0.1447E-03  0.4815E+00
     27.879  0.5850E-10  0.4815E+00
     28.119  0.1259E-03  0.4815E+00
     28.360  0.2896E-01  0.4885E+00
     28.600  0.4541E-01  0.4994E+00
     28.841  0.1777E-01  0.5037E+00
     29.081  0.4768E-02  0.5048E+00
     29.321  0.4376E-01  0.5153E+00
     29.562  0.1145E-01  0.5181E+00
     29.802  0.2635E-01  0.5244E+00
     30.043  0.6979E-03  0.5246E+00
     30.283  0.5443E-02  0.5259E+00
     30.524  0.1060E-03  0.5259E+00
     30.764  0.1071E-09  0.5259E+00
     31.004  0.1383E-08  0.5259E+00
     31.245  0.8840E-03  0.5261E+00
     31.485  0.3322E-01  0.5341E+00
     31.726  0.2869E-02  0.5348E+00
     31.966  0.3596E-05  0.5348E+00
     32.207  0.1375E-01  0.5381E+00
     32.447  0.2563E-01  0.5443E+00
     32.688  0.1523E-01  0.5479E+00
     32.928  0.3923E-02  0.5489E+00
     33.168  0.5298E-04  0.5489E+00
     33.409  0.1358E-01  0.5522E+00
     33.649  0.8604E-02  0.5542E+00
     33.890  0.2101E-01  0.5593E+00
     34.130  0.2918E-02  0.5600E+00
     34.371  0.4695E-04  0.5600E+00
     34.611  0.4059E-10  0.5600E+00
     34.851  0.0000E+00  0.5600E+00
     35.092  0.0000E+00  0.5600E+00
     35.332  0.0000E+00  0.5600E+00
     35.573  0.0000E+00  0.5600E+00
     35.813  0.0000E+00  0.5600E+00
     36.054  0.0000E+00  0.5600E+00
     36.294  0.0000E+00  0.5600E+00
     36.535  0.0000E+00  0.5600E+00
     36.775  0.0000E+00  0.5600E+00
     37.015  0.0000E+00  0.5600E+00
     37.256  0.0000E+00  0.5600E+00
