 vasp.6.4.3 19Mar24 (build Sep 18 2024 11:30:23) complex                        
  
 executed on             LinuxIFC date 2026.07.07  16:47:44
 running   28 mpi-ranks, on    1 nodes
 distrk:  each k-point on   28 cores,    1 groups
 distr:  one band on NCORE=   1 cores,   28 groups


--------------------------------------------------------------------------------------------------------


 INCAR:
   SYSTEM = HECN
   ISTART = 0
   ICHARG = 2
   PREC = Normal
   LREAL = .F.
   IBRION = 2
   ISIF = 3
   NSW = 100
   POTIM = 0.5
   EDIFFG = -0.01
   ENCUT = 400
   NELM = 60
   EDIFF = 1E-5
   LCHARG = .F.
   LWAVE = .F.
   ISMEAR = 0
   SIGMA = 0.1
   ALGO = Fast

 POTCAR:   PAW_PBE W_pv 06Sep2000                 
 -----------------------------------------------------------------------------
|                                                                             |
|           W    W    AA    RRRRR   N    N  II  N    N   GGGG   !!!           |
|           W    W   A  A   R    R  NN   N  II  NN   N  G    G  !!!           |
|           W    W  A    A  R    R  N N  N  II  N N  N  G       !!!           |
|           W WW W  AAAAAA  RRRRR   N  N N  II  N  N N  G  GGG   !            |
|           WW  WW  A    A  R   R   N   NN  II  N   NN  G    G                |
|           W    W  A    A  R    R  N    N  II  N    N   GGGG   !!!           |
|                                                                             |
|     For optimal performance we recommend to set                             |
|       NCORE = 2 up to number-of-cores-per-socket                            |
|     NCORE specifies how many cores store one orbital (NPAR=cpu/NCORE).      |
|     This setting can greatly improve the performance of VASP for DFT.       |
|     The default, NCORE=1 might be grossly inefficient on modern             |
|     multi-core architectures or massively parallel machines. Do your        |
|     own testing! More info at https://www.vasp.at/wiki/index.php/NCORE      |
|     Unfortunately you need to use the default for GW and RPA                |
|     calculations (for HF NCORE is supported but not extensively tested      |
|     yet).                                                                   |
|                                                                             |
 -----------------------------------------------------------------------------

 POTCAR:   PAW_PBE W_pv 06Sep2000                 
   VRHFIN =W : 5p6s5d                                                                               
   LEXCH  = PE                                                                                      
   EATOM  =  1260.0376 eV,   92.6101 Ry                                                             
                                                                                                    
   TITEL  = PAW_PBE W_pv 06Sep2000                                                                  
   LULTRA =        F    use ultrasoft PP ?                                                          
   IUNSCR =        1    unscreen: 0-lin 1-nonlin 2-no                                               
   RPACOR =    2.330    partial core radius                                                         
   POMASS =  183.850; ZVAL   =   12.000    mass and valenz                                          
   RCORE  =    2.500    outmost cutoff radius                                                       
   RWIGS  =    2.750; RWIGS  =    1.455    wigner-seitz radius (au A)                               
   ENMAX  =  223.065; ENMIN  =  167.299 eV                                                          
   RCLOC  =    2.147    cutoff for local pot                                                        
   LCOR   =        T    correct aug charges                                                         
   LPAW   =        T    paw PP                                                                      
   EAUG   =  373.438                                                                                
   DEXC   =    -.018                                                                                
   RMAX   =    3.087    core radius for proj-oper                                                   
   RAUG   =    1.300    factor for augmentation sphere                                              
   RDEP   =    2.539    radius for radial grids                                                     
   QCUT   =   -4.049; QGAM   =    8.098    optimization parameters                                  
                                                                                                    
   Description                                                                                      
     l     E      TYP  RCUT    TYP  RCUT                                                            
     1   .000     23  2.500                                                                         
     1  -.200     23  2.500                                                                         
     2   .000     23  2.500                                                                         
     2   .000     23  2.500                                                                         
     0   .000     23  2.500                                                                         
     0   .000     23  2.500                                                                         
     3   .000      7   .000                                                                         
  local pseudopotential read in
  partial core-charges read in
  atomic valenz-charges read in
  non local Contribution for L=           1  read in
    real space projection operators read in
  non local Contribution for L=           1  read in
    real space projection operators read in
  non local Contribution for L=           2  read in
    real space projection operators read in
  non local Contribution for L=           2  read in
    real space projection operators read in
  non local Contribution for L=           0  read in
    real space projection operators read in
  non local Contribution for L=           0  read in
    real space projection operators read in
    PAW grid and wavefunctions read in
 
   number of l-projection  operators is LMAX  =           6
   number of lm-projection operators is LMMAX =          18
 
 PAW_PBE W_pv 06Sep2000                 :
 energy of atom  1       EATOM=-1260.0376
 kinetic energy error for atom=    0.0051 (will be added to EATOM!!)
 
 
 POSCAR: W
  positions in direct lattice
  No initial velocities read in


 exchange-correlation table for PE
   RHO(1)=    0.500       N(1)  =     2000
   RHO(2)=  100.500       N(2)  =     4000
 


--------------------------------------------------------------------------------------------------------


 ion  position               nearest neighbor table
   1  0.000  0.000  0.000-   2 2.74   2 2.74   2 2.74   2 2.74   2 2.74   2 2.74   2 2.74   2 2.74

   2  0.500  0.500  0.500-   1 2.74   1 2.74   1 2.74   1 2.74   1 2.74   1 2.74   1 2.74   1 2.74

 
  LATTYP: Found a simple cubic cell.
 ALAT       =     3.1649999619
  
  Lattice vectors:
  
 A1 = (   3.1649999619,   0.0000000000,   0.0000000000)
 A2 = (   0.0000000000,   3.1649999619,   0.0000000000)
 A3 = (   0.0000000000,   0.0000000000,   3.1649999619)


Analysis of symmetry for initial positions (statically):
=====================================================================
 Subroutine PRICEL returns following result:
 
  LATTYP: Found a body centered cubic cell.
 ALAT       =     3.1649999619
  
  Lattice vectors:
  
 A1 = (   1.5824999809,   1.5824999809,  -1.5824999809)
 A2 = (  -1.5824999809,   1.5824999809,   1.5824999809)
 A3 = (   1.5824999809,  -1.5824999809,   1.5824999809)
 
   2 primitive cells build up your supercell.
 

 Routine SETGRP: Setting up the symmetry group for a 
 simple cubic supercell.


 Subroutine GETGRP returns: Found 48 space group operations
 (whereof 48 operations were pure point group operations)
 out of a pool of 48 trial point group operations.


The static configuration has the point symmetry O_h .


Analysis of symmetry for dynamics (positions and initial velocities):
=====================================================================
 Subroutine PRICEL returns following result:
 
  LATTYP: Found a body centered cubic cell.
 ALAT       =     3.1649999619
  
  Lattice vectors:
  
 A1 = (   1.5824999809,   1.5824999809,  -1.5824999809)
 A2 = (  -1.5824999809,   1.5824999809,   1.5824999809)
 A3 = (   1.5824999809,  -1.5824999809,   1.5824999809)
 
   2 primitive cells build up your supercell.
 

 Routine SETGRP: Setting up the symmetry group for a 
 simple cubic supercell.


 Subroutine GETGRP returns: Found 48 space group operations
 (whereof 48 operations were pure point group operations)
 out of a pool of 48 trial point group operations.


The dynamic configuration has the point symmetry O_h .


 Subroutine INISYM returns: Found 48 space group operations
 (whereof 48 operations are pure point group operations),
 and found     2 'primitive' translations


----------------------------------------------------------------------------------------

                                     Primitive cell                                     

  volume of cell :      15.8523

  direct lattice vectors                    reciprocal lattice vectors
     1.582499981  1.582499981 -1.582499981     0.315955770  0.315955770 -0.000000000
    -1.582499981  1.582499981  1.582499981    -0.000000000  0.315955770  0.315955770
     1.582499981 -1.582499981  1.582499981     0.315955770 -0.000000000  0.315955770

  length of vectors
     2.740970370  2.740970370  2.740970370     0.446828935  0.446828935  0.446828935

  position of ions in fractional coordinates (direct lattice)
     0.000000000  0.000000000  0.000000000

  ion indices of the primitive-cell ions
   primitive index   ion index
                 1           1

----------------------------------------------------------------------------------------

 
 
 KPOINTS: HECN                                    

Automatic generation of k-mesh.
 Grid dimensions read from file:
 generate k-points for:    3    3    3

 Generating k-lattice:

  Cartesian coordinates                     Fractional coordinates (reciprocal lattice)
     0.105318590  0.000000000  0.000000000     0.333333333  0.000000000  0.000000000
     0.000000000  0.105318590  0.000000000     0.000000000  0.333333333  0.000000000
     0.000000000  0.000000000  0.105318590     0.000000000  0.000000000  0.333333333

  Length of vectors
     0.105318590  0.105318590  0.105318590

  Shift w.r.t. Gamma in fractional coordinates (k-lattice)
     0.000000000  0.000000000  0.000000000

 
 Subroutine IBZKPT returns following result:
 ===========================================
 
 Found      4 irreducible k-points:
 
 Following reciprocal coordinates:
            Coordinates               Weight
  0.000000  0.000000  0.000000      1.000000
  0.333333  0.000000  0.000000      6.000000
  0.333333  0.333333  0.000000     12.000000
  0.333333  0.333333  0.333333      8.000000
 
 Following cartesian coordinates:
            Coordinates               Weight
  0.000000  0.000000  0.000000      1.000000
  0.105319  0.000000  0.000000      6.000000
  0.105319  0.105319  0.000000     12.000000
  0.105319  0.105319  0.105319      8.000000
 


--------------------------------------------------------------------------------------------------------




 Dimension of arrays:
   k-points           NKPTS =      4   k-points in BZ     NKDIM =      4   number of bands    NBANDS=     28
   number of dos      NEDOS =    301   number of ions     NIONS =      2
   non local maximal  LDIM  =      6   non local SUM 2l+1 LMDIM =     18
   total plane-waves  NPLWV =   4096
   max r-space proj   IRMAX =      1   max aug-charges    IRDMAX=   7573
   dimension x,y,z NGX =    16 NGY =   16 NGZ =   16
   dimension x,y,z NGXF=    32 NGYF=   32 NGZF=   32
   support grid    NGXF=    32 NGYF=   32 NGZF=   32
   ions per type =               2
   NGX,Y,Z   is equivalent  to a cutoff of   8.40,  8.40,  8.40 a.u.
   NGXF,Y,Z  is equivalent  to a cutoff of  16.81, 16.81, 16.81 a.u.

 SYSTEM =  HECN                                    
 POSCAR =  W                                       

 Startparameter for this run:
   NWRITE =      2    write-flag & timer
   PREC   = normal    normal or accurate (medium, high low for compatibility)
   ISTART =      0    job   : 0-new  1-cont  2-samecut
   ICHARG =      2    charge: 1-file 2-atom 10-const
   ISPIN  =      1    spin polarized calculation?
   LNONCOLLINEAR =      F non collinear calculations
   LSORBIT =      F    spin-orbit coupling
   INIWAV =      1    electr: 0-lowe 1-rand  2-diag
   LASPH  =      F    aspherical Exc in radial PAW
 Electronic Relaxation 1
   ENCUT  =  400.0 eV  29.40 Ry    5.42 a.u.   5.16  5.16  5.16*2*pi/ulx,y,z
   ENINI  =  400.0     initial cutoff
   ENAUG  =  373.4 eV  augmentation charge cutoff
   NELM   =     60;   NELMIN=  2; NELMDL= -5     # of ELM steps 
   EDIFF  = 0.1E-04   stopping-criterion for ELM
   LREAL  =      F    real-space projection
   NLSPLINE    = F    spline interpolate recip. space projectors
   LCOMPAT=      F    compatible to vasp.4.4
   GGA_COMPAT  = T    GGA compatible to vasp.4.4-vasp.4.6
   LMAXPAW     = -100 max onsite density
   LMAXMIX     =    2 max onsite mixed and CHGCAR
   VOSKOWN=      0    Vosko Wilk Nusair interpolation
   ROPT   =    0.00000
 Ionic relaxation
   EDIFFG = -.1E-01   stopping-criterion for IOM
   NSW    =    100    number of steps for IOM
   NBLOCK =      1;   KBLOCK =    100    inner block; outer block 
   IBRION =      2    ionic relax: 0-MD 1-quasi-New 2-CG
   NFREE  =      1    steps in history (QN), initial steepest desc. (CG)
   ISIF   =      3    stress and relaxation
   IWAVPR =     11    prediction:  0-non 1-charg 2-wave 3-comb
   ISYM   =      2    0-nonsym 1-usesym 2-fastsym
   LCORR  =      T    Harris-Foulkes like correction to forces

   POTIM  = 0.5000    time-step for ionic-motion
   TEIN   =    0.0    initial temperature
   TEBEG  =    0.0;   TEEND  =   0.0 temperature during run
   SMASS  =  -3.00    Nose mass-parameter (am)
   estimated Nose-frequenzy (Omega)   =  0.10E-29 period in steps = 0.13E+47 mass=  -0.229E-27a.u.
   SCALEE = 1.0000    scale energy and forces
   NPACO  =    256;   APACO  = 10.0  distance and # of slots for P.C.
   PSTRESS=    0.0 pullay stress

  Mass of Ions in am
   POMASS = 183.85
  Ionic Valenz
   ZVAL   =  12.00
  Atomic Wigner-Seitz radii
   RWIGS  =  -1.00
  virtual crystal weights 
   VCA    =   1.00
   NELECT =      24.0000    total number of electrons
   NUPDOWN=      -1.0000    fix difference up-down

 DOS related values:
   EMIN   =  10.00;   EMAX   =-10.00  energy-range for DOS
   EFERMI =   0.00;   METHOD = LEGACY      
   ISMEAR =     0;   SIGMA  =   0.10  broadening in eV -4-tet -1-fermi 0-gaus

 Electronic relaxation 2 (details)
   IALGO  =     68    algorithm
   LDIAG  =      T    sub-space diagonalisation (order eigenvalues)
   LSUBROT=      F    optimize rotation matrix (better conditioning)
   TURBO    =      0    0=normal 1=particle mesh
   IRESTART =      0    0=no restart 2=restart with 2 vectors
   NREBOOT  =      0    no. of reboots
   NMIN     =      0    reboot dimension
   EREF     =   0.00    reference energy to select bands
   IMIX   =      4    mixing-type and parameters
     AMIX     =   0.40;   BMIX     =  1.00
     AMIX_MAG =   1.60;   BMIX_MAG =  1.00
     AMIN     =   0.10
     WC   =   100.;   INIMIX=   1;  MIXPRE=   1;  MAXMIX= -45

 Intra band minimization:
   WEIMIN = 0.0010     energy-eigenvalue tresh-hold
   EBREAK =  0.89E-07  absolut break condition
   DEPER  =   0.30     relativ break condition  

   TIME   =   0.40     timestep for ELM

  volume/ion in A,a.u.               =      15.85       106.98
  Fermi-wavevector in a.u.,A,eV,Ry     =   1.492009  2.819489 30.287818  2.226092
  Thomas-Fermi vector in A             =   2.604592
 
 Write flags
   LWAVE        =      F    write WAVECAR
   LDOWNSAMPLE  =      F    k-point downsampling of WAVECAR
   LCHARG       =      F    write CHGCAR
   LVTOT        =      F    write LOCPOT, total local potential
   LVHAR        =      F    write LOCPOT, Hartree potential only
   WRT_POTENTIAL= false  ! write potential to hdf5 file
   LELF         =      F    write electronic localiz. function (ELF)
   LORBIT       =      0    0 simple, 1 ext, 2 COOP (PROOUT), +10 PAW based schemes


 Dipole corrections
   LMONO      =      F    monopole corrections only (constant potential shift)
   LDIPOL     =      F    correct potential (dipole corrections)
   IDIPOL     =      0    1-x, 2-y, 3-z, 4-all directions 
   EPSILON    =  1.0000000 bulk dielectric constant
   LVACPOTAV  =      F  vacuum potentials using an averaging scheme for the charge density
   VACPOTFLAT =  0.1000000 required flatness to determine vacuum potential
 Exchange correlation treatment:
   GGA     = PE    functional components
   XC_C    = 1    coefficients multiplying the functional components
   LIBXC   =     F    Libxc                    
   VOSKOWN =     0    Vosko Wilk Nusair interpolation
   LHFCALC =     F    Hartree Fock is set to
   LHFONE  =     F    Hartree Fock one center treatment
   AEXX    =    0.0000 exact exchange contribution

 Parameters of functionals:
   PE:
     No parameter
 
 Van der Waals corrections
   IVDW    =     0    specifies the selected vdW correction

 Linear response parameters
   LEPSILON=     F    determine dielectric tensor
   LRPA    =     F    only Hartree local field effects (RPA)
   LNABLA  =     F    use nabla operator in PAW spheres
   LVEL    =     F    velocity operator in full k-point grid
   CSHIFT  =0.1000    complex shift for real part using Kramers Kronig
   OMEGAMAX=  -1.0    maximum frequency
   DEG_THRESHOLD= 0.2000000E-02 threshold for treating states as degnerate
   RTIME   =   -0.100 relaxation time in fs
  (WPLASMAI=    0.000 imaginary part of plasma frequency in eV, 0.658/RTIME)
   DFIELD  = 0.0000000 0.0000000 0.0000000 field for delta impulse in time
 
  Optional k-point grid parameters
   LKPOINTS_OPT  =     F    use optional k-point grid
   KPOINTS_OPT_MODE=     1    mode for optional k-point grid
 
 Orbital magnetization related:
   ORBITALMAG=     F  switch on orbital magnetization
   LCHIMAG   =     F  perturbation theory with respect to B field
   DQ        =  0.001000  dq finite difference perturbation B field
   LLRAUG    =     F  two centre corrections for induced B field
   LBONE     =     F  B-component reconstruction in AE one-centre
   LVGVCALC  =     T  calculate vGv susceptibility
   LVGVAPPL  =     F  apply vGv susceptibility instead of pGv for G=0

 Random number generation:
   RANDOM_GENERATOR = DEFAULT
   PCG_SEED         = not used


--------------------------------------------------------------------------------------------------------


 conjugate gradient relaxation of ions
 charge density and potential will be updated during run
 non-spin polarized calculation
 RMM-DIIS sequential band-by-band and
  variant of blocked Davidson during initial phase
 perform sub-space diagonalisation
    before iterative eigenvector-optimisation
 modified Broyden-mixing scheme, WC =      100.0
 initial mixing is a Kerker type mixing with AMIX =  0.4000 and BMIX =      1.0000
 Hartree-type preconditioning will be used
 using additional bands           16
 reciprocal scheme for non local part
 use partial core corrections
 calculate Harris-corrections to forces 
   (improved forces if not selfconsistent)
 use gradient corrections 
 use of overlap-Matrix (Vanderbilt PP)
 Gauss-broadening in eV      SIGMA  =   0.10


--------------------------------------------------------------------------------------------------------


  energy-cutoff  :      400.00
  volume of cell :       31.70
      direct lattice vectors                 reciprocal lattice vectors
     3.164999962  0.000000000  0.000000000     0.315955770  0.000000000  0.000000000
     0.000000000  3.164999962  0.000000000     0.000000000  0.315955770  0.000000000
     0.000000000  0.000000000  3.164999962     0.000000000  0.000000000  0.315955770

  length of vectors
     3.164999962  3.164999962  3.164999962     0.315955770  0.315955770  0.315955770


 
 k-points in units of 2pi/SCALE and weight: HECN                                    
   0.00000000  0.00000000  0.00000000       0.037
   0.10531859  0.00000000  0.00000000       0.222
   0.10531859  0.10531859  0.00000000       0.444
   0.10531859  0.10531859  0.10531859       0.296
 
 k-points in reciprocal lattice and weights: HECN                                    
   0.00000000  0.00000000  0.00000000       0.037
   0.33333333  0.00000000  0.00000000       0.222
   0.33333333  0.33333333  0.00000000       0.444
   0.33333333  0.33333333  0.33333333       0.296
 
 position of ions in fractional coordinates (direct lattice) 
   0.00000000  0.00000000  0.00000000
   0.50000000  0.50000000  0.50000000
 
 position of ions in cartesian coordinates  (Angst):
   0.00000000  0.00000000  0.00000000
   1.58249998  1.58249998  1.58249998
 


--------------------------------------------------------------------------------------------------------


 k-point     1 :   0.0000 0.0000 0.0000  plane waves:     587
 k-point     2 :   0.3333 0.0000 0.0000  plane waves:     570
 k-point     3 :   0.3333 0.3333 0.0000  plane waves:     571
 k-point     4 :   0.3333 0.3333 0.3333  plane waves:     582

 maximum and minimum number of plane-waves per node :       587      570

 maximum number of plane-waves:       587
 maximum index in each direction: 
   IXMAX=    5   IYMAX=    5   IZMAX=    5
   IXMIN=   -5   IYMIN=   -5   IZMIN=   -5


 serial   3D FFT for wavefunctions
 parallel 3D FFT for charge:
    minimum data exchange during FFTs selected (reduces bandwidth)


 total amount of memory used by VASP MPI-rank0    30785. kBytes
=======================================================================

   base      :      30000. kBytes
   nonl-proj :        357. kBytes
   fftplans  :         86. kBytes
   grid      :        270. kBytes
   one-center:         31. kBytes
   wavefun   :         41. kBytes
 
     INWAV:  cpu time      0.0000: real time      0.0000
 Broyden mixing: mesh for mixing (old mesh)
   NGX = 11   NGY = 11   NGZ = 11
  (NGX  = 32   NGY  = 32   NGZ  = 32)
  gives a total of   1331 points

 initial charge density was supplied:
 charge density of overlapping atoms calculated
 number of electron      24.0000000 magnetization 
 keeping initial charge density in first step


--------------------------------------------------------------------------------------------------------


 Maximum index for augmentation-charges          838 (set IRDMAX)


--------------------------------------------------------------------------------------------------------


 First call to EWALD:  gamma=   0.560
 Maximum number of real-space cells 3x 3x 3
 Maximum number of reciprocal cells 3x 3x 3

    FEWALD:  cpu time      0.0031: real time      0.0031


--------------------------------------- Ionic step        1  -------------------------------------------




--------------------------------------- Iteration      1(   1)  ---------------------------------------


    POTLOK:  cpu time      0.0092: real time      0.0179
    SETDIJ:  cpu time      0.0054: real time      0.0070
     EDDAV:  cpu time      0.0375: real time      0.0439
       DOS:  cpu time      0.0008: real time      0.0030
    --------------------------------------------
      LOOP:  cpu time      0.0530: real time      0.0718

 eigenvalue-minimisations  :   224
 total energy-change (2. order) : 0.2310442E+02  (-0.1455194E+04)
 number of electron      24.0000000 magnetization 
 augmentation part       24.0000000 magnetization 

 Free energy of the ion-electron system (eV)
  ---------------------------------------------------
  alpha Z        PSCENC =       325.84561286
  Ewald energy   TEWEN  =     -2384.26637562
  -Hartree energ DENC   =      -290.51961741
  -exchange      EXHF   =         0.00000000
  -V(xc)+E(xc)   XCENC  =        71.18281612
  PAW double counting   =      1625.39653107    -1600.33598222
  entropy T*S    EENTRO =        -0.02338301
  eigenvalues    EBANDS =      -244.24021442
  atomic energy  EATOM  =      2520.06503532
  Solvation  Ediel_sol  =         0.00000000
  ---------------------------------------------------
  free energy    TOTEN  =        23.10442269 eV

  energy without entropy =       23.12780570  energy(sigma->0) =       23.11611420


--------------------------------------------------------------------------------------------------------




--------------------------------------- Iteration      1(   2)  ---------------------------------------


     EDDAV:  cpu time      0.0503: real time      0.3649
       DOS:  cpu time      0.0002: real time      0.0002
    --------------------------------------------
      LOOP:  cpu time      0.0505: real time      0.3651

 eigenvalue-minimisations  :   308
 total energy-change (2. order) :-0.5001518E+02  (-0.4984864E+02)
 number of electron      24.0000000 magnetization 
 augmentation part       24.0000000 magnetization 

 Free energy of the ion-electron system (eV)
  ---------------------------------------------------
  alpha Z        PSCENC =       325.84561286
  Ewald energy   TEWEN  =     -2384.26637562
  -Hartree energ DENC   =      -290.51961741
  -exchange      EXHF   =         0.00000000
  -V(xc)+E(xc)   XCENC  =        71.18281612
  PAW double counting   =      1625.39653107    -1600.33598222
  entropy T*S    EENTRO =        -0.00000000
  eigenvalues    EBANDS =      -294.27878083
  atomic energy  EATOM  =      2520.06503532
  Solvation  Ediel_sol  =         0.00000000
  ---------------------------------------------------
  free energy    TOTEN  =       -26.91076071 eV

  energy without entropy =      -26.91076071  energy(sigma->0) =      -26.91076071


--------------------------------------------------------------------------------------------------------




--------------------------------------- Iteration      1(   3)  ---------------------------------------


     EDDAV:  cpu time      0.0286: real time      0.0289
       DOS:  cpu time      0.0002: real time      0.0002
    --------------------------------------------
      LOOP:  cpu time      0.0287: real time      0.0291

 eigenvalue-minimisations  :   252
 total energy-change (2. order) :-0.9865002E-01  (-0.9865002E-01)
 number of electron      24.0000000 magnetization 
 augmentation part       24.0000000 magnetization 

 Free energy of the ion-electron system (eV)
  ---------------------------------------------------
  alpha Z        PSCENC =       325.84561286
  Ewald energy   TEWEN  =     -2384.26637562
  -Hartree energ DENC   =      -290.51961741
  -exchange      EXHF   =         0.00000000
  -V(xc)+E(xc)   XCENC  =        71.18281612
  PAW double counting   =      1625.39653107    -1600.33598222
  entropy T*S    EENTRO =        -0.00000000
  eigenvalues    EBANDS =      -294.37743086
  atomic energy  EATOM  =      2520.06503532
  Solvation  Ediel_sol  =         0.00000000
  ---------------------------------------------------
  free energy    TOTEN  =       -27.00941073 eV

  energy without entropy =      -27.00941073  energy(sigma->0) =      -27.00941073


--------------------------------------------------------------------------------------------------------




--------------------------------------- Iteration      1(   4)  ---------------------------------------


     EDDAV:  cpu time      0.0440: real time      0.0443
       DOS:  cpu time      0.0002: real time      0.0002
    --------------------------------------------
      LOOP:  cpu time      0.0442: real time      0.0446

 eigenvalue-minimisations  :   336
 total energy-change (2. order) :-0.3776166E-04  (-0.3776165E-04)
 number of electron      24.0000000 magnetization 
 augmentation part       24.0000000 magnetization 

 Free energy of the ion-electron system (eV)
  ---------------------------------------------------
  alpha Z        PSCENC =       325.84561286
  Ewald energy   TEWEN  =     -2384.26637562
  -Hartree energ DENC   =      -290.51961741
  -exchange      EXHF   =         0.00000000
  -V(xc)+E(xc)   XCENC  =        71.18281612
  PAW double counting   =      1625.39653107    -1600.33598222
  entropy T*S    EENTRO =        -0.00000000
  eigenvalues    EBANDS =      -294.37746862
  atomic energy  EATOM  =      2520.06503532
  Solvation  Ediel_sol  =         0.00000000
  ---------------------------------------------------
  free energy    TOTEN  =       -27.00944850 eV

  energy without entropy =      -27.00944850  energy(sigma->0) =      -27.00944850


--------------------------------------------------------------------------------------------------------




--------------------------------------- Iteration      1(   5)  ---------------------------------------


     EDDAV:  cpu time      0.0350: real time      0.0355
       DOS:  cpu time      0.0002: real time      0.0002
    CHARGE:  cpu time      0.0031: real time      0.0074
    MIXING:  cpu time      0.0017: real time      0.0058
    --------------------------------------------
      LOOP:  cpu time      0.0400: real time      0.0489

 eigenvalue-minimisations  :   280
 total energy-change (2. order) :-0.1537046E-08  (-0.1535130E-08)
 number of electron      23.9999949 magnetization 
 augmentation part        7.9410354 magnetization 

 Broyden mixing:
  rms(total) = 0.56324E+00    rms(broyden)= 0.56323E+00
  rms(prec ) = 0.17524E+01
  weight for this iteration     100.00

 Free energy of the ion-electron system (eV)
  ---------------------------------------------------
  alpha Z        PSCENC =       325.84561286
  Ewald energy   TEWEN  =     -2384.26637562
  -Hartree energ DENC   =      -290.51961741
  -exchange      EXHF   =         0.00000000
  -V(xc)+E(xc)   XCENC  =        71.18281612
  PAW double counting   =      1625.39653107    -1600.33598222
  entropy T*S    EENTRO =        -0.00000000
  eigenvalues    EBANDS =      -294.37746862
  atomic energy  EATOM  =      2520.06503532
  Solvation  Ediel_sol  =         0.00000000
  ---------------------------------------------------
  free energy    TOTEN  =       -27.00944850 eV

  energy without entropy =      -27.00944850  energy(sigma->0) =      -27.00944850


--------------------------------------------------------------------------------------------------------




--------------------------------------- Iteration      1(   6)  ---------------------------------------


    POTLOK:  cpu time      0.0019: real time      0.0021
    SETDIJ:  cpu time      0.0017: real time      0.0017
    EDDIAG:  cpu time      0.0210: real time      0.0274
  RMM-DIIS:  cpu time      0.0015: real time      0.0046
    ORTHCH:  cpu time      0.0010: real time      0.0010
       DOS:  cpu time      0.0002: real time      0.0002
    CHARGE:  cpu time      0.0012: real time      0.0012
    MIXING:  cpu time      0.0005: real time      0.0013
    --------------------------------------------
      LOOP:  cpu time      0.0290: real time      0.0395

 eigenvalue-minimisations  :   224
 total energy-change (2. order) : 0.9339814E+00  (-0.4741580E-01)
 number of electron      23.9999948 magnetization 
 augmentation part        8.0668771 magnetization 

 Broyden mixing:
  rms(total) = 0.28093E+00    rms(broyden)= 0.28093E+00
  rms(prec ) = 0.85522E+00
  weight for this iteration     100.00

 eigenvalues of (default mixing * dielectric matrix)
  average eigenvalue GAMMA=   1.9538
  1.9538

 Free energy of the ion-electron system (eV)
  ---------------------------------------------------
  alpha Z        PSCENC =       325.84561286
  Ewald energy   TEWEN  =     -2384.26637562
  -Hartree energ DENC   =      -269.65817703
  -exchange      EXHF   =         0.00000000
  -V(xc)+E(xc)   XCENC  =        70.13070062
  PAW double counting   =      1631.63195147    -1611.03555493
  entropy T*S    EENTRO =        -0.00000000
  eigenvalues    EBANDS =      -308.78865977
  atomic energy  EATOM  =      2520.06503532
  Solvation  Ediel_sol  =         0.00000000
  ---------------------------------------------------
  free energy    TOTEN  =       -26.07546709 eV

  energy without entropy =      -26.07546709  energy(sigma->0) =      -26.07546709


--------------------------------------------------------------------------------------------------------




--------------------------------------- Iteration      1(   7)  ---------------------------------------


    POTLOK:  cpu time      0.0018: real time      0.0020
    SETDIJ:  cpu time      0.0012: real time      0.0012
    EDDIAG:  cpu time      0.0079: real time      0.0079
  RMM-DIIS:  cpu time      0.0010: real time      0.0010
    ORTHCH:  cpu time      0.0011: real time      0.0013
       DOS:  cpu time      0.0002: real time      0.0002
    CHARGE:  cpu time      0.0012: real time      0.0012
    MIXING:  cpu time      0.0002: real time      0.0002
    --------------------------------------------
      LOOP:  cpu time      0.0147: real time      0.0150

 eigenvalue-minimisations  :   224
 total energy-change (2. order) : 0.2839187E+00  (-0.5059037E-01)
 number of electron      23.9999947 magnetization 
 augmentation part        8.1821762 magnetization 

 Broyden mixing:
  rms(total) = 0.41146E-01    rms(broyden)= 0.41145E-01
  rms(prec ) = 0.81422E-01
  weight for this iteration     100.00

 eigenvalues of (default mixing * dielectric matrix)
  average eigenvalue GAMMA=   2.2038
  2.1449  2.2627

 Free energy of the ion-electron system (eV)
  ---------------------------------------------------
  alpha Z        PSCENC =       325.84561286
  Ewald energy   TEWEN  =     -2384.26637562
  -Hartree energ DENC   =      -251.24619439
  -exchange      EXHF   =         0.00000000
  -V(xc)+E(xc)   XCENC  =        69.21837201
  PAW double counting   =      1659.13380840    -1643.07623381
  entropy T*S    EENTRO =        -0.00000015
  eigenvalues    EBANDS =      -321.46557303
  atomic energy  EATOM  =      2520.06503532
  Solvation  Ediel_sol  =         0.00000000
  ---------------------------------------------------
  free energy    TOTEN  =       -25.79154840 eV

  energy without entropy =      -25.79154826  energy(sigma->0) =      -25.79154833


--------------------------------------------------------------------------------------------------------




--------------------------------------- Iteration      1(   8)  ---------------------------------------


    POTLOK:  cpu time      0.0019: real time      0.0019
    SETDIJ:  cpu time      0.0012: real time      0.0012
    EDDIAG:  cpu time      0.0075: real time      0.0075
  RMM-DIIS:  cpu time      0.0009: real time      0.0009
    ORTHCH:  cpu time      0.0013: real time      0.0013
       DOS:  cpu time      0.0002: real time      0.0002
    CHARGE:  cpu time      0.0012: real time      0.0012
    MIXING:  cpu time      0.0002: real time      0.0002
    --------------------------------------------
      LOOP:  cpu time      0.0144: real time      0.0144

 eigenvalue-minimisations  :   224
 total energy-change (2. order) : 0.3726261E-02  (-0.2587000E-02)
 number of electron      23.9999948 magnetization 
 augmentation part        8.1672194 magnetization 

 Broyden mixing:
  rms(total) = 0.10293E-01    rms(broyden)= 0.10293E-01
  rms(prec ) = 0.31632E-01
  weight for this iteration     100.00

 eigenvalues of (default mixing * dielectric matrix)
  average eigenvalue GAMMA=   1.8627
  1.3255  1.6675  2.5951

 Free energy of the ion-electron system (eV)
  ---------------------------------------------------
  alpha Z        PSCENC =       325.84561286
  Ewald energy   TEWEN  =     -2384.26637562
  -Hartree energ DENC   =      -252.48716151
  -exchange      EXHF   =         0.00000000
  -V(xc)+E(xc)   XCENC  =        69.28128840
  PAW double counting   =      1694.52201614    -1679.03208307
  entropy T*S    EENTRO =        -0.00000010
  eigenvalues    EBANDS =      -319.71615456
  atomic energy  EATOM  =      2520.06503532
  Solvation  Ediel_sol  =         0.00000000
  ---------------------------------------------------
  free energy    TOTEN  =       -25.78782214 eV

  energy without entropy =      -25.78782204  energy(sigma->0) =      -25.78782209


--------------------------------------------------------------------------------------------------------




--------------------------------------- Iteration      1(   9)  ---------------------------------------


    POTLOK:  cpu time      0.0019: real time      0.0022
    SETDIJ:  cpu time      0.0012: real time      0.0012
    EDDIAG:  cpu time      0.0073: real time      0.0073
  RMM-DIIS:  cpu time      0.0009: real time      0.0009
    ORTHCH:  cpu time      0.0010: real time      0.0010
       DOS:  cpu time      0.0003: real time      0.0003
    CHARGE:  cpu time      0.0018: real time      0.0021
    MIXING:  cpu time      0.0002: real time      0.0002
    --------------------------------------------
      LOOP:  cpu time      0.0146: real time      0.0151

 eigenvalue-minimisations  :   224
 total energy-change (2. order) : 0.1020164E-03  (-0.3363483E-03)
 number of electron      23.9999948 magnetization 
 augmentation part        8.1748587 magnetization 

 Broyden mixing:
  rms(total) = 0.28879E-02    rms(broyden)= 0.28878E-02
  rms(prec ) = 0.79827E-02
  weight for this iteration     100.00

 eigenvalues of (default mixing * dielectric matrix)
  average eigenvalue GAMMA=   1.9925
  1.0241  2.9827  2.3603  1.6027

 Free energy of the ion-electron system (eV)
  ---------------------------------------------------
  alpha Z        PSCENC =       325.84561286
  Ewald energy   TEWEN  =     -2384.26637562
  -Hartree energ DENC   =      -251.78368635
  -exchange      EXHF   =         0.00000000
  -V(xc)+E(xc)   XCENC  =        69.24706133
  PAW double counting   =      1696.06873983    -1680.69524709
  entropy T*S    EENTRO =        -0.00000013
  eigenvalues    EBANDS =      -320.26886028
  atomic energy  EATOM  =      2520.06503532
  Solvation  Ediel_sol  =         0.00000000
  ---------------------------------------------------
  free energy    TOTEN  =       -25.78772013 eV

  energy without entropy =      -25.78772000  energy(sigma->0) =      -25.78772006


--------------------------------------------------------------------------------------------------------




--------------------------------------- Iteration      1(  10)  ---------------------------------------


    POTLOK:  cpu time      0.0018: real time      0.0020
    SETDIJ:  cpu time      0.0011: real time      0.0011
    EDDIAG:  cpu time      0.0072: real time      0.0072
  RMM-DIIS:  cpu time      0.0009: real time      0.0009
    ORTHCH:  cpu time      0.0009: real time      0.0009
       DOS:  cpu time      0.0002: real time      0.0002
    CHARGE:  cpu time      0.0013: real time      0.0013
    MIXING:  cpu time      0.0002: real time      0.0002
    --------------------------------------------
      LOOP:  cpu time      0.0137: real time      0.0139

 eigenvalue-minimisations  :   220
 total energy-change (2. order) :-0.1041110E-04  (-0.3561470E-04)
 number of electron      23.9999948 magnetization 
 augmentation part        8.1725689 magnetization 

 Broyden mixing:
  rms(total) = 0.18999E-02    rms(broyden)= 0.18999E-02
  rms(prec ) = 0.56502E-02
  weight for this iteration     100.00

 eigenvalues of (default mixing * dielectric matrix)
  average eigenvalue GAMMA=   1.8028
  2.7082  2.4351  1.8951  1.0049  0.9708

 Free energy of the ion-electron system (eV)
  ---------------------------------------------------
  alpha Z        PSCENC =       325.84561286
  Ewald energy   TEWEN  =     -2384.26637562
  -Hartree energ DENC   =      -252.07464840
  -exchange      EXHF   =         0.00000000
  -V(xc)+E(xc)   XCENC  =        69.26147536
  PAW double counting   =      1698.47564438    -1683.02509918
  entropy T*S    EENTRO =        -0.00000012
  eigenvalues    EBANDS =      -320.06937514
  atomic energy  EATOM  =      2520.06503532
  Solvation  Ediel_sol  =         0.00000000
  ---------------------------------------------------
  free energy    TOTEN  =       -25.78773054 eV

  energy without entropy =      -25.78773042  energy(sigma->0) =      -25.78773048


--------------------------------------------------------------------------------------------------------




--------------------------------------- Iteration      1(  11)  ---------------------------------------


    POTLOK:  cpu time      0.0034: real time      0.0036
    SETDIJ:  cpu time      0.0012: real time      0.0012
    EDDIAG:  cpu time      0.0072: real time      0.0072
  RMM-DIIS:  cpu time      0.0010: real time      0.0010
    ORTHCH:  cpu time      0.0009: real time      0.0009
       DOS:  cpu time      0.0002: real time      0.0002
    CHARGE:  cpu time      0.0012: real time      0.0012
    MIXING:  cpu time      0.0002: real time      0.0002
    --------------------------------------------
      LOOP:  cpu time      0.0152: real time      0.0154

 eigenvalue-minimisations  :   212
 total energy-change (2. order) : 0.2075892E-04  (-0.8585630E-05)
 number of electron      23.9999948 magnetization 
 augmentation part        8.1738400 magnetization 

 Broyden mixing:
  rms(total) = 0.19645E-03    rms(broyden)= 0.19642E-03
  rms(prec ) = 0.48323E-03
  weight for this iteration     100.00

 eigenvalues of (default mixing * dielectric matrix)
  average eigenvalue GAMMA=   1.6593
  2.7724  2.4522  1.8528  1.2239  0.8621  0.7923

 Free energy of the ion-electron system (eV)
  ---------------------------------------------------
  alpha Z        PSCENC =       325.84561286
  Ewald energy   TEWEN  =     -2384.26637562
  -Hartree energ DENC   =      -251.95961882
  -exchange      EXHF   =         0.00000000
  -V(xc)+E(xc)   XCENC  =        69.25582164
  PAW double counting   =      1697.91125628    -1682.45383966
  entropy T*S    EENTRO =        -0.00000013
  eigenvalues    EBANDS =      -320.18560166
  atomic energy  EATOM  =      2520.06503532
  Solvation  Ediel_sol  =         0.00000000
  ---------------------------------------------------
  free energy    TOTEN  =       -25.78770978 eV

  energy without entropy =      -25.78770965  energy(sigma->0) =      -25.78770972


--------------------------------------------------------------------------------------------------------




--------------------------------------- Iteration      1(  12)  ---------------------------------------


    POTLOK:  cpu time      0.0019: real time      0.0022
    SETDIJ:  cpu time      0.0011: real time      0.0011
    EDDIAG:  cpu time      0.0077: real time      0.0077
  RMM-DIIS:  cpu time      0.0009: real time      0.0009
    ORTHCH:  cpu time      0.0009: real time      0.0009
       DOS:  cpu time      0.0002: real time      0.0002
    --------------------------------------------
      LOOP:  cpu time      0.0127: real time      0.0129

 eigenvalue-minimisations  :   151
 total energy-change (2. order) :-0.1556440E-05  (-0.1367627E-05)
 number of electron      23.9999948 magnetization 
 augmentation part        8.1738400 magnetization 

 Free energy of the ion-electron system (eV)
  ---------------------------------------------------
  alpha Z        PSCENC =       325.84561286
  Ewald energy   TEWEN  =     -2384.26637562
  -Hartree energ DENC   =      -251.96201388
  -exchange      EXHF   =         0.00000000
  -V(xc)+E(xc)   XCENC  =        69.25594373
  PAW double counting   =      1697.91841678    -1682.46137734
  entropy T*S    EENTRO =        -0.00000013
  eigenvalues    EBANDS =      -320.18295307
  atomic energy  EATOM  =      2520.06503532
  Solvation  Ediel_sol  =         0.00000000
  ---------------------------------------------------
  free energy    TOTEN  =       -25.78771134 eV

  energy without entropy =      -25.78771121  energy(sigma->0) =      -25.78771127


--------------------------------------------------------------------------------------------------------




 average (electrostatic) potential at core
  the test charge radii are     1.1823
  (the norm of the test charge is              1.0000)
       1 -38.1909       2 -38.1909
 
 
 
 E-fermi :   7.0737     XC(G=0): -13.4853     alpha+bet :-14.2554

 val. band max:        6.7244072273   @ k =   0.3333   0.0000   0.0000
 cond. band min:       7.4230750545   @ k =   0.3333   0.0000   0.0000
 fundamental gap:      0.6986678272
 Fermi energy:         7.0737444979

 k-point     1 :       0.0000    0.0000    0.0000
  band No.  band energies     occupation 
      1     -31.0860      2.00000
      2     -31.0860      2.00000
      3     -31.0860      2.00000
      4     -30.1768      2.00000
      5     -30.1768      2.00000
      6     -30.1768      2.00000
      7      -2.1218      2.00000
      8       1.6222      2.00000
      9       1.6222      2.00000
     10       6.2048      2.00000
     11       6.2048      2.00000
     12       6.2048      2.00000
     13       9.6985      0.00000
     14       9.6985      0.00000
     15      12.5964      0.00000
     16      12.5964      0.00000
     17      12.5964      0.00000
     18      15.8867      0.00000
     19      15.8867      0.00000
     20      15.8867      0.00000
     21      22.6573      0.00000
     22      22.6573      0.00000
     23      22.6573      0.00000
     24      23.7133      0.00000
     25      30.9089      0.00000
     26      30.9089      0.00000
     27      32.9103      0.00000
     28      34.6113      0.00000

 k-point     2 :       0.3333    0.0000    0.0000
  band No.  band energies     occupation 
      1     -31.0395      2.00000
      2     -30.8535      2.00000
      3     -30.8535      2.00000
      4     -30.5947      2.00000
      5     -30.3981      2.00000
      6     -30.3981      2.00000
      7       0.2840      2.00000
      8       2.9728      2.00000
      9       3.0098      2.00000
     10       6.2638      2.00000
     11       6.2638      2.00000
     12       6.7244      2.00000
     13       7.4231      0.00000
     14       8.3852      0.00000
     15       8.3852      0.00000
     16      10.4851      0.00000
     17      10.7585      0.00000
     18      11.5611      0.00000
     19      22.9654      0.00000
     20      22.9654      0.00000
     21      24.0132      0.00000
     22      24.2365      0.00000
     23      25.7245      0.00000
     24      26.6020      0.00000
     25      26.6058      0.00000
     26      29.3739      0.00000
     27      33.3826      0.00000
     28      34.2183      0.00000

 k-point     3 :       0.3333    0.3333    0.0000
  band No.  band energies     occupation 
      1     -31.3800      2.00000
      2     -31.1702      2.00000
      3     -30.7249      2.00000
      4     -30.4966      2.00000
      5     -30.4208      2.00000
      6     -30.1823      2.00000
      7       1.0802      2.00000
      8       2.1881      2.00000
      9       4.3596      2.00000
     10       5.1980      2.00000
     11       5.3125      2.00000
     12       6.0177      2.00000
     13       7.8090      0.00000
     14       9.4457      0.00000
     15      10.1580      0.00000
     16      10.8647      0.00000
     17      13.3199      0.00000
     18      13.4656      0.00000
     19      18.1223      0.00000
     20      21.1942      0.00000
     21      21.8385      0.00000
     22      23.0634      0.00000
     23      23.1779      0.00000
     24      29.0068      0.00000
     25      29.0349      0.00000
     26      30.1220      0.00000
     27      31.8977      0.00000
     28      32.9471      0.00000

 k-point     4 :       0.3333    0.3333    0.3333
  band No.  band energies     occupation 
      1     -31.2074      2.00000
      2     -31.0805      2.00000
      3     -31.0805      2.00000
      4     -30.4810      2.00000
      5     -30.4810      2.00000
      6     -30.3435      2.00000
      7       3.1007      2.00000
      8       3.3027      2.00000
      9       4.0937      2.00000
     10       4.0937      2.00000
     11       4.7865      2.00000
     12       4.7865      2.00000
     13      10.2362      0.00000
     14      10.2362      0.00000
     15      10.2660      0.00000
     16      10.2660      0.00000
     17      14.5419      0.00000
     18      15.7709      0.00000
     19      18.8040      0.00000
     20      18.8040      0.00000
     21      19.3633      0.00000
     22      22.1989      0.00000
     23      22.1989      0.00000
     24      25.2066      0.00000
     25      27.6187      0.00000
     26      29.7020      0.00000
     27      29.7020      0.00000
     28      34.2864      0.00000


--------------------------------------------------------------------------------------------------------


 soft charge-density along one line, spin component           1
         0         1         2         3         4         5         6         7         8         9
 total charge-density along one line
 
 pseudopotential strength for first ion, spin component:           1
-33.518  -0.000  -0.000  15.301   0.000   0.000  -0.000   0.000
 -0.000 -33.518   0.000   0.000  15.301  -0.000  -0.000   0.000
 -0.000   0.000 -33.518   0.000  -0.000  15.301   0.000  -0.000
 15.301   0.000   0.000  -0.368  -0.000  -0.000   0.000  -0.000
  0.000  15.301  -0.000  -0.000  -0.368   0.000   0.000  -0.000
  0.000  -0.000  15.301  -0.000   0.000  -0.368  -0.000   0.000
 -0.000  -0.000   0.000   0.000   0.000  -0.000  -6.997   0.000
  0.000   0.000  -0.000  -0.000  -0.000   0.000   0.000  -6.997
 -0.000   0.000   0.000   0.000  -0.000  -0.000   0.000  -0.000
 -0.000  -0.000   0.000   0.000   0.000  -0.000   0.000  -0.000
 -0.000   0.000  -0.000   0.000  -0.000   0.000  -0.000   0.000
 -0.000  -0.000   0.000   0.000   0.000  -0.000   0.106   0.000
  0.000   0.000  -0.000  -0.000  -0.000   0.000   0.000   0.106
 -0.000   0.000   0.000   0.000  -0.000  -0.000   0.000  -0.000
 -0.000  -0.000   0.000   0.000   0.000  -0.000   0.000  -0.000
 -0.000   0.000  -0.000   0.000  -0.000   0.000  -0.000   0.000
 -0.000  -0.000   0.000   0.000   0.000  -0.000   0.000   0.000
  0.000   0.000  -0.000  -0.000  -0.000   0.000  -0.000  -0.000
 total augmentation occupancy for first ion, spin component:           1
  2.006  -0.000   0.000   0.058  -0.000  -0.000   0.000   0.000  -0.000   0.000   0.000   0.000   0.000   0.000   0.000   0.000
 -0.000   2.006   0.000  -0.000   0.058  -0.000   0.000  -0.000   0.000   0.000   0.000  -0.000   0.000  -0.000   0.000   0.000
 -0.000  -0.000   2.006  -0.000  -0.000   0.058  -0.000   0.000   0.000  -0.000  -0.000   0.000   0.000   0.000  -0.000  -0.000
  0.058   0.000   0.000   0.281  -0.000  -0.000   0.000   0.000   0.000   0.000  -0.000  -0.000   0.000  -0.000   0.000   0.000
  0.000   0.058   0.000  -0.000   0.281  -0.000   0.000   0.000  -0.000   0.000  -0.000   0.000   0.000  -0.000   0.000   0.000
  0.000  -0.000   0.058   0.000  -0.000   0.281   0.000   0.000   0.000   0.000  -0.000   0.000   0.000   0.000   0.000  -0.000
  0.000   0.000  -0.000   0.000  -0.000   0.000   1.005  -0.000  -0.000   0.000   0.000  -0.795   0.000  -0.000   0.000   0.000
  0.000  -0.000   0.000   0.000   0.000  -0.000  -0.000   1.005  -0.000   0.000  -0.000  -0.000  -0.795  -0.000  -0.000   0.000
  0.000  -0.000   0.000   0.000   0.000   0.000  -0.000   0.000   0.740   0.000   0.000   0.000  -0.000  -0.661   0.000  -0.000
  0.000   0.000  -0.000  -0.000   0.000   0.000   0.000   0.000   0.000   1.005   0.000   0.000  -0.000   0.000  -0.795   0.000
  0.000   0.000   0.000   0.000   0.000   0.000   0.000   0.000   0.000  -0.000   0.740   0.000   0.000  -0.000  -0.000  -0.661
  0.000   0.000   0.000  -0.000  -0.000   0.000  -0.795  -0.000   0.000   0.000  -0.000   0.794  -0.000   0.000   0.000   0.000
  0.000   0.000  -0.000   0.000   0.000   0.000  -0.000  -0.795  -0.000   0.000  -0.000  -0.000   0.794  -0.000   0.000  -0.000
  0.000   0.000   0.000   0.000  -0.000  -0.000  -0.000  -0.000  -0.661  -0.000  -0.000  -0.000   0.000   0.743   0.000   0.000
 -0.000   0.000  -0.000   0.000   0.000   0.000   0.000  -0.000   0.000  -0.795   0.000   0.000   0.000   0.000   0.794  -0.000
  0.000  -0.000   0.000   0.000   0.000   0.000  -0.000   0.000  -0.000  -0.000  -0.661   0.000  -0.000   0.000   0.000   0.743
  0.000   0.000   0.000   0.000   0.000   0.000  -0.000  -0.000  -0.000   0.000   0.000   0.000   0.000   0.000   0.000   0.000
  0.000   0.000   0.000  -0.000  -0.000  -0.000  -0.000   0.000   0.000  -0.000  -0.000  -0.000   0.000  -0.000   0.000  -0.000


------------------------ aborting loop because EDIFF is reached ----------------------------------------


    CHARGE:  cpu time      0.0028: real time      0.0028
    FORLOC:  cpu time      0.0002: real time      0.0014
    FORNL :  cpu time      0.0026: real time      0.0057
    STRESS:  cpu time      0.0145: real time      0.0183
    FORCOR:  cpu time      0.0022: real time      0.0049
    FORHAR:  cpu time      0.0004: real time      0.0009
    MIXING:  cpu time      0.0003: real time      0.0003
    OFIELD:  cpu time      0.0001: real time      0.0006

  FORCE on cell =-STRESS in cart. coord.  units (eV):
  Direction    XX          YY          ZZ          XY          YZ          ZX
  --------------------------------------------------------------------------------------
  Alpha Z   325.84561   325.84561   325.84561
  Ewald    -794.75540  -794.75540  -794.75540     0.00000    -0.00000    -0.00000
  Hartree    83.98998    83.98998    83.98998    -0.00000    -0.00000    -0.00000
  E(xc)    -105.56006  -105.56006  -105.56006    -0.00000     0.00000    -0.00000
  Local     242.46002   242.46002   242.46002    -0.00000     0.00000    -0.00000
  n-local   -96.20921   -93.91170   -88.83642     2.95067    -0.02545    -0.02558
  augment    60.96307    60.96307    60.96307     0.00000     0.00000     0.00000
  Kinetic   278.13350   276.35304   290.08963     5.73826    -1.19535    -1.19531
  Fock        0.00000     0.00000     0.00000     0.00000     0.00000     0.00000
  -------------------------------------------------------------------------------------
  Total       1.48284     1.48284     1.48284    -0.00000    -0.00000     0.00000
  in kB      74.93472    74.93472    74.93472    -0.00000    -0.00000     0.00000
  external pressure =       74.93 kB  Pullay stress =        0.00 kB


 VOLUME and BASIS-vectors are now :
 -----------------------------------------------------------------------------
  energy-cutoff  :      400.00
  volume of cell :       31.70
      direct lattice vectors                 reciprocal lattice vectors
     3.164999962  0.000000000  0.000000000     0.315955770  0.000000000  0.000000000
     0.000000000  3.164999962  0.000000000     0.000000000  0.315955770  0.000000000
     0.000000000  0.000000000  3.164999962     0.000000000  0.000000000  0.315955770

  length of vectors
     3.164999962  3.164999962  3.164999962     0.315955770  0.315955770  0.315955770


 FORCES acting on ions
    electron-ion (+dipol)            ewald-force                    non-local-force                 convergence-correction
 -----------------------------------------------------------------------------------------------
   -.343E-14 -.202E-15 0.300E-14   -.282E-14 -.185E-14 -.260E-14   0.105E-23 0.107E-23 0.104E-25   -.119E-13 0.109E-14 0.323E-14
   0.575E-13 0.855E-12 0.127E-12   0.121E-14 -.575E-17 0.581E-14   0.139E-23 -.164E-23 0.274E-23   -.134E-13 0.666E-14 0.127E-14
 -----------------------------------------------------------------------------------------------
   0.541E-13 0.855E-12 0.130E-12   -.161E-14 -.186E-14 0.321E-14   0.244E-23 -.573E-24 0.275E-23   -.253E-13 0.775E-14 0.450E-14
 
 
 POSITION                                       TOTAL-FORCE (eV/Angst)
 -----------------------------------------------------------------------------------
      0.00000      0.00000      0.00000         0.000000      0.000000     -0.000000
      1.58250      1.58250      1.58250        -0.000000     -0.000000      0.000000
 -----------------------------------------------------------------------------------
    total drift:                                0.000000      0.000000      0.000000


--------------------------------------------------------------------------------------------------------



  FREE ENERGIE OF THE ION-ELECTRON SYSTEM (eV)
  ---------------------------------------------------
  free  energy   TOTEN  =       -25.78771134 eV

  energy  without entropy=      -25.78771121  energy(sigma->0) =      -25.78771127
 


--------------------------------------------------------------------------------------------------------


    POTLOK:  cpu time      0.0068: real time      0.0068


--------------------------------------------------------------------------------------------------------




--------------------------------------------------------------------------------------------------------


    WAVPRE:  cpu time      0.0048: real time      0.0100
    FEWALD:  cpu time      0.0001: real time      0.0006
    GENKIN:  cpu time      0.0004: real time      0.0004
    ORTHCH:  cpu time      0.0016: real time      0.0016
     LOOP+:  cpu time      0.3748: real time      0.7532


--------------------------------------- Ionic step        2  -------------------------------------------




--------------------------------------- Iteration      2(   1)  ---------------------------------------


    POTLOK:  cpu time      0.0022: real time      0.0023
    SETDIJ:  cpu time      0.0021: real time      0.0021
     EDDAV:  cpu time      0.0249: real time      0.0250
       DOS:  cpu time      0.0003: real time      0.0003
    CHARGE:  cpu time      0.0014: real time      0.0014
    MIXING:  cpu time      0.0001: real time      0.0001
    --------------------------------------------
      LOOP:  cpu time      0.0311: real time      0.0313

 eigenvalue-minimisations  :   224
 total energy-change (2. order) :-0.1710861E+01  (-0.5423406E+01)
 number of electron      24.0000009 magnetization 
 augmentation part        8.5256674 magnetization 

 Broyden mixing:
  rms(total) = 0.65759E+00    rms(broyden)= 0.65755E+00
  rms(prec ) = 0.18711E+01
  weight for this iteration     100.00

 Free energy of the ion-electron system (eV)
  ---------------------------------------------------
  alpha Z        PSCENC =       293.24079769
  Ewald energy   TEWEN  =     -2301.93087951
  -Hartree energ DENC   =      -243.26339294
  -exchange      EXHF   =         0.00000000
  -V(xc)+E(xc)   XCENC  =        66.35553225
  PAW double counting   =      1697.89920057    -1682.44177955
  entropy T*S    EENTRO =        -0.00596882
  eigenvalues    EBANDS =      -377.41711568
  atomic energy  EATOM  =      2520.06503532
  Solvation  Ediel_sol  =         0.00000000
  ---------------------------------------------------
  free energy    TOTEN  =       -27.49857066 eV

  energy without entropy =      -27.49260184  energy(sigma->0) =      -27.49558625


--------------------------------------------------------------------------------------------------------




--------------------------------------- Iteration      2(   2)  ---------------------------------------


    POTLOK:  cpu time      0.0019: real time      0.0021
    SETDIJ:  cpu time      0.0013: real time      0.0013
    EDDIAG:  cpu time      0.0073: real time      0.0073
  RMM-DIIS:  cpu time      0.0010: real time      0.0010
    ORTHCH:  cpu time      0.0010: real time      0.0010
       DOS:  cpu time      0.0002: real time      0.0002
    CHARGE:  cpu time      0.0012: real time      0.0012
    MIXING:  cpu time      0.0002: real time      0.0002
    --------------------------------------------
      LOOP:  cpu time      0.0140: real time      0.0142

 eigenvalue-minimisations  :   224
 total energy-change (2. order) : 0.1613855E+01  (-0.1007394E+00)
 number of electron      24.0000009 magnetization 
 augmentation part        8.3131503 magnetization 

 Broyden mixing:
  rms(total) = 0.28025E+00    rms(broyden)= 0.28025E+00
  rms(prec ) = 0.74621E+00
  weight for this iteration     100.00

 eigenvalues of (default mixing * dielectric matrix)
  average eigenvalue GAMMA=   1.7044
  1.7044

 Free energy of the ion-electron system (eV)
  ---------------------------------------------------
  alpha Z        PSCENC =       293.24079769
  Ewald energy   TEWEN  =     -2301.93087951
  -Hartree energ DENC   =      -265.45411654
  -exchange      EXHF   =         0.00000000
  -V(xc)+E(xc)   XCENC  =        67.43668349
  PAW double counting   =      1706.70952266    -1689.89065972
  entropy T*S    EENTRO =        -0.00043130
  eigenvalues    EBANDS =      -356.06066788
  atomic energy  EATOM  =      2520.06503532
  Solvation  Ediel_sol  =         0.00000000
  ---------------------------------------------------
  free energy    TOTEN  =       -25.88471578 eV

  energy without entropy =      -25.88428448  energy(sigma->0) =      -25.88450013


--------------------------------------------------------------------------------------------------------




--------------------------------------- Iteration      2(   3)  ---------------------------------------


    POTLOK:  cpu time      0.0018: real time      0.0020
    SETDIJ:  cpu time      0.0011: real time      0.0011
    EDDIAG:  cpu time      0.0421: real time      0.0421
  RMM-DIIS:  cpu time      0.0009: real time      0.0009
    ORTHCH:  cpu time      0.0009: real time      0.0009
       DOS:  cpu time      0.0002: real time      0.0002
    CHARGE:  cpu time      0.0013: real time      0.0013
    MIXING:  cpu time      0.0002: real time      0.0002
    --------------------------------------------
      LOOP:  cpu time      0.0486: real time      0.0489

 eigenvalue-minimisations  :   224
 total energy-change (2. order) : 0.2891104E+00  (-0.6097266E-01)
 number of electron      24.0000009 magnetization 
 augmentation part        8.1697694 magnetization 

 Broyden mixing:
  rms(total) = 0.50036E-01    rms(broyden)= 0.50034E-01
  rms(prec ) = 0.10470E+00
  weight for this iteration     100.00

 eigenvalues of (default mixing * dielectric matrix)
  average eigenvalue GAMMA=   2.0464
  1.7645  2.3284

 Free energy of the ion-electron system (eV)
  ---------------------------------------------------
  alpha Z        PSCENC =       293.24079769
  Ewald energy   TEWEN  =     -2301.93087951
  -Hartree energ DENC   =      -279.92781054
  -exchange      EXHF   =         0.00000000
  -V(xc)+E(xc)   XCENC  =        68.14587882
  PAW double counting   =      1686.28927623    -1668.98475533
  entropy T*S    EENTRO =        -0.00003392
  eigenvalues    EBANDS =      -342.49311412
  atomic energy  EATOM  =      2520.06503532
  Solvation  Ediel_sol  =         0.00000000
  ---------------------------------------------------
  free energy    TOTEN  =       -25.59560535 eV

  energy without entropy =      -25.59557143  energy(sigma->0) =      -25.59558839


--------------------------------------------------------------------------------------------------------




--------------------------------------- Iteration      2(   4)  ---------------------------------------


    POTLOK:  cpu time      0.0022: real time      0.0023
    SETDIJ:  cpu time      0.0012: real time      0.0012
    EDDIAG:  cpu time      0.0071: real time      0.0072
  RMM-DIIS:  cpu time      0.0010: real time      0.0010
    ORTHCH:  cpu time      0.0009: real time      0.0009
       DOS:  cpu time      0.0005: real time      0.0005
    CHARGE:  cpu time      0.0013: real time      0.0013
    MIXING:  cpu time      0.0002: real time      0.0002
    --------------------------------------------
      LOOP:  cpu time      0.0145: real time      0.0146

 eigenvalue-minimisations  :   225
 total energy-change (2. order) :-0.9485267E-02  (-0.3743775E-02)
 number of electron      24.0000009 magnetization 
 augmentation part        8.1700554 magnetization 

 Broyden mixing:
  rms(total) = 0.54104E-02    rms(broyden)= 0.54085E-02
  rms(prec ) = 0.10613E-01
  weight for this iteration     100.00

 eigenvalues of (default mixing * dielectric matrix)
  average eigenvalue GAMMA=   1.8468
  1.3250  1.6547  2.5609

 Free energy of the ion-electron system (eV)
  ---------------------------------------------------
  alpha Z        PSCENC =       293.24079769
  Ewald energy   TEWEN  =     -2301.93087951
  -Hartree energ DENC   =      -278.36575583
  -exchange      EXHF   =         0.00000000
  -V(xc)+E(xc)   XCENC  =        68.07333277
  PAW double counting   =      1644.42663113    -1627.80358674
  entropy T*S    EENTRO =        -0.00004721
  eigenvalues    EBANDS =      -343.31061824
  atomic energy  EATOM  =      2520.06503532
  Solvation  Ediel_sol  =         0.00000000
  ---------------------------------------------------
  free energy    TOTEN  =       -25.60509062 eV

  energy without entropy =      -25.60504342  energy(sigma->0) =      -25.60506702


--------------------------------------------------------------------------------------------------------




--------------------------------------- Iteration      2(   5)  ---------------------------------------


    POTLOK:  cpu time      0.0019: real time      0.0020
    SETDIJ:  cpu time      0.0011: real time      0.0011
    EDDIAG:  cpu time      0.0072: real time      0.0072
  RMM-DIIS:  cpu time      0.0009: real time      0.0009
    ORTHCH:  cpu time      0.0010: real time      0.0010
       DOS:  cpu time      0.0002: real time      0.0002
    CHARGE:  cpu time      0.0012: real time      0.0012
    MIXING:  cpu time      0.0002: real time      0.0002
    --------------------------------------------
      LOOP:  cpu time      0.0137: real time      0.0138

 eigenvalue-minimisations  :   223
 total energy-change (2. order) :-0.3560073E-03  (-0.3532085E-03)
 number of electron      24.0000009 magnetization 
 augmentation part        8.1645916 magnetization 

 Broyden mixing:
  rms(total) = 0.32479E-02    rms(broyden)= 0.32467E-02
  rms(prec ) = 0.84498E-02
  weight for this iteration     100.00

 eigenvalues of (default mixing * dielectric matrix)
  average eigenvalue GAMMA=   1.7305
  2.4140  2.0688  1.5894  0.8500

 Free energy of the ion-electron system (eV)
  ---------------------------------------------------
  alpha Z        PSCENC =       293.24079769
  Ewald energy   TEWEN  =     -2301.93087951
  -Hartree energ DENC   =      -278.45293211
  -exchange      EXHF   =         0.00000000
  -V(xc)+E(xc)   XCENC  =        68.07796927
  PAW double counting   =      1641.13020136    -1624.60204569
  entropy T*S    EENTRO =        -0.00004592
  eigenvalues    EBANDS =      -343.13354704
  atomic energy  EATOM  =      2520.06503532
  Solvation  Ediel_sol  =         0.00000000
  ---------------------------------------------------
  free energy    TOTEN  =       -25.60544663 eV

  energy without entropy =      -25.60540071  energy(sigma->0) =      -25.60542367


--------------------------------------------------------------------------------------------------------




--------------------------------------- Iteration      2(   6)  ---------------------------------------


    POTLOK:  cpu time      0.0018: real time      0.0020
    SETDIJ:  cpu time      0.0011: real time      0.0011
    EDDIAG:  cpu time      0.0071: real time      0.0071
  RMM-DIIS:  cpu time      0.0009: real time      0.0009
    ORTHCH:  cpu time      0.0009: real time      0.0009
       DOS:  cpu time      0.0002: real time      0.0002
    CHARGE:  cpu time      0.0012: real time      0.0012
    MIXING:  cpu time      0.0002: real time      0.0002
    --------------------------------------------
      LOOP:  cpu time      0.0135: real time      0.0137

 eigenvalue-minimisations  :   222
 total energy-change (2. order) :-0.5310422E-05  (-0.4529152E-04)
 number of electron      24.0000009 magnetization 
 augmentation part        8.1672806 magnetization 

 Broyden mixing:
  rms(total) = 0.18244E-02    rms(broyden)= 0.18235E-02
  rms(prec ) = 0.52515E-02
  weight for this iteration     100.00

 eigenvalues of (default mixing * dielectric matrix)
  average eigenvalue GAMMA=   1.7432
  2.5687  2.3801  1.7548  1.0063  1.0063

 Free energy of the ion-electron system (eV)
  ---------------------------------------------------
  alpha Z        PSCENC =       293.24079769
  Ewald energy   TEWEN  =     -2301.93087951
  -Hartree energ DENC   =      -278.17479731
  -exchange      EXHF   =         0.00000000
  -V(xc)+E(xc)   XCENC  =        68.06435012
  PAW double counting   =      1640.80638185    -1624.35315872
  entropy T*S    EENTRO =        -0.00004797
  eigenvalues    EBANDS =      -343.32313341
  atomic energy  EATOM  =      2520.06503532
  Solvation  Ediel_sol  =         0.00000000
  ---------------------------------------------------
  free energy    TOTEN  =       -25.60545194 eV

  energy without entropy =      -25.60540397  energy(sigma->0) =      -25.60542795


--------------------------------------------------------------------------------------------------------




--------------------------------------- Iteration      2(   7)  ---------------------------------------


    POTLOK:  cpu time      0.0018: real time      0.0021
    SETDIJ:  cpu time      0.0011: real time      0.0011
    EDDIAG:  cpu time      0.0083: real time      0.0084
  RMM-DIIS:  cpu time      0.0009: real time      0.0009
    ORTHCH:  cpu time      0.0009: real time      0.0009
       DOS:  cpu time      0.0002: real time      0.0002
    CHARGE:  cpu time      0.0012: real time      0.0012
    MIXING:  cpu time      0.0002: real time      0.0002
    --------------------------------------------
      LOOP:  cpu time      0.0148: real time      0.0151

 eigenvalue-minimisations  :   203
 total energy-change (2. order) : 0.5802971E-05  (-0.1211254E-04)
 number of electron      24.0000009 magnetization 
 augmentation part        8.1658188 magnetization 

 Broyden mixing:
  rms(total) = 0.39198E-03    rms(broyden)= 0.39096E-03
  rms(prec ) = 0.89865E-03
  weight for this iteration     100.00

 eigenvalues of (default mixing * dielectric matrix)
  average eigenvalue GAMMA=   1.6470
  2.4876  2.4876  1.7664  1.2612  1.0884  0.7907

 Free energy of the ion-electron system (eV)
  ---------------------------------------------------
  alpha Z        PSCENC =       293.24079769
  Ewald energy   TEWEN  =     -2301.93087951
  -Hartree energ DENC   =      -278.28397241
  -exchange      EXHF   =         0.00000000
  -V(xc)+E(xc)   XCENC  =        68.06972129
  PAW double counting   =      1640.62884735    -1624.17374290
  entropy T*S    EENTRO =        -0.00004693
  eigenvalues    EBANDS =      -343.22120604
  atomic energy  EATOM  =      2520.06503532
  Solvation  Ediel_sol  =         0.00000000
  ---------------------------------------------------
  free energy    TOTEN  =       -25.60544614 eV

  energy without entropy =      -25.60539920  energy(sigma->0) =      -25.60542267


--------------------------------------------------------------------------------------------------------




--------------------------------------- Iteration      2(   8)  ---------------------------------------


    POTLOK:  cpu time      0.0019: real time      0.0020
    SETDIJ:  cpu time      0.0012: real time      0.0012
    EDDIAG:  cpu time      0.0070: real time      0.0070
  RMM-DIIS:  cpu time      0.0009: real time      0.0009
    ORTHCH:  cpu time      0.0010: real time      0.0010
       DOS:  cpu time      0.0002: real time      0.0002
    --------------------------------------------
      LOOP:  cpu time      0.0120: real time      0.0122

 eigenvalue-minimisations  :   156
 total energy-change (2. order) :-0.1871099E-05  (-0.2319370E-05)
 number of electron      24.0000009 magnetization 
 augmentation part        8.1658188 magnetization 

 Free energy of the ion-electron system (eV)
  ---------------------------------------------------
  alpha Z        PSCENC =       293.24079769
  Ewald energy   TEWEN  =     -2301.93087951
  -Hartree energ DENC   =      -278.27883238
  -exchange      EXHF   =         0.00000000
  -V(xc)+E(xc)   XCENC  =        68.06945487
  PAW double counting   =      1640.69640890    -1624.23783831
  entropy T*S    EENTRO =        -0.00004699
  eigenvalues    EBANDS =      -343.22954761
  atomic energy  EATOM  =      2520.06503532
  Solvation  Ediel_sol  =         0.00000000
  ---------------------------------------------------
  free energy    TOTEN  =       -25.60544801 eV

  energy without entropy =      -25.60540102  energy(sigma->0) =      -25.60542451


--------------------------------------------------------------------------------------------------------




 average (electrostatic) potential at core
  the test charge radii are     1.1823
  (the norm of the test charge is              1.0000)
       1 -39.4798       2 -39.4798
 
 
 
 E-fermi :   6.1240     XC(G=0): -12.9112     alpha+bet :-12.8290

 val. band max:        5.8734431213   @ k =   0.3333   0.0000   0.0000
 cond. band min:       6.3746320297   @ k =   0.3333   0.0000   0.0000
 fundamental gap:      0.5011889085
 Fermi energy:         6.1240375778

 k-point     1 :       0.0000    0.0000    0.0000
  band No.  band energies     occupation 
      1     -32.1737      2.00000
      2     -32.1737      2.00000
      3     -32.1737      2.00000
      4     -31.5257      2.00000
      5     -31.5257      2.00000
      6     -31.5257      2.00000
      7      -2.6030      2.00000
      8       1.3501      2.00000
      9       1.3501      2.00000
     10       5.3011      2.00000
     11       5.3011      2.00000
     12       5.3011      2.00000
     13       8.3802      0.00000
     14       8.3802      0.00000
     15      10.8067      0.00000
     16      10.8067      0.00000
     17      10.8067      0.00000
     18      13.9859      0.00000
     19      13.9859      0.00000
     20      13.9859      0.00000
     21      20.6419      0.00000
     22      21.2184      0.00000
     23      21.2184      0.00000
     24      21.2184      0.00000
     25      27.5182      0.00000
     26      27.5182      0.00000
     27      30.6287      0.00000
     28      31.8097      0.00000

 k-point     2 :       0.3333    0.0000    0.0000
  band No.  band energies     occupation 
      1     -32.1301      2.00000
      2     -32.0071      2.00000
      3     -32.0071      2.00000
      4     -31.8111      2.00000
      5     -31.6827      2.00000
      6     -31.6827      2.00000
      7      -0.4471      2.00000
      8       2.3334      2.00000
      9       2.5951      2.00000
     10       5.3520      2.00000
     11       5.3520      2.00000
     12       5.8734      1.99961
     13       6.3746      0.00039
     14       7.1832      0.00000
     15       7.1832      0.00000
     16       9.0305      0.00000
     17       9.2322      0.00000
     18       9.8680      0.00000
     19      20.2299      0.00000
     20      20.2299      0.00000
     21      21.5022      0.00000
     22      22.1847      0.00000
     23      23.4745      0.00000
     24      24.5962      0.00000
     25      24.6056      0.00000
     26      26.2931      0.00000
     27      30.0865      0.00000
     28      30.5017      0.00000

 k-point     3 :       0.3333    0.3333    0.0000
  band No.  band energies     occupation 
      1     -32.3715      2.00000
      2     -32.2192      2.00000
      3     -31.9165      2.00000
      4     -31.7540      2.00000
      5     -31.6954      2.00000
      6     -31.5273      2.00000
      7       0.4836      2.00000
      8       1.6940      2.00000
      9       3.7107      2.00000
     10       4.4303      2.00000
     11       4.4325      2.00000
     12       4.9896      2.00000
     13       6.7243      0.00000
     14       8.1170      0.00000
     15       8.7587      0.00000
     16       9.3271      0.00000
     17      11.4091      0.00000
     18      11.5707      0.00000
     19      15.5508      0.00000
     20      19.1840      0.00000
     21      19.5471      0.00000
     22      20.6665      0.00000
     23      20.9765      0.00000
     24      25.8617      0.00000
     25      26.7277      0.00000
     26      27.8014      0.00000
     27      29.6081      0.00000
     28      29.8129      0.00000

 k-point     4 :       0.3333    0.3333    0.3333
  band No.  band energies     occupation 
      1     -32.2472      2.00000
      2     -32.1583      2.00000
      3     -32.1583      2.00000
      4     -31.7358      2.00000
      5     -31.7358      2.00000
      6     -31.6422      2.00000
      7       2.3941      2.00000
      8       2.5325      2.00000
      9       3.4235      2.00000
     10       3.4235      2.00000
     11       3.9512      2.00000
     12       3.9512      2.00000
     13       8.8010      0.00000
     14       8.8010      0.00000
     15       8.8187      0.00000
     16       8.8187      0.00000
     17      12.5018      0.00000
     18      13.5691      0.00000
     19      16.3991      0.00000
     20      16.3991      0.00000
     21      16.8461      0.00000
     22      19.9667      0.00000
     23      19.9667      0.00000
     24      22.7755      0.00000
     25      25.8381      0.00000
     26      27.3734      0.00000
     27      27.3734      0.00000
     28      31.7893      0.00000


--------------------------------------------------------------------------------------------------------


 soft charge-density along one line, spin component           1
         0         1         2         3         4         5         6         7         8         9
 total charge-density along one line
 
 pseudopotential strength for first ion, spin component:           1
-34.244   0.000  -0.000  15.944  -0.000   0.000   0.000   0.000
  0.000 -34.244   0.000  -0.000  15.944  -0.000  -0.000   0.000
 -0.000   0.000 -34.244   0.000  -0.000  15.944   0.000  -0.000
 15.944  -0.000   0.000  -0.817   0.000  -0.000   0.000  -0.000
 -0.000  15.944  -0.000   0.000  -0.817   0.000   0.000  -0.000
  0.000  -0.000  15.944  -0.000   0.000  -0.817  -0.000   0.000
  0.000  -0.000   0.000   0.000   0.000  -0.000  -7.229   0.000
  0.000   0.000  -0.000  -0.000  -0.000   0.000   0.000  -7.229
 -0.000   0.000  -0.000   0.000  -0.000   0.000   0.000   0.000
 -0.000   0.000   0.000   0.000  -0.000  -0.000   0.000  -0.000
 -0.000   0.000   0.000   0.000  -0.000  -0.000   0.000  -0.000
  0.000  -0.000   0.000  -0.000   0.000  -0.000   0.088   0.000
  0.000   0.000  -0.000  -0.000  -0.000   0.000   0.000   0.088
 -0.000   0.000   0.000   0.000  -0.000   0.000   0.000   0.000
 -0.000   0.000   0.000   0.000   0.000  -0.000   0.000  -0.000
 -0.000   0.000   0.000   0.000  -0.000  -0.000   0.000  -0.000
 -0.000  -0.000   0.000   0.000   0.000   0.000   0.000  -0.000
  0.000   0.000   0.000  -0.000  -0.000  -0.000  -0.000   0.000
 total augmentation occupancy for first ion, spin component:           1
  1.997   0.000  -0.000   0.039   0.000  -0.000  -0.000  -0.000  -0.000   0.000   0.000   0.000   0.000  -0.000   0.000   0.000
  0.000   1.997  -0.000   0.000   0.039   0.000   0.000   0.000   0.000   0.000  -0.000   0.000  -0.000  -0.000  -0.000  -0.000
 -0.000  -0.000   1.997  -0.000   0.000   0.039  -0.000   0.000   0.000   0.000   0.000   0.000   0.000  -0.000  -0.000  -0.000
  0.039   0.000  -0.000   0.240   0.000  -0.000  -0.000   0.000   0.000   0.000   0.000  -0.000   0.000  -0.000  -0.000  -0.000
  0.000   0.039   0.000  -0.000   0.240   0.000   0.000   0.000   0.000   0.000   0.000  -0.000   0.000  -0.000   0.000  -0.000
[...]


--------------------------------------------------------------------------------------------------------




--------------------------------------- Iteration      4(   2)  ---------------------------------------


    POTLOK:  cpu time      0.0019: real time      0.0021
    SETDIJ:  cpu time      0.0010: real time      0.0012
    EDDIAG:  cpu time      0.0071: real time      0.0071
  RMM-DIIS:  cpu time      0.0009: real time      0.0009
    ORTHCH:  cpu time      0.0009: real time      0.0009
       DOS:  cpu time      0.0002: real time      0.0002
    CHARGE:  cpu time      0.0012: real time      0.0012
    MIXING:  cpu time      0.0002: real time      0.0002
    --------------------------------------------
      LOOP:  cpu time      0.0134: real time      0.0138

 eigenvalue-minimisations  :   207
 total energy-change (2. order) : 0.6853361E-04  (-0.4272033E-05)
 number of electron      23.9999908 magnetization 
 augmentation part        8.1705960 magnetization 

 Broyden mixing:
  rms(total) = 0.19538E-02    rms(broyden)= 0.19537E-02
  rms(prec ) = 0.52724E-02
  weight for this iteration     100.00

 eigenvalues of (default mixing * dielectric matrix)
  average eigenvalue GAMMA=   1.7725
  1.7725

 Free energy of the ion-electron system (eV)
  ---------------------------------------------------
  alpha Z        PSCENC =       318.40369710
  Ewald energy   TEWEN  =     -2365.97516724
  -Hartree energ DENC   =      -257.71118572
  -exchange      EXHF   =         0.00000000
  -V(xc)+E(xc)   XCENC  =        68.98966679
  PAW double counting   =      1683.57423654    -1667.88833927
  entropy T*S    EENTRO =        -0.00000059
  eigenvalues    EBANDS =      -325.26249536
  atomic energy  EATOM  =      2520.06503532
  Solvation  Ediel_sol  =         0.00000000
  ---------------------------------------------------
  free energy    TOTEN  =       -25.80455243 eV

  energy without entropy =      -25.80455184  energy(sigma->0) =      -25.80455214


--------------------------------------------------------------------------------------------------------




--------------------------------------- Iteration      4(   3)  ---------------------------------------


    POTLOK:  cpu time      0.0019: real time      0.0020
    SETDIJ:  cpu time      0.0011: real time      0.0011
    EDDIAG:  cpu time      0.0071: real time      0.0072
  RMM-DIIS:  cpu time      0.0009: real time      0.0009
    ORTHCH:  cpu time      0.0010: real time      0.0010
       DOS:  cpu time      0.0002: real time      0.0002
    CHARGE:  cpu time      0.0023: real time      0.0024
    MIXING:  cpu time      0.0002: real time      0.0002
    --------------------------------------------
      LOOP:  cpu time      0.0146: real time      0.0150

 eigenvalue-minimisations  :   186
 total energy-change (2. order) : 0.1256970E-04  (-0.3000790E-05)
 number of electron      23.9999908 magnetization 
 augmentation part        8.1715814 magnetization 

 Broyden mixing:
  rms(total) = 0.31915E-03    rms(broyden)= 0.31913E-03
  rms(prec ) = 0.69086E-03
  weight for this iteration     100.00

 eigenvalues of (default mixing * dielectric matrix)
  average eigenvalue GAMMA=   2.1664
  1.8793  2.4536

 Free energy of the ion-electron system (eV)
  ---------------------------------------------------
  alpha Z        PSCENC =       318.40369710
  Ewald energy   TEWEN  =     -2365.97516724
  -Hartree energ DENC   =      -257.60906415
  -exchange      EXHF   =         0.00000000
  -V(xc)+E(xc)   XCENC  =        68.98460477
  PAW double counting   =      1683.82293974    -1668.14068258
  entropy T*S    EENTRO =        -0.00000061
  eigenvalues    EBANDS =      -325.35590220
  atomic energy  EATOM  =      2520.06503532
  Solvation  Ediel_sol  =         0.00000000
  ---------------------------------------------------
  free energy    TOTEN  =       -25.80453986 eV

  energy without entropy =      -25.80453925  energy(sigma->0) =      -25.80453956


--------------------------------------------------------------------------------------------------------




--------------------------------------- Iteration      4(   4)  ---------------------------------------


    POTLOK:  cpu time      0.0018: real time      0.0020
    SETDIJ:  cpu time      0.0013: real time      0.0013
    EDDIAG:  cpu time      0.0070: real time      0.0070
  RMM-DIIS:  cpu time      0.0007: real time      0.0007
    ORTHCH:  cpu time      0.0009: real time      0.0009
       DOS:  cpu time      0.0002: real time      0.0002
    --------------------------------------------
      LOOP:  cpu time      0.0120: real time      0.0122

 eigenvalue-minimisations  :   109
 total energy-change (2. order) :-0.1681335E-05  (-0.1812167E-06)
 number of electron      23.9999908 magnetization 
 augmentation part        8.1715814 magnetization 

 Free energy of the ion-electron system (eV)
  ---------------------------------------------------
  alpha Z        PSCENC =       318.40369710
  Ewald energy   TEWEN  =     -2365.97516724
  -Hartree energ DENC   =      -257.62248379
  -exchange      EXHF   =         0.00000000
  -V(xc)+E(xc)   XCENC  =        68.98523606
  PAW double counting   =      1684.15160214    -1668.46450023
  entropy T*S    EENTRO =        -0.00000061
  eigenvalues    EBANDS =      -325.34796028
  atomic energy  EATOM  =      2520.06503532
  Solvation  Ediel_sol  =         0.00000000
  ---------------------------------------------------
  free energy    TOTEN  =       -25.80454154 eV

  energy without entropy =      -25.80454093  energy(sigma->0) =      -25.80454124


--------------------------------------------------------------------------------------------------------




 average (electrostatic) potential at core
  the test charge radii are     1.1823
  (the norm of the test charge is              1.0000)
       1 -38.4801       2 -38.4801
 
 
 
 E-fermi :   6.8623     XC(G=0): -13.3579     alpha+bet :-13.9298

 val. band max:        6.5363955148   @ k =   0.3333   0.0000   0.0000
 cond. band min:       7.1882630876   @ k =   0.3333   0.0000   0.0000
 fundamental gap:      0.6518675728
 Fermi energy:         6.8623294472

 k-point     1 :       0.0000    0.0000    0.0000
  band No.  band energies     occupation 
      1     -31.3265      2.00000
      2     -31.3265      2.00000
      3     -31.3265      2.00000
      4     -30.4814      2.00000
      5     -30.4814      2.00000
      6     -30.4814      2.00000
      7      -2.2359      2.00000
      8       1.5648      2.00000
      9       1.5648      2.00000
     10       6.0030      2.00000
     11       6.0030      2.00000
     12       6.0030      2.00000
     13       9.4028      0.00000
     14       9.4028      0.00000
     15      12.1908      0.00000
     16      12.1908      0.00000
     17      12.1908      0.00000
     18      15.4512      0.00000
     19      15.4512      0.00000
     20      15.4512      0.00000
     21      22.3353      0.00000
     22      22.3353      0.00000
     23      22.3353      0.00000
     24      23.0187      0.00000
     25      30.1336      0.00000
     26      30.1336      0.00000
     27      32.3956      0.00000
     28      33.9771      0.00000

 k-point     2 :       0.3333    0.0000    0.0000
  band No.  band energies     occupation 
      1     -31.2803      2.00000
      2     -31.1101      2.00000
      3     -31.1101      2.00000
      4     -30.8661      2.00000
      5     -30.6869      2.00000
      6     -30.6869      2.00000
      7       0.1118      2.00000
      8       2.8278      2.00000
      9       2.9204      2.00000
     10       6.0595      2.00000
     11       6.0595      2.00000
     12       6.5364      2.00000
     13       7.1883      0.00000
     14       8.1132      0.00000
     15       8.1132      0.00000
     16      10.1574      0.00000
     17      10.4136      0.00000
     18      11.1747      0.00000
     19      22.3406      0.00000
     20      22.3406      0.00000
     21      23.4488      0.00000
     22      23.7778      0.00000
     23      25.2154      0.00000
     24      26.1550      0.00000
     25      26.1550      0.00000
     26      28.6713      0.00000
     27      32.6311      0.00000
     28      33.3639      0.00000

 k-point     3 :       0.3333    0.3333    0.0000
  band No.  band energies     occupation 
      1     -31.5965      2.00000
      2     -31.4006      2.00000
      3     -30.9909      2.00000
      4     -30.7787      2.00000
      5     -30.7070      2.00000
      6     -30.4858      2.00000
      7       0.9451      2.00000
      8       2.0779      2.00000
      9       4.2162      2.00000
     10       5.0268      2.00000
     11       5.1120      2.00000
     12       5.7797      2.00000
     13       7.5658      0.00000
     14       9.1460      0.00000
     15       9.8435      0.00000
     16      10.5167      0.00000
     17      12.8860      0.00000
     18      13.0310      0.00000
     19      17.5366      0.00000
     20      20.8231      0.00000
     21      21.2373      0.00000
     22      22.5912      0.00000
     23      22.6069      0.00000
     24      28.3106      0.00000
     25      28.4921      0.00000
     26      29.6020      0.00000
     27      31.3848      0.00000
     28      32.2298      0.00000

 k-point     4 :       0.3333    0.3333    0.3333
  band No.  band energies     occupation 
      1     -31.4356      2.00000
      2     -31.3181      2.00000
      3     -31.3181      2.00000
      4     -30.7621      2.00000
      5     -30.7621      2.00000
      6     -30.6356      2.00000
      7       2.9744      2.00000
      8       3.0917      2.00000
      9       3.9432      2.00000
     10       3.9432      2.00000
     11       4.5955      2.00000
     12       4.5955      2.00000
     13       9.9127      0.00000
     14       9.9127      0.00000
     15       9.9391      0.00000
     16       9.9391      0.00000
     17      14.0775      0.00000
     18      15.2705      0.00000
     19      18.2563      0.00000
     20      18.2563      0.00000
     21      18.7875      0.00000
     22      21.6963      0.00000
     23      21.6963      0.00000
     24      24.6573      0.00000
     25      27.2197      0.00000
     26      29.1742      0.00000
     27      29.1742      0.00000
     28      33.7219      0.00000


--------------------------------------------------------------------------------------------------------


 soft charge-density along one line, spin component           1
         0         1         2         3         4         5         6         7         8         9
 total charge-density along one line
 
 pseudopotential strength for first ion, spin component:           1
-33.681   0.000   0.000  15.445  -0.000  -0.000   0.000   0.000
  0.000 -33.681  -0.000  -0.000  15.445   0.000   0.000   0.000
  0.000  -0.000 -33.681  -0.000   0.000  15.445   0.000   0.000
 15.445  -0.000  -0.000  -0.469   0.000   0.000  -0.000  -0.000
 -0.000  15.445   0.000   0.000  -0.469  -0.000  -0.000  -0.000
 -0.000   0.000  15.445   0.000  -0.000  -0.469  -0.000  -0.000
  0.000   0.000   0.000  -0.000  -0.000  -0.000  -7.049  -0.000
  0.000   0.000   0.000  -0.000  -0.000  -0.000  -0.000  -7.049
 -0.000   0.000  -0.000   0.000  -0.000   0.000  -0.000   0.000
  0.000   0.000   0.000  -0.000  -0.000  -0.000   0.000   0.000
 -0.000   0.000   0.000   0.000  -0.000  -0.000  -0.000  -0.000
  0.000   0.000   0.000  -0.000  -0.000  -0.000   0.102  -0.000
  0.000   0.000   0.000  -0.000  -0.000  -0.000  -0.000   0.102
 -0.000   0.000  -0.000   0.000  -0.000   0.000  -0.000   0.000
  0.000   0.000   0.000  -0.000  -0.000  -0.000   0.000   0.000
 -0.000   0.000  -0.000   0.000  -0.000   0.000  -0.000  -0.000
 -0.000  -0.000   0.000   0.000   0.000  -0.000  -0.000  -0.000
  0.000   0.000   0.000  -0.000  -0.000  -0.000   0.000   0.000
 total augmentation occupancy for first ion, spin component:           1
  2.004  -0.000  -0.000   0.054   0.000  -0.000   0.000   0.000  -0.000   0.000   0.000   0.000   0.000  -0.000   0.000  -0.000
  0.000   2.004  -0.000  -0.000   0.054   0.000  -0.000   0.000  -0.000   0.000   0.000   0.000   0.000   0.000   0.000  -0.000
 -0.000  -0.000   2.004   0.000  -0.000   0.054   0.000   0.000   0.000  -0.000  -0.000   0.000   0.000   0.000   0.000   0.000
  0.054   0.000   0.000   0.271   0.000   0.000   0.000   0.000   0.000  -0.000   0.000  -0.000   0.000  -0.000   0.000   0.000
  0.000   0.054   0.000   0.000   0.271   0.000   0.000  -0.000   0.000   0.000   0.000  -0.000   0.000   0.000   0.000   0.000
  0.000   0.000   0.054   0.000  -0.000   0.271   0.000   0.000  -0.000   0.000  -0.000   0.000   0.000   0.000   0.000   0.000
  0.000   0.000   0.000   0.000   0.000   0.000   1.000  -0.000   0.000  -0.000   0.000  -0.770  -0.000  -0.000   0.000   0.000
  0.000   0.000   0.000   0.000  -0.000   0.000   0.000   1.000   0.000   0.000  -0.000   0.000  -0.770  -0.000   0.000  -0.000
  0.000  -0.000   0.000   0.000   0.000   0.000   0.000   0.000   0.732   0.000   0.000  -0.000   0.000  -0.635   0.000  -0.000
  0.000   0.000  -0.000   0.000   0.000   0.000   0.000  -0.000   0.000   1.000   0.000  -0.000  -0.000  -0.000  -0.770   0.000
 -0.000   0.000   0.000   0.000  -0.000   0.000  -0.000   0.000   0.000  -0.000   0.732  -0.000  -0.000  -0.000   0.000  -0.635
  0.000   0.000   0.000  -0.000  -0.000   0.000  -0.770   0.000  -0.000   0.000   0.000   0.745   0.000   0.000   0.000  -0.000
  0.000   0.000   0.000   0.000   0.000   0.000  -0.000  -0.770  -0.000   0.000   0.000  -0.000   0.745   0.000   0.000   0.000
  0.000   0.000  -0.000   0.000   0.000   0.000   0.000   0.000  -0.635  -0.000  -0.000   0.000   0.000   0.695   0.000   0.000
  0.000   0.000   0.000   0.000   0.000   0.000   0.000  -0.000   0.000  -0.770  -0.000  -0.000   0.000   0.000   0.745  -0.000
  0.000   0.000  -0.000  -0.000  -0.000   0.000  -0.000  -0.000  -0.000   0.000  -0.635  -0.000   0.000   0.000  -0.000   0.695
  0.000  -0.000   0.000   0.000   0.000   0.000  -0.000  -0.000   0.000  -0.000   0.000  -0.000  -0.000   0.000   0.000  -0.000
 -0.000  -0.000   0.000   0.000   0.000   0.000   0.000  -0.000   0.000   0.000   0.000  -0.000   0.000  -0.000  -0.000   0.000


------------------------ aborting loop because EDIFF is reached ----------------------------------------


    CHARGE:  cpu time      0.0012: real time      0.0012
    FORLOC:  cpu time      0.0000: real time      0.0000
    FORNL :  cpu time      0.0010: real time      0.0010
    STRESS:  cpu time      0.0058: real time      0.0059
    FORCOR:  cpu time      0.0010: real time      0.0010
    FORHAR:  cpu time      0.0002: real time      0.0002
    MIXING:  cpu time      0.0002: real time      0.0002
    OFIELD:  cpu time      0.0000: real time      0.0000

  FORCE on cell =-STRESS in cart. coord.  units (eV):
  Direction    XX          YY          ZZ          XY          YZ          ZX
  --------------------------------------------------------------------------------------
  Alpha Z   318.40370   318.40370   318.40370
  Ewald    -788.65833  -788.65833  -788.65833     0.00000     0.00000     0.00000
  Hartree    85.87229    85.87229    85.87229    -0.00000    -0.00000    -0.00000
  E(xc)    -105.27341  -105.27341  -105.27341     0.00000     0.00000    -0.00000
  Local     241.32983   241.32983   241.32983     0.00000    -0.00000     0.00000
  n-local   -96.47040   -94.21517   -89.21600     2.90934     0.01846     0.01844
  augment    61.10508    61.10508    61.10508     0.00000     0.00000     0.00000
  Kinetic   277.24619   275.51856   288.76818     5.53169    -1.22399    -1.22398
  Fock        0.00000     0.00000     0.00000     0.00000     0.00000     0.00000
  -------------------------------------------------------------------------------------
  Total      -0.01038    -0.01038    -0.01038    -0.00000    -0.00000    -0.00000
  in kB      -0.51266    -0.51266    -0.51266    -0.00000    -0.00000    -0.00000
  external pressure =       -0.51 kB  Pullay stress =        0.00 kB


 VOLUME and BASIS-vectors are now :
 -----------------------------------------------------------------------------
  energy-cutoff  :      400.00
  volume of cell :       32.45
      direct lattice vectors                 reciprocal lattice vectors
     3.189468382 -0.000000000  0.000000000     0.313531874  0.000000000  0.000000000
    -0.000000000  3.189468382  0.000000000     0.000000000  0.313531874  0.000000000
    -0.000000000 -0.000000000  3.189468382    -0.000000000 -0.000000000  0.313531874

  length of vectors
     3.189468382  3.189468382  3.189468382     0.313531874  0.313531874  0.313531874


 FORCES acting on ions
    electron-ion (+dipol)            ewald-force                    non-local-force                 convergence-correction
 -----------------------------------------------------------------------------------------------
   0.367E-14 -.924E-16 -.691E-16   -.859E-14 -.681E-14 -.462E-14   0.700E-25 0.705E-25 0.542E-25   0.323E-15 0.175E-14 0.125E-13
   0.649E-13 0.868E-12 0.126E-12   0.840E-14 0.932E-14 0.392E-14   0.661E-25 0.681E-25 0.559E-25   0.277E-14 -.214E-14 0.125E-13
 -----------------------------------------------------------------------------------------------
   0.686E-13 0.867E-12 0.126E-12   -.187E-15 0.251E-14 -.703E-15   0.136E-24 0.139E-24 0.110E-24   0.309E-14 -.393E-15 0.250E-13
 
 
 POSITION                                       TOTAL-FORCE (eV/Angst)
 -----------------------------------------------------------------------------------
      0.00000      0.00000      0.00000         0.000000      0.000000      0.000000
      1.59473      1.59473      1.59473        -0.000000     -0.000000     -0.000000
 -----------------------------------------------------------------------------------
    total drift:                                0.000000      0.000000      0.000000


--------------------------------------------------------------------------------------------------------



  FREE ENERGIE OF THE ION-ELECTRON SYSTEM (eV)
  ---------------------------------------------------
  free  energy   TOTEN  =       -25.80454154 eV

  energy  without entropy=      -25.80454093  energy(sigma->0) =      -25.80454124
 
 d Force = 0.8944992E-64[ 0.373E-64, 0.142E-63]  d Energy = 0.2513059E-04-0.251E-04
 d Force =-0.4579328E-48[-0.353E-48,-0.563E-48]  d Ewald  = 0.5958900E+00-0.596E+00


--------------------------------------------------------------------------------------------------------


    POTLOK:  cpu time      0.0037: real time      0.0037


--------------------------------------------------------------------------------------------------------




--------------------------------------------------------------------------------------------------------


  
 reached required accuracy - stopping structural energy minimisation
     LOOP+:  cpu time      0.0872: real time      0.0887
    4ORBIT:  cpu time      0.0000: real time      0.0000

 total amount of memory used by VASP MPI-rank0    30785. kBytes
=======================================================================

   base      :      30000. kBytes
   nonl-proj :        357. kBytes
   fftplans  :         86. kBytes
   grid      :        270. kBytes
   one-center:         31. kBytes
   wavefun   :         41. kBytes
 
  
  
 General timing and accounting informations for this job:
 ========================================================
  
                  Total CPU time used (sec):        1.227
                            User time (sec):        1.021
                          System time (sec):        0.206
                         Elapsed time (sec):        1.955
  
                   Maximum memory used (kb):       59188.
                   Average memory used (kb):          N/A
  
                          Minor page faults:        14196
                          Major page faults:            0
                 Voluntary context switches:         1125
