HECN                                    
           1
    11.240000    0.000000    0.000000
     0.000000   11.240000    0.000000
     0.000000    0.000000   11.240000
   Ti   Mo   V    N    C    Ta   W 
   7   6   7  13  19   6   6
Direct configuration=     1
   0.00000000  0.00000000  0.00000000
   0.25000000  0.00000000  0.25000000
   0.25000000  0.50000000  0.25000000
   0.50000000  0.50000000  0.00000000
   0.50000000  0.25000000  0.75000004
   0.00000000  0.50000000  0.50000000
   0.50000000  0.75000004  0.75000004
   0.00000000  0.25000000  0.25000000
   0.75000004  0.75000004  0.00000000
   0.00000000  0.25000000  0.75000004
   0.75000004  0.25000000  0.50000000
   0.00000000  0.75000004  0.75000004
   0.25000000  0.50000000  0.75000004
   0.25000000  0.25000000  0.00000000
   0.50000000  0.25000000  0.25000000
   0.75000004  0.00000000  0.25000000
   0.75000004  0.25000000  0.00000000
   0.25000000  0.75000004  0.00000000
   0.25000000  0.25000000  0.50000000
   0.25000000  0.75000004  0.50000000
   0.25000000  0.25000000  0.25000000
   0.25000000  0.00000000  0.00000000
   0.00000000  0.25000000  0.00000000
   0.75000004  0.25000000  0.25000000
   0.75000004  0.00000000  0.00000000
   0.50000000  0.00000000  0.25000000
   0.00000000  0.50000000  0.25000000
   0.50000000  0.75000004  0.00000000
   0.00000000  0.00000000  0.75000004
   0.75000004  0.25000000  0.75000004
   0.75000004  0.00000000  0.50000000
   0.50000000  0.25000000  0.50000000
   0.50000000  0.00000000  0.75000004
   0.00000000  0.00000000  0.25000000
   0.50000000  0.25000000  0.00000000
   0.25000000  0.75000004  0.25000000
   0.25000000  0.50000000  0.00000000
   0.00000000  0.75000004  0.00000000
   0.75000004  0.75000004  0.25000000
   0.75000004  0.50000000  0.00000000
   0.50000000  0.50000000  0.25000000
   0.25000000  0.25000000  0.75000004
   0.25000000  0.00000000  0.50000000
   0.00000000  0.25000000  0.50000000
   0.25000000  0.75000004  0.75000004
   0.25000000  0.50000000  0.50000000
   0.00000000  0.75000004  0.50000000
   0.00000000  0.50000000  0.75000004
   0.75000004  0.75000004  0.75000004
   0.75000004  0.50000000  0.50000000
   0.50000000  0.75000004  0.50000000
   0.50000000  0.50000000  0.75000004
   0.50000000  0.00000000  0.00000000
   0.00000000  0.50000000  0.00000000
   0.50000000  0.75000004  0.25000000
   0.25000000  0.00000000  0.75000004
   0.50000000  0.00000000  0.50000000
   0.75000004  0.00000000  0.75000004
   0.00000000  0.75000004  0.25000000
   0.75000004  0.50000000  0.25000000
   0.00000000  0.00000000  0.50000000
   0.50000000  0.50000000  0.50000000
   0.75000004  0.50000000  0.75000004
   0.75000004  0.75000004  0.50000000
HECN                                    
           1
     8.038969    0.001301   -0.000004
     0.001301    8.046246    0.000573
    -0.000004    0.000573    8.036195
   Ti   Mo   V    N    C    Ta   W 
   7   6   7  13  19   6   6
Direct configuration=     2
  -0.00037277 -0.00090018  0.00125677
   0.24879475 -0.00046430  0.25123727
   0.25110445  0.50055301  0.25002656
   0.50011666  0.49871142 -0.00009752
   0.49919522  0.25162489  0.75069937
   0.00008538  0.49982080  0.50116083
   0.49993992  0.74841431  0.74877778
  -0.00029139  0.24750019  0.25215940
   0.75240436  0.74803233 -0.00006756
   0.00184899  0.25177906  0.74780004
   0.75234683  0.25208142  0.49975097
  -0.00002503  0.74812594  0.74998033
   0.25022265  0.50008209  0.74991231
   0.25079072  0.25151716 -0.00115237
   0.50022581  0.25144968  0.24888035
   0.75144189 -0.00114288  0.25009729
   0.74907159  0.25139411  0.00023499
   0.24827779  0.74844871 -0.00023657
   0.24845882  0.25034973  0.50115501
   0.24948655  0.74968848  0.50028439
   0.24907913  0.24984032  0.25001706
   0.25242912  0.00001114 -0.00214465
  -0.00010408  0.25233258  0.00008208
   0.75084730  0.25202474  0.25100540
   0.74759266 -0.00039234 -0.00305051
   0.49954710 -0.00264434  0.24983100
  -0.00131134  0.50104049  0.24771364
   0.50047588  0.75254747  0.00219040
  -0.00025174  0.00010795  0.74893859
   0.74990241  0.24870366  0.74920562
   0.74918652 -0.00095983  0.50265597
   0.50077442  0.24890006  0.50056957
   0.50024618  0.00002254  0.75014861
  -0.00002338 -0.00121394  0.25227366
   0.50008748  0.24691451 -0.00017923
   0.25048646  0.75006035  0.24992759
   0.24720374  0.49992518 -0.00057702
  -0.00105654  0.74757854  0.00131601
   0.74958564  0.74783230  0.25124643
   0.75248443  0.50082393  0.00017731
   0.50225416  0.50253227  0.25196430
   0.24892033  0.24813088  0.74996844
   0.25041288  0.00015078  0.50241663
  -0.00126468  0.24780483  0.49995819
   0.24929412  0.75190899  0.75004809
   0.25217559  0.49983878  0.50063530
  -0.00227635  0.75205797  0.49878702
  -0.00131628  0.49990546  0.75240180
   0.75054164  0.75052736  0.74871393
   0.74825412  0.50110656  0.49987542
   0.50216549  0.75052744  0.49769352
   0.50139369  0.49993718  0.74791597
   0.50061034  0.00213640  0.00037734
  -0.00011766  0.50107833 -0.00152254
   0.50018523  0.74826057  0.25160499
   0.24896511 -0.00009735  0.74826977
   0.49823084 -0.00146944  0.49962652
   0.75104900 -0.00173690  0.74982551
  -0.00021102  0.75257320  0.24989761
   0.74795555  0.50174174  0.24981215
   0.00200530  0.00034670  0.49806680
   0.49995425  0.50200518  0.50015006
   0.74977418  0.50244293  0.75020343
   0.75074028  0.74776955  0.50010328
HECN                                    
           1
     8.758518    0.001008   -0.000003
     0.001008    8.764159    0.000444
    -0.000003    0.000444    8.756368
   Ti   Mo   V    N    C    Ta   W 
   7   6   7  13  19   6   6
Direct configuration=     3
  -0.00025566 -0.00061751  0.00086162
   0.24917353 -0.00031854  0.25084826
   0.25075736  0.50037942  0.25001822
   0.50007993  0.49911605 -0.00006689
   0.49944824  0.25111463  0.75047953
   0.00005854  0.49987710  0.50079586
   0.49995872  0.74891221  0.74916203
  -0.00019994  0.24828519  0.25148042
   0.75164860  0.74865033 -0.00004636
   0.00126796  0.25122046  0.74849177
   0.75160935  0.25142795  0.49982931
  -0.00001726  0.74871442  0.74998648
   0.25015268  0.50005632  0.74993989
   0.25054228  0.25104077 -0.00079003
   0.50015492  0.25099445  0.24923240
   0.75098866 -0.00078393  0.25006668
   0.74936347  0.25095630  0.00016114
   0.24881899  0.74893575 -0.00016223
   0.24894322  0.25023986  0.50079188
   0.24964791  0.74978629  0.50019497
   0.24936854  0.24989042  0.25001169
   0.25166566  0.00000772 -0.00147037
  -0.00007125  0.25160013  0.00005633
   0.75058111  0.25138902  0.25068935
   0.74834926 -0.00026933 -0.00209143
   0.49968931 -0.00181402  0.24988407
  -0.00089914  0.50071365  0.24843250
   0.50032645  0.75174763  0.00150179
  -0.00017262  0.00007402  0.74927232
   0.74993303  0.24911070  0.74945536
   0.74944216 -0.00065841  0.50182090
   0.50053097  0.24924551  0.50039047
   0.50016881  0.00001548  0.75010190
  -0.00001609 -0.00083270  0.25155879
   0.50005983  0.24788339 -0.00012295
   0.25033357  0.75004143  0.24995036
   0.24808259  0.49994852 -0.00039561
  -0.00072460  0.74833889  0.00090220
   0.74971577  0.74851300  0.25085450
   0.75170364  0.50056534  0.00012158
   0.50154582  0.50173727  0.25134677
   0.24925957  0.24871775  0.74997834
   0.25028312  0.00010351  0.50165684
  -0.00086731  0.24849407  0.49997128
   0.24951607  0.75130953  0.75003303
   0.25149181  0.49988953  0.50043555
  -0.00156080  0.75141162  0.49916843
  -0.00090258  0.49993513  0.75164668
   0.75037145  0.75036177  0.74911830
   0.74880291  0.50075899  0.49991461
   0.50148492  0.75036189  0.49841870
   0.50095566  0.49995693  0.74857121
   0.50041862  0.00146559  0.00025875
  -0.00008063  0.50073969 -0.00104383
   0.50012692  0.74880683  0.25110034
   0.24929036 -0.00006687  0.74881377
   0.49878680 -0.00100812  0.49974391
   0.75071923 -0.00119145  0.74988035
  -0.00014457  0.75176519  0.24992986
   0.74859821  0.50119471  0.24987125
   0.00137506  0.00023789  0.49867461
   0.49996873  0.50137553  0.50010293
   0.74984529  0.50167582  0.75013954
   0.75050751  0.74846999  0.50007076
HECN                                    
           1
     8.694248    0.001034   -0.000003
     0.001034    8.700035    0.000456
    -0.000003    0.000456    8.692042
   Ti   Mo   V    N    C    Ta   W 
   7   6   7  13  19   6   6
Direct configuration=     4
  -0.00026526 -0.00064069  0.00089401
   0.24914247 -0.00033049  0.25088015
   0.25078581  0.50039365  0.25001890
   0.50008294  0.49908287 -0.00006940
   0.49942750  0.25115648  0.75049756
   0.00006074  0.49987249  0.50082578
   0.49995718  0.74887138  0.74913053
  -0.00020744  0.24822081  0.25153608
   0.75171056  0.74859966 -0.00004810
   0.00131559  0.25126627  0.74843506
   0.75166981  0.25148154  0.49982289
  -0.00001789  0.74866617  0.74998598
   0.25015841  0.50005844  0.74993763
   0.25056264  0.25107983 -0.00081973
   0.50016073  0.25103178  0.24920354
   0.75102582 -0.00081336  0.25006919
   0.74933954  0.25099221  0.00016719
   0.24877462  0.74889581 -0.00016832
   0.24890351  0.25024886  0.50082164
   0.24963468  0.74977827  0.50020230
   0.24934482  0.24988631  0.25001213
   0.25172825  0.00000800 -0.00152564
  -0.00007394  0.25166019  0.00005844
   0.75060294  0.25144115  0.25071526
   0.74828724 -0.00027942 -0.00217005
   0.49967765 -0.00188211  0.24987972
  -0.00093293  0.50074045  0.24837357
   0.50033870  0.75181322  0.00155824
  -0.00017910  0.00007680  0.74924496
   0.74993052  0.24907732  0.74943488
   0.74942120 -0.00068313  0.50188936
   0.50055092  0.24921718  0.50040515
   0.50017515  0.00001605  0.75010573
  -0.00001669 -0.00086396  0.25161739
   0.50006209  0.24780394 -0.00012756
   0.25034610  0.75004299  0.24994849
   0.24801054  0.49994660 -0.00041048
  -0.00075181  0.74827654  0.00093612
   0.74970510  0.74845718  0.25088663
   0.75176765  0.50058655  0.00012615
   0.50160389  0.50180247  0.25139740
   0.24923175  0.24866962  0.74997752
   0.25029376  0.00010739  0.50171912
  -0.00089989  0.24843755  0.49997021
   0.24949788  0.75135868  0.75003426
   0.25154787  0.49988537  0.50045193
  -0.00161946  0.75146462  0.49913717
  -0.00093650  0.49993270  0.75170858
   0.75038540  0.75037535  0.74908515
   0.74875792  0.50078749  0.49991140
   0.50154071  0.75037546  0.49835925
   0.50099157  0.49995531  0.74851750
   0.50043434  0.00152060  0.00026847
  -0.00008366  0.50076746 -0.00108307
   0.50013170  0.74876203  0.25114171
   0.24926370 -0.00006938  0.74876918
   0.49874122 -0.00104595  0.49973429
   0.75074626 -0.00123617  0.74987585
  -0.00015001  0.75183145  0.24992722
   0.74854553  0.50123957  0.24986641
   0.00142673  0.00024682  0.49862479
   0.49996755  0.50142717  0.50010679
   0.74983947  0.50173873  0.75014478
   0.75052659  0.74841255  0.50007342
HECN                                    
           1
     8.669916    0.001044   -0.000003
     0.001044    8.675759    0.000460
    -0.000003    0.000460    8.667689
   Ti   Mo   V    N    C    Ta   W 
   7   6   7  13  19   6   6
Direct configuration=     5
  -0.00026892 -0.00064953  0.00090636
   0.24913063 -0.00033505  0.25089231
   0.25079666  0.50039908  0.25001916
   0.50008409  0.49907022 -0.00007036
   0.49941959  0.25117243  0.75050443
   0.00006158  0.49987073  0.50083719
   0.49995659  0.74885581  0.74911851
  -0.00021030  0.24819626  0.25155731
   0.75173419  0.74858033 -0.00004876
   0.00133376  0.25128374  0.74841344
   0.75169287  0.25150198  0.49982044
  -0.00001814  0.74864776  0.74998578
   0.25016060  0.50005924  0.74993677
   0.25057041  0.25109473 -0.00083106
   0.50016295  0.25104602  0.24919254
   0.75103999 -0.00082459  0.25007014
   0.74933041  0.25100590  0.00016950
   0.24875770  0.74888058 -0.00017065
   0.24888837  0.25025230  0.50083300
   0.24962964  0.74977521  0.50020510
   0.24933577  0.24988474  0.25001230
   0.25175212  0.00000811 -0.00154672
  -0.00007496  0.25168310  0.00005925
   0.75061126  0.25146103  0.25072514
   0.74826358 -0.00028327 -0.00220003
   0.49967320 -0.00190807  0.24987806
  -0.00094582  0.50075067  0.24835110
   0.50034337  0.75183823  0.00157976
  -0.00018158  0.00007786  0.74923453
   0.74992956  0.24906459  0.74942708
   0.74941321 -0.00069256  0.50191546
   0.50055853  0.24920638  0.50041075
   0.50017757  0.00001628  0.75010719
  -0.00001692 -0.00087589  0.25163974
   0.50006296  0.24777363 -0.00012932
   0.25035088  0.75004358  0.24994778
   0.24798306  0.49994587 -0.00041615
  -0.00076219  0.74825276  0.00094906
   0.74970103  0.74843590  0.25089888
   0.75179207  0.50059463  0.00012789
   0.50162604  0.50182733  0.25141670
   0.24922115  0.24865127  0.74997722
   0.25029782  0.00010886  0.50174287
  -0.00091232  0.24841599  0.49996980
   0.24949094  0.75137743  0.75003473
   0.25156925  0.49988378  0.50045817
  -0.00164183  0.75148483  0.49912524
  -0.00094943  0.49993177  0.75173218
   0.75039072  0.75038053  0.74907251
   0.74874076  0.50079836  0.49991018
   0.50156199  0.75038064  0.49833658
   0.50100526  0.49995469  0.74849701
   0.50044034  0.00154158  0.00027218
  -0.00008482  0.50077805 -0.00109803
   0.50013353  0.74874495  0.25115748
   0.24925353 -0.00007033  0.74875217
   0.49872384 -0.00106038  0.49973062
   0.75075657 -0.00125323  0.74987413
  -0.00015209  0.75185672  0.24992621
   0.74852544  0.50125667  0.24986456
   0.00144644  0.00025022  0.49860578
   0.49996710  0.50144686  0.50010827
   0.74983725  0.50176272  0.75014678
   0.75053387  0.74839064  0.50007444
HECN                                    
           1
     8.653753   -0.002466    0.001355
    -0.002469    8.658760   -0.001429
     0.001355   -0.001427    8.646747
   Ti   Mo   V    N    C    Ta   W 
   7   6   7  13  19   6   6
Direct configuration=     6
  -0.00105039 -0.00032128  0.00391869
   0.24740874  0.00148362  0.25199668
   0.25295509  0.49853943  0.25011892
   0.49887304  0.49593365 -0.00018685
   0.49731646  0.25416835  0.75290064
   0.00277018  0.49898148  0.50119328
   0.49814603  0.74594801  0.74817318
   0.00168061  0.24184946  0.25448551
   0.75642616  0.74568019  0.00009841
   0.00610427  0.25494781  0.74569565
   0.75530808  0.25520409  0.49751785
   0.00197648  0.74493995  0.75077237
   0.25222622  0.49946627  0.75023773
   0.25346059  0.25478640 -0.00212056
   0.49874692  0.25388901  0.24532747
   0.75370530 -0.00159985  0.24842821
   0.74592856  0.25297561  0.00184484
   0.24471080  0.74457736  0.00030680
   0.24639174  0.25113133  0.50202856
   0.24904397  0.74913995  0.49981720
   0.25329240  0.24953763  0.25019542
   0.24939790  0.00034591  0.00193072
  -0.00012790  0.24874465  0.00040425
   0.74626276  0.24797980  0.24693724
   0.75176889  0.00487268  0.00163078
   0.50006008  0.00222565  0.24942215
   0.00226681  0.50143067  0.25139969
   0.49550333  0.74987135 -0.00174114
  -0.00055448  0.00023374  0.75283495
   0.74532740  0.24914199  0.75364630
   0.75007716 -0.00104466  0.49746161
   0.49617589  0.24948682  0.49991673
   0.50031401  0.00041359  0.75066513
  -0.00208764 -0.00090439  0.24907823
   0.50002241  0.25150453  0.00173080
   0.24881899  0.75041627  0.24970519
   0.25148276  0.49949324  0.00244080
   0.00409649  0.75235484  0.00147389
   0.75066818  0.75284945  0.25097459
   0.74783701  0.49545885  0.00055665
   0.49873548  0.49540726  0.24831299
   0.25150624  0.25005308  0.74978250
   0.24822075  0.00065222  0.49671891
   0.00367696  0.25136806  0.50000719
   0.25272235  0.75023295  0.75012962
   0.24971350  0.49926047  0.49759501
   0.00267854  0.74924714  0.49878027
  -0.00072417  0.49958616  0.74715561
   0.74621524  0.74890635  0.74894570
   0.75234199  0.50039424  0.49961731
   0.49714610  0.74884248  0.50310688
   0.50097063  0.49974655  0.75116709
   0.50079023  0.00611848  0.00270337
   0.00161040  0.49914146 -0.00125764
   0.49750745  0.74650504  0.25085989
   0.24701212 -0.00004321  0.74852041
   0.49368218 -0.00115385  0.49754156
   0.75293296 -0.00183851  0.75239576
   0.00238014  0.75717762  0.24947077
   0.74536373  0.50093834  0.24809985
   0.00689696  0.00113288  0.49472095
   0.49651950  0.50336522  0.50021428
   0.74722102  0.50423671  0.75226315
   0.75214901  0.74459007  0.49993071
HECN                                    
           1
     8.646696   -0.003999    0.001948
    -0.004002    8.651337   -0.002254
     0.001948   -0.002251    8.637603
   Ti   Mo   V    N    C    Ta   W 
   7   6   7  13  19   6   6
Direct configuration=     7
  -0.00139238 -0.00017752  0.00523724
   0.24665575  0.00227908  0.25248035
   0.25389896  0.49772624  0.25016226
   0.49834271  0.49456119 -0.00023805
   0.49639681  0.25547889  0.75394987
   0.00395488  0.49859295  0.50134886
   0.49735355  0.74467546  0.74775926
   0.00250645  0.23907341  0.25576642
   0.75847814  0.74441225  0.00016223
   0.00819197  0.25655140  0.74450612
   0.75689036  0.25682416  0.49651013
   0.00284832  0.74331824  0.75111616
   0.25312970  0.49920724  0.75036926
   0.25472565  0.25640187 -0.00268481
   0.49812826  0.25513218  0.24363613
   0.75487122 -0.00193871  0.24770930
   0.74444066  0.25383690  0.00257854
   0.24293969  0.74269406  0.00051564
   0.24529966  0.25151558  0.50255210
   0.24878769  0.74886189  0.49964741
   0.25502315  0.24938648  0.25027526
   0.24836787  0.00049361  0.00345296
  -0.00015160  0.24745913  0.00055497
   0.74436015  0.24645566  0.24527928
   0.75330295  0.00712936  0.00330775
   0.50023009  0.00403415  0.24922297
   0.00367209  0.50172903  0.25273388
   0.49338594  0.74900969 -0.00319453
  -0.00071782  0.00030222  0.75441087
   0.74331391  0.24917544  0.75549334
   0.75036785 -0.00119902  0.49551211
   0.49425879  0.24960868  0.49970083
   0.50037372  0.00058748  0.75090936
  -0.00299331 -0.00091748  0.24795722
   0.50000520  0.25313693  0.00254531
   0.24814894  0.75057903  0.24959915
   0.25301342  0.49929611  0.00369098
   0.00622262  0.75415037  0.00170366
   0.75109204  0.75478053  0.25100809
   0.74610593  0.49321132  0.00074410
   0.49747007  0.49259772  0.24695410
   0.25250611  0.25066676  0.74969725
   0.24731258  0.00088909  0.49452015
   0.00568507  0.25266038  0.50002352
   0.25413572  0.74973283  0.75017082
   0.24890179  0.49898718  0.49634190
   0.00456812  0.74826890  0.49862876
  -0.00062538  0.49943456  0.74515243
   0.74438843  0.74826066  0.74889035
   0.75391730  0.50021804  0.49948884
   0.49521377  0.74816922  0.50519495
   0.50095527  0.49965574  0.75233575
   0.50094394  0.00812113  0.00376790
   0.00235169  0.49842576 -0.00132777
   0.49635830  0.74552460  0.25072960
   0.24603164 -0.00003176  0.74841913
   0.49147685 -0.00119585  0.49658376
   0.75388475 -0.00209395  0.75349925
   0.00348884  0.75950588  0.24927176
   0.74398070  0.50079835  0.24732764
   0.00928172  0.00151963  0.49302030
   0.49501168  0.50420389  0.50026110
   0.74607685  0.50531880  0.75318989
   0.75285489  0.74292762  0.49986733
HECN                                    
           1
     8.698727    0.001338    0.006183
     0.001343    8.720947    0.001645
     0.006178    0.001640    8.690537
   Ti   Mo   V    N    C    Ta   W 
   7   6   7  13  19   6   6
Direct configuration=     8
  -0.00248559  0.00188115  0.00565576
   0.24603521  0.00430385  0.25091643
   0.25448328  0.49555756  0.25025322
   0.49734509  0.49371106 -0.00002424
   0.49568421  0.25621201  0.75531359
   0.00671800  0.49913221  0.50022309
   0.49562424  0.74382849  0.74843571
   0.00226176  0.23676402  0.25706145
   0.76280214  0.74392519  0.00038542
   0.01110513  0.25846030  0.74435337
   0.75986539  0.25892144  0.49407093
   0.00333173  0.74091463  0.75127978
   0.25475063  0.49957165  0.75039870
   0.25759218  0.25926232 -0.00327435
   0.49744830  0.25649704  0.23968188
   0.75559524 -0.00272623  0.24570822
   0.74023782  0.25408407  0.00420092
   0.24046124  0.73843827  0.00082783
   0.24423422  0.25203220  0.50382382
   0.24833589  0.74831448  0.49904637
   0.25581036  0.24907014  0.25026071
   0.24925445  0.00124284  0.00336767
   0.00027424  0.24760211  0.00130830
   0.74339271  0.24534896  0.24481255
   0.75368706  0.00805513  0.00424028
   0.49979756  0.00457817  0.24994962
   0.00332710  0.50132922  0.25189936
   0.49255351  0.75051692 -0.00279620
  -0.00149533  0.00045854  0.75450165
   0.74217482  0.24811665  0.75581898
   0.74948527 -0.00130611  0.49568723
   0.49408769  0.24898413  0.49983993
   0.50057078  0.00142484  0.75092850
  -0.00288960 -0.00078640  0.24815556
   0.49933091  0.25443078  0.00219672
   0.24860929  0.75053156  0.24904421
   0.25190254  0.49895021  0.00390865
   0.00753161  0.75254664  0.00103740
   0.74999406  0.75513550  0.25033879
   0.74723396  0.49304741  0.00111405
   0.49682148  0.49268902  0.24772961
   0.25316268  0.25037025  0.74976556
   0.24836389  0.00090834  0.49538299
   0.00668783  0.25269370  0.50015976
   0.25328963  0.74987889  0.75071378
   0.24940750  0.49898797  0.49645536
   0.00491950  0.74902847  0.49917366
  -0.00103820  0.49904875  0.74586028
   0.74424963  0.74943584  0.74977723
   0.75357359  0.49991320  0.49920354
   0.49486192  0.74925985  0.50383327
   0.50048164  0.49942592  0.75196363
   0.50178046  0.00907255  0.00490418
   0.00201489  0.49797230 -0.00179932
   0.49615384  0.74310407  0.25154561
   0.24484867 -0.00037058  0.74824287
   0.48981623 -0.00236016  0.49600725
   0.75506003 -0.00261638  0.75361635
   0.00453350  0.76091817  0.24990470
   0.74158189  0.50033833  0.24662246
   0.01095857  0.00210073  0.49277429
   0.49396386  0.50525599  0.50031814
   0.74458347  0.50593145  0.75476468
   0.75386507  0.74065109  0.49912892
HECN                                    
           1
     8.691731    0.000620    0.005614
     0.000625    8.711588    0.001120
     0.005610    0.001117    8.683420
   Ti   Mo   V    N    C    Ta   W 
   7   6   7  13  19   6   6
Direct configuration=     9
  -0.00233928  0.00160650  0.00559988
   0.24611821  0.00403364  0.25112551
   0.25440501  0.49584688  0.25024097
   0.49747837  0.49382438 -0.00005293
   0.49577959  0.25611425  0.75513135
   0.00634868  0.49906044  0.50037374
   0.49585534  0.74394135  0.74834515
   0.00229436  0.23707210  0.25688824
   0.76222422  0.74399052  0.00035585
   0.01071594  0.25820592  0.74437409
   0.75946780  0.25864181  0.49439721
   0.00326693  0.74123527  0.75125780
   0.25453403  0.49952318  0.75039489
   0.25720927  0.25888099 -0.00319521
   0.49753903  0.25631470  0.24021034
   0.75549828 -0.00262125  0.24597563
   0.74079965  0.25405085  0.00398385
   0.24079216  0.73900572  0.00078569
   0.24437674  0.25196328  0.50365384
   0.24839619  0.74838742  0.49912663
   0.25570512  0.24911240  0.25026269
   0.24913602  0.00114297  0.00337917
   0.00021739  0.24758312  0.00120767
   0.74352189  0.24549646  0.24487479
   0.75363586  0.00793173  0.00411574
   0.49985546  0.00450561  0.24985252
   0.00337312  0.50138247  0.25201083
   0.49266491  0.75031584 -0.00284940
  -0.00139140  0.00043764  0.75448947
   0.74232699  0.24825780  0.75577533
   0.74960323 -0.00129189  0.49566377
   0.49411051  0.24906742  0.49982129
   0.50054451  0.00131317  0.75092601
  -0.00290344 -0.00080387  0.24812907
   0.49942111  0.25425813  0.00224334
   0.24854772  0.75053790  0.24911840
   0.25205099  0.49899627  0.00387947
   0.00735649  0.75276061  0.00112643
   0.75014079  0.75508803  0.25042818
   0.74708321  0.49306939  0.00106467
   0.49690822  0.49267684  0.24762594
   0.25307491  0.25040986  0.74975646
   0.24822344  0.00090591  0.49526775
   0.00655383  0.25268934  0.50014162
   0.25340276  0.74985937  0.75064118
   0.24933992  0.49898791  0.49644023
   0.00487264  0.74892722  0.49910091
  -0.00098301  0.49910022  0.74576564
   0.74426833  0.74927914  0.74965877
   0.75361948  0.49995382  0.49924163
   0.49490894  0.74911427  0.50401528
   0.50054490  0.49945652  0.75201331
   0.50166881  0.00894578  0.00475244
   0.00205984  0.49803272 -0.00173635
   0.49618102  0.74342695  0.25143641
   0.24500673 -0.00032549  0.74826633
   0.49003804 -0.00220503  0.49608412
   0.75490292 -0.00254659  0.75360074
   0.00439404  0.76072992  0.24982027
   0.74190240  0.50039944  0.24671651
   0.01073450  0.00202335  0.49280731
   0.49410399  0.50511558  0.50031052
   0.74478321  0.50584970  0.75455418
   0.75372982  0.74095477  0.49922753
HECN                                    
           1
     8.685646    0.004360    0.009757
     0.004372    8.709005    0.004137
     0.009753    0.004127    8.670963
   Ti   Mo   V    N    C    Ta   W 
   7   6   7  13  19   6   6
Direct configuration=    10
  -0.00323080  0.00335921  0.00557630
   0.24582894  0.00560246  0.25001000
   0.25474373  0.49417305  0.25037252
   0.49706310  0.49363797  0.00012557
   0.49539336  0.25632698  0.75609212
   0.00817522  0.49957880  0.49963149
   0.49470515  0.74363099  0.74864228
   0.00142747  0.23559846  0.25799543
   0.76579236  0.74379206  0.00051156
   0.01305640  0.25959348  0.74450819
   0.76218116  0.26050383  0.49184380
   0.00342027  0.73934546  0.75118128
   0.25552134  0.49983923  0.75031561
   0.25960538  0.26092538 -0.00365866
   0.49731847  0.25732576  0.23699652
   0.75589218 -0.00352027  0.24412278
   0.73716934  0.25408221  0.00544489
   0.23895170  0.73568780  0.00112174
   0.24358966  0.25214544  0.50493819
   0.24815116  0.74806190  0.49858407
   0.25573459  0.24889706  0.25021141
   0.25027195  0.00180428  0.00277115
   0.00057651  0.24803147  0.00190422
   0.74314395  0.24503650  0.24501976
   0.75352065  0.00812469  0.00417341
   0.49943907  0.00442237  0.25046213
   0.00266615  0.50101867  0.25104429
   0.49252373  0.75189385 -0.00208109
  -0.00199287  0.00057436  0.75409694
   0.74189557  0.24731977  0.75542247
   0.74880898 -0.00127470  0.49656649
   0.49463931  0.24842483  0.50004060
   0.50067156  0.00191316  0.75093208
  -0.00267538 -0.00102052  0.24865454
   0.49881003  0.25480294  0.00156556
   0.24879555  0.75041387  0.24860147
   0.25090526  0.49874420  0.00371912
   0.00793082  0.75132419  0.00085033
   0.74946974  0.75473946  0.25000451
   0.74796876  0.49363291  0.00125739
   0.49657173  0.49320386  0.24847272
   0.25330697  0.25014972  0.74987050
   0.24887983  0.00089768  0.49609723
   0.00689917  0.25248731  0.50053326
   0.25233623  0.75004238  0.75114755
   0.25003036  0.49903495  0.49687743
   0.00454590  0.74984486  0.49943300
  -0.00137490  0.49873721  0.74645460
   0.74443932  0.75008772  0.75019626
   0.75319764  0.49973200  0.49918070
   0.49522373  0.74984294  0.50287033
   0.50034000  0.49942384  0.75149598
   0.50221136  0.00930043  0.00557009
   0.00157958  0.49749472 -0.00195296
   0.49605707  0.74190077  0.25190324
   0.24411349 -0.00064003  0.74835506
   0.48916050 -0.00305007  0.49572814
   0.75578819 -0.00303827  0.75354165
   0.00498045  0.76173139  0.25046574
   0.74010698  0.50004418  0.24631844
   0.01209820  0.00248186  0.49298517
   0.49345504  0.50621440  0.50041481
   0.74371212  0.50644009  0.75580684
   0.75448218  0.73912320  0.49866246
HECN                                    
           1
     8.678632    0.008673    0.014534
     0.008692    8.706027    0.007615
     0.014531    0.007598    8.656602
   Ti   Mo   V    N    C    Ta   W 
   7   6   7  13  19   6   6
Direct configuration=    11
  -0.00426024  0.00538104  0.00554886
   0.24549503  0.00741236  0.24872156
   0.25513528  0.49224243  0.25052489
   0.49658398  0.49342313  0.00033197
   0.49494711  0.25657214  0.75720155
   0.01028275  0.50017602  0.49877327
   0.49337812  0.74327350  0.74898610
   0.00042741  0.23389891  0.25927487
   0.76990914  0.74356134  0.00068946
   0.01575596  0.26119253  0.74466119
   0.76531220  0.26265096  0.48889339
   0.00359816  0.73716591  0.75109360
   0.25666036  0.50020327  0.75022340
   0.26236916  0.26328214 -0.00419590
   0.49706526  0.25849319  0.23328554
   0.75634813 -0.00455657  0.24198361
   0.73298003  0.25411959  0.00713379
   0.23682973  0.73186206  0.00151209
   0.24268076  0.25235540  0.50642147
   0.24786891  0.74768682  0.49795789
   0.25576873  0.24864871  0.25015226
   0.25158254  0.00256665  0.00206824
   0.00099024  0.24854809  0.00270808
   0.74270805  0.24450616  0.24518754
   0.75338758  0.00834726  0.00423998
   0.49895836  0.00432633  0.25116625
   0.00185120  0.50059984  0.24992885
   0.49235962  0.75371352 -0.00119456
  -0.00268667  0.00073250  0.75364399
   0.74139848  0.24623831  0.75501568
   0.74789209 -0.00125484  0.49760920
   0.49524962  0.24768339  0.50029378
   0.50081783  0.00260506  0.75093877
  -0.00241245 -0.00127071  0.24926120
   0.49810509  0.25543184  0.00078312
   0.24908184  0.75027091  0.24800453
   0.24958358  0.49845413  0.00353471
   0.00859434  0.74966740  0.00053180
   0.74869593  0.75433797  0.24951584
   0.74899009  0.49428230  0.00147919
   0.49618279  0.49381150  0.24945038
   0.25357478  0.24984955  0.75000215
   0.24963669  0.00088753  0.49705459
   0.00729749  0.25225398  0.50098535
   0.25110536  0.75025376  0.75173274
   0.25082670  0.49908867  0.49738183
   0.00416828  0.75090318  0.49981625
  -0.00182725  0.49831848  0.74725045
   0.74463591  0.75101994  0.75081644
   0.75271108  0.49947642  0.49911068
   0.49558719  0.75068360  0.50154790
   0.50010390  0.49938646  0.75089880
   0.50283669  0.00970884  0.00651371
   0.00102588  0.49687456 -0.00220258
   0.49591458  0.74014051  0.25244293
   0.24308301 -0.00100238  0.74845812
   0.48814864 -0.00402407  0.49531794
   0.75680984 -0.00360573  0.75347312
   0.00565617  0.76288582  0.25121027
   0.73803590  0.49963551  0.24585995
   0.01367125  0.00300990  0.49318959
   0.49270570  0.50748194  0.50053514
   0.74247536  0.50712101  0.75725353
   0.75535144  0.73701072  0.49801035
HECN                                    
           1
     8.693462    0.007065    0.019225
     0.007103    8.698674    0.008917
     0.019241    0.008883    8.651104
   Ti   Mo   V    N    C    Ta   W 
   7   6   7  13  19   6   6
Direct configuration=    12
  -0.00484435  0.00715431  0.00513142
   0.24575408  0.00846382  0.24852240
   0.25534687  0.49108303  0.25084475