<?xml version="1.0" encoding="ISO-8859-1"?>
<modeling>
 <generator>
  <i name="program" type="string">vasp </i>
  <i name="version" type="string">5.4.4.18Apr17-6-g9f103f2a35  </i>
  <i name="subversion" type="string">(build Oct 18 2021 20:38:43) complex            parallel </i>
  <i name="platform" type="string">LinuxIFC </i>
  <i name="date" type="string">2024 06 24 </i>
  <i name="time" type="string">10:45:08 </i>
 </generator>
 <incar>
  <i type="string" name="SYSTEM">HECN</i>
  <i type="int" name="ISTART">     0</i>
  <i type="string" name="PREC">normal</i>
  <i type="string" name="ALGO">Fast</i>
  <i type="int" name="ICHARG">     2</i>
  <i type="int" name="NELM">    60</i>
  <i type="int" name="IBRION">     2</i>
  <i name="EDIFF">      0.00001000</i>
  <i name="EDIFFG">     -0.01000000</i>
  <i type="int" name="NSW">   100</i>
  <i type="int" name="ISIF">     3</i>
  <i name="ENCUT">    400.00000000</i>
  <i name="POTIM">      0.50000000</i>
  <i type="logical" name="LREAL"> F  </i>
  <i type="int" name="ISMEAR">     0</i>
  <i name="SIGMA">      0.10000000</i>
  <i type="logical" name="LWAVE"> F  </i>
  <i type="logical" name="LCHARG"> F  </i>
  <v type="int" name="KPOINT_BSE">    -1     0     0     0</v>
  <i type="int" name="NELM">    60</i>
 </incar>
 <structure name="primitive_cell" >
  <crystal>
   <varray name="basis" >
    <v>       8.63323781       0.00234070      -0.00696757 </v>
    <v>       0.00793321       8.76852110      -0.00302222 </v>
    <v>       0.02405100      -0.01821421       8.64267796 </v>
   </varray>
   <i name="volume">    654.25784646 </i>
   <varray name="rec_basis" >
    <v>       0.11583117      -0.00010491      -0.00032256 </v>
    <v>      -0.00003073       0.11404443       0.00024043 </v>
    <v>       0.00009337       0.00003980       0.11570470 </v>
   </varray>
  </crystal>
  <varray name="positions" >
   <v>      -0.00418875      -0.00599887      -0.00358828 </v>
   <v>      -0.25395870      -0.00257807       0.01008173 </v>
   <v>      -0.00193367      -0.25879730       0.00332678 </v>
   <v>      -0.01063658       0.00202727      -0.26144829 </v>
   <v>       0.00259110       0.25030441       0.00081647 </v>
   <v>      -0.00440417       0.00082737       0.25786369 </v>
   <v>       0.26074260       0.00009248      -0.00761859 </v>
   <v>      -0.25765871      -0.02311420      -0.23495834 </v>
   <v>      -0.00055259      -0.22557165       0.25981986 </v>
   <v>       0.23707890       0.01163086      -0.25384226 </v>
   <v>      -0.24177299      -0.25949348       0.01152304 </v>
   <v>       0.24696109      -0.25091176      -0.00107240 </v>
   <v>      -0.00389714      -0.25577951      -0.25400963 </v>
   <v>      -0.24227276       0.25598880      -0.00432285 </v>
   <v>       0.24708678       0.24880600      -0.00443447 </v>
   <v>      -0.00716773       0.23424606       0.26511741 </v>
   <v>       0.25782012      -0.00132237       0.24729779 </v>
   <v>      -0.25392259      -0.01037276       0.27033909 </v>
   <v>       0.00268769       0.25559212      -0.26215785 </v>
   <v>       0.24015734      -0.24690037      -0.24992670 </v>
   <v>      -0.24776391      -0.24773146      -0.25077430 </v>
   <v>      -0.24157159       0.24431851      -0.25081377 </v>
   <v>      -0.24699568       0.24570985       0.25508856 </v>
   <v>      -0.24538367      -0.25854251       0.25422199 </v>
   <v>       0.25179490      -0.25061345       0.24916229 </v>
   <v>       0.24692956       0.25302614      -0.25166764 </v>
   <v>       0.25034768       0.24934305       0.24859334 </v>
   <v>      -0.48236742       0.01416635      -0.01903990 </v>
   <v>      -0.00184235      -0.48911707      -0.01575033 </v>
   <v>       0.02160029      -0.00061991       0.49792073 </v>
   <v>      -0.49481004      -0.23891226       0.00819877 </v>
   <v>      -0.49155784      -0.00037277       0.24794773 </v>
   <v>      -0.00744668      -0.23893127      -0.49979382 </v>
   <v>      -0.00913096       0.48067874       0.24151757 </v>
   <v>      -0.23997863      -0.49644534       0.00252474 </v>
   <v>       0.24847162      -0.00205396      -0.49507587 </v>
   <v>      -0.49532747       0.24523929       0.00344754 </v>
   <v>      -0.26342501       0.00404484      -0.49140793 </v>
   <v>      -0.00674474      -0.49935179      -0.24621456 </v>
   <v>      -0.00210857       0.24317737      -0.49843056 </v>
   <v>       0.24256780      -0.49902460      -0.00656915 </v>
   <v>      -0.49889206       0.00044788      -0.26373014 </v>
   <v>      -0.25866641      -0.47420809      -0.26022140 </v>
   <v>       0.49721546      -0.24135761      -0.24928400 </v>
   <v>       0.24483332      -0.24926707      -0.49910757 </v>
   <v>      -0.49450237       0.24371514      -0.25443468 </v>
   <v>      -0.49013704       0.25484676       0.25421561 </v>
   <v>      -0.24587544      -0.26640197       0.49180038 </v>
   <v>      -0.24641479       0.26061191      -0.49519531 </v>
   <v>      -0.49579839      -0.26114726       0.25861943 </v>
   <v>      -0.26350890      -0.48708133       0.26448990 </v>
   <v>       0.24710257      -0.49972105       0.24835528 </v>
   <v>       0.25280233       0.24819827      -0.49890423 </v>
   <v>       0.25601140       0.49396288      -0.25378114 </v>
   <v>       0.47852715      -0.01649377       0.49742664 </v>
   <v>      -0.49608452       0.49863052      -0.00100907 </v>
   <v>      -0.00413915      -0.49775508       0.49851106 </v>
   <v>      -0.49494504       0.23300997       0.49416256 </v>
   <v>      -0.49659098      -0.24708633       0.49497555 </v>
   <v>      -0.49481577      -0.49701255       0.25743990 </v>
   <v>      -0.49786390      -0.49812998      -0.25924373 </v>
   <v>       0.25747716      -0.49915770      -0.49687783 </v>
   <v>      -0.25811055       0.49839248      -0.49852020 </v>
   <v>      -0.49564025      -0.47365904       0.49842150 </v>
  </varray>
 </structure>
 <varray name="primitive_index" >
  <v type="int" >        1 </v>
  <v type="int" >       25 </v>
  <v type="int" >       38 </v>
  <v type="int" >       29 </v>
  <v type="int" >       23 </v>
  <v type="int" >       34 </v>
  <v type="int" >       22 </v>
  <v type="int" >       58 </v>
  <v type="int" >       59 </v>
  <v type="int" >       56 </v>
  <v type="int" >        9 </v>
  <v type="int" >       18 </v>
  <v type="int" >       12 </v>
  <v type="int" >       17 </v>
  <v type="int" >       14 </v>
  <v type="int" >        8 </v>
  <v type="int" >        2 </v>
  <v type="int" >       16 </v>
  <v type="int" >       10 </v>
  <v type="int" >       45 </v>
  <v type="int" >       49 </v>
  <v type="int" >       30 </v>
  <v type="int" >       24 </v>
  <v type="int" >       39 </v>
  <v type="int" >       36 </v>
  <v type="int" >       42 </v>
  <v type="int" >       21 </v>
  <v type="int" >       53 </v>
  <v type="int" >       54 </v>
  <v type="int" >       61 </v>
  <v type="int" >       28 </v>
  <v type="int" >       26 </v>
  <v type="int" >       47 </v>
  <v type="int" >       27 </v>
  <v type="int" >       40 </v>
  <v type="int" >       43 </v>
  <v type="int" >       35 </v>
  <v type="int" >       31 </v>
  <v type="int" >       48 </v>
  <v type="int" >       44 </v>
  <v type="int" >       37 </v>
  <v type="int" >       33 </v>
  <v type="int" >       63 </v>
  <v type="int" >        7 </v>
  <v type="int" >       20 </v>
  <v type="int" >        5 </v>
  <v type="int" >       15 </v>
  <v type="int" >       64 </v>
  <v type="int" >       11 </v>
  <v type="int" >       55 </v>
  <v type="int" >       60 </v>
  <v type="int" >        3 </v>
  <v type="int" >       19 </v>
  <v type="int" >       13 </v>
  <v type="int" >       57 </v>
  <v type="int" >        4 </v>
  <v type="int" >        6 </v>
  <v type="int" >       32 </v>
  <v type="int" >       51 </v>
  <v type="int" >       41 </v>
  <v type="int" >       52 </v>
  <v type="int" >       46 </v>
  <v type="int" >       50 </v>
  <v type="int" >       62 </v>
 </varray>
 <kpoints>
  <generation param="Gamma">
   <v type="int" name="divisions">       3        3        3 </v>
   <v name="usershift">      0.00000000       0.00000000       0.00000000 </v>
   <v name="genvec1">      0.33333333       0.00000000       0.00000000 </v>
   <v name="genvec2">     -0.00000000       0.33333333       0.00000000 </v>
   <v name="genvec3">      0.00000000      -0.00000000       0.33333333 </v>
   <v name="shift">      0.00000000       0.00000000       0.00000000 </v>
  </generation>
  <varray name="kpointlist" >
   <v>       0.00000000       0.00000000       0.00000000 </v>
   <v>       0.33333333      -0.00000000       0.00000000 </v>
   <v>       0.00000000       0.33333333      -0.00000000 </v>
   <v>       0.33333333       0.33333333       0.00000000 </v>
   <v>      -0.33333333       0.33333333      -0.00000000 </v>
   <v>      -0.00000000      -0.00000000       0.33333333 </v>
   <v>       0.33333333      -0.00000000       0.33333333 </v>
   <v>      -0.33333333      -0.00000000       0.33333333 </v>
   <v>       0.00000000       0.33333333       0.33333333 </v>
   <v>       0.33333333       0.33333333       0.33333333 </v>
   <v>      -0.33333333       0.33333333       0.33333333 </v>
   <v>      -0.00000000      -0.33333333       0.33333333 </v>
   <v>       0.33333333      -0.33333333       0.33333333 </v>
   <v>      -0.33333333      -0.33333333       0.33333333 </v>
  </varray>
  <varray name="weights" >
   <v>       0.03703704 </v>
   <v>       0.07407407 </v>
   <v>       0.07407407 </v>
   <v>       0.07407407 </v>
   <v>       0.07407407 </v>
   <v>       0.07407407 </v>
   <v>       0.07407407 </v>
   <v>       0.07407407 </v>
   <v>       0.07407407 </v>
   <v>       0.07407407 </v>
   <v>       0.07407407 </v>
   <v>       0.07407407 </v>
   <v>       0.07407407 </v>
   <v>       0.07407407 </v>
  </varray>
 </kpoints>
 <parameters>
  <separator name="general" >
   <i type="string" name="SYSTEM">HECN</i>
   <i type="logical" name="LCOMPAT"> F  </i>
  </separator>
  <separator name="electronic" >
   <i type="string" name="PREC">normal</i>
   <i name="ENMAX">    400.00000000</i>
   <i name="ENAUG">    644.87300000</i>
   <i name="EDIFF">      0.00001000</i>
   <i type="int" name="IALGO">    68</i>
   <i type="int" name="IWAVPR">    11</i>
   <i type="int" name="NBANDS">   312</i>
   <i name="NELECT">    495.00000000</i>
   <i type="int" name="TURBO">     0</i>
   <i type="int" name="IRESTART">     0</i>
   <i type="int" name="NREBOOT">     0</i>
   <i type="int" name="NMIN">     0</i>
   <i name="EREF">      0.00000000</i>
   <separator name="electronic smearing" >
    <i type="int" name="ISMEAR">     0</i>
    <i name="SIGMA">      0.10000000</i>
    <i name="KSPACING">      0.50000000</i>
    <i type="logical" name="KGAMMA"> T  </i>
   </separator>
   <separator name="electronic projectors" >
    <i type="logical" name="LREAL"> F  </i>
    <v name="ROPT">      0.00000000      0.00000000      0.00000000      0.00000000      0.00000000      0.00000000      0.00000000</v>
    <i type="int" name="LMAXPAW">  -100</i>
    <i type="int" name="LMAXMIX">     2</i>
    <i type="logical" name="NLSPLINE"> F  </i>
   </separator>
   <separator name="electronic startup" >
    <i type="int" name="ISTART">     0</i>
    <i type="int" name="ICHARG">     2</i>
    <i type="int" name="INIWAV">     1</i>
   </separator>
   <separator name="electronic spin" >
    <i type="int" name="ISPIN">     1</i>
    <i type="logical" name="LNONCOLLINEAR"> F  </i>
    <v name="MAGMOM">      1.00000000      1.00000000      1.00000000      1.00000000      1.00000000      1.00000000      1.00000000      1.00000000      1.00000000      1.00000000      1.00000000      1.00000000      1.00000000      1.00000000      1.00000000      1.00000000      1.00000000      1.00000000      1.00000000      1.00000000
      1.00000000      1.00000000      1.00000000      1.00000000      1.00000000      1.00000000      1.00000000      1.00000000      1.00000000      1.00000000      1.00000000      1.00000000      1.00000000      1.00000000      1.00000000      1.00000000      1.00000000      1.00000000      1.00000000      1.00000000
      1.00000000      1.00000000      1.00000000      1.00000000      1.00000000      1.00000000      1.00000000      1.00000000      1.00000000      1.00000000      1.00000000      1.00000000      1.00000000      1.00000000      1.00000000      1.00000000      1.00000000      1.00000000      1.00000000      1.00000000
      1.00000000      1.00000000      1.00000000      1.00000000</v>
    <i name="NUPDOWN">     -1.00000000</i>
    <i type="logical" name="LSORBIT"> F  </i>
    <v name="SAXIS">      0.00000000      0.00000000      1.00000000</v>
    <i type="logical" name="LSPIRAL"> F  </i>
    <v name="QSPIRAL">      0.00000000      0.00000000      0.00000000</v>
    <i type="logical" name="LZEROZ"> F  </i>
   </separator>
   <separator name="electronic exchange-correlation" >
    <i type="logical" name="LASPH"> F  </i>
    <i type="logical" name="LMETAGGA"> F  </i>
   </separator>
   <separator name="electronic convergence" >
    <i type="int" name="NELM">    60</i>
    <i type="int" name="NELMDL">    -5</i>
    <i type="int" name="NELMIN">     2</i>
    <i name="ENINI">    400.00000000</i>
    <separator name="electronic convergence detail" >
     <i type="logical" name="LDIAG"> T  </i>
     <i type="logical" name="LSUBROT"> F  </i>
     <i name="WEIMIN">      0.00100000</i>
     <i name="EBREAK">      0.00000001</i>
     <i name="DEPER">      0.30000000</i>
     <i type="int" name="NRMM">     4</i>
     <i name="TIME">      0.40000000</i>
    </separator>
   </separator>
   <separator name="electronic mixer" >
    <i name="AMIX">      0.40000000</i>
    <i name="BMIX">      1.00000000</i>
    <i name="AMIN">      0.10000000</i>
    <i name="AMIX_MAG">      1.60000000</i>
    <i name="BMIX_MAG">      1.00000000</i>
    <separator name="electronic mixer details" >
     <i type="int" name="IMIX">     4</i>
     <i type="logical" name="MIXFIRST"> F  </i>
     <i type="int" name="MAXMIX">   -45</i>
     <i name="WC">    100.00000000</i>
     <i type="int" name="INIMIX">     1</i>
     <i type="int" name="MIXPRE">     1</i>
     <i type="int" name="MREMOVE">     5</i>
    </separator>
   </separator>
   <separator name="electronic dipolcorrection" >
    <i type="logical" name="LDIPOL"> F  </i>
    <i type="logical" name="LMONO"> F  </i>
    <i type="int" name="IDIPOL">     0</i>
    <i name="EPSILON">      1.00000000</i>
    <v name="DIPOL">   -100.00000000   -100.00000000   -100.00000000</v>
    <i name="EFIELD">      0.00000000</i>
   </separator>
  </separator>
  <separator name="grids" >
   <i type="int" name="NGX">    42</i>
   <i type="int" name="NGY">    48</i>
   <i type="int" name="NGZ">    42</i>
   <i type="int" name="NGXF">    84</i>
   <i type="int" name="NGYF">    96</i>
   <i type="int" name="NGZF">    84</i>
   <i type="logical" name="ADDGRID"> F  </i>
  </separator>
  <separator name="ionic" >
   <i type="int" name="NSW">   100</i>
   <i type="int" name="IBRION">     2</i>
   <i type="int" name="MDALGO">     0</i>
   <i type="int" name="ISIF">     3</i>
   <i name="PSTRESS">      0.00000000</i>
   <i name="EDIFFG">     -0.01000000</i>
   <i type="int" name="NFREE">     1</i>
   <i name="POTIM">      0.50000000</i>
   <i name="SMASS">     -3.00000000</i>
   <i name="SCALEE">      1.00000000</i>
  </separator>
  <separator name="ionic md" >
   <i name="TEBEG">      0.00010000</i>
   <i name="TEEND">      0.00010000</i>
   <i type="int" name="NBLOCK">     1</i>
   <i type="int" name="KBLOCK">   100</i>
   <i type="int" name="NPACO">   256</i>
   <i name="APACO">     16.00000000</i>
  </separator>
  <separator name="symmetry" >
   <i type="int" name="ISYM">     2</i>
   <i name="SYMPREC">      0.00001000</i>
  </separator>
  <separator name="dos" >
   <i type="int" name="LORBIT">     0</i>
   <v name="RWIGS">     -1.00000000     -1.00000000     -1.00000000     -1.00000000     -1.00000000     -1.00000000     -1.00000000</v>
   <i type="int" name="NEDOS">   301</i>
   <i name="EMIN">     10.00000000</i>
   <i name="EMAX">    -10.00000000</i>
   <i name="EFERMI">      0.00000000</i>
  </separator>
  <separator name="writing" >
   <i type="int" name="NWRITE">     2</i>
   <i type="logical" name="LWAVE"> F  </i>
   <i type="logical" name="LDOWNSAMPLE"> F  </i>
   <i type="logical" name="LCHARG"> F  </i>
   <i type="logical" name="LPARD"> F  </i>
   <i type="logical" name="LVTOT"> F  </i>
   <i type="logical" name="LVHAR"> F  </i>
   <i type="logical" name="LELF"> F  </i>
   <i type="logical" name="LOPTICS"> F  </i>
   <v name="STM">      0.00000000      0.00000000      0.00000000      0.00000000      0.00000000      0.00000000      0.00000000</v>
  </separator>
  <separator name="performance" >
   <i type="int" name="NPAR">    24</i>
   <i type="int" name="NSIM">     4</i>
   <i type="int" name="NBLK">    -1</i>
   <i type="logical" name="LPLANE"> T  </i>
   <i type="logical" name="LSCALAPACK"> T  </i>
   <i type="logical" name="LSCAAWARE"> F  </i>
   <i type="logical" name="LSCALU"> F  </i>
   <i type="logical" name="LASYNC"> F  </i>
   <i type="logical" name="LORBITALREAL"> F  </i>
  </separator>
  <separator name="miscellaneous" >
   <i type="int" name="IDIOT">     3</i>
   <i type="int" name="ISPECIAL">     0</i>
   <i type="logical" name="LMUSIC"> F  </i>
   <v name="POMASS">     91.22400000     50.94100000     47.88000000     14.00100000     12.01100000     51.99600000     95.94000000</v>
   <v name="DARWINR">      0.00000000      0.00000000      0.00000000      0.00000000      0.00000000      0.00000000      0.00000000</v>
   <v name="DARWINV">      1.00000000      1.00000000      1.00000000      1.00000000      1.00000000      1.00000000      1.00000000</v>
   <i type="logical" name="LCORR"> T  </i>
  </separator>
  <i type="logical" name="GGA_COMPAT"> T  </i>
  <i type="logical" name="LBERRY"> F  </i>
  <i type="int" name="ICORELEVEL">     0</i>
  <i type="logical" name="LDAU"> F  </i>
  <i type="int" name="I_CONSTRAINED_M">     0</i>
  <separator name="electronic exchange-correlation" >
   <i type="string" name="GGA">--</i>
   <i type="int" name="VOSKOWN">     0</i>
   <i type="logical" name="LHFCALC"> F  </i>
   <i type="string" name="PRECFOCK"></i>
   <i type="logical" name="LSYMGRAD"> F  </i>
   <i type="logical" name="LHFONE"> F  </i>
   <i type="logical" name="LRHFCALC"> F  </i>
   <i type="logical" name="LTHOMAS"> F  </i>
   <i type="logical" name="LMODELHF"> F  </i>
   <i name="ENCUT4O">     -1.00000000</i>
   <i type="int" name="EXXOEP">     0</i>
   <i type="int" name="FOURORBIT">     0</i>
   <i name="AEXX">      0.00000000</i>
   <i name="HFALPHA">      0.00000000</i>
   <i name="MCALPHA">      0.00000000</i>
   <i name="ALDAX">      1.00000000</i>
   <i name="AGGAX">      1.00000000</i>
   <i name="ALDAC">      1.00000000</i>
   <i name="AGGAC">      1.00000000</i>
   <i type="int" name="NKREDX">     1</i>
   <i type="int" name="NKREDY">     1</i>
   <i type="int" name="NKREDZ">     1</i>
   <i type="logical" name="SHIFTRED"> F  </i>
   <i type="logical" name="ODDONLY"> F  </i>
   <i type="logical" name="EVENONLY"> F  </i>
   <i type="int" name="LMAXFOCK">     0</i>
   <i type="int" name="NMAXFOCKAE">     0</i>
   <i type="logical" name="LFOCKAEDFT"> F  </i>
   <i name="HFSCREEN">      0.00000000</i>
   <i name="HFSCREENC">      0.00000000</i>
   <i type="int" name="NBANDSGWLOW">     0</i>
  </separator>
  <separator name="vdW DFT" >
   <i type="logical" name="LUSE_VDW"> F  </i>
   <i name="Zab_VDW">     -0.84910000</i>
   <i name="PARAM1">      0.12340000</i>
   <i name="PARAM2">      1.00000000</i>
   <i name="PARAM3">      0.00000000</i>
  </separator>
  <separator name="model GW" >
   <i type="int" name="MODEL_GW">     0</i>
   <i name="MODEL_EPS0">      6.13366731</i>
   <i name="MODEL_ALPHA">      1.00000000</i>
  </separator>
  <separator name="linear response parameters" >
   <i type="logical" name="LEPSILON"> F  </i>
   <i type="logical" name="LRPA"> F  </i>
   <i type="logical" name="LNABLA"> F  </i>
   <i type="logical" name="LVEL"> F  </i>
   <i type="int" name="KINTER">     0</i>
   <i name="CSHIFT">      0.10000000</i>
   <i name="OMEGAMAX">     -1.00000000</i>
   <i name="DEG_THRESHOLD">      0.00200000</i>
   <i name="RTIME">     -0.10000000</i>
   <i name="WPLASMAI">      0.00000000</i>
   <v name="DFIELD">      0.00000000      0.00000000      0.00000000</v>
   <v name="WPLASMA">      0.00000000      0.00000000      0.00000000      0.00000000      0.00000000      0.00000000      0.00000000      0.00000000      0.00000000</v>
  </separator>
  <separator name="orbital magnetization" >
   <i type="logical" name="NUCIND"> F  </i>
   <v name="MAGPOS">      0.00000000      0.00000000      0.00000000</v>
   <i type="logical" name="LNICSALL"> T  </i>
   <i type="logical" name="ORBITALMAG"> F  </i>
   <i type="logical" name="LMAGBLOCH"> F  </i>
   <i type="logical" name="LCHIMAG"> F  </i>
   <i type="logical" name="LGAUGE"> T  </i>
   <i type="int" name="MAGATOM">     0</i>
   <v name="MAGDIPOL">      0.00000000      0.00000000      0.00000000</v>
   <v name="AVECCONST">      0.00000000      0.00000000      0.00000000</v>
  </separator>
  <separator name="response functions" >
   <i type="logical" name="LADDER"> F  </i>
   <i type="logical" name="LRPAFORCE"> F  </i>
   <i type="logical" name="LFXC"> F  </i>
   <i type="logical" name="LHARTREE"> T  </i>
   <i type="int" name="IBSE">     0</i>
   <v type="int" name="KPOINT">    -1     0     0     0</v>
   <i type="logical" name="LTCTE"> F  </i>
   <i type="logical" name="LTETE"> F  </i>
   <i type="logical" name="LTRIPLET"> F  </i>
   <i type="logical" name="LFXCEPS"> F  </i>
   <i type="logical" name="LFXHEG"> F  </i>
   <i type="int" name="NATURALO">     2</i>
   <i type="logical" name="L2ORDER"> F  </i>
   <i type="logical" name="LMP2LT"> F  </i>
   <i type="logical" name="LUSEW"> F  </i>
   <i name="ENCUTGW">     -2.00000000</i>
   <i name="ENCUTGWSOFT">     -2.00000000</i>
   <i name="ENCUTLF">     -1.00000000</i>
   <i type="int" name="LMAXMP2">    -1</i>
   <i name="SCISSOR">      0.00000000</i>
   <i type="int" name="NOMEGA">     0</i>
   <i type="int" name="NOMEGAR">     0</i>
   <i type="int" name="NBANDSGW">    -1</i>
   <i type="int" name="NBANDSO">    -1</i>
   <i type="int" name="NBANDSV">    -1</i>
   <i type="int" name="NELM">    60</i>
   <i type="int" name="NELMHF">     1</i>
   <i type="int" name="DIM">     3</i>
   <i type="int" name="ANTIRES">     0</i>
   <i name="OMEGAMAX">    -30.00000000</i>
   <i name="OMEGAMIN">    -30.00000000</i>
   <i name="OMEGATL">   -200.00000000</i>
   <i type="int" name="OMEGAGRID">   140</i>
   <i name="CSHIFT">     -0.10000000</i>
   <i type="logical" name="SELFENERGY"> F  </i>
   <i type="logical" name="LSPECTRAL"> F  </i>
   <i type="logical" name="LSPECTRALGW"> F  </i>
   <i type="logical" name="LSINGLES"> F  </i>
   <i type="logical" name="LFERMIGW"> F  </i>
   <i type="logical" name="ODDONLYGW"> F  </i>
   <i type="logical" name="EVENONLYGW"> F  </i>
   <i type="int" name="NKREDLFX">     1</i>
   <i type="int" name="NKREDLFY">     1</i>
   <i type="int" name="NKREDLFZ">     1</i>
   <i type="int" name="MAXMEM">  2800</i>
   <i type="int" name="TELESCOPE">     0</i>
   <i type="int" name="TAUPAR">     1</i>
   <i type="int" name="OMEGAPAR">    -1</i>
   <i name="LAMBDA">      1.00000000</i>
  </separator>
  <separator name="External order field" >
   <i name="OFIELD_KAPPA">      0.00000000</i>
   <v name="OFIELD_K">      0.00000000      0.00000000      0.00000000</v>
   <i name="OFIELD_Q6_NEAR">      0.00000000</i>
   <i name="OFIELD_Q6_FAR">      0.00000000</i>
   <i name="OFIELD_A">      0.00000000</i>
  </separator>
 </parameters>
 <atominfo>
  <atoms>      64 </atoms>
  <types>       7 </types>
  <array name="atoms" >
   <dimension dim="1">ion</dimension>
   <field type="string">element</field>
   <field type="int">atomtype</field>
   <set>
    <rc><c>Zr</c><c>   1</c></rc>
    <rc><c>Zr</c><c>   1</c></rc>
    <rc><c>Zr</c><c>   1</c></rc>
    <rc><c>Zr</c><c>   1</c></rc>
    <rc><c>Zr</c><c>   1</c></rc>
    <rc><c>Zr</c><c>   1</c></rc>
    <rc><c>Zr</c><c>   1</c></rc>
    <rc><c>V </c><c>   2</c></rc>
    <rc><c>V </c><c>   2</c></rc>
    <rc><c>V </c><c>   2</c></rc>
    <rc><c>V </c><c>   2</c></rc>
    <rc><c>V </c><c>   2</c></rc>
    <rc><c>V </c><c>   2</c></rc>
    <rc><c>Ti</c><c>   3</c></rc>
    <rc><c>Ti</c><c>   3</c></rc>
    <rc><c>Ti</c><c>   3</c></rc>
    <rc><c>Ti</c><c>   3</c></rc>
    <rc><c>Ti</c><c>   3</c></rc>
    <rc><c>Ti</c><c>   3</c></rc>
    <rc><c>Ti</c><c>   3</c></rc>
    <rc><c>N </c><c>   4</c></rc>
    <rc><c>N </c><c>   4</c></rc>
    <rc><c>N </c><c>   4</c></rc>
    <rc><c>N </c><c>   4</c></rc>
    <rc><c>N </c><c>   4</c></rc>
    <rc><c>N </c><c>   4</c></rc>
    <rc><c>N </c><c>   4</c></rc>
    <rc><c>N </c><c>   4</c></rc>
    <rc><c>N </c><c>   4</c></rc>
    <rc><c>N </c><c>   4</c></rc>
    <rc><c>N </c><c>   4</c></rc>
    <rc><c>N </c><c>   4</c></rc>
    <rc><c>N </c><c>   4</c></rc>
    <rc><c>C </c><c>   5</c></rc>
    <rc><c>C </c><c>   5</c></rc>
    <rc><c>C </c><c>   5</c></rc>
    <rc><c>C </c><c>   5</c></rc>
    <rc><c>C </c><c>   5</c></rc>
    <rc><c>C </c><c>   5</c></rc>
    <rc><c>C </c><c>   5</c></rc>
    <rc><c>C </c><c>   5</c></rc>
    <rc><c>C </c><c>   5</c></rc>
    <rc><c>C </c><c>   5</c></rc>
    <rc><c>C </c><c>   5</c></rc>
    <rc><c>C </c><c>   5</c></rc>
    <rc><c>C </c><c>   5</c></rc>
    <rc><c>C </c><c>   5</c></rc>
    <rc><c>C </c><c>   5</c></rc>
    <rc><c>C </c><c>   5</c></rc>
    <rc><c>C </c><c>   5</c></rc>
    <rc><c>C </c><c>   5</c></rc>
    <rc><c>C </c><c>   5</c></rc>
    <rc><c>Cr</c><c>   6</c></rc>
    <rc><c>Cr</c><c>   6</c></rc>
    <rc><c>Cr</c><c>   6</c></rc>
    <rc><c>Cr</c><c>   6</c></rc>
    <rc><c>Cr</c><c>   6</c></rc>
    <rc><c>Cr</c><c>   6</c></rc>
    <rc><c>Mo</c><c>   7</c></rc>
    <rc><c>Mo</c><c>   7</c></rc>
    <rc><c>Mo</c><c>   7</c></rc>
    <rc><c>Mo</c><c>   7</c></rc>
    <rc><c>Mo</c><c>   7</c></rc>
    <rc><c>Mo</c><c>   7</c></rc>
   </set>
  </array>
  <array name="atomtypes" >
   <dimension dim="1">type</dimension>
   <field type="int">atomspertype</field>
   <field type="string">element</field>
   <field>mass</field>
   <field>valence</field>
   <field type="string">pseudopotential</field>
   <set>
    <rc><c>   7</c><c>Zr</c><c>     91.22400000</c><c>     12.00000000</c><c> PAW_PBE Zr_sv 07Sep2000                </c></rc>
    <rc><c>   6</c><c>V </c><c>     50.94100000</c><c>     13.00000000</c><c> PAW_PBE V_sv 07Sep2000                 </c></rc>
    <rc><c>   7</c><c>Ti</c><c>     47.88000000</c><c>     12.00000000</c><c> PAW_PBE Ti_sv 07Sep2000                </c></rc>
    <rc><c>  13</c><c>N </c><c>     14.00100000</c><c>      5.00000000</c><c> PAW_PBE N 08Apr2002                    </c></rc>
    <rc><c>  19</c><c>C </c><c>     12.01100000</c><c>      4.00000000</c><c> PAW_PBE C 08Apr2002                    </c></rc>
    <rc><c>   6</c><c>Cr</c><c>     51.99600000</c><c>     12.00000000</c><c> PAW_PBE Cr_pv 07Sep2000                </c></rc>
    <rc><c>   6</c><c>Mo</c><c>     95.94000000</c><c>      6.00000000</c><c> PAW_PBE Mo 08Apr2002                   </c></rc>
   </set>
  </array>
 </atominfo>
 <structure name="initialpos" >
  <crystal>
   <varray name="basis" >
    <v>       8.63323781       0.00234070      -0.00696757 </v>
    <v>       0.00793321       8.76852110      -0.00302222 </v>
    <v>       0.02405100      -0.01821421       8.64267796 </v>
   </varray>
   <i name="volume">    654.25784646 </i>
   <varray name="rec_basis" >
    <v>       0.11583117      -0.00010491      -0.00032256 </v>
    <v>      -0.00003073       0.11404443       0.00024043 </v>
    <v>       0.00009337       0.00003980       0.11570470 </v>
   </varray>
  </crystal>
  <varray name="positions" >
   <v>       0.99581125       0.99400113       0.99641172 </v>
   <v>       0.25782012       0.99867763       0.24729779 </v>
   <v>       0.24710257       0.50027895       0.24835528 </v>
   <v>       0.50391548       0.49863052       0.99899093 </v>
   <v>       0.50549763       0.24371514       0.74556532 </v>
   <v>       0.99586085       0.50224492       0.49851106 </v>
   <v>       0.49721546       0.75864239       0.75071600 </v>
   <v>       0.99283227       0.23424606       0.26511741 </v>
   <v>       0.75822701       0.74050652       0.01152304 </v>
   <v>       0.00268769       0.25559212       0.73784215 </v>
   <v>       0.75358521       0.26061191       0.50480469 </v>
   <v>       0.99610286       0.74422049       0.74599037 </v>
   <v>       0.25601140       0.49396288       0.74621886 </v>
   <v>       0.24708678       0.24880600       0.99556553 </v>
   <v>       0.50986296       0.25484676       0.25421561 </v>
   <v>       0.74607741       0.98962724       0.27033909 </v>
   <v>       0.75772724       0.25598880       0.99567715 </v>
   <v>       0.24696109       0.74908824       0.99892760 </v>
   <v>       0.25280233       0.24819827       0.50109577 </v>
   <v>       0.24483332       0.75073293       0.50089243 </v>
   <v>       0.25034768       0.24934305       0.24859334 </v>
   <v>       0.26074260       0.00009248       0.99238141 </v>
   <v>       0.00259110       0.25030441       0.00081647 </v>
   <v>       0.75300432       0.24570985       0.25508856 </v>
   <v>       0.74604130       0.99742193       0.01008173 </v>
   <v>       0.50844216       0.99962723       0.24794773 </v>
   <v>       0.99086904       0.48067874       0.24151757 </v>
   <v>       0.50518996       0.76108774       0.00819877 </v>
   <v>       0.98936342       0.00202727       0.73855171 </v>
   <v>       0.75842841       0.24431851       0.74918623 </v>
   <v>       0.73657499       0.00404484       0.50859207 </v>
   <v>       0.50505496       0.23300997       0.49416256 </v>
   <v>       0.50110794       0.00044788       0.73626986 </v>
   <v>       0.99559583       0.00082737       0.25786369 </v>
   <v>       0.50467253       0.24523929       0.00344754 </v>
   <v>       0.25179490       0.74938655       0.24916229 </v>
   <v>       0.24256780       0.50097540       0.99343085 </v>
   <v>       0.99806633       0.74120270       0.00332678 </v>
   <v>       0.75461633       0.74145749       0.25422199 </v>
   <v>       0.76002137       0.50355466       0.00252474 </v>
   <v>       0.50518423       0.50298745       0.25743990 </v>
   <v>       0.24692956       0.25302614       0.74833236 </v>
   <v>       0.24847162       0.99794604       0.50492413 </v>
   <v>       0.99789143       0.24317737       0.50156944 </v>
   <v>       0.24015734       0.75309963       0.75007330 </v>
   <v>       0.25747716       0.50084230       0.50312217 </v>
   <v>       0.99255332       0.76106873       0.50020618 </v>
   <v>       0.99325526       0.50064821       0.75378544 </v>
   <v>       0.75223609       0.75226854       0.74922570 </v>
   <v>       0.74188945       0.49839248       0.50147980 </v>
   <v>       0.50340902       0.75291367       0.49497555 </v>
   <v>       0.50213610       0.50187002       0.74075627 </v>
   <v>       0.51763258       0.01416635       0.98096010 </v>
   <v>       0.99815765       0.51088293       0.98424967 </v>
   <v>       0.50420161       0.73885274       0.25861943 </v>
   <v>       0.23707890       0.01163086       0.74615774 </v>
   <v>       0.47852715       0.98350623       0.49742664 </v>
   <v>       0.74234129       0.97688580       0.76504166 </v>
   <v>       0.99944741       0.77442835       0.25981986 </v>
   <v>       0.73649110       0.51291867       0.26448990 </v>
   <v>       0.02160029       0.99938009       0.49792073 </v>
   <v>       0.50435975       0.52634096       0.49842150 </v>
   <v>       0.74133359       0.52579191       0.73977860 </v>
   <v>       0.75412456       0.73359803       0.49180038 </v>
  </varray>
 </structure>
 <calculation>
  <scstep>
   <time name="dav">   17.97   18.39</time>
   <time name="total">   18.01   18.44</time>
   <energy>
    <i name="alphaZ">   4131.69659860 </i>
    <i name="ewald"> -40473.98499139 </i>
    <i name="hartreedc"> -10401.74773073 </i>
    <i name="XCdc">   1715.57695123 </i>
    <i name="pawpsdc">  32505.47318996 </i>
    <i name="pawaedc"> -32235.03030850 </i>
    <i name="eentropy">     -0.08918873 </i>
    <i name="bandstr">   2148.27324496 </i>
    <i name="atom">  49228.23688282 </i>
    <i name="e_fr_energy">   6618.40464821 </i>
    <i name="e_wo_entrp">   6618.49383695 </i>
    <i name="e_0_energy">   6618.44924258 </i>
   </energy>
  </scstep>
  <scstep>
   <time name="dav">   18.61   19.06</time>
   <time name="total">   18.61   19.06</time>
   <energy>
    <i name="e_fr_energy">    413.47660628 </i>
    <i name="e_wo_entrp">    413.61968673 </i>
    <i name="e_0_energy">    413.54814651 </i>
   </energy>
  </scstep>
  <scstep>
   <time name="dav">   25.90   26.11</time>
   <time name="total">   25.90   26.11</time>
   <energy>
    <i name="e_fr_energy">   -626.95809818 </i>
    <i name="e_wo_entrp">   -626.86984398 </i>
    <i name="e_0_energy">   -626.91397108 </i>
   </energy>
  </scstep>
  <scstep>
   <time name="dav">   30.27   31.01</time>
   <time name="total">   30.27   31.01</time>
   <energy>
    <i name="e_fr_energy">   -770.78848580 </i>
    <i name="e_wo_entrp">   -770.69347462 </i>
    <i name="e_0_energy">   -770.74098021 </i>
   </energy>
  </scstep>
  <scstep>
   <time name="dav">   32.92   32.95</time>
   <time name="total">   33.11   33.14</time>
   <energy>
    <i name="e_fr_energy">   -783.44294587 </i>
    <i name="e_wo_entrp">   -783.34925579 </i>
    <i name="e_0_energy">   -783.39610083 </i>
   </energy>
  </scstep>
  <scstep>
   <time name="diag">    1.53    1.53</time>
   <time name="diis">   16.57   17.03</time>
   <time name="orth">    0.40    0.41</time>
   <time name="total">   18.70   19.18</time>
   <energy>
    <i name="e_fr_energy">   -886.85784509 </i>
    <i name="e_wo_entrp">   -886.68450561 </i>
    <i name="e_0_energy">   -886.77117535 </i>
   </energy>
  </scstep>
  <scstep>
   <time name="diag">    1.53    1.54</time>
   <time name="diis">   18.94   18.97</time>
   <time name="orth">    0.40    0.40</time>
   <time name="total">   21.07   21.12</time>
   <energy>
    <i name="e_fr_energy">   -641.67647995 </i>
    <i name="e_wo_entrp">   -641.50060867 </i>
    <i name="e_0_energy">   -641.58854431 </i>
   </energy>
  </scstep>
  <scstep>
   <time name="diag">    1.51    1.54</time>
   <time name="diis">   18.77   19.34</time>
   <time name="orth">    0.40    0.40</time>
   <time name="total">   20.89   21.50</time>
   <energy>
    <i name="e_fr_energy">   -628.45099059 </i>
    <i name="e_wo_entrp">   -628.30917449 </i>
    <i name="e_0_energy">   -628.38008254 </i>
   </energy>
  </scstep>
  <scstep>
   <time name="diag">    1.54    1.54</time>
   <time name="diis">   19.12   19.18</time>
   <time name="orth">    0.40    0.40</time>
   <time name="total">   21.26   21.32</time>
   <energy>
    <i name="e_fr_energy">   -614.98142747 </i>
    <i name="e_wo_entrp">   -614.82729542 </i>
    <i name="e_0_energy">   -614.90436145 </i>
   </energy>
  </scstep>
  <scstep>
   <time name="diag">    1.53    1.56</time>
   <time name="diis">   19.08   19.63</time>
   <time name="orth">    0.40    0.41</time>
   <time name="total">   21.22   21.82</time>
   <energy>
    <i name="e_fr_energy">   -614.25455039 </i>
    <i name="e_wo_entrp">   -614.09311889 </i>
    <i name="e_0_energy">   -614.17383464 </i>
   </energy>
  </scstep>
  <scstep>
   <time name="diag">    1.53    1.56</time>
   <time name="diis">   19.79   20.35</time>
   <time name="orth">    0.40    0.41</time>
   <time name="total">   21.93   22.52</time>
   <energy>
    <i name="e_fr_energy">   -614.01114856 </i>
    <i name="e_wo_entrp">   -613.84052850 </i>
    <i name="e_0_energy">   -613.92583853 </i>
   </energy>
  </scstep>
  <scstep>
   <time name="diag">    1.54    1.57</time>
   <time name="diis">   19.03   19.55</time>
   <time name="orth">    0.40    0.41</time>
   <time name="total">   21.17   21.73</time>
   <energy>
    <i name="e_fr_energy">   -613.33105966 </i>
    <i name="e_wo_entrp">   -613.15571947 </i>
    <i name="e_0_energy">   -613.24338956 </i>
   </energy>
  </scstep>
  <scstep>
   <time name="diag">    1.52    1.54</time>
   <time name="diis">   19.31   19.89</time>
   <time name="orth">    0.42    0.42</time>
   <time name="total">   21.45   22.07</time>
   <energy>
    <i name="e_fr_energy">   -613.20608309 </i>
    <i name="e_wo_entrp">   -613.02422669 </i>
    <i name="e_0_energy">   -613.11515489 </i>
   </energy>
  </scstep>
  <scstep>
   <time name="diag">    1.58    1.58</time>
   <time name="diis">   19.32   19.35</time>
   <time name="orth">    0.40    0.40</time>
   <time name="total">   21.51   21.54</time>
   <energy>
    <i name="e_fr_energy">   -613.29702372 </i>
    <i name="e_wo_entrp">   -613.10911628 </i>
    <i name="e_0_energy">   -613.20307000 </i>
   </energy>
  </scstep>
  <scstep>
   <time name="diag">    1.54    1.54</time>
   <time name="diis">   19.64   19.66</time>
   <time name="orth">    0.40    0.40</time>
   <time name="total">   21.79   21.81</time>
   <energy>
    <i name="e_fr_energy">   -613.06747919 </i>
    <i name="e_wo_entrp">   -612.89136945 </i>
    <i name="e_0_energy">   -612.97942432 </i>
   </energy>
  </scstep>
  <scstep>
   <time name="diag">    1.53    1.53</time>
   <time name="diis">   18.76   18.85</time>
   <time name="orth">    0.40    0.40</time>
   <time name="total">   20.90   20.99</time>
   <energy>
    <i name="e_fr_energy">   -613.04876929 </i>
    <i name="e_wo_entrp">   -612.85990898 </i>
    <i name="e_0_energy">   -612.95433914 </i>
   </energy>
  </scstep>
  <scstep>
   <time name="diag">    1.57    1.57</time>
   <time name="diis">   19.67   19.67</time>
   <time name="orth">    0.41    0.41</time>
   <time name="total">   21.85   21.86</time>
   <energy>
    <i name="e_fr_energy">   -612.83735379 </i>
    <i name="e_wo_entrp">   -612.65301185 </i>
    <i name="e_0_energy">   -612.74518282 </i>
   </energy>
  </scstep>
  <scstep>
   <time name="diag">    1.54    1.54</time>
   <time name="diis">   19.68   19.72</time>
   <time name="orth">    0.44    0.45</time>
   <time name="total">   21.88   21.93</time>
   <energy>
    <i name="e_fr_energy">   -612.82575537 </i>
    <i name="e_wo_entrp">   -612.63940832 </i>
    <i name="e_0_energy">   -612.73258185 </i>
   </energy>
  </scstep>
  <scstep>
   <time name="diag">    1.58    1.62</time>
   <time name="diis">   18.88   19.41</time>
   <time name="orth">    0.40    0.40</time>
   <time name="total">   21.06   21.65</time>
   <energy>
    <i name="e_fr_energy">   -612.84583304 </i>
    <i name="e_wo_entrp">   -612.66219626 </i>
    <i name="e_0_energy">   -612.75401465 </i>
   </energy>
  </scstep>
  <scstep>
   <time name="diag">    1.52    1.54</time>
   <time name="diis">   19.13   19.67</time>
   <time name="orth">    0.40    0.41</time>
   <time name="total">   21.26   21.83</time>
   <energy>
    <i name="e_fr_energy">   -612.81169728 </i>
    <i name="e_wo_entrp">   -612.62487453 </i>
    <i name="e_0_energy">   -612.71828591 </i>
   </energy>
  </scstep>
  <scstep>
   <time name="diag">    1.55    1.56</time>
   <time name="diis">   19.69   19.72</time>
   <time name="orth">    0.40    0.40</time>
   <time name="total">   21.86   21.88</time>
   <energy>
    <i name="e_fr_energy">   -612.81014127 </i>
    <i name="e_wo_entrp">   -612.62473392 </i>
    <i name="e_0_energy">   -612.71743759 </i>
   </energy>
  </scstep>
  <scstep>
   <time name="diag">    1.53    1.55</time>
   <time name="diis">   18.99   19.50</time>
   <time name="orth">    0.40    0.40</time>
   <time name="total">   21.12   21.68</time>
   <energy>
    <i name="e_fr_energy">   -612.80808548 </i>
    <i name="e_wo_entrp">   -612.62516508 </i>
    <i name="e_0_energy">   -612.71662528 </i>
   </energy>
  </scstep>
  <scstep>
   <time name="diag">    1.51    1.54</time>
   <time name="diis">   19.24   19.69</time>
   <time name="orth">    0.40    0.40</time>
   <time name="total">   21.36   21.84</time>
   <energy>
    <i name="e_fr_energy">   -612.80479466 </i>
    <i name="e_wo_entrp">   -612.62165771 </i>
    <i name="e_0_energy">   -612.71322619 </i>
   </energy>
  </scstep>
  <scstep>
   <time name="diag">    1.52    1.55</time>
   <time name="diis">   18.89   19.44</time>
   <time name="orth">    0.40    0.41</time>
   <time name="total">   21.01   21.61</time>
   <energy>
    <i name="e_fr_energy">   -612.80063284 </i>
    <i name="e_wo_entrp">   -612.61717460 </i>
    <i name="e_0_energy">   -612.70890372 </i>
   </energy>
  </scstep>
  <scstep>
   <time name="diag">    1.51    1.54</time>
   <time name="diis">   18.74   19.27</time>
   <time name="orth">    0.40    0.40</time>
   <time name="total">   20.86   21.43</time>
   <energy>
    <i name="e_fr_energy">   -612.79946712 </i>
    <i name="e_wo_entrp">   -612.61480133 </i>
    <i name="e_0_energy">   -612.70713423 </i>
   </energy>
  </scstep>
  <scstep>
   <time name="diag">    1.54    1.54</time>
   <time name="diis">   18.55   18.56</time>
   <time name="orth">    0.40    0.40</time>
   <time name="total">   20.70   20.71</time>
   <energy>
    <i name="e_fr_energy">   -612.79987413 </i>
    <i name="e_wo_entrp">   -612.61529608 </i>
    <i name="e_0_energy">   -612.70758511 </i>
   </energy>
  </scstep>
  <scstep>
   <time name="diag">    1.51    1.54</time>
   <time name="diis">   17.65   18.14</time>
   <time name="orth">    0.40    0.40</time>
   <time name="total">   19.77   20.30</time>
   <energy>
    <i name="e_fr_energy">   -612.79975512 </i>
    <i name="e_wo_entrp">   -612.61521329 </i>
    <i name="e_0_energy">   -612.70748420 </i>
   </energy>
  </scstep>
  <scstep>
   <time name="diag">    1.57    1.57</time>
   <time name="diis">   17.86   17.90</time>
   <time name="orth">    0.40    0.40</time>
   <time name="total">   20.04   20.08</time>
   <energy>
    <i name="e_fr_energy">   -612.79983354 </i>
    <i name="e_wo_entrp">   -612.61532279 </i>
    <i name="e_0_energy">   -612.70757817 </i>
   </energy>
  </scstep>
  <scstep>
   <time name="diag">    1.54    1.54</time>
   <time name="diis">   16.62   16.64</time>
   <time name="orth">    0.40    0.40</time>
   <time name="total">   18.77   18.79</time>
   <energy>
    <i name="e_fr_energy">   -612.79989045 </i>
    <i name="e_wo_entrp">   -612.61533679 </i>
    <i name="e_0_energy">   -612.70761362 </i>
   </energy>
  </scstep>
  <scstep>
   <time name="diag">    1.54    1.54</time>
   <time name="diis">   15.71   15.74</time>
   <time name="orth">    0.40    0.40</time>
   <time name="total">   17.86   17.90</time>
   <energy>
    <i name="e_fr_energy">   -612.79991091 </i>
    <i name="e_wo_entrp">   -612.61541575 </i>
    <i name="e_0_energy">   -612.70766333 </i>
   </energy>
  </scstep>
  <scstep>
   <time name="diag">    1.54    1.54</time>
   <time name="diis">   15.89   15.90</time>
   <time name="orth">    0.40    0.40</time>
   <time name="total">   18.04   18.05</time>
   <energy>
    <i name="e_fr_energy">   -612.79994971 </i>
    <i name="e_wo_entrp">   -612.61541919 </i>
    <i name="e_0_energy">   -612.70768445 </i>
   </energy>
  </scstep>
  <scstep>
   <time name="diag">    1.57    1.57</time>
   <time name="diis">   15.02   15.03</time>
   <time name="orth">    0.40    0.40</time>
   <time name="total">   17.19   17.21</time>
   <energy>
    <i name="e_fr_energy">   -612.79996564 </i>
    <i name="e_wo_entrp">   -612.61544449 </i>
    <i name="e_0_energy">   -612.70770506 </i>
   </energy>
  </scstep>
  <scstep>
   <time name="diag">    1.53    1.53</time>
   <time name="diis">   14.37   14.38</time>
   <time name="orth">    0.43    0.43</time>
   <time name="total">   16.54   16.56</time>
   <energy>
    <i name="e_fr_energy">   -612.79997782 </i>
    <i name="e_wo_entrp">   -612.61546811 </i>
    <i name="e_0_energy">   -612.70772297 </i>
   </energy>
  </scstep>
  <scstep>
   <time name="diag">    1.54    1.54</time>
   <time name="diis">   12.98   12.99</time>
   <time name="orth">    0.40    0.40</time>
   <time name="total">   15.13   15.14</time>
   <energy>
    <i name="e_fr_energy">   -612.79998687 </i>
    <i name="e_wo_entrp">   -612.61547339 </i>
    <i name="e_0_energy">   -612.70773013 </i>
   </energy>
  </scstep>
  <scstep>
   <time name="diag">    1.54    1.57</time>
   <time name="diis">   12.01   12.33</time>
   <time name="orth">    0.40    0.40</time>
   <time name="total">   13.97   14.34</time>
   <energy>
    <i name="alphaZ">   4131.69659860 </i>
    <i name="ewald"> -40473.98499139 </i>
    <i name="hartreedc">  -9772.83450246 </i>
    <i name="XCdc">   1703.74888541 </i>
    <i name="pawpsdc">  34155.62549162 </i>
    <i name="pawaedc"> -33910.51949668 </i>
    <i name="eentropy">     -0.18451267 </i>
    <i name="bandstr">  -5674.58434772 </i>
    <i name="atom">  49228.23688282 </i>
    <i name="e_fr_energy">   -612.79999247 </i>
    <i name="e_wo_entrp">   -612.61547980 </i>
    <i name="e_0_energy">   -612.70773614 </i>
   </energy>
  </scstep>
  <structure>
   <crystal>
    <varray name="basis" >
     <v>       8.63323781       0.00234070      -0.00696757 </v>
     <v>       0.00793321       8.76852110      -0.00302222 </v>
     <v>       0.02405100      -0.01821421       8.64267796 </v>
    </varray>
    <i name="volume">    654.25784646 </i>
    <varray name="rec_basis" >
     <v>       0.11583117      -0.00010491      -0.00032256 </v>
     <v>      -0.00003073       0.11404443       0.00024043 </v>
     <v>       0.00009337       0.00003980       0.11570470 </v>
    </varray>
   </crystal>
   <varray name="positions" >
    <v>       0.99581125       0.99400113       0.99641172 </v>
    <v>       0.25782012       0.99867763       0.24729779 </v>
    <v>       0.24710257       0.50027895       0.24835528 </v>
    <v>       0.50391548       0.49863052       0.99899093 </v>
    <v>       0.50549763       0.24371514       0.74556532 </v>
    <v>       0.99586085       0.50224492       0.49851106 </v>
    <v>       0.49721546       0.75864239       0.75071600 </v>
    <v>       0.99283227       0.23424606       0.26511741 </v>
    <v>       0.75822701       0.74050652       0.01152304 </v>
    <v>       0.00268769       0.25559212       0.73784215 </v>
    <v>       0.75358521       0.26061191       0.50480469 </v>
    <v>       0.99610286       0.74422049       0.74599037 </v>
    <v>       0.25601140       0.49396288       0.74621886 </v>
    <v>       0.24708678       0.24880600       0.99556553 </v>
    <v>       0.50986296       0.25484676       0.25421561 </v>
    <v>       0.74607741       0.98962724       0.27033909 </v>
    <v>       0.75772724       0.25598880       0.99567715 </v>
    <v>       0.24696109       0.74908824       0.99892760 </v>
    <v>       0.25280233       0.24819827       0.50109577 </v>
    <v>       0.24483332       0.75073293       0.50089243 </v>
    <v>       0.25034768       0.24934305       0.24859334 </v>
    <v>       0.26074260       0.00009248       0.99238141 </v>
    <v>       0.00259110       0.25030441       0.00081647 </v>
    <v>       0.75300432       0.24570985       0.25508856 </v>
    <v>       0.74604130       0.99742193       0.01008173 </v>
    <v>       0.50844216       0.99962723       0.24794773 </v>
    <v>       0.99086904       0.48067874       0.24151757 </v>
    <v>       0.50518996       0.76108774       0.00819877 </v>
    <v>       0.98936342       0.00202727       0.73855171 </v>
    <v>       0.75842841       0.24431851       0.74918623 </v>
    <v>       0.73657499       0.00404484       0.50859207 </v>
    <v>       0.50505496       0.23300997       0.49416256 </v>
    <v>       0.50110794       0.00044788       0.73626986 </v>
    <v>       0.99559583       0.00082737       0.25786369 </v>
    <v>       0.50467253       0.24523929       0.00344754 </v>
    <v>       0.25179490       0.74938655       0.24916229 </v>
    <v>       0.24256780       0.50097540       0.99343085 </v>
    <v>       0.99806633       0.74120270       0.00332678 </v>
    <v>       0.75461633       0.74145749       0.25422199 </v>
    <v>       0.76002137       0.50355466       0.00252474 </v>
    <v>       0.50518423       0.50298745       0.25743990 </v>
    <v>       0.24692956       0.25302614       0.74833236 </v>
    <v>       0.24847162       0.99794604       0.50492413 </v>
    <v>       0.99789143       0.24317737       0.50156944 </v>
    <v>       0.24015734       0.75309963       0.75007330 </v>
    <v>       0.25747716       0.50084230       0.50312217 </v>
    <v>       0.99255332       0.76106873       0.50020618 </v>
    <v>       0.99325526       0.50064821       0.75378544 </v>
    <v>       0.75223609       0.75226854       0.74922570 </v>
    <v>       0.74188945       0.49839248       0.50147980 </v>
    <v>       0.50340902       0.75291367       0.49497555 </v>
    <v>       0.50213610       0.50187002       0.74075627 </v>
    <v>       0.51763258       0.01416635       0.98096010 </v>
    <v>       0.99815765       0.51088293       0.98424967 </v>
    <v>       0.50420161       0.73885274       0.25861943 </v>
    <v>       0.23707890       0.01163086       0.74615774 </v>
    <v>       0.47852715       0.98350623       0.49742664 </v>
    <v>       0.74234129       0.97688580       0.76504166 </v>
    <v>       0.99944741       0.77442835       0.25981986 </v>
    <v>       0.73649110       0.51291867       0.26448990 </v>
    <v>       0.02160029       0.99938009       0.49792073 </v>
    <v>       0.50435975       0.52634096       0.49842150 </v>
    <v>       0.74133359       0.52579191       0.73977860 </v>
    <v>       0.75412456       0.73359803       0.49180038 </v>
   </varray>
  </structure>
  <varray name="forces" >
   <v>      -0.20070366       0.75315947      -1.11666468 </v>
   <v>       1.09516727       0.61295859      -0.68120805 </v>
   <v>      -0.55188109      -0.62915115      -0.40536902 </v>
   <v>      -0.47994186       0.39469055       0.17777551 </v>
   <v>       0.17725089      -0.60859631      -0.38651115 </v>
   <v>       0.80585144      -0.75668139       0.30839514 </v>
   <v>      -0.77991939       0.86328274       0.92205467 </v>
   <v>      -0.54184247      -0.63148153       0.15638172 </v>
   <v>       0.29400162       0.03329968       0.02247992 </v>
   <v>       0.20814383      -0.12239897      -0.02054852 </v>
   <v>       0.16406545      -0.61992536      -0.29416674 </v>
   <v>       0.51872887      -0.17681527       0.61634027 </v>
   <v>      -0.55019995      -0.18710694       0.44290768 </v>
   <v>      -0.26052419       0.08145604      -0.34090090 </v>
   <v>       0.41746997      -0.68560162       0.02922460 </v>
   <v>      -0.94003022       0.88011060      -0.03175832 </v>
   <v>       0.13471296      -0.12385176       0.00275695 </v>
   <v>      -0.29578957      -0.14953094      -0.32088356 </v>
   <v>       0.07894273      -0.04901030       0.19755709 </v>
   <v>       0.17256482       0.13239958       0.39950697 </v>
   <v>       0.14080850      -0.05463046       0.10557877 </v>
   <v>       0.01545032       0.09684086      -0.56044170 </v>
   <v>      -0.06666257       0.40276016      -0.15416625 </v>
   <v>       0.01651319      -0.26497207      -0.01718325 </v>
   <v>      -0.88005651       0.01265896      -0.75424123 </v>
   <v>       0.75511115      -0.08352816       0.28109024 </v>
   <v>      -0.02053889       0.07875474      -0.21973461 </v>
   <v>      -0.05788594       0.22516974       0.19091099 </v>
   <v>       0.06247031       0.06516279       0.60352394 </v>
   <v>       0.67312091      -0.01463442       0.04452909 </v>
   <v>       0.30681386      -0.08450933      -0.47227793 </v>
   <v>      -0.18692466       0.29264235      -0.65006686 </v>
   <v>       0.36036755       0.05925156       0.67601983 </v>
   <v>      -0.59871953       1.28997438      -0.55534212 </v>
   <v>       0.08669736      -0.65638776       0.44694433 </v>
   <v>       0.41376812      -0.08344971      -0.03030865 </v>
   <v>      -0.45986532       0.05254229      -0.86625725 </v>
   <v>      -0.02400996      -0.72849054      -0.61837760 </v>
   <v>      -0.99437186       1.31187068      -1.57411347 </v>
   <v>       0.74099099       0.01823319      -0.09560709 </v>
   <v>      -1.00896588      -0.31461229      -0.63240049 </v>
   <v>      -0.82801561      -0.07247410      -0.06025665 </v>
   <v>       1.74575155      -0.03415812       0.90358708 </v>
   <v>       0.02224705       0.39686653       0.16112721 </v>
   <v>      -0.79614038      -0.07052634       0.02673099 </v>
   <v>      -0.34781507      -0.00842821       0.75387843 </v>
   <v>       1.27639158      -0.55090711       1.31995461 </v>
   <v>       0.85214862      -0.08190374       0.94478614 </v>
   <v>       0.71718279       1.42829502       0.80750447 </v>
   <v>       0.60884295      -1.49257581       0.26798243 </v>
   <v>      -1.10633588       1.59519125      -0.74325384 </v>
   <v>      -1.32217663      -0.12503686       0.63577183 </v>
   <v>       0.52265193      -0.03857368       0.15555875 </v>
   <v>       0.01002051       0.13968057      -0.50692296 </v>
   <v>      -0.04033139       0.02488484      -0.51399995 </v>
   <v>      -0.39865277       0.27865908       0.21043013 </v>
   <v>      -0.08851559       0.37161258      -0.05375910 </v>
   <v>      -0.14354117      -0.23669459       0.29152938 </v>
   <v>       0.52193322      -0.92541632      -0.91072753 </v>
   <v>       0.97549814      -1.18199362      -1.38153182 </v>
   <v>      -1.12906925       0.80081201       1.09037193 </v>
   <v>      -0.65419724      -1.28551251      -0.18497561 </v>
   <v>       1.11278949      -1.43307870       1.35685701 </v>
   <v>      -0.25084538       1.86942515       0.60390876 </v>
  </varray>
  <varray name="stress" >
   <v>      19.91732963       2.85256003      -2.12353174 </v>
   <v>       2.85256334       8.53633825      -2.45744970 </v>
   <v>      -2.12352821      -2.45744982      20.93883561 </v>
  </varray>
  <energy>
   <i name="e_fr_energy">   -612.79999247 </i>
   <i name="e_wo_entrp">   -612.70773614 </i>
   <i name="e_0_energy">     -0.18451267 </i>
  </energy>
  <time name="totalsc">  769.04  779.19</time>
 </calculation>
 <calculation>
  <scstep>
   <time name="dav">   18.51   18.95</time>
   <time name="total">   18.72   19.17</time>
   <energy>
    <i name="alphaZ">   4069.53593773 </i>
    <i name="ewald"> -39992.62792987 </i>
    <i name="hartreedc"> -10000.01882156 </i>
    <i name="XCdc">   1693.99526218 </i>
    <i name="pawpsdc">  34155.69055377 </i>
    <i name="pawaedc"> -33910.57806513 </i>
    <i name="eentropy">     -0.19821546 </i>
    <i name="bandstr">  -5855.16115645 </i>
    <i name="atom">  49228.23688282 </i>
    <i name="e_fr_energy">   -611.12555196 </i>
    <i name="e_wo_entrp">   -610.92733650 </i>
    <i name="e_0_energy">   -611.02644423 </i>
   </energy>
  </scstep>
  <scstep>
   <time name="diag">    1.54    1.55</time>
   <time name="diis">   18.97   18.98</time>
   <time name="orth">    0.40    0.40</time>
   <time name="total">   21.12   21.14</time>
   <energy>
    <i name="e_fr_energy">   -642.00124453 </i>
    <i name="e_wo_entrp">   -641.85916836 </i>
    <i name="e_0_energy">   -641.93020645 </i>
   </energy>
  </scstep>
  <scstep>
   <time name="diag">    1.54    1.54</time>
   <time name="diis">   15.43   15.47</time>
   <time name="orth">    0.40    0.40</time>
   <time name="total">   17.58   17.62</time>
   <energy>
    <i name="e_fr_energy">   -616.14494527 </i>
    <i name="e_wo_entrp">   -615.97910457 </i>
    <i name="e_0_energy">   -616.06202492 </i>
   </energy>
  </scstep>
  <scstep>
   <time name="diag">    1.52    1.55</time>
   <time name="diis">   18.58   19.11</time>
   <time name="orth">    0.40    0.40</time>
   <time name="total">   20.71   21.27</time>
   <energy>
    <i name="e_fr_energy">   -615.17130037 </i>
    <i name="e_wo_entrp">   -614.99162371 </i>
    <i name="e_0_energy">   -615.08146204 </i>
   </energy>
  </scstep>
  <scstep>
   <time name="diag">    1.53    1.54</time>
   <time name="diis">   19.15   19.16</time>
   <time name="orth">    0.40    0.40</time>
   <time name="total">   21.29   21.31</time>
   <energy>
    <i name="e_fr_energy">   -615.02028070 </i>
    <i name="e_wo_entrp">   -614.83947421 </i>
    <i name="e_0_energy">   -614.92987745 </i>
   </energy>
  </scstep>
  <scstep>
   <time name="diag">    1.52    1.54</time>
   <time name="diis">   18.89   19.65</time>
   <time name="orth">    0.93    1.01</time>
   <time name="total">   21.60   22.48</time>
   <energy>
    <i name="e_fr_energy">   -614.48873391 </i>
    <i name="e_wo_entrp">   -614.31022573 </i>
    <i name="e_0_energy">   -614.39947982 </i>
   </energy>
  </scstep>
  <scstep>
   <time name="diag">    2.66    2.76</time>
   <time name="diis">   18.82   19.34</time>
   <time name="orth">    0.40    0.40</time>
   <time name="total">   22.12   22.79</time>
   <energy>
    <i name="e_fr_energy">   -614.50399561 </i>
    <i name="e_wo_entrp">   -614.32561031 </i>
    <i name="e_0_energy">   -614.41480296 </i>
   </energy>
  </scstep>
  <scstep>
   <time name="diag">    1.52    1.54</time>
   <time name="diis">   19.02   19.11</time>
   <time name="orth">    0.40    0.40</time>
   <time name="total">   21.16   21.29</time>
   <energy>
    <i name="e_fr_energy">   -614.44221361 </i>
    <i name="e_wo_entrp">   -614.25965665 </i>
    <i name="e_0_energy">   -614.35093513 </i>
   </energy>
  </scstep>
  <scstep>
   <time name="diag">    1.54    1.58</time>
   <time name="diis">   18.95   19.45</time>
   <time name="orth">    0.40    0.40</time>
   <time name="total">   21.09   21.65</time>
   <energy>
    <i name="e_fr_energy">   -614.40486771 </i>
    <i name="e_wo_entrp">   -614.22342383 </i>
    <i name="e_0_energy">   -614.31414577 </i>
   </energy>
  </scstep>
  <scstep>
   <time name="diag">    1.55    1.55</time>
   <time name="diis">   18.97   19.00</time>
   <time name="orth">    0.40    0.40</time>
   <time name="total">   21.13   21.16</time>
   <energy>
    <i name="e_fr_energy">   -614.40385233 </i>
    <i name="e_wo_entrp">   -614.22370800 </i>
    <i name="e_0_energy">   -614.31378017 </i>
   </energy>
  </scstep>
  <scstep>
   <time name="diag">    1.52    1.55</time>
   <time name="diis">   17.39   17.88</time>
   <time name="orth">    0.40    0.40</time>
   <time name="total">   19.51   20.05</time>
   <energy>
    <i name="e_fr_energy">   -614.36186076 </i>
    <i name="e_wo_entrp">   -614.17944916 </i>
    <i name="e_0_energy">   -614.27065496 </i>
   </energy>
  </scstep>
  <scstep>
   <time name="diag">    1.51    1.54</time>
   <time name="diis">   19.48   20.05</time>
   <time name="orth">    0.40    0.40</time>
   <time name="total">   21.59   22.20</time>
   <energy>
    <i name="e_fr_energy">   -614.35880895 </i>
    <i name="e_wo_entrp">   -614.17744859 </i>
    <i name="e_0_energy">   -614.26812877 </i>
   </energy>
  </scstep>
  <scstep>
   <time name="diag">    1.54    1.54</time>
   <time name="diis">   19.16   19.17</time>
   <time name="orth">    0.40    0.40</time>
   <time name="total">   21.31   21.33</time>
   <energy>
    <i name="e_fr_energy">   -614.35346144 </i>
    <i name="e_wo_entrp">   -614.17367708 </i>
    <i name="e_0_energy">   -614.26356926 </i>
   </energy>
  </scstep>
  <scstep>
   <time name="diag">    1.52    1.55</time>
   <time name="diis">   19.06   19.44</time>
   <time name="orth">    0.40    0.40</time>
   <time name="total">   21.19   21.60</time>
   <energy>
    <i name="e_fr_energy">   -614.34640100 </i>
    <i name="e_wo_entrp">   -614.16523975 </i>
    <i name="e_0_energy">   -614.25582038 </i>
   </energy>
  </scstep>
  <scstep>
   <time name="diag">    1.55    1.56</time>
   <time name="diis">   19.00   19.03</time>
   <time name="orth">    0.40    0.40</time>
   <time name="total">   21.17   21.20</time>
   <energy>
    <i name="e_fr_energy">   -614.34712590 </i>
    <i name="e_wo_entrp">   -614.16594535 </i>
    <i name="e_0_energy">   -614.25653562 </i>
   </energy>
  </scstep>
  <scstep>
   <time name="diag">    1.53    1.57</time>
   <time name="diis">   18.50   19.03</time>
   <time name="orth">    0.40    0.41</time>
   <time name="total">   20.63   21.22</time>
   <energy>
    <i name="e_fr_energy">   -614.34740427 </i>
    <i name="e_wo_entrp">   -614.16643816 </i>
    <i name="e_0_energy">   -614.25692122 </i>
   </energy>
  </scstep>
  <scstep>
   <time name="diag">    1.51    1.54</time>
   <time name="diis">   17.51   18.03</time>
   <time name="orth">    0.40    0.40</time>
   <time name="total">   19.63   20.19</time>
   <energy>
    <i name="e_fr_energy">   -614.34746152 </i>
    <i name="e_wo_entrp">   -614.16635274 </i>
    <i name="e_0_energy">   -614.25690713 </i>
   </energy>
  </scstep>
  <scstep>
   <time name="diag">    1.51    1.54</time>
   <time name="diis">   18.37   18.89</time>
   <time name="orth">    0.40    0.40</time>
   <time name="total">   20.49   21.05</time>
   <energy>
    <i name="e_fr_energy">   -614.34789908 </i>
    <i name="e_wo_entrp">   -614.16682974 </i>
    <i name="e_0_energy">   -614.25736441 </i>
   </energy>
  </scstep>
  <scstep>
   <time name="diag">    1.53    1.54</time>
   <time name="diis">   18.87   18.89</time>
   <time name="orth">    0.40    0.40</time>
   <time name="total">   21.01   21.04</time>
   <energy>
    <i name="e_fr_energy">   -614.34816088 </i>
    <i name="e_wo_entrp">   -614.16687879 </i>
    <i name="e_0_energy">   -614.25751984 </i>
   </energy>
  </scstep>
  <scstep>
   <time name="diag">    1.54    1.54</time>
   <time name="diis">   18.03   18.10</time>
   <time name="orth">    0.40    0.40</time>
   <time name="total">   20.18   20.25</time>
   <energy>
    <i name="e_fr_energy">   -614.34798680 </i>
    <i name="e_wo_entrp">   -614.16685917 </i>
    <i name="e_0_energy">   -614.25742298 </i>
   </energy>
  </scstep>
  <scstep>
   <time name="diag">    1.50    1.54</time>
   <time name="diis">   15.67   16.07</time>
   <time name="orth">    0.40    0.40</time>
   <time name="total">   17.79   18.22</time>
   <energy>
    <i name="e_fr_energy">   -614.34802107 </i>
    <i name="e_wo_entrp">   -614.16689812 </i>
    <i name="e_0_energy">   -614.25745959 </i>
   </energy>
  </scstep>
  <scstep>
   <time name="diag">    1.54    1.54</time>
   <time name="diis">   15.73   15.75</time>
   <time name="orth">    0.40    0.40</time>
   <time name="total">   17.87   17.90</time>
   <energy>
    <i name="e_fr_energy">   -614.34804461 </i>
    <i name="e_wo_entrp">   -614.16693826 </i>
    <i name="e_0_energy">   -614.25749143 </i>
   </energy>
  </scstep>
  <scstep>
   <time name="diag">    1.51    1.55</time>
   <time name="diis">   14.65   15.12</time>
   <time name="orth">    0.40    0.40</time>
   <time name="total">   16.76   17.28</time>
   <energy>
    <i name="e_fr_energy">   -614.34805899 </i>
    <i name="e_wo_entrp">   -614.16696433 </i>
    <i name="e_0_energy">   -614.25751166 </i>
   </energy>
  </scstep>
  <scstep>
   <time name="diag">    1.52    1.55</time>
   <time name="diis">   14.09   14.50</time>
   <time name="orth">    0.40    0.40</time>
   <time name="total">   16.22   16.66</time>
   <energy>
    <i name="e_fr_energy">   -614.34806866 </i>
    <i name="e_wo_entrp">   -614.16697182 </i>
    <i name="e_0_energy">   -614.25752024 </i>
   </energy>
  </scstep>
  <scstep>
   <time name="diag">    1.51    1.54</time>
   <time name="diis">   12.70   13.05</time>
   <time name="orth">    0.40    0.40</time>
   <time name="total">   14.64   15.03</time>
   <energy>
    <i name="alphaZ">   4069.53593773 </i>
    <i name="ewald"> -39992.62792987 </i>
    <i name="hartreedc"> -10128.19330388 </i>
    <i name="XCdc">   1700.29315736 </i>
    <i name="pawpsdc">  33992.75716428 </i>
    <i name="pawaedc"> -33748.62272913 </i>
    <i name="eentropy">     -0.18109886 </i>
    <i name="bandstr">  -5735.54615360 </i>
    <i name="atom">  49228.23688282 </i>
    <i name="e_fr_energy">   -614.34807314 </i>
    <i name="e_wo_entrp">   -614.16697429 </i>
    <i name="e_0_energy">   -614.25752371 </i>
   </energy>
  </scstep>
  <structure>
   <crystal>
    <varray name="basis" >
     <v>       8.68617350       0.00993262      -0.01265740 </v>
     <v>       0.01568312       8.79157062      -0.00967974 </v>
     <v>       0.01853314      -0.02477861       8.69838053 </v>
    </varray>
    <i name="volume">    664.25139382 </i>
    <varray name="rec_basis" >
     <v>       0.11512537      -0.00020564      -0.00024588 </v>
     <v>      -0.00012960       0.11374591       0.00032430 </v>
     <v>       0.00016738       0.00012628       0.11496393 </v>
    </varray>
   </crystal>
   <varray name="positions" >
    <v>       0.99470329       0.99813221       0.99017915 </v>
    <v>       0.26394742       0.00204048       0.24350146 </v>
    <v>       0.24402815       0.49681360       0.24608886 </v>
    <v>       0.50122880       0.50080481       0.99998185 </v>
    <v>       0.50649721       0.24036202       0.74340748 </v>
    <v>       0.00036298       0.49808419       0.50023467 </v>
    <v>       0.49283855       0.76340385       0.75586097 </v>
    <v>       0.98980522       0.23077439       0.26598666 </v>
    <v>       0.75986938       0.74068956       0.01164991 </v>
    <v>       0.00385173       0.25491815       0.73772815 </v>
    <v>       0.75450973       0.25719755       0.50316223 </v>
    <v>       0.99899282       0.74325406       0.74943272 </v>
    <v>       0.25293093       0.49293941       0.74868829 </v>
    <v>       0.24563587       0.24925059       0.99366164 </v>
    <v>       0.51219879       0.25107443       0.25437930 </v>
    <v>       0.74082056       0.99447046       0.27015928 </v>
    <v>       0.75848060       0.25530722       0.99569291 </v>
    <v>       0.24531396       0.74826227       0.99713484 </v>
    <v>       0.25324064       0.24793080       0.50219878 </v>
    <v>       0.24579073       0.75146575       0.50312347 </v>
    <v>       0.25113315       0.24904350       0.24918320 </v>
    <v>       0.26083717       0.00061876       0.98925333 </v>
    <v>       0.00221895       0.25251863      -0.00004359 </v>
    <v>       0.75309820       0.24425181       0.25499221 </v>
    <v>       0.74113522       0.99748413       0.00586769 </v>
    <v>       0.51265777       0.99916982       0.24951999 </v>
    <v>       0.99075729       0.48110952       0.24029109 </v>
    <v>       0.50486238       0.76232888       0.00926459 </v>
    <v>       0.98970278       0.00239269       0.74192093 </v>
    <v>       0.76218920       0.24423751       0.74943779 </v>
    <v>       0.73829724       0.00357396       0.50595708 </v>
    <v>       0.50401906       0.23461277       0.49053367 </v>
    <v>       0.50311085       0.00078118       0.74004507 </v>
    <v>       0.99225229       0.00791900       0.25476360 </v>
    <v>       0.50515336       0.24163303       0.00594147 </v>
    <v>       0.25410793       0.74892646       0.24899481 </v>
    <v>       0.24001129       0.50125511       0.98859352 </v>
    <v>       0.99794547       0.73718755      -0.00012645 </v>
    <v>       0.74907763       0.74865836       0.24543348 </v>
    <v>       0.76416343       0.50365277       0.00199444 </v>
    <v>       0.49955756       0.50125067       0.25390475 </v>
    <v>       0.24230391       0.25262793       0.74799215 </v>
    <v>       0.25821300       0.99776600       0.50997567 </v>
    <v>       0.99801124       0.24536269       0.50246970 </v>
    <v>       0.23570845       0.75271310       0.75021879 </v>
    <v>       0.25552188       0.50080519       0.50732866 </v>
    <v>       0.99966805       0.75805116       0.50757873 </v>
    <v>       0.99800278       0.50020728       0.75906283 </v>
    <v>       0.75622392       0.76013505       0.75373909 </v>
    <v>       0.74529505       0.49018282       0.50297553 </v>
    <v>       0.49723031       0.76168312       0.49082486 </v>
    <v>       0.49473851       0.50119142       0.74429889 </v>
    <v>       0.52055093       0.01395516       0.98183069 </v>
    <v>       0.99822083       0.51164553       0.98142038 </v>
    <v>       0.50398411       0.73898375       0.25575019 </v>
    <v>       0.23484654       0.01316702       0.74733108 </v>
    <v>       0.47803148       0.98555028       0.49712688 </v>
    <v>       0.74153584       0.97558715       0.76666785 </v>
    <v>       0.00238283       0.76932555       0.25473684 </v>
    <v>       0.74196967       0.50639810       0.25678045 </v>
    <v>       0.01527003       0.00380032       0.50400353 </v>
    <v>       0.50071348       0.51926714       0.49738357 </v>
    <v>       0.74753800       0.51792148       0.74735470 </v>
    <v>       0.75270398       0.74389062       0.49517380 </v>
   </varray>
  </structure>
  <varray name="forces" >
   <v>      -0.13797657      -0.05991608       0.07395789 </v>
   <v>      -0.26074849      -0.20832638       0.04244308 </v>
   <v>      -0.32340835      -0.06542100      -0.03823895 </v>
   <v>       0.13648238      -0.21521578       0.03013742 </v>
   <v>       0.09113020       0.24349522      -0.00094121 </v>
   <v>      -0.22883560       0.26219192       0.36809410 </v>
   <v>       0.17446498      -0.56251077      -0.23489998 </v>
   <v>      -0.53319345      -0.10475577       0.24109958 </v>
   <v>       0.41946416      -0.24571037      -0.08781686 </v>
   <v>      -0.07074231      -0.19144030      -0.04031515 </v>
   <v>       0.34107452      -0.32971135      -0.21376330 </v>
   <v>       0.24546849      -0.38240834       0.40785893 </v>
   <v>      -0.25318749      -0.24370494       0.23442015 </v>
   <v>      -0.17807793      -0.05566021      -0.33030686 </v>
   <v>       0.30426191       0.24351627      -0.08384658 </v>
   <v>       0.12594619       0.22574209      -0.07977727 </v>
   <v>      -0.03945282       0.03928344      -0.02146402 </v>
   <v>      -0.50118441       0.00461002      -0.04014704 </v>
   <v>      -0.12650772      -0.19174543       0.11761514 </v>
   <v>      -0.02233528       0.17650467       0.02281969 </v>
   <v>       0.00923744      -0.18220134       0.02456088 </v>
   <v>      -0.20481502       0.09481149      -0.17527230 </v>
   <v>      -0.02947006       0.18644236      -0.03655395 </v>
   <v>       0.03845375      -0.14822859      -0.07307080 </v>
   <v>       0.01061586       0.14111705      -0.57816654 </v>
   <v>       0.03406632       0.12461459       0.06176485 </v>
   <v>       0.04530771       0.25362229       0.12954171 </v>
   <v>      -0.16945086       0.09168992       0.07122619 </v>
   <v>       0.12742482       0.17090140      -0.01895415 </v>
   <v>       0.12522523       0.18919806       0.04808893 </v>
   <v>       0.56820973      -0.11668121      -0.20894604 </v>
   <v>      -0.08398224       0.55138716      -0.05336338 </v>
   <v>       0.39755067       0.11053956       0.58961941 </v>
   <v>       0.22664160      -0.74397198       0.08558165 </v>
   <v>      -0.00359552      -0.19506198      -0.12926030 </v>
   <v>       0.04210565       0.10604265      -0.07156648 </v>
   <v>      -0.08025717      -0.02891954      -0.09616900 </v>
   <v>       0.00874698       0.24365802      -0.09243027 </v>
   <v>      -0.30655463      -0.02377396       0.27329210 </v>
   <v>      -0.06057306      -0.03263979       0.01550464 </v>
   <v>       0.37315155      -0.05815472       0.20670839 </v>
   <v>       0.00501364      -0.13366630      -0.04126383 </v>
   <v>      -0.43081250       0.27923906       0.29989006 </v>
   <v>       0.19010461      -0.03329285       0.02010747 </v>
   <v>      -0.12185026       0.05357259       0.12531919 </v>
   <v>       0.12086154      -0.06651591      -0.05500038 </v>
   <v>       0.06284505      -0.13805886      -0.04340111 </v>
   <v>       0.53327943      -0.09362168      -0.05605364 </v>
   <v>      -0.12471652      -0.37816015       0.13921464 </v>
   <v>      -0.16135324       0.19840808      -0.08145905 </v>
   <v>      -0.06936962      -0.29893341      -0.05550303 </v>
   <v>      -0.04966637       0.16109241      -0.12577046 </v>
   <v>       0.39548765      -0.07456343      -0.22964852 </v>
   <v>      -0.13125384      -0.00331529      -0.27726693 </v>
   <v>      -0.26409401      -0.62684103      -0.05899874 </v>
   <v>      -0.71012166       0.20686149      -0.04516356 </v>
   <v>       0.29876275       0.07116800      -0.00903022 </v>
   <v>      -0.40684676       0.09495553       0.30643813 </v>
   <v>      -0.04648138       0.86850496      -0.09665977 </v>
   <v>      -0.34610101       0.39064806      -0.17312415 </v>
   <v>       0.54306890      -0.03070585       0.08241957 </v>
   <v>       0.37639043       0.47338638      -0.33286221 </v>
   <v>       0.20267346       0.37698103       0.57624516 </v>
   <v>      -0.09650139      -0.37035116      -0.20749295 </v>
  </varray>
  <varray name="stress" >
   <v>     -47.16068683      -0.42094659       1.23554146 </v>
   <v>      -0.42094687     -55.62045162      -0.98660774 </v>
   <v>       1.23554000      -0.98660729     -49.60497610 </v>
  </varray>
  <energy>
   <i name="e_fr_energy">   -614.34807314 </i>
   <i name="e_wo_entrp">   -614.25752371 </i>
   <i name="e_0_energy">     -0.18109886 </i>
  </energy>
  <time name="totalsc">  536.85  545.59</time>
 </calculation>
 <calculation>
  <scstep>
   <time name="dav">   20.30   20.32</time>
   <time name="total">   20.51   20.54</time>
   <energy>
    <i name="alphaZ">   4077.62907466 </i>
    <i name="ewald"> -40061.01016907 </i>
    <i name="hartreedc"> -10093.91429309 </i>
    <i name="XCdc">   1701.53306155 </i>
    <i name="pawpsdc">  33992.65020757 </i>
    <i name="pawaedc"> -33748.55735824 </i>
    <i name="eentropy">     -0.17987602 </i>
    <i name="bandstr">  -5710.71767086 </i>
    <i name="atom">  49228.23688282 </i>
    <i name="e_fr_energy">   -614.33014068 </i>
    <i name="e_wo_entrp">   -614.15026466 </i>
    <i name="e_0_energy">   -614.24020267 </i>
   </energy>
  </scstep>
  <scstep>
   <time name="diag">    1.54    1.54</time>
   <time name="diis">   17.75   17.88</time>
   <time name="orth">    0.40    0.40</time>
   <time name="total">   19.90   20.04</time>
   <energy>
    <i name="e_fr_energy">   -615.00153692 </i>
    <i name="e_wo_entrp">   -614.82311925 </i>
    <i name="e_0_energy">   -614.91232809 </i>
   </energy>
  </scstep>
  <scstep>
   <time name="diag">    1.53    1.57</time>
   <time name="diis">   15.99   16.06</time>
   <time name="orth">    0.41    0.41</time>
   <time name="total">   18.14   18.24</time>
   <energy>
    <i name="e_fr_energy">   -614.51662433 </i>
    <i name="e_wo_entrp">   -614.33442074 </i>
    <i name="e_0_energy">   -614.42552254 </i>
   </energy>
  </scstep>
  <scstep>
   <time name="diag">    1.56    1.56</time>
   <time name="diis">   16.86   16.89</time>
   <time name="orth">    0.41    0.41</time>
   <time name="total">   19.03   19.07</time>
   <energy>
    <i name="e_fr_energy">   -614.39745608 </i>
    <i name="e_wo_entrp">   -614.21488207 </i>
    <i name="e_0_energy">   -614.30616908 </i>
   </energy>
  </scstep>
  <scstep>
   <time name="diag">    1.55    1.55</time>
   <time name="diis">   18.75   18.78</time>
   <time name="orth">    0.40    0.40</time>
   <time name="total">   20.91   20.94</time>
   <energy>
    <i name="e_fr_energy">   -614.38540278 </i>
    <i name="e_wo_entrp">   -614.20518388 </i>
    <i name="e_0_energy">   -614.29529333 </i>
   </energy>
  </scstep>
  <scstep>
   <time name="diag">    1.55    1.55</time>
   <time name="diis">   18.81   18.83</time>
   <time name="orth">    0.40    0.40</time>
   <time name="total">   20.97   20.99</time>
   <energy>
    <i name="e_fr_energy">   -614.38304306 </i>
    <i name="e_wo_entrp">   -614.20136247 </i>
    <i name="e_0_energy">   -614.29220276 </i>
   </energy>
  </scstep>
  <scstep>
   <time name="diag">    1.55    1.55</time>
   <time name="diis">   17.67   17.67</time>
   <time name="orth">    0.40    0.40</time>
   <time name="total">   19.82   19.84</time>
   <energy>
    <i name="e_fr_energy">   -614.38019568 </i>
    <i name="e_wo_entrp">   -614.19867039 </i>
    <i name="e_0_energy">   -614.28943303 </i>
   </energy>
  </scstep>
  <scstep>
   <time name="diag">    1.54    1.54</time>
   <time name="diis">   18.59   18.61</time>
   <time name="orth">    0.40    0.40</time>
   <time name="total">   20.74   20.76</time>
   <energy>
    <i name="e_fr_energy">   -614.38061166 </i>
    <i name="e_wo_entrp">   -614.19944267 </i>
    <i name="e_0_energy">   -614.29002717 </i>
   </energy>
  </scstep>
  <scstep>
   <time name="diag">    1.55    1.57</time>
   <time name="diis">   18.53   18.59</time>
   <time name="orth">    0.40    0.40</time>
   <time name="total">   20.69   20.77</time>
   <energy>
    <i name="e_fr_energy">   -614.37910462 </i>
    <i name="e_wo_entrp">   -614.19750518 </i>
    <i name="e_0_energy">   -614.28830490 </i>
   </energy>
  </scstep>
  <scstep>
   <time name="diag">    1.54    1.54</time>
   <time name="diis">   17.72   17.73</time>
   <time name="orth">    0.40    0.40</time>
   <time name="total">   19.87   19.88</time>
   <energy>
    <i name="e_fr_energy">   -614.37915419 </i>
    <i name="e_wo_entrp">   -614.19746567 </i>
    <i name="e_0_energy">   -614.28830993 </i>
   </energy>
  </scstep>
  <scstep>
   <time name="diag">    1.51    1.54</time>
   <time name="diis">   16.94   17.41</time>
   <time name="orth">    0.40    0.40</time>
   <time name="total">   19.05   19.57</time>
   <energy>
    <i name="e_fr_energy">   -614.37837575 </i>
    <i name="e_wo_entrp">   -614.19674657 </i>
    <i name="e_0_energy">   -614.28756116 </i>
   </energy>
  </scstep>
  <scstep>
   <time name="diag">    1.56    1.60</time>
   <time name="diis">   16.67   17.15</time>
   <time name="orth">    0.40    0.40</time>
   <time name="total">   18.83   19.37</time>
   <energy>
    <i name="e_fr_energy">   -614.37819629 </i>
    <i name="e_wo_entrp">   -614.19684207 </i>
    <i name="e_0_energy">   -614.28751918 </i>
   </energy>
  </scstep>
  <scstep>
   <time name="diag">    1.55    1.56</time>
   <time name="diis">   16.78   16.81</time>
   <time name="orth">    0.40    0.40</time>
   <time name="total">   18.94   18.98</time>
   <energy>
    <i name="e_fr_energy">   -614.37816282 </i>
    <i name="e_wo_entrp">   -614.19648560 </i>
    <i name="e_0_energy">   -614.28732421 </i>
   </energy>
  </scstep>
  <scstep>
   <time name="diag">    1.53    1.54</time>
   <time name="diis">   16.46   16.50</time>
   <time name="orth">    0.40    0.40</time>
   <time name="total">   18.60   18.64</time>
   <energy>
    <i name="e_fr_energy">   -614.37808808 </i>
    <i name="e_wo_entrp">   -614.19653890 </i>
    <i name="e_0_energy">   -614.28731349 </i>
   </energy>
  </scstep>
  <scstep>
   <time name="diag">    1.52    1.55</time>
   <time name="diis">   15.27   15.77</time>
   <time name="orth">    0.40    0.40</time>
   <time name="total">   17.40   17.93</time>
   <energy>
    <i name="e_fr_energy">   -614.37808758 </i>
    <i name="e_wo_entrp">   -614.19656699 </i>
    <i name="e_0_energy">   -614.28732728 </i>
   </energy>
  </scstep>
  <scstep>
   <time name="diag">    1.54    1.57</time>
   <time name="diis">   13.97   14.36</time>
   <time name="orth">    0.40    0.41</time>
[...]
      </set>
     </set>
    </set>
   </array>
  </eigenvalues>
  <separator name="orbital magnetization" >
   <v name="MAGDIPOLOUT">      0.00000000      0.00000000      0.00000000</v>
  </separator>
  <dos>
   <i name="efermi">      7.69454591 </i>
   <total>
    <array>
     <dimension dim="1">gridpoints</dimension>
     <dimension dim="2">spin</dimension>
     <field>energy</field>
     <field>total</field>
     <field>integrated</field>
     <set>
      <set comment="spin 1">
       <r>   -60.7264     0.0000     0.0000 </r>
       <r>   -60.4783     0.0000     0.0000 </r>
       <r>   -60.2301     0.0000     0.0000 </r>
       <r>   -59.9820     0.0000     0.0000 </r>
       <r>   -59.7338     0.0000     0.0000 </r>
       <r>   -59.4856     0.0000     0.0000 </r>
       <r>   -59.2375     0.0000     0.0000 </r>
       <r>   -58.9893     0.0000     0.0000 </r>
       <r>   -58.7412     0.0000     0.0000 </r>
       <r>   -58.4930     0.0000     0.0000 </r>
       <r>   -58.2449     0.0000     0.0000 </r>
       <r>   -57.9967     0.0000     0.0000 </r>
       <r>   -57.7485     0.0000     0.0000 </r>
       <r>   -57.5004     0.1482     0.0368 </r>
       <r>   -57.2522    20.3456     5.0857 </r>
       <r>   -57.0041    26.8896    11.7585 </r>
       <r>   -56.7559     0.9731    12.0000 </r>
       <r>   -56.5078     0.0000    12.0000 </r>
       <r>   -56.2596     0.0000    12.0000 </r>
       <r>   -56.0115     0.0000    12.0000 </r>
       <r>   -55.7633     0.0000    12.0000 </r>
       <r>   -55.5151     0.0000    12.0000 </r>
       <r>   -55.2670     0.0000    12.0000 </r>
       <r>   -55.0188     0.0000    12.0000 </r>
       <r>   -54.7707     0.0000    12.0000 </r>
       <r>   -54.5225     0.0000    12.0000 </r>
       <r>   -54.2744     0.0000    12.0000 </r>
       <r>   -54.0262     0.0000    12.0000 </r>
       <r>   -53.7780     0.0000    12.0000 </r>
       <r>   -53.5299     0.0000    12.0000 </r>
       <r>   -53.2817     0.0000    12.0000 </r>
       <r>   -53.0336     0.0000    12.0000 </r>
       <r>   -52.7854     0.0000    12.0000 </r>
       <r>   -52.5373     0.0000    12.0000 </r>
       <r>   -52.2891     0.0000    12.0000 </r>
       <r>   -52.0409     0.0000    12.0000 </r>
       <r>   -51.7928     0.0000    12.0000 </r>
       <r>   -51.5446     0.0000    12.0000 </r>
       <r>   -51.2965     0.0000    12.0000 </r>
       <r>   -51.0483     0.0000    12.0000 </r>
       <r>   -50.8002     0.0000    12.0000 </r>
       <r>   -50.5520     0.0000    12.0000 </r>
       <r>   -50.3038     0.0000    12.0000 </r>
       <r>   -50.0557     0.0323    12.0080 </r>
       <r>   -49.8075    14.8198    15.6856 </r>
       <r>   -49.5594    22.9471    21.3801 </r>
       <r>   -49.3112    16.7428    25.5350 </r>
       <r>   -49.0631     1.8739    26.0000 </r>
       <r>   -48.8149     0.0001    26.0000 </r>
       <r>   -48.5667     0.0000    26.0000 </r>
       <r>   -48.3186     0.0000    26.0000 </r>
       <r>   -48.0704     0.0000    26.0000 </r>
       <r>   -47.8223     0.0000    26.0000 </r>
       <r>   -47.5741     0.0000    26.0000 </r>
       <r>   -47.3260     0.0000    26.0000 </r>
       <r>   -47.0778     0.0000    26.0000 </r>
       <r>   -46.8297     0.0000    26.0000 </r>
       <r>   -46.5815     0.0000    26.0000 </r>
       <r>   -46.3333     0.0000    26.0000 </r>
       <r>   -46.0852     0.0000    26.0000 </r>
       <r>   -45.8370     0.0000    26.0000 </r>
       <r>   -45.5889     0.0000    26.0000 </r>
       <r>   -45.3407     0.0000    26.0000 </r>
       <r>   -45.0926     0.0000    26.0000 </r>
       <r>   -44.8444     0.0000    26.0000 </r>
       <r>   -44.5962     0.0000    26.0000 </r>
       <r>   -44.3481     0.0000    26.0000 </r>
       <r>   -44.0999     0.0000    26.0000 </r>
       <r>   -43.8518     0.0000    26.0000 </r>
       <r>   -43.6036     0.0000    26.0000 </r>
       <r>   -43.3555     0.0000    26.0000 </r>
       <r>   -43.1073     0.0000    26.0000 </r>
       <r>   -42.8591     0.0000    26.0000 </r>
       <r>   -42.6110     0.0000    26.0000 </r>
       <r>   -42.3628     0.0000    26.0000 </r>
       <r>   -42.1147     0.0000    26.0000 </r>
       <r>   -41.8665     0.0000    26.0000 </r>
       <r>   -41.6184     0.0014    26.0004 </r>
       <r>   -41.3702     3.8192    26.9481 </r>
       <r>   -41.1220     4.7991    28.1390 </r>
       <r>   -40.8739    17.2438    32.4182 </r>
       <r>   -40.6257    26.4243    38.9756 </r>
       <r>   -40.3776     4.1279    39.9999 </r>
       <r>   -40.1294     0.0002    40.0000 </r>
       <r>   -39.8813     0.0000    40.0000 </r>
       <r>   -39.6331     0.0000    40.0000 </r>
       <r>   -39.3850     0.0000    40.0000 </r>
       <r>   -39.1368     0.0000    40.0000 </r>
       <r>   -38.8886     0.0000    40.0000 </r>
       <r>   -38.6405     0.0000    40.0000 </r>
       <r>   -38.3923     0.0000    40.0000 </r>
       <r>   -38.1442     0.0000    40.0000 </r>
       <r>   -37.8960     0.0000    40.0000 </r>
       <r>   -37.6479     0.0000    40.0000 </r>
       <r>   -37.3997     0.0000    40.0000 </r>
       <r>   -37.1515     0.0000    40.0000 </r>
       <r>   -36.9034     0.0000    40.0000 </r>
       <r>   -36.6552     0.0000    40.0000 </r>
       <r>   -36.4071     0.0451    40.0112 </r>
       <r>   -36.1589     7.9521    41.9846 </r>
       <r>   -35.9108    68.8977    59.0820 </r>
       <r>   -35.6626    65.5325    75.3443 </r>
       <r>   -35.4144     2.6422    76.0000 </r>
       <r>   -35.1663     0.0000    76.0000 </r>
       <r>   -34.9181     0.0000    76.0000 </r>
       <r>   -34.6700     0.0000    76.0000 </r>
       <r>   -34.4218     0.0000    76.0000 </r>
       <r>   -34.1737     0.0000    76.0000 </r>
       <r>   -33.9255     0.0000    76.0000 </r>
       <r>   -33.6773     0.0000    76.0000 </r>
       <r>   -33.4292     0.0000    76.0000 </r>
       <r>   -33.1810     0.0000    76.0000 </r>
       <r>   -32.9329     0.0000    76.0000 </r>
       <r>   -32.6847     0.0000    76.0000 </r>
       <r>   -32.4366     0.0000    76.0000 </r>
       <r>   -32.1884     0.0000    76.0000 </r>
       <r>   -31.9402     0.0000    76.0000 </r>
       <r>   -31.6921     0.0001    76.0000 </r>
       <r>   -31.4439     3.9237    76.9737 </r>
       <r>   -31.1958    62.5334    92.4918 </r>
       <r>   -30.9476    73.6224   110.7617 </r>
       <r>   -30.6995     4.9898   112.0000 </r>
       <r>   -30.4513     0.0001   112.0000 </r>
       <r>   -30.2032     0.0000   112.0000 </r>
       <r>   -29.9550     0.0000   112.0000 </r>
       <r>   -29.7068     0.0000   112.0000 </r>
       <r>   -29.4587     0.0000   112.0000 </r>
       <r>   -29.2105     0.0000   112.0000 </r>
       <r>   -28.9624     0.0000   112.0000 </r>
       <r>   -28.7142     0.0000   112.0000 </r>
       <r>   -28.4661     0.0000   112.0000 </r>
       <r>   -28.2179     0.0000   112.0000 </r>
       <r>   -27.9697     0.0000   112.0000 </r>
       <r>   -27.7216     0.0000   112.0000 </r>
       <r>   -27.4734     0.0000   112.0000 </r>
       <r>   -27.2253     0.0000   112.0000 </r>
       <r>   -26.9771     0.0000   112.0000 </r>
       <r>   -26.7290     0.0000   112.0000 </r>
       <r>   -26.4808     0.3783   112.0939 </r>
       <r>   -26.2326    30.8114   119.7399 </r>
       <r>   -25.9845    69.6960   137.0355 </r>
       <r>   -25.7363    57.7875   151.3758 </r>
       <r>   -25.4882    10.5719   153.9993 </r>
       <r>   -25.2400     0.0028   154.0000 </r>
       <r>   -24.9919     0.0000   154.0000 </r>
       <r>   -24.7437     0.0000   154.0000 </r>
       <r>   -24.4955     0.0000   154.0000 </r>
       <r>   -24.2474     0.0000   154.0000 </r>
       <r>   -23.9992     0.0000   154.0000 </r>
       <r>   -23.7511     0.0000   154.0000 </r>
       <r>   -23.5029     0.0000   154.0000 </r>
       <r>   -23.2548     0.0000   154.0000 </r>
       <r>   -23.0066     0.0000   154.0000 </r>
       <r>   -22.7585     0.0000   154.0000 </r>
       <r>   -22.5103     0.0000   154.0000 </r>
       <r>   -22.2621     0.0000   154.0000 </r>
       <r>   -22.0140     0.0000   154.0000 </r>
       <r>   -21.7658     0.0000   154.0000 </r>
       <r>   -21.5177     0.0000   154.0000 </r>
       <r>   -21.2695     0.0000   154.0000 </r>
       <r>   -21.0214     0.0000   154.0000 </r>
       <r>   -20.7732     0.0000   154.0000 </r>
       <r>   -20.5250     0.0000   154.0000 </r>
       <r>   -20.2769     0.0000   154.0000 </r>
       <r>   -20.0287     0.0057   154.0014 </r>
       <r>   -19.7806     7.7120   155.9152 </r>
       <r>   -19.5324    18.5603   160.5211 </r>
       <r>   -19.2843    54.5619   174.0610 </r>
       <r>   -19.0361    57.6242   188.3608 </r>
       <r>   -18.7879    24.6108   194.4681 </r>
       <r>   -18.5398     6.1633   195.9976 </r>
       <r>   -18.2916     0.0098   196.0000 </r>
       <r>   -18.0435     0.0000   196.0000 </r>
       <r>   -17.7953     0.0000   196.0000 </r>
       <r>   -17.5472     0.0000   196.0000 </r>
       <r>   -17.2990     0.0000   196.0000 </r>
       <r>   -17.0508     0.0000   196.0000 </r>
       <r>   -16.8027     0.0000   196.0000 </r>
       <r>   -16.5545     0.0000   196.0000 </r>
       <r>   -16.3064     0.0000   196.0000 </r>
       <r>   -16.0582     0.0000   196.0000 </r>
       <r>   -15.8101     0.0000   196.0000 </r>
       <r>   -15.5619     0.0000   196.0000 </r>
       <r>   -15.3137     0.0000   196.0000 </r>
       <r>   -15.0656     0.0000   196.0000 </r>
       <r>   -14.8174     0.0000   196.0000 </r>
       <r>   -14.5693     0.0000   196.0000 </r>
       <r>   -14.3211     0.0000   196.0000 </r>
       <r>   -14.0730     0.0000   196.0000 </r>
       <r>   -13.8248     0.0000   196.0000 </r>
       <r>   -13.5767     0.0000   196.0000 </r>
       <r>   -13.3285     0.0000   196.0000 </r>
       <r>   -13.0803     0.0000   196.0000 </r>
       <r>   -12.8322     0.0000   196.0000 </r>
       <r>   -12.5840     0.0000   196.0000 </r>
       <r>   -12.3359     0.0000   196.0000 </r>
       <r>   -12.0877     0.0000   196.0000 </r>
       <r>   -11.8396     0.0000   196.0000 </r>
       <r>   -11.5914     0.0000   196.0000 </r>
       <r>   -11.3432     0.0000   196.0000 </r>
       <r>   -11.0951     0.0000   196.0000 </r>
       <r>   -10.8469     0.0000   196.0000 </r>
       <r>   -10.5988     0.0000   196.0000 </r>
       <r>   -10.3506     0.0000   196.0000 </r>
       <r>   -10.1025     0.0000   196.0000 </r>
       <r>    -9.8543     0.0000   196.0000 </r>
       <r>    -9.6061     0.0000   196.0000 </r>
       <r>    -9.3580     0.0000   196.0000 </r>
       <r>    -9.1098     0.0000   196.0000 </r>
       <r>    -8.8617     0.0000   196.0000 </r>
       <r>    -8.6135     0.0003   196.0001 </r>
       <r>    -8.3654     0.9564   196.2374 </r>
       <r>    -8.1172     6.6848   197.8963 </r>
       <r>    -7.8690     6.4744   199.5030 </r>
       <r>    -7.6209    13.8875   202.9493 </r>
       <r>    -7.3727     9.8666   205.3977 </r>
       <r>    -7.1246    14.0481   208.8839 </r>
       <r>    -6.8764    19.4293   213.7054 </r>
       <r>    -6.6283    26.3351   220.2406 </r>
       <r>    -6.3801     7.0671   221.9943 </r>
       <r>    -6.1320     0.0229   222.0000 </r>
       <r>    -5.8838     0.0000   222.0000 </r>
       <r>    -5.6356     0.0000   222.0000 </r>
       <r>    -5.3875     0.0000   222.0000 </r>
       <r>    -5.1393     0.0002   222.0001 </r>
       <r>    -4.8912     0.7563   222.1877 </r>
       <r>    -4.6430     6.1990   223.7261 </r>
       <r>    -4.3949     4.4082   224.8200 </r>
       <r>    -4.1467    10.3509   227.3886 </r>
       <r>    -3.8985    14.3795   230.9570 </r>
       <r>    -3.6504    23.7143   236.8419 </r>
       <r>    -3.4022    22.1205   242.3312 </r>
       <r>    -3.1541    20.3984   247.3932 </r>
       <r>    -2.9059    19.1952   252.1567 </r>
       <r>    -2.6578    17.2618   256.4403 </r>
       <r>    -2.4096    11.4524   259.2823 </r>
       <r>    -2.1614     2.8591   259.9918 </r>
       <r>    -1.9133     0.0332   260.0000 </r>
       <r>    -1.6651     0.0000   260.0000 </r>
       <r>    -1.4170     0.0000   260.0000 </r>
       <r>    -1.1688     0.0000   260.0000 </r>
       <r>    -0.9207     0.0000   260.0000 </r>
       <r>    -0.6725     0.0000   260.0000 </r>
       <r>    -0.4243     0.0000   260.0000 </r>
       <r>    -0.1762     0.0000   260.0000 </r>
       <r>     0.0720     0.0812   260.0202 </r>
       <r>     0.3201     1.2318   260.3258 </r>
       <r>     0.5683     8.7473   262.4965 </r>
       <r>     0.8164    10.9844   265.2224 </r>
       <r>     1.0646    15.4552   269.0577 </r>
       <r>     1.3128    24.1424   275.0488 </r>
       <r>     1.5609    29.6463   282.4058 </r>
       <r>     1.8091    30.5195   289.9794 </r>
       <r>     2.0572    33.8563   298.3810 </r>
       <r>     2.3054    37.5297   307.6943 </r>
       <r>     2.5535    39.6708   317.5389 </r>
       <r>     2.8017    47.5114   329.3291 </r>
       <r>     3.0498    60.8623   344.4325 </r>
       <r>     3.2980    66.0781   360.8302 </r>
       <r>     3.5462    62.0716   376.2337 </r>
       <r>     3.7943    58.5153   390.7547 </r>
       <r>     4.0425    51.7730   403.6025 </r>
       <r>     4.2906    45.9417   415.0032 </r>
       <r>     4.5388    39.6140   424.8337 </r>
       <r>     4.7869    32.1797   432.8193 </r>
       <r>     5.0351    27.7337   439.7016 </r>
       <r>     5.2833    22.8770   445.3787 </r>
       <r>     5.5314    16.0658   449.3656 </r>
       <r>     5.7796    10.6884   452.0180 </r>
       <r>     6.0277    11.9508   454.9836 </r>
       <r>     6.2759    17.5024   459.3270 </r>
       <r>     6.5240    17.8217   463.7496 </r>
       <r>     6.7722    25.2766   470.0221 </r>
       <r>     7.0204    23.7853   475.9246 </r>
       <r>     7.2685    26.6890   482.5476 </r>
       <r>     7.5167    29.0691   489.7613 </r>
       <r>     7.7648    28.9682   496.9500 </r>
       <r>     8.0130    35.0017   505.6359 </r>
       <r>     8.2611    47.7390   517.4827 </r>
       <r>     8.5093    56.1307   531.4119 </r>
       <r>     8.7575    57.7784   545.7500 </r>
       <r>     9.0056    55.6368   559.5566 </r>
       <r>     9.2538    56.1624   573.4937 </r>
       <r>     9.5019    53.2858   586.7169 </r>
       <r>     9.7501    55.7544   600.5527 </r>
       <r>     9.9982    51.0047   613.2099 </r>
       <r>    10.2464    36.5289   622.2748 </r>
       <r>    10.4945     6.9311   623.9948 </r>
       <r>    10.7427     0.0209   624.0000 </r>
       <r>    10.9909     0.0000   624.0000 </r>
       <r>    11.2390     0.0000   624.0000 </r>
       <r>    11.4872     0.0000   624.0000 </r>
       <r>    11.7353     0.0000   624.0000 </r>
       <r>    11.9835     0.0000   624.0000 </r>
       <r>    12.2316     0.0000   624.0000 </r>
       <r>    12.4798     0.0000   624.0000 </r>
       <r>    12.7280     0.0000   624.0000 </r>
       <r>    12.9761     0.0000   624.0000 </r>
       <r>    13.2243     0.0000   624.0000 </r>
       <r>    13.4724     0.0000   624.0000 </r>
       <r>    13.7206     0.0000   624.0000 </r>
      </set>
     </set>
    </array>
   </total>
  </dos>
 </calculation>
 <structure name="finalpos" >
  <crystal>
   <varray name="basis" >
    <v>       8.66937396       0.00397256      -0.00318700 </v>
    <v>       0.00969429       8.73704555      -0.01903808 </v>
    <v>       0.02796024      -0.03402286       8.66279365 </v>
   </varray>
   <i name="volume">    656.15566600 </i>
   <varray name="rec_basis" >
    <v>       0.11534850      -0.00012880      -0.00037281 </v>
    <v>      -0.00005228       0.11445620       0.00044969 </v>
    <v>       0.00004232       0.00025149       0.11543705 </v>
   </varray>
  </crystal>
  <varray name="positions" >
   <v>       0.99883482       0.00136031       0.99371905 </v>
   <v>       0.26645092       0.00187570       0.24908817 </v>
   <v>       0.23771562       0.49315557       0.24575041 </v>
   <v>       0.49968335       0.49886530      -0.00055626 </v>
   <v>       0.51723782       0.24581568       0.73691182 </v>
   <v>      -0.00463901       0.49940054       0.50133800 </v>
   <v>       0.49241282       0.75868699       0.75625878 </v>
   <v>       0.98810177       0.22573249       0.26210866 </v>
   <v>       0.77104636       0.73580755       0.00821872 </v>
   <v>      -0.00069883       0.25803283       0.74533320 </v>
   <v>       0.76526491       0.22775636       0.48261724 </v>
   <v>       0.00173383       0.73394019       0.75760340 </v>
   <v>       0.24708978       0.48255820       0.74960062 </v>
   <v>       0.25004571       0.24474710       0.98984344 </v>
   <v>       0.51281121       0.25636616       0.25537308 </v>
   <v>       0.73634575       0.99199449       0.25125137 </v>
   <v>       0.75832316       0.25834546       0.00498543 </v>
   <v>       0.24180192       0.74635538       0.99645203 </v>
   <v>       0.24952045       0.24824177       0.50302936 </v>
   <v>       0.24439290       0.75256995       0.50882186 </v>
   <v>       0.24908861       0.24713032       0.24951858 </v>
   <v>       0.25891212       0.00221084       0.98765645 </v>
   <v>       0.00250357       0.25767357       0.00184171 </v>
   <v>       0.75358684       0.24594163       0.25019177 </v>
   <v>       0.74402481       0.99770249       0.00403125 </v>
   <v>       0.51187726       0.00627168       0.24965049 </v>
   <v>       0.98709738       0.49276534       0.24234883 </v>
   <v>       0.49619023       0.76323453       0.01145959 </v>
   <v>       0.98254095       0.01397470       0.74191118 </v>
   <v>       0.76638720       0.25497105       0.75051708 </v>
   <v>       0.74404026       0.01165916       0.49872719 </v>
   <v>       0.50493565       0.24846166       0.48715552 </v>
   <v>       0.53194634       0.00022331       0.74642851 </v>
   <v>       0.99507384       0.00348491       0.25350484 </v>
   <v>       0.50591135       0.23815142       0.00145744 </v>
   <v>       0.25266917       0.74868469       0.25046383 </v>
   <v>       0.23923771       0.49766514       0.98746911 </v>
   <v>      -0.00091647       0.73685567       0.00139649 </v>
   <v>       0.74003105       0.75066442       0.24564603 </v>
   <v>       0.76401587       0.50257264       0.00526758 </v>
   <v>       0.49508606       0.50012999       0.25258645 </v>
   <v>       0.24472821       0.24845939       0.74684844 </v>
   <v>       0.25905379       0.00202928       0.51752861 </v>
   <v>      -0.00022923       0.24636559       0.50099121 </v>
   <v>       0.23370279       0.75538511       0.75326202 </v>
   <v>       0.25327791       0.49966574       0.50809827 </v>
   <v>      -0.00077898       0.75727194       0.51078903 </v>
   <v>       0.00535448       0.50117041       0.75609993 </v>
   <v>       0.75778147       0.75473243       0.75864789 </v>
   <v>       0.74243896       0.49642821       0.50483143 </v>
   <v>       0.49501349       0.76278194       0.48611875 </v>
   <v>       0.49606817       0.50219461       0.74265837 </v>
   <v>       0.52271505       0.01187006       0.97626094 </v>
   <v>       0.99749429       0.50049053       0.97892149 </v>
   <v>       0.48225075       0.72856200       0.24919190 </v>
   <v>       0.21169501       0.02131479       0.73993063 </v>
   <v>       0.49007451       0.98228648       0.51453751 </v>
   <v>       0.74898244       0.96518106       0.78369627 </v>
   <v>       0.00531955       0.76849742       0.25550482 </v>
   <v>       0.73718240       0.51382480       0.25886585 </v>
   <v>       0.01067588       0.00319621       0.50095032 </v>
   <v>       0.50241245       0.52285882       0.49323726 </v>
   <v>       0.75280439       0.51696762       0.75275259 </v>
   <v>       0.75426753       0.75642808       0.49329831 </v>
  </varray>
 </structure>
</modeling>
