 running on   24 total cores
 distrk:  each k-point on   24 cores,    1 groups
 distr:  one band on    1 cores,   24 groups
 using from now: INCAR     
 vasp.5.4.4.18Apr17-6-g9f103f2a35 (build Oct 18 2021 20:38:43) complex          
  
 POSCAR found type information on POSCAR  Nb Ta Zr N  C  Cr W 
 POSCAR found :  7 types and      64 ions
 scaLAPACK will be used

 ----------------------------------------------------------------------------- 
|                                                                             |
|           W    W    AA    RRRRR   N    N  II  N    N   GGGG   !!!           |
|           W    W   A  A   R    R  NN   N  II  NN   N  G    G  !!!           |
|           W    W  A    A  R    R  N N  N  II  N N  N  G       !!!           |
|           W WW W  AAAAAA  RRRRR   N  N N  II  N  N N  G  GGG   !            |
|           WW  WW  A    A  R   R   N   NN  II  N   NN  G    G                |
|           W    W  A    A  R    R  N    N  II  N    N   GGGG   !!!           |
|                                                                             |
|      For optimal performance we recommend to set                            |
|        NCORE= 4 - approx SQRT( number of cores)                             |
|      NCORE specifies how many cores store one orbital (NPAR=cpu/NCORE).     |
|      This setting can  greatly improve the performance of VASP for DFT.     |
|      The default,   NCORE=1            might be grossly inefficient         |
|      on modern multi-core architectures or massively parallel machines.     |
|      Do your own testing !!!!                                               |
|      Unfortunately you need to use the default for GW and RPA calculations. |
|      (for HF NCORE is supported but not extensively tested yet)             |
|                                                                             |
 ----------------------------------------------------------------------------- 


 ----------------------------------------------------------------------------- 
|                                                                             |
|  ADVICE TO THIS USER RUNNING 'VASP/VAMP'   (HEAR YOUR MASTER'S VOICE ...):  |
|                                                                             |
|      You have a (more or less) 'large supercell' and for larger cells       |
|      it might be more efficient to use real space projection operators      |
|      So try LREAL= Auto  in the INCAR   file.                               |
|      Mind: If you want to do a very accurate calculations keep the          |
|      reciprocal projection scheme          (i.e. LREAL=.FALSE.)             |
|                                                                             |
 ----------------------------------------------------------------------------- 

 LDA part: xc-table for Pade appr. of Perdew
 POSCAR, INCAR and KPOINTS ok, starting setup
 FFT: planning ...
 WAVECAR not read
 entering main loop
       N       E                     dE             d eps       ncg     rms          rms(c)
DAV:   1     0.656849731364E+04    0.65685E+04   -0.21751E+05  9504   0.147E+03
DAV:   2     0.264689971777E+03   -0.63038E+04   -0.60261E+04  9696   0.612E+02
DAV:   3    -0.681587621399E+03   -0.94628E+03   -0.88008E+03 14808   0.206E+02
DAV:   4    -0.775671927811E+03   -0.94084E+02   -0.90964E+02 16656   0.805E+01
DAV:   5    -0.787962253501E+03   -0.12290E+02   -0.12083E+02 18504   0.239E+01    0.741E+01
RMM:   6    -0.978436861987E+03   -0.19047E+03   -0.20918E+03 12362   0.121E+02    0.130E+02
RMM:   7    -0.655869058044E+03    0.32257E+03   -0.22178E+02 14611   0.340E+01    0.363E+01
RMM:   8    -0.658984497721E+03   -0.31154E+01   -0.47493E+01 15192   0.130E+01    0.347E+01
RMM:   9    -0.655072750690E+03    0.39117E+01   -0.13186E+01 14685   0.100E+01    0.297E+01
RMM:  10    -0.651575659024E+03    0.34971E+01   -0.11679E+01 15524   0.544E+00    0.107E+01
RMM:  11    -0.653918137011E+03   -0.23425E+01   -0.39913E+00 12079   0.658E+00    0.251E+01
RMM:  12    -0.651741242508E+03    0.21769E+01   -0.30286E+00 14490   0.428E+00    0.136E+01
RMM:  13    -0.651351121005E+03    0.39012E+00   -0.24194E+00 15179   0.269E+00    0.110E+01
RMM:  14    -0.651125546886E+03    0.22557E+00   -0.89458E-01 13508   0.285E+00    0.748E+00
RMM:  15    -0.651318060162E+03   -0.19251E+00   -0.79409E-01 14688   0.173E+00    0.106E+01
RMM:  16    -0.650914530611E+03    0.40353E+00   -0.42188E-01 14536   0.168E+00    0.308E+00
RMM:  17    -0.651055907093E+03   -0.14138E+00   -0.63863E-01 15206   0.123E+00    0.653E+00
RMM:  18    -0.650926435958E+03    0.12947E+00   -0.26146E-01 14660   0.141E+00    0.143E+00
RMM:  19    -0.650930957992E+03   -0.45220E-02   -0.21027E-01 14671   0.587E-01    0.107E+00
RMM:  20    -0.650911178054E+03    0.19780E-01   -0.81251E-02 14849   0.672E-01    0.852E-01
RMM:  21    -0.650910631876E+03    0.54618E-03   -0.75132E-02 14934   0.437E-01    0.175E-01
RMM:  22    -0.650912189984E+03   -0.15581E-02   -0.23785E-02 13457   0.420E-01    0.131E-01
RMM:  23    -0.650913546188E+03   -0.13562E-02   -0.18158E-02 14810   0.172E-01    0.749E-02
RMM:  24    -0.650913904481E+03   -0.35829E-03   -0.74092E-03 14337   0.158E-01    0.416E-02
RMM:  25    -0.650914397136E+03   -0.49266E-03   -0.58356E-03 13413   0.914E-02    0.300E-02
RMM:  26    -0.650914609547E+03   -0.21241E-03   -0.29167E-03 13099   0.748E-02    0.183E-02
RMM:  27    -0.650914765473E+03   -0.15593E-03   -0.18165E-03 12742   0.590E-02    0.132E-02
RMM:  28    -0.650914862433E+03   -0.96960E-04   -0.11606E-03 12272   0.472E-02    0.109E-02
RMM:  29    -0.650914925771E+03   -0.63338E-04   -0.73776E-04 12022   0.379E-02    0.533E-03
RMM:  30    -0.650914967085E+03   -0.41314E-04   -0.47816E-04 11688   0.317E-02    0.515E-03
RMM:  31    -0.650914995180E+03   -0.28095E-04   -0.31811E-04 11476   0.260E-02    0.259E-03
RMM:  32    -0.650915013092E+03   -0.17912E-04   -0.20450E-04 10984   0.222E-02    0.239E-03
WARNING in EDDRMM: call to ZHEGV failed, returncode =   6  3     10
RMM:  33    -0.650915024541E+03   -0.11449E-04   -0.13783E-04 10303   0.186E-02    0.296E-03
RMM:  34    -0.650915032870E+03   -0.83290E-05   -0.89895E-05  9660   0.163E-02
   1 F= -.65091503E+03 E0= -.65080688E+03  d E =-.650915E+03
 curvature:   0.00 expect dE= 0.000E+00 dE for cont linesearch  0.000E+00
 trial: gam= 0.00000 g(F)=  0.366E+01 g(S)=  0.259E+01 ort = 0.000E+00 (trialstep = 0.100E+01)
 search vector abs. value=  0.625E+01
 bond charge predicted
       N       E                     dE             d eps       ncg     rms          rms(c)
DAV:   1    -0.664718447387E+03   -0.13803E+02   -0.11453E+03 12768   0.148E+02    0.389E+01
RMM:   2    -0.790923630047E+03   -0.12621E+03   -0.50570E+02 11421   0.845E+01    0.945E+01
RMM:   3    -0.656387967295E+03    0.13454E+03   -0.58715E+01 12803   0.257E+01    0.184E+01
RMM:   4    -0.661155881352E+03   -0.47679E+01   -0.12143E+01 13697   0.121E+01    0.355E+01
RMM:   5    -0.654726771891E+03    0.64291E+01   -0.72876E+00 12184   0.876E+00    0.199E+01
RMM:   6    -0.654378393144E+03    0.34838E+00   -0.44275E+00 12600   0.624E+00    0.195E+01
RMM:   7    -0.652695920416E+03    0.16825E+01   -0.38354E+00 13718   0.457E+00    0.732E+00
RMM:   8    -0.653289275173E+03   -0.59335E+00   -0.10226E+00 12948   0.319E+00    0.142E+01
RMM:   9    -0.652387328721E+03    0.90195E+00   -0.44285E-01 13196   0.218E+00    0.235E+00
RMM:  10    -0.652451687355E+03   -0.64359E-01   -0.30709E-01 16155   0.102E+00    0.399E+00
RMM:  11    -0.652401869004E+03    0.49818E-01   -0.12166E-01 15759   0.841E-01    0.134E+00
RMM:  12    -0.652422505119E+03   -0.20636E-01   -0.96864E-02 15572   0.588E-01    0.933E-01
RMM:  13    -0.652456789250E+03   -0.34284E-01   -0.61780E-02 15602   0.580E-01    0.259E+00
RMM:  14    -0.652437031772E+03    0.19757E-01   -0.49116E-02 15457   0.519E-01    0.474E-01
RMM:  15    -0.652440960098E+03   -0.39283E-02   -0.40686E-02 15816   0.354E-01    0.223E-01
RMM:  16    -0.652442625591E+03   -0.16655E-02   -0.19810E-02 15834   0.322E-01    0.151E-01
RMM:  17    -0.652444137406E+03   -0.15118E-02   -0.17051E-02 16196   0.196E-01    0.624E-02
RMM:  18    -0.652444634951E+03   -0.49755E-03   -0.74623E-03 15473   0.172E-01    0.471E-02
WARNING in EDDRMM: call to ZHEGV failed, returncode =   8  4     12
RMM:  19    -0.652445101373E+03   -0.46642E-03   -0.54657E-03 14706   0.115E-01    0.214E-02
RMM:  20    -0.652445301410E+03   -0.20004E-03   -0.26796E-03 13990   0.982E-02    0.172E-02
RMM:  21    -0.652445469141E+03   -0.16773E-03   -0.19596E-03 13379   0.691E-02    0.163E-02
RMM:  22    -0.652445554123E+03   -0.84982E-04   -0.10366E-03 13092   0.587E-02    0.772E-03
RMM:  23    -0.652445613664E+03   -0.59542E-04   -0.71828E-04 12702   0.444E-02    0.168E-02
RMM:  24    -0.652445649542E+03   -0.35878E-04   -0.39610E-04 12520   0.378E-02    0.619E-03
RMM:  25    -0.652445671166E+03   -0.21624E-04   -0.29160E-04 12156   0.292E-02    0.217E-02
WARNING in EDDRMM: call to ZHEGV failed, returncode =   6  3     11
RMM:  26    -0.652445684782E+03   -0.13616E-04   -0.16622E-04 11558   0.242E-02    0.207E-02
RMM:  27    -0.652445693665E+03   -0.88827E-05   -0.11023E-04 10814   0.193E-02    0.278E-02
RMM:  28    -0.652445699529E+03   -0.58644E-05   -0.68110E-05  9829   0.169E-02
   2 F= -.65244570E+03 E0= -.65236125E+03  d E =-.153067E+01
 trial-energy change:   -1.530667  1 .order   -1.306794   -6.249001    3.635413
 step:   0.6626(harm=  0.6322)  dis= 0.05346  next Energy=  -653.050415 (dE=-0.214E+01)
 bond charge predicted
       N       E                     dE             d eps       ncg     rms          rms(c)
DAV:   1    -0.654815103271E+03   -0.23694E+01   -0.13637E+02 13104   0.497E+01    0.176E+01
RMM:   2    -0.695152069169E+03   -0.40337E+02   -0.32693E+01 13855   0.169E+01    0.531E+01
RMM:   3    -0.654354404618E+03    0.40798E+02   -0.12631E+01 12051   0.140E+01    0.138E+01
RMM:   4    -0.654117826790E+03    0.23658E+00   -0.29785E+00 14316   0.480E+00    0.124E+01
RMM:   5    -0.653662603573E+03    0.45522E+00   -0.12482E+00 12178   0.349E+00    0.110E+01
RMM:   6    -0.653262353761E+03    0.40025E+00   -0.46866E-01 12704   0.203E+00    0.627E+00
RMM:   7    -0.653111458673E+03    0.15090E+00   -0.43000E-01 12978   0.180E+00    0.403E+00
RMM:   8    -0.653108647183E+03    0.28115E-02   -0.14215E-01 12966   0.122E+00    0.388E+00
RMM:   9    -0.653050937611E+03    0.57710E-01   -0.87828E-02 14828   0.706E-01    0.121E+00
RMM:  10    -0.653056835792E+03   -0.58982E-02   -0.37982E-02 15306   0.500E-01    0.168E+00
RMM:  11    -0.653046646131E+03    0.10190E-01   -0.20958E-02 14631   0.363E-01    0.415E-01
RMM:  12    -0.653050550200E+03   -0.39041E-02   -0.15175E-02 15755   0.225E-01    0.886E-01
RMM:  13    -0.653049196710E+03    0.13535E-02   -0.73445E-03 15676   0.198E-01    0.259E-01
RMM:  14    -0.653050864169E+03   -0.16675E-02   -0.80059E-03 15815   0.131E-01    0.158E-01
RMM:  15    -0.653051613651E+03   -0.74948E-03   -0.51454E-03 15359   0.151E-01    0.698E-02
RMM:  16    -0.653051949894E+03   -0.33624E-03   -0.39352E-03 14476   0.107E-01    0.561E-02
RMM:  17    -0.653052111824E+03   -0.16193E-03   -0.21569E-03 13827   0.884E-02    0.414E-02
WARNING in EDDRMM: call to ZHEGV failed, returncode =   6  3     11
RMM:  18    -0.653052247790E+03   -0.13597E-03   -0.16528E-03 13184   0.606E-02    0.376E-02
RMM:  19    -0.653052294564E+03   -0.46774E-04   -0.74884E-04 12876   0.509E-02    0.295E-02
RMM:  20    -0.653052324546E+03   -0.29982E-04   -0.50216E-04 12627   0.394E-02    0.301E-02
RMM:  21    -0.653052346624E+03   -0.22078E-04   -0.27579E-04 11942   0.354E-02    0.630E-03
WARNING in EDDRMM: call to ZHEGV failed, returncode =   8  4      9
RMM:  22    -0.653052364555E+03   -0.17932E-04   -0.20689E-04 11262   0.236E-02    0.634E-03
RMM:  23    -0.653052373079E+03   -0.85232E-05   -0.11656E-04 10807   0.209E-02    0.524E-03
WARNING in EDDRMM: call to ZHEGV failed, returncode =   8  4     11
RMM:  24    -0.653052378529E+03   -0.54503E-05   -0.78821E-05  9958   0.179E-02
   3 F= -.65305238E+03 E0= -.65295924E+03  d E =-.213735E+01
 curvature:  -0.31 expect dE=-0.105E+01 dE for cont linesearch -0.615E-03
 trial: gam= 0.51989 g(F)=  0.164E+01 g(S)=  0.172E+01 ort = 0.111E+00 (trialstep = 0.933E+00)
 search vector abs. value=  0.516E+01
 bond charge predicted
       N       E                     dE             d eps       ncg     rms          rms(c)
DAV:   1    -0.645582354241E+03    0.74700E+01   -0.76544E+02 12528   0.116E+02    0.192E+01
RMM:   2    -0.701905047259E+03   -0.56323E+02   -0.13462E+02 14803   0.316E+01    0.536E+01
RMM:   3    -0.657244606234E+03    0.44660E+02   -0.23796E+01 11288   0.193E+01    0.201E+01
RMM:   4    -0.655160901037E+03    0.20837E+01   -0.76665E+00 15162   0.603E+00    0.979E+00
RMM:   5    -0.655962647319E+03   -0.80175E+00   -0.19180E+00 12898   0.419E+00    0.173E+01
RMM:   6    -0.654410407750E+03    0.15522E+01   -0.93814E-01 13526   0.290E+00    0.422E+00
RMM:   7    -0.654658310215E+03   -0.24790E+00   -0.60646E-01 14669   0.177E+00    0.959E+00
RMM:   8    -0.654349742002E+03    0.30857E+00   -0.25819E-01 14063   0.157E+00    0.469E+00
RMM:   9    -0.654331212549E+03    0.18529E-01   -0.26240E-01 14754   0.126E+00    0.450E+00
RMM:  10    -0.654251513768E+03    0.79699E-01   -0.11406E-01 14772   0.922E-01    0.175E+00
RMM:  11    -0.654247195048E+03    0.43187E-02   -0.71569E-02 15646   0.424E-01    0.113E+00
RMM:  12    -0.654246020790E+03    0.11743E-02   -0.24125E-02 15803   0.363E-01    0.841E-01
RMM:  13    -0.654245355518E+03    0.66527E-03   -0.19730E-02 15418   0.229E-01    0.346E-01
RMM:  14    -0.654246160718E+03   -0.80520E-03   -0.90103E-03 15543   0.198E-01    0.204E-01
RMM:  15    -0.654247132282E+03   -0.97156E-03   -0.84521E-03 15388   0.150E-01    0.141E-01
RMM:  16    -0.654247362883E+03   -0.23060E-03   -0.43820E-03 14969   0.131E-01    0.432E-02
WARNING in EDDRMM: call to ZHEGV failed, returncode =   6  3      9
RMM:  17    -0.654247634808E+03   -0.27192E-03   -0.32110E-03 14034   0.848E-02    0.597E-02
RMM:  18    -0.654247744223E+03   -0.10942E-03   -0.16642E-03 13420   0.764E-02    0.196E-02
RMM:  19    -0.654247844578E+03   -0.10036E-03   -0.12511E-03 12897   0.509E-02    0.161E-02
RMM:  20    -0.654247884591E+03   -0.40013E-04   -0.60689E-04 12502   0.444E-02    0.798E-03
RMM:  21    -0.654247919773E+03   -0.35182E-04   -0.42385E-04 12008   0.331E-02    0.961E-03
RMM:  22    -0.654247938942E+03   -0.19169E-04   -0.24745E-04 11821   0.292E-02    0.521E-03
RMM:  23    -0.654247953591E+03   -0.14649E-04   -0.17152E-04 11300   0.228E-02    0.520E-03
RMM:  24    -0.654247961930E+03   -0.83388E-05   -0.10919E-04 10573   0.196E-02    0.205E-03
WARNING in EDDRMM: call to ZHEGV failed, returncode =   8  4     11
WARNING in EDDRMM: call to ZHEGV failed, returncode =   8  4     10
RMM:  25    -0.654247966783E+03   -0.48529E-05   -0.69496E-05  9659   0.171E-02
   4 F= -.65424797E+03 E0= -.65416796E+03  d E =-.119559E+01
 trial-energy change:   -1.195588  1 .order   -1.270329   -3.186384    0.645726
 step:   0.7588(harm=  0.7754)  dis= 0.07773  next Energy=  -654.308579 (dE=-0.126E+01)
 bond charge predicted
       N       E                     dE             d eps       ncg     rms          rms(c)
DAV:   1    -0.653987411061E+03    0.26055E+00   -0.25794E+01 12288   0.218E+01    0.331E+00
RMM:   2    -0.656593901215E+03   -0.26065E+01   -0.58360E+00 13273   0.716E+00    0.189E+01
RMM:   3    -0.654415416096E+03    0.21785E+01   -0.99027E-01 11637   0.359E+00    0.494E+00
RMM:   4    -0.654345404024E+03    0.70012E-01   -0.28921E-01 14356   0.138E+00    0.232E+00
RMM:   5    -0.654340179072E+03    0.52250E-02   -0.57485E-02 14091   0.649E-01    0.258E+00
RMM:   6    -0.654314250166E+03    0.25929E-01   -0.19507E-02 13428   0.416E-01    0.883E-01
RMM:   7    -0.654325236936E+03   -0.10987E-01   -0.20626E-02 14046   0.346E-01    0.194E+00
RMM:   8    -0.654308909126E+03    0.16328E-01   -0.11145E-02 13527   0.334E-01    0.456E-01
RMM:   9    -0.654309313579E+03   -0.40445E-03   -0.84690E-03 15320   0.172E-01    0.542E-01
RMM:  10    -0.654308219381E+03    0.10942E-02   -0.23494E-03 12338   0.160E-01    0.198E-01
RMM:  11    -0.654308209326E+03    0.10055E-04   -0.19452E-03 14209   0.684E-02    0.950E-02
RMM:  12    -0.654308363980E+03   -0.15465E-03   -0.56574E-04 12448   0.710E-02    0.186E-01
WARNING in EDDRMM: call to ZHEGV failed, returncode =   8  4      7
RMM:  13    -0.654308304088E+03    0.59892E-04   -0.56872E-04 13316   0.394E-02    0.434E-02
RMM:  14    -0.654308355405E+03   -0.51317E-04   -0.28500E-04 12842   0.357E-02    0.294E-02
RMM:  15    -0.654308394863E+03   -0.39458E-04   -0.20880E-04 12604   0.298E-02    0.109E-02
WARNING in EDDRMM: call to ZHEGV failed, returncode =   8  4      6
RMM:  16    -0.654308406009E+03   -0.11146E-04   -0.11906E-04 11378   0.251E-02    0.638E-03
RMM:  17    -0.654308412738E+03   -0.67286E-05   -0.79309E-05 10209   0.171E-02
   5 F= -.65430841E+03 E0= -.65422708E+03  d E =-.125603E+01
 curvature:  -0.58 expect dE=-0.431E+00 dE for cont linesearch -0.324E-06
 trial: gam= 0.17937 g(F)=  0.725E+00 g(S)=  0.185E-01 ort =-0.170E-02 (trialstep = 0.898E+00)
 search vector abs. value=  0.909E+00
 bond charge predicted
       N       E                     dE             d eps       ncg     rms          rms(c)
DAV:   1    -0.651310804025E+03    0.29976E+01   -0.14027E+02 10464   0.646E+01    0.309E+00
RMM:   2    -0.655184513295E+03   -0.38737E+01   -0.36550E+01 14770   0.135E+01    0.976E+00
RMM:   3    -0.654870536036E+03    0.31398E+00   -0.18359E+00 10714   0.615E+00    0.478E+00
RMM:   4    -0.654959221282E+03   -0.88685E-01   -0.68416E-01 14324   0.196E+00    0.555E+00
RMM:   5    -0.654809740336E+03    0.14948E+00   -0.12108E-01 14059   0.987E-01    0.158E+00
RMM:   6    -0.654807735926E+03    0.20044E-02   -0.80911E-02 15137   0.467E-01    0.150E+00
RMM:   7    -0.654799613360E+03    0.81226E-02   -0.63467E-02 14355   0.556E-01    0.185E+00
RMM:   8    -0.654786759484E+03    0.12854E-01   -0.25827E-02 13235   0.457E-01    0.100E+00
RMM:   9    -0.654785096390E+03    0.16631E-02   -0.26820E-02 14861   0.341E-01    0.907E-01
RMM:  10    -0.654782808758E+03    0.22876E-02   -0.70014E-03 13438   0.243E-01    0.499E-01
RMM:  11    -0.654781846706E+03    0.96205E-03   -0.48916E-03 15116   0.125E-01    0.309E-01
RMM:  12    -0.654781883603E+03   -0.36897E-04   -0.20921E-03 14093   0.108E-01    0.297E-01
RMM:  13    -0.654781581820E+03    0.30178E-03   -0.15815E-03 14588   0.733E-02    0.485E-02
RMM:  14    -0.654781628233E+03   -0.46413E-04   -0.78210E-04 13262   0.565E-02    0.300E-02
RMM:  15    -0.654781655168E+03   -0.26935E-04   -0.41631E-04 12586   0.385E-02    0.135E-02
RMM:  16    -0.654781679871E+03   -0.24703E-04   -0.31866E-04 11591   0.292E-02    0.841E-03
WARNING in EDDRMM: call to ZHEGV failed, returncode =   8  4      8
RMM:  17    -0.654781691387E+03   -0.11516E-04   -0.16978E-04 10423   0.232E-02    0.499E-03
RMM:  18    -0.654781699988E+03   -0.86011E-05   -0.11422E-04  9927   0.196E-02    0.303E-03
RMM:  19    -0.654781705049E+03   -0.50608E-05   -0.68186E-05  8962   0.177E-02
   6 F= -.65478171E+03 E0= -.65470647E+03  d E =-.473292E+00
 trial-energy change:   -0.473292  1 .order   -0.466190   -0.667649   -0.264731
 step:   1.4039(harm=  1.4877)  dis= 0.06732  next Energy=  -654.857604 (dE=-0.549E+00)
 bond charge predicted
       N       E                     dE             d eps       ncg     rms          rms(c)
DAV:   1    -0.653717661255E+03    0.10640E+01   -0.44139E+01 10416   0.366E+01    0.175E+00
RMM:   2    -0.654908036318E+03   -0.11904E+01   -0.11771E+01 14780   0.757E+00    0.363E+00
RMM:   3    -0.654899449244E+03    0.85871E-02   -0.60604E-01 10674   0.351E+00    0.301E+00
RMM:   4    -0.654916546101E+03   -0.17097E-01   -0.22365E-01 14198   0.113E+00    0.310E+00
RMM:   5    -0.654867728999E+03    0.48817E-01   -0.41240E-02 14133   0.566E-01    0.952E-01
RMM:   6    -0.654868271604E+03   -0.54260E-03   -0.26242E-02 15015   0.262E-01    0.959E-01
RMM:   7    -0.654863066075E+03    0.52055E-02   -0.22190E-02 14411   0.311E-01    0.840E-01
RMM:   8    -0.654861529295E+03    0.15368E-02   -0.75398E-03 12778   0.261E-01    0.675E-01
RMM:   9    -0.654860225745E+03    0.13035E-02   -0.76583E-03 14749   0.187E-01    0.450E-01
RMM:  10    -0.654859737658E+03    0.48809E-03   -0.21946E-03 13192   0.130E-01    0.281E-01
RMM:  11    -0.654859334330E+03    0.40333E-03   -0.15246E-03 14494   0.713E-02    0.113E-01
RMM:  12    -0.654859527002E+03   -0.19267E-03   -0.69579E-04 13013   0.668E-02    0.219E-01
RMM:  13    -0.654859332119E+03    0.19488E-03   -0.49412E-04 13360   0.464E-02    0.281E-02
WARNING in EDDRMM: call to ZHEGV failed, returncode =   8  4     12
RMM:  14    -0.654859350538E+03   -0.18418E-04   -0.29380E-04 11652   0.307E-02    0.170E-02
RMM:  15    -0.654859355538E+03   -0.50004E-05   -0.12275E-04 10575   0.254E-02    0.787E-03
RMM:  16    -0.654859362327E+03   -0.67894E-05   -0.91088E-05  9349   0.192E-02
   7 F= -.65485936E+03 E0= -.65478674E+03  d E =-.550950E+00
 curvature:  -0.89 expect dE=-0.295E+00 dE for cont linesearch -0.155E-04
 trial: gam= 0.39158 g(F)=  0.317E+00 g(S)=  0.133E-01 ort = 0.397E-02 (trialstep = 0.999E+00)
 search vector abs. value=  0.473E+00
 bond charge predicted
       N       E                     dE             d eps       ncg     rms          rms(c)
DAV:   1    -0.652966262081E+03    0.18931E+01   -0.90327E+01 10680   0.524E+01    0.260E+00
RMM:   2    -0.655566084261E+03   -0.25998E+01   -0.22661E+01 14766   0.109E+01    0.872E+00
RMM:   3    -0.655107653526E+03    0.45843E+00   -0.13737E+00 10438   0.536E+00    0.292E+00
RMM:   4    -0.655202789279E+03   -0.95136E-01   -0.60166E-01 14717   0.161E+00    0.410E+00
RMM:   5    -0.655103775370E+03    0.99014E-01   -0.81202E-02 13271   0.853E-01    0.987E-01
RMM:   6    -0.655110824838E+03   -0.70495E-02   -0.53662E-02 15153   0.389E-01    0.162E+00
RMM:   7    -0.655097855356E+03    0.12969E-01   -0.36306E-02 14159   0.464E-01    0.111E+00
RMM:   8    -0.655097773550E+03    0.81806E-04   -0.16517E-02 14152   0.337E-01    0.112E+00
RMM:   9    -0.655093751632E+03    0.40219E-02   -0.14020E-02 14983   0.277E-01    0.571E-01
RMM:  10    -0.655092799677E+03    0.95196E-03   -0.49033E-03 14552   0.161E-01    0.304E-01
RMM:  11    -0.655092292492E+03    0.50719E-03   -0.29670E-03 14691   0.100E-01    0.134E-01
RMM:  12    -0.655092610801E+03   -0.31831E-03   -0.11804E-03 14084   0.785E-02    0.270E-01
RMM:  13    -0.655092365116E+03    0.24569E-03   -0.96196E-04 14316   0.658E-02    0.451E-02
RMM:  14    -0.655092414197E+03   -0.49081E-04   -0.56876E-04 13358   0.409E-02    0.244E-02
RMM:  15    -0.655092433456E+03   -0.19259E-04   -0.22450E-04 12350   0.365E-02    0.123E-02
RMM:  16    -0.655092455229E+03   -0.21773E-04   -0.21981E-04 10850   0.231E-02    0.829E-03
RMM:  17    -0.655092465338E+03   -0.10109E-04   -0.12083E-04 10249   0.215E-02    0.412E-03
RMM:  18    -0.655092471909E+03   -0.65708E-05   -0.79446E-05  9235   0.172E-02
   8 F= -.65509247E+03 E0= -.65502467E+03  d E =-.233110E+00
 trial-energy change:   -0.233110  1 .order   -0.229742   -0.331675   -0.127810
 step:   1.5422(harm=  1.6253)  dis= 0.05868  next Energy=  -655.127761 (dE=-0.268E+00)
 bond charge predicted
       N       E                     dE             d eps       ncg     rms          rms(c)
DAV:   1    -0.654488110438E+03    0.60435E+00   -0.26608E+01 10416   0.285E+01    0.135E+00
RMM:   2    -0.655191616418E+03   -0.70351E+00   -0.65923E+00 14768   0.585E+00    0.342E+00
RMM:   3    -0.655137437560E+03    0.54179E-01   -0.39874E-01 10546   0.293E+00    0.181E+00
RMM:   4    -0.655165236894E+03   -0.27799E-01   -0.16479E-01 14523   0.890E-01    0.252E+00
RMM:   5    -0.655133154142E+03    0.32083E-01   -0.23997E-02 13329   0.467E-01    0.682E-01
RMM:   6    -0.655133146137E+03    0.80044E-05   -0.15195E-02 14890   0.200E-01    0.674E-01
RMM:   7    -0.655129885442E+03    0.32607E-02   -0.11433E-02 14193   0.253E-01    0.468E-01
RMM:   8    -0.655130651536E+03   -0.76609E-03   -0.49914E-03 13691   0.195E-01    0.633E-01
RMM:   9    -0.655128955843E+03    0.16957E-02   -0.37946E-03 14662   0.149E-01    0.204E-01
RMM:  10    -0.655129050327E+03   -0.94484E-04   -0.14354E-03 13693   0.843E-02    0.221E-01
RMM:  11    -0.655128789624E+03    0.26070E-03   -0.77344E-04 13538   0.573E-02    0.585E-02
RMM:  12    -0.655128913765E+03   -0.12414E-03   -0.42888E-04 12894   0.436E-02    0.156E-01
RMM:  13    -0.655128823446E+03    0.90319E-04   -0.29427E-04 12899   0.396E-02    0.238E-02
RMM:  14    -0.655128841234E+03   -0.17788E-04   -0.18425E-04 11046   0.256E-02    0.129E-02
RMM:  15    -0.655128847748E+03   -0.65135E-05   -0.70305E-05  9546   0.232E-02
   9 F= -.65512885E+03 E0= -.65506350E+03  d E =-.269485E+00
 curvature:  -1.14 expect dE=-0.312E+00 dE for cont linesearch -0.154E-04
 trial: gam= 0.71940 g(F)=  0.191E+00 g(S)=  0.826E-01 ort = 0.253E-02 (trialstep = 0.100E+01)
 search vector abs. value=  0.522E+00
 bond charge predicted
       N       E                     dE             d eps       ncg     rms          rms(c)
DAV:   1    -0.653958152197E+03    0.11707E+01   -0.10447E+02 12912   0.503E+01    0.709E+00
RMM:   2    -0.661599093195E+03   -0.76409E+01   -0.22054E+01 13807   0.126E+01    0.272E+01
RMM:   3    -0.655375165264E+03    0.62239E+01   -0.35170E+00 11699   0.695E+00    0.465E+00
RMM:   4    -0.655605674014E+03   -0.23051E+00   -0.11627E+00 14662   0.246E+00    0.809E+00
RMM:   5    -0.655266149500E+03    0.33952E+00   -0.26423E-01 12475   0.166E+00    0.217E+00
RMM:   6    -0.655319382789E+03   -0.53233E-01   -0.15007E-01 13906   0.894E-01    0.413E+00
RMM:   7    -0.655237404090E+03    0.81979E-01   -0.84896E-02 13541   0.751E-01    0.979E-01
RMM:   8    -0.655262150740E+03   -0.24747E-01   -0.48078E-02 13427   0.587E-01    0.239E+00
RMM:   9    -0.655232271160E+03    0.29880E-01   -0.21691E-02 13915   0.423E-01    0.331E-01
RMM:  10    -0.655236694929E+03   -0.44238E-02   -0.17521E-02 15533   0.238E-01    0.873E-01
RMM:  11    -0.655233392695E+03    0.33022E-02   -0.65415E-03 15308   0.188E-01    0.166E-01
RMM:  12    -0.655234175406E+03   -0.78271E-03   -0.43767E-03 15331   0.108E-01    0.313E-01
RMM:  13    -0.655233921798E+03    0.25361E-03   -0.16486E-03 14776   0.982E-02    0.118E-01
RMM:  14    -0.655234156277E+03   -0.23448E-03   -0.18041E-03 14371   0.640E-02    0.676E-02
RMM:  15    -0.655234250103E+03   -0.93826E-04   -0.97414E-04 13890   0.671E-02    0.272E-02
RMM:  16    -0.655234307124E+03   -0.57022E-04   -0.72455E-04 13292   0.491E-02    0.145E-02
RMM:  17    -0.655234339747E+03   -0.32623E-04   -0.42802E-04 12719   0.384E-02    0.158E-02
RMM:  18    -0.655234357369E+03   -0.17622E-04   -0.24550E-04 11929   0.290E-02    0.114E-02
RMM:  19    -0.655234366848E+03   -0.94789E-05   -0.15468E-04 11406   0.246E-02    0.463E-03
RMM:  20    -0.655234373447E+03   -0.65989E-05   -0.98863E-05 10888   0.206E-02
  10 F= -.65523437E+03 E0= -.65517162E+03  d E =-.105526E+00
 trial-energy change:   -0.105526  1 .order   -0.105122   -0.276610    0.066366
 step:   0.8088(harm=  0.8088)  dis= 0.03329  next Energy=  -655.240391 (dE=-0.112E+00)
 bond charge predicted
       N       E                     dE             d eps       ncg     rms          rms(c)
DAV:   1    -0.655190313854E+03    0.44053E-01   -0.38425E+00 12912   0.983E+00    0.135E+00
RMM:   2    -0.655503882156E+03   -0.31357E+00   -0.93543E-01 13144   0.273E+00    0.622E+00
RMM:   3    -0.655259081938E+03    0.24480E+00   -0.14989E-01 11832   0.141E+00    0.192E+00
RMM:   4    -0.655248598920E+03    0.10483E-01   -0.45794E-02 14502   0.518E-01    0.102E+00
RMM:   5    -0.655245679665E+03    0.29193E-02   -0.11170E-02 13186   0.303E-01    0.946E-01
RMM:   6    -0.655241703024E+03    0.39766E-02   -0.44561E-03 12842   0.195E-01    0.389E-01
RMM:   7    -0.655242028916E+03   -0.32589E-03   -0.52904E-03 13297   0.170E-01    0.523E-01
RMM:   8    -0.655240861665E+03    0.11673E-02   -0.16422E-03 12065   0.133E-01    0.236E-01
RMM:   9    -0.655240651255E+03    0.21041E-03   -0.11918E-03 14156   0.658E-02    0.128E-01
RMM:  10    -0.655240625487E+03    0.25768E-04   -0.33076E-04 11069   0.558E-02    0.866E-02
RMM:  11    -0.655240624032E+03    0.14558E-05   -0.22794E-04 12085   0.289E-02    0.406E-02
RMM:  12    -0.655240639611E+03   -0.15580E-04   -0.87298E-05  9629   0.252E-02    0.516E-02
RMM:  13    -0.655240650617E+03   -0.11006E-04   -0.80003E-05  9567   0.202E-02    0.192E-02
RMM:  14    -0.655240670823E+03   -0.20205E-04   -0.65965E-05  9522   0.185E-02    0.100E-02
RMM:  15    -0.655240678581E+03   -0.77581E-05   -0.35894E-05  7933   0.177E-02
  11 F= -.65524068E+03 E0= -.65517740E+03  d E =-.111831E+00
 curvature:  -0.77 expect dE=-0.141E+00 dE for cont linesearch -0.775E-06
 trial: gam= 0.65434 g(F)=  0.882E-01 g(S)=  0.960E-01 ort =-0.727E-03 (trialstep = 0.964E+00)
 search vector abs. value=  0.407E+00
 bond charge predicted
       N       E                     dE             d eps       ncg     rms          rms(c)
DAV:   1    -0.653995291759E+03    0.12454E+01   -0.74958E+01 12120   0.435E+01    0.446E+00
RMM:   2    -0.658012201936E+03   -0.40169E+01   -0.18355E+01 14051   0.109E+01    0.192E+01
RMM:   3    -0.655394014241E+03    0.26182E+01   -0.20517E+00 11212   0.547E+00    0.471E+00
RMM:   4    -0.655427756732E+03   -0.33742E-01   -0.81093E-01 14789   0.186E+00    0.426E+00
RMM:   5    -0.655335824546E+03    0.91932E-01   -0.12654E-01 13731   0.997E-01    0.190E+00
RMM:   6    -0.655332963632E+03    0.28609E-02   -0.57700E-02 14083   0.584E-01    0.180E+00
RMM:   7    -0.655315337146E+03    0.17626E-01   -0.52484E-02 13786   0.548E-01    0.113E+00
RMM:   8    -0.655320630885E+03   -0.52937E-02   -0.23544E-02 13301   0.482E-01    0.153E+00
RMM:   9    -0.655308961807E+03    0.11669E-01   -0.15662E-02 14817   0.319E-01    0.325E-01
RMM:  10    -0.655310112128E+03   -0.11503E-02   -0.81918E-03 14948   0.180E-01    0.477E-01
RMM:  11    -0.655309280881E+03    0.83125E-03   -0.34712E-03 14896   0.119E-01    0.119E-01
RMM:  12    -0.655309670141E+03   -0.38926E-03   -0.19221E-03 14745   0.799E-02    0.214E-01
RMM:  13    -0.655309603132E+03    0.67009E-04   -0.90863E-04 14192   0.717E-02    0.786E-02
RMM:  14    -0.655309793875E+03   -0.19074E-03   -0.98438E-04 13539   0.502E-02    0.417E-02
RMM:  15    -0.655309860729E+03   -0.66854E-04   -0.46617E-04 13527   0.520E-02    0.168E-02
RMM:  16    -0.655309897219E+03   -0.36490E-04   -0.38319E-04 11943   0.333E-02    0.113E-02
RMM:  17    -0.655309914888E+03   -0.17669E-04   -0.21961E-04 12219   0.296E-02    0.101E-02
RMM:  18    -0.655309926955E+03   -0.12067E-04   -0.13432E-04 11248   0.222E-02    0.486E-03
RMM:  19    -0.655309934711E+03   -0.77567E-05   -0.81355E-05 10586   0.188E-02
  12 F= -.65530993E+03 E0= -.65525076E+03  d E =-.692561E-01
 trial-energy change:   -0.069256  1 .order   -0.066597   -0.177056    0.043862
 step:   0.7832(harm=  0.7726)  dis= 0.03568  next Energy=  -655.314030 (dE=-0.734E-01)
 bond charge predicted
       N       E                     dE             d eps       ncg     rms          rms(c)
DAV:   1    -0.655267379387E+03    0.42548E-01   -0.26389E+00 12720   0.826E+00    0.842E-01
RMM:   2    -0.655402206285E+03   -0.13483E+00   -0.62576E-01 14423   0.193E+00    0.343E+00
RMM:   3    -0.655316908716E+03    0.85298E-01   -0.65475E-02 11035   0.101E+00    0.828E-01
RMM:   4    -0.655318856908E+03   -0.19482E-02   -0.26078E-02 14804   0.345E-01    0.883E-01
RMM:   5    -0.655315013120E+03    0.38438E-02   -0.42890E-03 13519   0.185E-01    0.365E-01
RMM:   6    -0.655314765972E+03    0.24715E-03   -0.19756E-03 13328   0.106E-01    0.309E-01
RMM:   7    -0.655314133779E+03    0.63219E-03   -0.16711E-03 13810   0.973E-02    0.137E-01
RMM:   8    -0.655314496033E+03   -0.36225E-03   -0.70821E-04 11779   0.867E-02    0.303E-01
RMM:   9    -0.655314018580E+03    0.47745E-03   -0.41648E-04 12253   0.596E-02    0.458E-02
RMM:  10    -0.655314074143E+03   -0.55563E-04   -0.23871E-04 10651   0.357E-02    0.106E-01
RMM:  11    -0.655314021713E+03    0.52431E-04   -0.96632E-05  8887   0.251E-02    0.201E-02
RMM:  12    -0.655314029129E+03   -0.74168E-05   -0.60587E-05  7746   0.184E-02
  13 F= -.65531403E+03 E0= -.65525411E+03  d E =-.733505E-01
 curvature:  -0.85 expect dE=-0.702E-01 dE for cont linesearch -0.647E-05
 trial: gam= 0.39273 g(F)=  0.669E-01 g(S)=  0.154E-01 ort = 0.176E-02 (trialstep = 0.928E+00)
 search vector abs. value=  0.146E+00
 bond charge predicted
       N       E                     dE             d eps       ncg     rms          rms(c)
DAV:   1    -0.654730858856E+03    0.58316E+00   -0.24867E+01 10416   0.277E+01    0.150E+00
RMM:   2    -0.655421439230E+03   -0.69058E+00   -0.67364E+00 14712   0.549E+00    0.324E+00
RMM:   3    -0.655385651086E+03    0.35788E-01   -0.31635E-01 10620   0.248E+00    0.202E+00
RMM:   4    -0.655402034063E+03   -0.16383E-01   -0.11678E-01 14109   0.822E-01    0.250E+00
RMM:   5    -0.655369388830E+03    0.32645E-01   -0.23335E-02 13347   0.460E-01    0.667E-01
RMM:   6    -0.655372311412E+03   -0.29226E-02   -0.17629E-02 14540   0.251E-01    0.982E-01
RMM:   7    -0.655367213727E+03    0.50977E-02   -0.12305E-02 14498   0.247E-01    0.552E-01
RMM:   8    -0.655367214392E+03   -0.66445E-06   -0.39637E-03 13840   0.186E-01    0.566E-01
RMM:   9    -0.655365752467E+03    0.14619E-02   -0.32340E-03 14770   0.119E-01    0.100E-01
RMM:  10    -0.655366067248E+03   -0.31478E-03   -0.12587E-03 13614   0.726E-02    0.255E-01
RMM:  11    -0.655365779587E+03    0.28766E-03   -0.66868E-04 13148   0.531E-02    0.459E-02
RMM:  12    -0.655365837218E+03   -0.57631E-04   -0.46338E-04 12856   0.365E-02    0.814E-02
RMM:  13    -0.655365814501E+03    0.22717E-04   -0.15771E-04 11897   0.363E-02    0.290E-02
RMM:  14    -0.655365824258E+03   -0.97567E-05   -0.16352E-04 10638   0.208E-02    0.111E-02
RMM:  15    -0.655365828377E+03   -0.41188E-05   -0.85721E-05 10251   0.207E-02
  14 F= -.65536583E+03 E0= -.65530707E+03  d E =-.517992E-01
 trial-energy change:   -0.051799  1 .order   -0.051648   -0.076974   -0.026323
 step:   1.3975(harm=  1.4101)  dis= 0.03466  next Energy=  -655.372509 (dE=-0.585E-01)
 bond charge predicted
       N       E                     dE             d eps       ncg     rms          rms(c)
DAV:   1    -0.655209323147E+03    0.15650E+00   -0.63579E+00 10464   0.140E+01    0.759E-01
RMM:   2    -0.655387593721E+03   -0.17827E+00   -0.17312E+00 14703   0.278E+00    0.162E+00
RMM:   3    -0.655377484674E+03    0.10109E-01   -0.83103E-02 10591   0.128E+00    0.965E-01
RMM:   4    -0.655381654068E+03   -0.41694E-02   -0.30664E-02 14120   0.418E-01    0.123E+00
RMM:   5    -0.655373624437E+03    0.80296E-02   -0.61293E-03 13422   0.229E-01    0.290E-01
RMM:   6    -0.655375026963E+03   -0.14025E-02   -0.45404E-03 13705   0.137E-01    0.606E-01
RMM:   7    -0.655372992583E+03    0.20344E-02   -0.30870E-03 14156   0.142E-01    0.209E-01
RMM:   8    -0.655373432212E+03   -0.43963E-03   -0.14120E-03 13608   0.895E-02    0.364E-01
RMM:   9    -0.655372824072E+03    0.60814E-03   -0.73332E-04 12954   0.693E-02    0.548E-02
RMM:  10    -0.655372913359E+03   -0.89288E-04   -0.46277E-04 12082   0.375E-02    0.130E-01
RMM:  11    -0.655372836920E+03    0.76440E-04   -0.19989E-04 11440   0.323E-02    0.238E-02
RMM:  12    -0.655372863016E+03   -0.26097E-04   -0.13943E-04 10769   0.222E-02    0.623E-02
RMM:  13    -0.655372845879E+03    0.17138E-04   -0.59114E-05  9146   0.222E-02    0.111E-02
RMM:  14    -0.655372848358E+03   -0.24797E-05   -0.47991E-05  8013   0.153E-02
  15 F= -.65537285E+03 E0= -.65531449E+03  d E =-.588192E-01
 curvature:  -1.24 expect dE=-0.526E-01 dE for cont linesearch -0.307E-05
 trial: gam= 0.44479 g(F)=  0.366E-01 g(S)=  0.569E-02 ort = 0.601E-03 (trialstep = 0.102E+01)
 search vector abs. value=  0.718E-01
 bond charge predicted
       N       E                     dE             d eps       ncg     rms          rms(c)
DAV:   1    -0.654966325652E+03    0.40652E+00   -0.15591E+01 10464   0.234E+01    0.135E+00
RMM:   2    -0.655615998270E+03   -0.64967E+00   -0.47231E+00 14729   0.457E+00    0.625E+00
RMM:   3    -0.655418258935E+03    0.19774E+00   -0.29663E-01 10965   0.229E+00    0.199E+00
RMM:   4    -0.655419636274E+03   -0.13773E-02   -0.10826E-01 13866   0.762E-01    0.158E+00
RMM:   5    -0.655404145708E+03    0.15491E-01   -0.18076E-02 13150   0.392E-01    0.494E-01
RMM:   6    -0.655405406704E+03   -0.12610E-02   -0.11133E-02 14624   0.176E-01    0.660E-01
RMM:   7    -0.655402721333E+03    0.26854E-02   -0.74274E-03 14091   0.209E-01    0.289E-01
RMM:   8    -0.655403324730E+03   -0.60340E-03   -0.29044E-03 13794   0.150E-01    0.431E-01
RMM:   9    -0.655402385640E+03    0.93909E-03   -0.15793E-03 14104   0.940E-02    0.599E-02
RMM:  10    -0.655402472450E+03   -0.86810E-04   -0.91842E-04 13312   0.459E-02    0.972E-02
RMM:  11    -0.655402456178E+03    0.16272E-04   -0.23044E-04 11770   0.476E-02    0.593E-02
RMM:  12    -0.655402493828E+03   -0.37650E-04   -0.28454E-04 12169   0.260E-02    0.538E-02
RMM:  13    -0.655402489522E+03    0.43062E-05   -0.84212E-05 10434   0.274E-02
  16 F= -.65540249E+03 E0= -.65534471E+03  d E =-.296412E-01
 trial-energy change:   -0.029641  1 .order   -0.029317   -0.043474   -0.015160
 step:   1.5182(harm=  1.5689)  dis= 0.02992  next Energy=  -655.406209 (dE=-0.334E-01)
 bond charge predicted
       N       E                     dE             d eps       ncg     rms          rms(c)
DAV:   1    -0.655300748253E+03    0.10175E+00   -0.36517E+00 10848   0.114E+01    0.641E-01
RMM:   2    -0.655445099025E+03   -0.14435E+00   -0.11196E+00 14714   0.220E+00    0.267E+00
RMM:   3    -0.655410226142E+03    0.34873E-01   -0.67129E-02 10942   0.109E+00    0.960E-01
RMM:   4    -0.655410988263E+03   -0.76212E-03   -0.24748E-02 13838   0.366E-01    0.797E-01
RMM:   5    -0.655407079718E+03    0.39085E-02   -0.42689E-03 12857   0.192E-01    0.248E-01
RMM:   6    -0.655407340131E+03   -0.26041E-03   -0.27605E-03 13154   0.877E-02    0.305E-01
RMM:   7    -0.655406827497E+03    0.51263E-03   -0.17967E-03 14419   0.102E-01    0.169E-01
RMM:   8    -0.655406857966E+03   -0.30469E-04   -0.65193E-04 12416   0.731E-02    0.175E-01
RMM:   9    -0.655406719277E+03    0.13869E-03   -0.42671E-04 12799   0.445E-02    0.327E-02
RMM:  10    -0.655406768161E+03   -0.48885E-04   -0.18752E-04 11610   0.310E-02    0.932E-02
RMM:  11    -0.655406736628E+03    0.31533E-04   -0.10179E-04 10610   0.239E-02    0.187E-02
RMM:  12    -0.655406752027E+03   -0.15398E-04   -0.79824E-05  9202   0.179E-02    0.303E-02
RMM:  13    -0.655406750735E+03    0.12913E-05   -0.27330E-05  6890   0.189E-02
  17 F= -.65540675E+03 E0= -.65534918E+03  d E =-.339024E-01
 curvature:  -1.31 expect dE=-0.520E-01 dE for cont linesearch -0.351E-04
 trial: gam= 0.88459 g(F)=  0.228E-01 g(S)=  0.168E-01 ort = 0.139E-02 (trialstep = 0.819E+00)
 search vector abs. value=  0.983E-01
 bond charge predicted
       N       E                     dE             d eps       ncg     rms          rms(c)
DAV:   1    -0.655126782332E+03    0.27997E+00   -0.13789E+01 13080   0.215E+01    0.211E+00
RMM:   2    -0.655919133962E+03   -0.79235E+00   -0.40129E+00 14118   0.457E+00    0.804E+00
RMM:   3    -0.655442747642E+03    0.47639E+00   -0.37868E-01 11298   0.234E+00    0.184E+00
RMM:   4    -0.655462234336E+03   -0.19487E-01   -0.14532E-01 14641   0.809E-01    0.242E+00
RMM:   5    -0.655429006624E+03    0.33228E-01   -0.26881E-02 12824   0.497E-01    0.517E-01
RMM:   6    -0.655436210992E+03   -0.72044E-02   -0.18352E-02 13915   0.313E-01    0.130E+00
RMM:   7    -0.655427231930E+03    0.89791E-02   -0.83205E-03 13127   0.272E-01    0.348E-01
RMM:   8    -0.655429889853E+03   -0.26579E-02   -0.55576E-03 14062   0.183E-01    0.798E-01
RMM:   9    -0.655426752398E+03    0.31375E-02   -0.23798E-03 13553   0.143E-01    0.117E-01
RMM:  10    -0.655427161840E+03   -0.40944E-03   -0.18877E-03 13560   0.732E-02    0.278E-01
RMM:  11    -0.655426845266E+03    0.31657E-03   -0.65079E-04 13301   0.576E-02    0.489E-02
RMM:  12    -0.655426894126E+03   -0.48860E-04   -0.48866E-04 13136   0.339E-02    0.563E-02
RMM:  13    -0.655426901935E+03   -0.78091E-05   -0.15561E-04 11617   0.400E-02    0.517E-02
WARNING in EDDRMM: call to ZHEGV failed, returncode =   6  3      9
RMM:  14    -0.655426910203E+03   -0.82679E-05   -0.21946E-04 12055   0.239E-02    0.163E-02
RMM:  15    -0.655426913147E+03   -0.29439E-05   -0.98005E-05 11150   0.249E-02
  18 F= -.65542691E+03 E0= -.65536920E+03  d E =-.201624E-01
 trial-energy change:   -0.020162  1 .order   -0.019766   -0.033464   -0.006067
 step:   0.9832(harm=  1.0004)  dis= 0.02227  next Energy=  -655.427525 (dE=-0.208E-01)
 bond charge predicted
       N       E                     dE             d eps       ncg     rms          rms(c)
DAV:   1    -0.655415009777E+03    0.11900E-01   -0.54789E-01 13104   0.434E+00    0.424E-01
RMM:   2    -0.655448027054E+03   -0.33017E-01   -0.16659E-01 13850   0.965E-01    0.164E+00
RMM:   3    -0.655428181003E+03    0.19846E-01   -0.17505E-02 11265   0.465E-01    0.370E-01
RMM:   4    -0.655428965508E+03   -0.78450E-03   -0.62676E-03 14002   0.166E-01    0.474E-01
RMM:   5    -0.655427700141E+03    0.12654E-02   -0.10935E-03 12367   0.100E-01    0.112E-01
RMM:   6    -0.655427951721E+03   -0.25158E-03   -0.71593E-04 12022   0.643E-02    0.250E-01
RMM:   7    -0.655427655485E+03    0.29624E-03   -0.35727E-04 12940   0.538E-02    0.102E-01
RMM:   8    -0.655427690515E+03   -0.35030E-04   -0.19272E-04 10304   0.437E-02    0.131E-01
RMM:   9    -0.655427609266E+03    0.81249E-04   -0.13905E-04 11378   0.284E-02    0.246E-02
RMM:  10    -0.655427620250E+03   -0.10984E-04   -0.62960E-05  8018   0.212E-02    0.491E-02
RMM:  11    -0.655427609292E+03    0.10958E-04   -0.30155E-05  6701   0.186E-02    0.104E-02
RMM:  12    -0.655427608738E+03    0.55464E-06   -0.24657E-05  6434   0.131E-02
  19 F= -.65542761E+03 E0= -.65536985E+03  d E =-.208580E-01
 curvature:  -1.19 expect dE=-0.432E-01 dE for cont linesearch -0.665E-05
 trial: gam= 0.94362 g(F)=  0.182E-01 g(S)=  0.181E-01 ort = 0.740E-03 (trialstep = 0.669E+00)
 search vector abs. value=  0.125E+00
 bond charge predicted
       N       E                     dE             d eps       ncg     rms          rms(c)
DAV:   1    -0.655132232481E+03    0.29538E+00   -0.11170E+01 10128   0.194E+01    0.130E+00
RMM:   2    -0.655643867965E+03   -0.51164E+00   -0.33956E+00 14947   0.398E+00    0.590E+00
RMM:   3    -0.655459825573E+03    0.18404E+00   -0.25064E-01 11093   0.192E+00    0.192E+00
RMM:   4    -0.655456063877E+03    0.37617E-02   -0.83845E-02 13957   0.656E-01    0.131E+00
RMM:   5    -0.655446356584E+03    0.97073E-02   -0.14989E-02 13623   0.348E-01    0.559E-01
RMM:   6    -0.655446298536E+03    0.58048E-04   -0.79581E-03 14278   0.171E-01    0.521E-01
RMM:   7    -0.655445846855E+03    0.45168E-03   -0.53141E-03 13795   0.194E-01    0.549E-01
RMM:   8    -0.655444621605E+03    0.12252E-02   -0.22842E-03 13182   0.149E-01    0.251E-01
RMM:   9    -0.655444375210E+03    0.24640E-03   -0.16672E-03 14421   0.748E-02    0.494E-02
RMM:  10    -0.655444457515E+03   -0.82305E-04   -0.52128E-04 12835   0.529E-02    0.103E-01
RMM:  11    -0.655444433462E+03    0.24052E-04   -0.31525E-04 12717   0.364E-02    0.336E-02
RMM:  12    -0.655444467120E+03   -0.33658E-04   -0.26041E-04 12053   0.244E-02    0.189E-02
WARNING in EDDRMM: call to ZHEGV failed, returncode =   6  3      7
RMM:  13    -0.655444485608E+03   -0.18488E-04   -0.80772E-05 10285   0.251E-02    0.337E-02
RMM:  14    -0.655444490079E+03   -0.44709E-05   -0.80073E-05  8967   0.189E-02
  20 F= -.65544449E+03 E0= -.65538699E+03  d E =-.168813E-01
 trial-energy change:   -0.016881  1 .order   -0.016654   -0.024725   -0.008583
 step:   0.9849(harm=  1.0243)  dis= 0.02861  next Energy=  -655.446543 (dE=-0.189E-01)
 bond charge predicted
       N       E                     dE             d eps       ncg     rms          rms(c)
DAV:   1    -0.655373432412E+03    0.71053E-01   -0.24661E+00  9960   0.930E+00    0.607E-01
RMM:   2    -0.655484168330E+03   -0.11074E+00   -0.77328E-01 14853   0.190E+00    0.258E+00
RMM:   3    -0.655449963569E+03    0.34205E-01   -0.61138E-02 11163   0.890E-01    0.892E-01
RMM:   4    -0.655449480446E+03    0.48312E-03   -0.18153E-02 13701   0.310E-01    0.643E-01
RMM:   5    -0.655447126355E+03    0.23541E-02   -0.35116E-03 13395   0.170E-01    0.258E-01
RMM:   6    -0.655447153305E+03   -0.26950E-04   -0.18793E-03 12660   0.819E-02    0.247E-01
RMM:   7    -0.655447074550E+03    0.78754E-04   -0.11568E-03 14034   0.895E-02    0.259E-01
RMM:   8    -0.655446796371E+03    0.27818E-03   -0.49763E-04 11899   0.706E-02    0.111E-01
RMM:   9    -0.655446758022E+03    0.38350E-04   -0.39706E-04 12700   0.365E-02    0.249E-02
RMM:  10    -0.655446784359E+03   -0.26338E-04   -0.12594E-04 10398   0.306E-02    0.621E-02
RMM:  11    -0.655446776021E+03    0.83381E-05   -0.85002E-05  9372   0.198E-02
  21 F= -.65544678E+03 E0= -.65538935E+03  d E =-.191673E-01
 curvature:  -1.71 expect dE=-0.451E-01 dE for cont linesearch -0.121E-04
 trial: gam= 0.66601 g(F)=  0.190E-01 g(S)=  0.738E-02 ort = 0.940E-03 (trialstep = 0.732E+00)
 search vector abs. value=  0.831E-01
 bond charge predicted
       N       E                     dE             d eps       ncg     rms          rms(c)
DAV:   1    -0.655249711401E+03    0.19707E+00   -0.89018E+00 10416   0.162E+01    0.810E-01
RMM:   2    -0.655481903560E+03   -0.23219E+00   -0.22025E+00 14557   0.319E+00    0.222E+00
RMM:   3    -0.655466407612E+03    0.15496E-01   -0.11933E-01 10843   0.136E+00    0.109E+00
RMM:   4    -0.655471466649E+03   -0.50590E-02   -0.43537E-02 14076   0.455E-01    0.114E+00
RMM:   5    -0.655463493935E+03    0.79727E-02   -0.73660E-03 11979   0.283E-01    0.361E-01
RMM:   6    -0.655463932612E+03   -0.43868E-03   -0.50567E-03 13369   0.122E-01    0.409E-01
RMM:   7    -0.655463793208E+03    0.13940E-03   -0.32086E-03 14464   0.127E-01    0.464E-01
RMM:   8    -0.655462805618E+03    0.98759E-03   -0.11081E-03 11441   0.108E-01    0.136E-01
RMM:   9    -0.655462760545E+03    0.45073E-04   -0.86145E-04 13316   0.495E-02    0.493E-02
RMM:  10    -0.655462822523E+03   -0.61978E-04   -0.26380E-04  9768   0.496E-02    0.115E-01
RMM:  11    -0.655462770163E+03    0.52361E-04   -0.21903E-04 11577   0.261E-02    0.262E-02
RMM:  12    -0.655462787682E+03   -0.17519E-04   -0.95713E-05  9056   0.237E-02    0.548E-02
RMM:  13    -0.655462775272E+03    0.12410E-04   -0.57359E-05  8429   0.198E-02    0.122E-02
RMM:  14    -0.655462777520E+03   -0.22484E-05   -0.45175E-05  7419   0.150E-02
  22 F= -.65546278E+03 E0= -.65540497E+03  d E =-.160015E-01
 trial-energy change:   -0.016001  1 .order   -0.015552   -0.019738   -0.011366
 step:   1.3545(harm=  1.7258)  dis= 0.04166  next Energy=  -655.467887 (dE=-0.211E-01)
 bond charge predicted
       N       E                     dE             d eps       ncg     rms          rms(c)
DAV:   1    -0.655315304900E+03    0.14747E+00   -0.64421E+00 10416   0.138E+01    0.688E-01
RMM:   2    -0.655482087731E+03   -0.16678E+00   -0.15930E+00 14532   0.272E+00    0.180E+00
RMM:   3    -0.655472667600E+03    0.94201E-02   -0.86815E-02 10868   0.115E+00    0.971E-01
RMM:   4    -0.655475904424E+03   -0.32368E-02   -0.31096E-02 14029   0.385E-01    0.965E-01
RMM:   5    -0.655470012779E+03    0.58916E-02   -0.52880E-03 11765   0.243E-01    0.273E-01
RMM:   6    -0.655470631756E+03   -0.61898E-03   -0.37568E-03 13022   0.108E-01    0.402E-01
RMM:   7    -0.655470085987E+03    0.54577E-03   -0.23132E-03 14465   0.109E-01    0.323E-01
RMM:   8    -0.655469669620E+03    0.41637E-03   -0.74907E-04 11352   0.886E-02    0.135E-01
RMM:   9    -0.655469608569E+03    0.61050E-04   -0.59906E-04 12907   0.429E-02    0.413E-02
RMM:  10    -0.655469655270E+03   -0.46701E-04   -0.19807E-04  9848   0.414E-02    0.990E-02
RMM:  11    -0.655469616888E+03    0.38383E-04   -0.16070E-04 11145   0.232E-02    0.197E-02
RMM:  12    -0.655469628746E+03   -0.11858E-04   -0.79249E-05  8564   0.211E-02    0.426E-02
RMM:  13    -0.655469621632E+03    0.71138E-05   -0.39395E-05  7680   0.188E-02
  23 F= -.65546962E+03 E0= -.65541148E+03  d E =-.228456E-01
 curvature:  -2.29 expect dE=-0.392E-01 dE for cont linesearch -0.731E-03
 ZBRENT: extrapolating
 opt :   1.6636  next Energy=  -655.470418 (dE=-0.236E-01)
 bond charge predicted
       N       E                     dE             d eps       ncg     rms          rms(c)
DAV:   1    -0.655431523777E+03    0.38105E-01   -0.15804E+00 10464   0.690E+00    0.343E-01
RMM:   2    -0.655473025082E+03   -0.41501E-01   -0.40071E-01 14479   0.137E+00    0.818E-01
RMM:   3    -0.655471542748E+03    0.14823E-02   -0.22982E-02 10860   0.574E-01    0.520E-01
RMM:   4    -0.655472242270E+03   -0.69952E-03   -0.77507E-03 13715   0.192E-01    0.496E-01
RMM:   5    -0.655470695592E+03    0.15467E-02   -0.13687E-03 10847   0.127E-01    0.124E-01
RMM:   6    -0.655470936601E+03   -0.24101E-03   -0.10177E-03 11493   0.610E-02    0.234E-01
RMM:   7    -0.655470692901E+03    0.24370E-03   -0.62015E-04 13706   0.566E-02    0.129E-01
RMM:   8    -0.655470652819E+03    0.40081E-04   -0.20938E-04  9976   0.465E-02    0.839E-02
RMM:   9    -0.655470622727E+03    0.30092E-04   -0.14554E-04 11201   0.238E-02    0.192E-02
RMM:  10    -0.655470635156E+03   -0.12428E-04   -0.58782E-05  7872   0.227E-02    0.502E-02
RMM:  11    -0.655470624228E+03    0.10927E-04   -0.34402E-05  7319   0.149E-02    0.952E-03
RMM:  12    -0.655470626380E+03   -0.21517E-05   -0.24351E-05  6634   0.145E-02
  24 F= -.65547063E+03 E0= -.65541231E+03  d E =-.238504E-01
 curvature:  -2.49 expect dE=-0.597E-01 dE for cont linesearch -0.791E-07
 trial: gam= 0.87371 g(F)=  0.192E-01 g(S)=  0.475E-02 ort = 0.514E-04 (trialstep = 0.872E+00)
 search vector abs. value=  0.875E-01
 bond charge predicted
       N       E                     dE             d eps       ncg     rms          rms(c)
DAV:   1    -0.655229097703E+03    0.24153E+00   -0.13492E+01 11088   0.183E+01    0.862E-01
RMM:   2    -0.655518204262E+03   -0.28911E+00   -0.27300E+00 14165   0.367E+00    0.268E+00
RMM:   3    -0.655487477319E+03    0.30727E-01   -0.14260E-01 10876   0.142E+00    0.900E-01
RMM:   4    -0.655492238741E+03   -0.47614E-02   -0.58173E-02 14256   0.480E-01    0.883E-01
RMM:   5    -0.655487780979E+03    0.44578E-02   -0.69451E-03 13180   0.227E-01    0.366E-01
RMM:   6    -0.655488417929E+03   -0.63695E-03   -0.50013E-03 13122   0.127E-01    0.452E-01
RMM:   7    -0.655487227057E+03    0.11909E-02   -0.33253E-03 14125   0.116E-01    0.215E-01
RMM:   8    -0.655487517741E+03   -0.29068E-03   -0.12310E-03 11186   0.107E-01    0.312E-01
RMM:   9    -0.655487030338E+03    0.48740E-03   -0.79152E-04 12242   0.680E-02    0.676E-02
RMM:  10    -0.655487137335E+03   -0.10700E-03   -0.47366E-04 10550   0.388E-02    0.145E-01
RMM:  11    -0.655487039776E+03    0.97559E-04   -0.19874E-04 10132   0.299E-02    0.214E-02
RMM:  12    -0.655487062015E+03   -0.22240E-04   -0.14535E-04  9711   0.217E-02    0.491E-02
RMM:  13    -0.655487053381E+03    0.86343E-05   -0.51709E-05  8350   0.229E-02
  25 F= -.65548705E+03 E0= -.65542843E+03  d E =-.164270E-01
 trial-energy change:   -0.016427  1 .order   -0.015822   -0.020938   -0.010706
 step:   1.4468(harm=  1.7849)  dis= 0.05273  next Energy=  -655.490752 (dE=-0.201E-01)
 bond charge predicted
       N       E                     dE             d eps       ncg     rms          rms(c)
DAV:   1    -0.655373654144E+03    0.11341E+00   -0.57968E+00 10752   0.120E+01    0.563E-01
RMM:   2    -0.655501018417E+03   -0.12736E+00   -0.12421E+00 14128   0.240E+00    0.146E+00
RMM:   3    -0.655493249589E+03    0.77688E-02   -0.62595E-02 11050   0.892E-01    0.711E-01
RMM:   4    -0.655493320157E+03   -0.70568E-04   -0.23536E-02 14324   0.286E-01    0.402E-01
RMM:   5    -0.655492586125E+03    0.73403E-03   -0.25528E-03 12720   0.143E-01    0.231E-01
RMM:   6    -0.655492969978E+03   -0.38385E-03   -0.17117E-03 12283   0.896E-02    0.339E-01
RMM:   7    -0.655492285634E+03    0.68434E-03   -0.13272E-03 13663   0.804E-02    0.108E-01
RMM:   8    -0.655492515269E+03   -0.22964E-03   -0.63448E-04 11869   0.695E-02    0.225E-01
RMM:   9    -0.655492250950E+03    0.26432E-03   -0.30850E-04 10733   0.468E-02    0.384E-02
RMM:  10    -0.655492301626E+03   -0.50676E-04   -0.22163E-04  9769   0.281E-02    0.977E-02
RMM:  11    -0.655492258084E+03    0.43542E-04   -0.90107E-05  9015   0.228E-02    0.145E-02
RMM:  12    -0.655492264447E+03   -0.63625E-05   -0.76036E-05  8265   0.145E-02
  26 F= -.65549226E+03 E0= -.65543344E+03  d E =-.216381E-01
 curvature:  -2.81 expect dE=-0.421E-01 dE for cont linesearch -0.591E-03
 ZBRENT: increasing intervall
 opt :   2.5958  next Energy=  -655.488026 (dE=-0.174E-01)
 bond charge predicted
       N       E                     dE             d eps       ncg     rms          rms(c)
DAV:   1    -0.655015627148E+03    0.47663E+00   -0.23222E+01 10824   0.240E+01    0.115E+00
RMM:   2    -0.655540862847E+03   -0.52524E+00   -0.49811E+00 14223   0.481E+00    0.348E+00
RMM:   3    -0.655488414335E+03    0.52449E-01   -0.25469E-01 10880   0.187E+00    0.118E+00
RMM:   4    -0.655496816221E+03   -0.84019E-02   -0.10039E-01 14324   0.613E-01    0.114E+00
RMM:   5    -0.655488875898E+03    0.79403E-02   -0.11806E-02 13088   0.320E-01    0.392E-01
RMM:   6    -0.655490965542E+03   -0.20896E-02   -0.91862E-03 13811   0.176E-01    0.709E-01
RMM:   7    -0.655488399875E+03    0.25657E-02   -0.54818E-03 14091   0.164E-01    0.328E-01
RMM:   8    -0.655488658000E+03   -0.25812E-03   -0.21722E-03 12679   0.130E-01    0.385E-01
RMM:   9    -0.655487949515E+03    0.70848E-03   -0.14918E-03 13076   0.856E-02    0.590E-02
RMM:  10    -0.655488044720E+03   -0.95205E-04   -0.83879E-04 11599   0.409E-02    0.122E-01
RMM:  11    -0.655487989744E+03    0.54976E-04   -0.24141E-04 10563   0.382E-02    0.422E-02
RMM:  12    -0.655488013046E+03   -0.23303E-04   -0.27439E-04  9994   0.235E-02    0.319E-02
RMM:  13    -0.655488018549E+03   -0.55028E-05   -0.81453E-05  9052   0.270E-02
  27 F= -.65548802E+03 E0= -.65542885E+03  d E =-.173922E-01
 curvature:  20.13 expect dE= 0.860E+00 dE for cont linesearch  0.420E-01
 ZBRENT: bracketing found
 ZBRENT: interpolating
 opt :   1.7238  next Energy=  -655.492859 (dE=-0.222E-01)
 bond charge predicted
       N       E                     dE             d eps       ncg     rms          rms(c)
DAV:   1    -0.655225143477E+03    0.26287E+00   -0.13411E+01 10752   0.182E+01    0.828E-01
RMM:   2    -0.655502081946E+03   -0.27694E+00   -0.28023E+00 14127   0.361E+00    0.146E+00
RMM:   3    -0.655500106235E+03    0.19757E-02   -0.14304E-01 11000   0.135E+00    0.138E+00
RMM:   4    -0.655499330396E+03    0.77584E-03   -0.54790E-02 13918   0.482E-01    0.995E-01
RMM:   5    -0.655494024983E+03    0.53054E-02   -0.72455E-03 13073   0.224E-01    0.350E-01
RMM:   6    -0.655494461932E+03   -0.43695E-03   -0.46487E-03 12951   0.132E-01    0.421E-01
RMM:   7    -0.655493346840E+03    0.11151E-02   -0.29946E-03 13804   0.123E-01    0.240E-01
RMM:   8    -0.655493739901E+03   -0.39306E-03   -0.12480E-03 11797   0.102E-01    0.371E-01
RMM:   9    -0.655493086375E+03    0.65353E-03   -0.77713E-04 12360   0.691E-02    0.493E-02
RMM:  10    -0.655493110166E+03   -0.23791E-04   -0.40612E-04 10469   0.334E-02    0.864E-02
RMM:  11    -0.655493088540E+03    0.21626E-04   -0.13714E-04  9422   0.271E-02    0.449E-02
RMM:  12    -0.655493088592E+03   -0.51979E-07   -0.11196E-04  9071   0.208E-02    0.199E-02
RMM:  13    -0.655493095785E+03   -0.71925E-05   -0.41714E-05  7570   0.193E-02
  28 F= -.65549310E+03 E0= -.65543419E+03  d E =-.224694E-01
 curvature:  -0.29 expect dE=-0.537E-02 dE for cont linesearch -0.930E-05
 trial: gam= 0.60518 g(F)=  0.162E-01 g(S)=  0.262E-02 ort = 0.169E-02 (trialstep = 0.104E+01)
 search vector abs. value=  0.529E-01
 bond charge predicted
       N       E                     dE             d eps       ncg     rms          rms(c)
DAV:   1    -0.655273144835E+03    0.21994E+00   -0.11283E+01 10608   0.165E+01    0.852E-01
RMM:   2    -0.655525513605E+03   -0.25237E+00   -0.24258E+00 14573   0.326E+00    0.208E+00
RMM:   3    -0.655512901695E+03    0.12612E-01   -0.12156E-01 10781   0.143E+00    0.123E+00
RMM:   4    -0.655517814409E+03   -0.49127E-02   -0.49088E-02 13909   0.494E-01    0.125E+00
RMM:   5    -0.655508029382E+03    0.97850E-02   -0.83238E-03 12577   0.276E-01    0.303E-01
RMM:   6    -0.655509311688E+03   -0.12823E-02   -0.64177E-03 13723   0.145E-01    0.546E-01
RMM:   7    -0.655507709051E+03    0.16026E-02   -0.42023E-03 14313   0.143E-01    0.285E-01
RMM:   8    -0.655507615449E+03    0.93602E-04   -0.13083E-03 12475   0.958E-02    0.235E-01
RMM:   9    -0.655507378135E+03    0.23731E-03   -0.77001E-04 12848   0.534E-02    0.390E-02
RMM:  10    -0.655507409540E+03   -0.31404E-04   -0.36705E-04 11524   0.364E-02    0.741E-02
RMM:  11    -0.655507394911E+03    0.14628E-04   -0.14464E-04 10904   0.299E-02    0.339E-02
RMM:  12    -0.655507417891E+03   -0.22979E-04   -0.15334E-04  9928   0.216E-02    0.580E-02
RMM:  13    -0.655507404277E+03    0.13614E-04   -0.51963E-05  8671   0.212E-02    0.146E-02
WARNING in EDDRMM: call to ZHEGV failed, returncode =   6  3     10
RMM:  14    -0.655507406441E+03   -0.21640E-05   -0.45568E-05  7867   0.143E-02
  29 F= -.65550741E+03 E0= -.65544797E+03  d E =-.143107E-01
 trial-energy change:   -0.014311  1 .order   -0.014355   -0.020692   -0.008017
 step:   1.7256(harm=  1.7021)  dis= 0.04849  next Energy=  -655.510020 (dE=-0.169E-01)
 bond charge predicted
       N       E                     dE             d eps       ncg     rms          rms(c)
DAV:   1    -0.655407459338E+03    0.99945E-01   -0.48279E+00 10680   0.107E+01    0.562E-01
RMM:   2    -0.655517985893E+03   -0.11053E+00   -0.10609E+00 14570   0.215E+00    0.135E+00
RMM:   3    -0.655512651362E+03    0.53345E-02   -0.54150E-02 10797   0.923E-01    0.819E-01
RMM:   4    -0.655514939838E+03   -0.22885E-02   -0.21267E-02 13835   0.324E-01    0.849E-01
RMM:   5    -0.655510513242E+03    0.44266E-02   -0.38163E-03 12608   0.186E-01    0.211E-01
RMM:   6    -0.655510972165E+03   -0.45892E-03   -0.28452E-03 12609   0.947E-02    0.334E-01
RMM:   7    -0.655510420909E+03    0.55126E-03   -0.19276E-03 14298   0.947E-02    0.210E-01
RMM:   8    -0.655510312338E+03    0.10857E-03   -0.55380E-04 11480   0.694E-02    0.140E-01
RMM:   9    -0.655510237632E+03    0.74706E-04   -0.38411E-04 11753   0.364E-02    0.284E-02
RMM:  10    -0.655510265831E+03   -0.28199E-04   -0.15238E-04 10039   0.311E-02    0.774E-02
RMM:  11    -0.655510245330E+03    0.20501E-04   -0.11141E-04 10266   0.214E-02    0.189E-02
RMM:  12    -0.655510257102E+03   -0.11772E-04   -0.66168E-05  8842   0.176E-02    0.428E-02
RMM:  13    -0.655510249165E+03    0.79378E-05   -0.30657E-05  7376   0.172E-02
  30 F= -.65551025E+03 E0= -.65545051E+03  d E =-.171534E-01
 curvature:  -2.27 expect dE=-0.327E-01 dE for cont linesearch -0.182E-05
 trial: gam= 0.71056 g(F)=  0.985E-02 g(S)=  0.457E-02 ort =-0.206E-03 (trialstep = 0.118E+01)
 search vector abs. value=  0.408E-01
 bond charge predicted
       N       E                     dE             d eps       ncg     rms          rms(c)
DAV:   1    -0.655335160087E+03    0.17510E+00   -0.10753E+01 11232   0.162E+01    0.146E+00
RMM:   2    -0.655765339816E+03   -0.43018E+00   -0.23130E+00 14767   0.352E+00    0.597E+00
RMM:   3    -0.655535488640E+03    0.22985E+00   -0.20318E-01 11094   0.179E+00    0.194E+00
RMM:   4    -0.655530823299E+03    0.46653E-02   -0.81518E-02 14554   0.622E-01    0.132E+00
RMM:   5    -0.655519344524E+03    0.11479E-01   -0.14809E-02 13575   0.345E-01    0.496E-01
RMM:   6    -0.655521064598E+03   -0.17201E-02   -0.76660E-03 14062   0.216E-01    0.776E-01
RMM:   7    -0.655518128465E+03    0.29361E-02   -0.62512E-03 14040   0.204E-01    0.418E-01
RMM:   8    -0.655518351866E+03   -0.22340E-03   -0.27409E-03 13351   0.157E-01    0.459E-01
RMM:   9    -0.655517350273E+03    0.10016E-02   -0.19205E-03 14502   0.944E-02    0.735E-02
RMM:  10    -0.655517520106E+03   -0.16983E-03   -0.75454E-04 13139   0.563E-02    0.171E-01
RMM:  11    -0.655517418240E+03    0.10187E-03   -0.36816E-04 12892   0.418E-02    0.412E-02
RMM:  12    -0.655517465240E+03   -0.47000E-04   -0.22839E-04 12652   0.298E-02    0.706E-02
RMM:  13    -0.655517465538E+03   -0.29771E-06   -0.11827E-04 12058   0.274E-02    0.241E-02
RMM:  14    -0.655517491339E+03   -0.25801E-04   -0.12164E-04 11200   0.205E-02    0.104E-02
RMM:  15    -0.655517498919E+03   -0.75803E-05   -0.53440E-05  9448   0.204E-02
  31 F= -.65551750E+03 E0= -.65545749E+03  d E =-.724975E-02
 trial-energy change:   -0.007250  1 .order   -0.007106   -0.016836    0.002624
 step:   1.0261(harm=  1.0202)  dis= 0.02124  next Energy=  -655.517669 (dE=-0.742E-02)
 bond charge predicted
       N       E                     dE             d eps       ncg     rms          rms(c)
DAV:   1    -0.655514619105E+03    0.28722E-02   -0.18125E-01 11832   0.210E+00    0.189E-01
RMM:   2    -0.655521667586E+03   -0.70485E-02   -0.38590E-02 14885   0.451E-01    0.759E-01
RMM:   3    -0.655518031533E+03    0.36361E-02   -0.33187E-03 10947   0.236E-01    0.254E-01
RMM:   4    -0.655517947426E+03    0.84107E-04   -0.13324E-03 13157   0.837E-02    0.176E-01
RMM:   5    -0.655517747321E+03    0.20011E-03   -0.26718E-04 11273   0.484E-02    0.703E-02
RMM:   6    -0.655517762084E+03   -0.14763E-04   -0.11100E-04  8692   0.318E-02    0.940E-02
RMM:   7    -0.655517715714E+03    0.46370E-04   -0.10945E-04  9489   0.287E-02    0.579E-02
RMM:   8    -0.655517716686E+03   -0.97151E-06   -0.37085E-05  6358   0.258E-02
  32 F= -.65551772E+03 E0= -.65545775E+03  d E =-.746752E-02
 curvature:  -1.46 expect dE=-0.191E-01 dE for cont linesearch -0.171E-05
 trial: gam= 0.89685 g(F)=  0.533E-02 g(S)=  0.777E-02 ort =-0.219E-03 (trialstep = 0.103E+01)
 search vector abs. value=  0.456E-01
 bond charge predicted
       N       E                     dE             d eps       ncg     rms          rms(c)
DAV:   1    -0.655378735636E+03    0.13898E+00   -0.90780E+00 11640   0.151E+01    0.146E+00
RMM:   2    -0.655766011576E+03   -0.38728E+00   -0.18855E+00 14476   0.336E+00    0.567E+00
RMM:   3    -0.655531481695E+03    0.23453E+00   -0.19402E-01 11062   0.177E+00    0.146E+00
RMM:   4    -0.655536463620E+03   -0.49819E-02   -0.75933E-02 14829   0.585E-01    0.149E+00
RMM:   5    -0.655524060489E+03    0.12403E-01   -0.13155E-02 13609   0.323E-01    0.470E-01
RMM:   6    -0.655525368820E+03   -0.13083E-02   -0.71017E-03 13947   0.209E-01    0.697E-01
RMM:   7    -0.655522701370E+03    0.26674E-02   -0.54212E-03 13951   0.189E-01    0.316E-01
RMM:   8    -0.655523236031E+03   -0.53466E-03   -0.22647E-03 13576   0.140E-01    0.446E-01
RMM:   9    -0.655522309978E+03    0.92605E-03   -0.15091E-03 14180   0.899E-02    0.649E-02
RMM:  10    -0.655522439093E+03   -0.12912E-03   -0.65314E-04 13181   0.547E-02    0.151E-01
RMM:  11    -0.655522346449E+03    0.92644E-04   -0.30733E-04 12969   0.390E-02    0.412E-02
RMM:  12    -0.655522379499E+03   -0.33050E-04   -0.20708E-04 12369   0.279E-02    0.681E-02
WARNING in EDDRMM: call to ZHEGV failed, returncode =   8  4      6
RMM:  13    -0.655522365010E+03    0.14489E-04   -0.94782E-05 11226   0.263E-02    0.241E-02
RMM:  14    -0.655522370101E+03   -0.50911E-05   -0.10706E-04 10708   0.194E-02    0.959E-03
RMM:  15    -0.655522371088E+03   -0.98716E-06   -0.55457E-05  9534   0.199E-02
  33 F= -.65552237E+03 E0= -.65546169E+03  d E =-.465440E-02
 trial-energy change:   -0.004654  1 .order   -0.004598   -0.013287    0.004091
 step:   0.7909(harm=  0.7873)  dis= 0.01333  next Energy=  -655.522845 (dE=-0.513E-02)
 bond charge predicted
       N       E                     dE             d eps       ncg     rms          rms(c)
DAV:   1    -0.655515072476E+03    0.72976E-02   -0.48748E-01 12000   0.350E+00    0.338E-01
RMM:   2    -0.655536022032E+03   -0.20950E-01   -0.10244E-01 14511   0.791E-01    0.133E+00
RMM:   3    -0.655523326626E+03    0.12695E-01   -0.10701E-02 11110   0.414E-01    0.347E-01
RMM:   4    -0.655523552022E+03   -0.22540E-03   -0.42107E-03 14283   0.138E-01    0.332E-01
RMM:   5    -0.655522915827E+03    0.63620E-03   -0.70409E-04 12605   0.784E-02    0.115E-01
RMM:   6    -0.655522973887E+03   -0.58060E-04   -0.37342E-04 10767   0.528E-02    0.160E-01
RMM:   7    -0.655522837563E+03    0.13632E-03   -0.35425E-04 11808   0.478E-02    0.792E-02
RMM:   8    -0.655522863947E+03   -0.26384E-04   -0.10988E-04  8166   0.400E-02    0.107E-01
RMM:   9    -0.655522811966E+03    0.51981E-04   -0.68733E-05  7380   0.227E-02    0.150E-02
RMM:  10    -0.655522821774E+03   -0.98079E-05   -0.28681E-05  6403   0.190E-02
  34 F= -.65552282E+03 E0= -.65546227E+03  d E =-.510509E-02
 curvature:  -1.39 expect dE=-0.103E-01 dE for cont linesearch -0.115E-07
 trial: gam= 0.56243 g(F)=  0.472E-02 g(S)=  0.272E-02 ort = 0.194E-04 (trialstep = 0.982E+00)
 search vector abs. value=  0.219E-01
 bond charge predicted
       N       E                     dE             d eps       ncg     rms          rms(c)
DAV:   1    -0.655453663429E+03    0.69149E-01   -0.38029E+00 10416   0.983E+00    0.590E-01
RMM:   2    -0.655546952103E+03   -0.93289E-01   -0.80124E-01 14665   0.204E+00    0.184E+00
RMM:   3    -0.655530325035E+03    0.16627E-01   -0.46676E-02 10855   0.973E-01    0.847E-01
RMM:   4    -0.655531862123E+03   -0.15371E-02   -0.18856E-02 14008   0.333E-01    0.834E-01
RMM:   5    -0.655527479852E+03    0.43823E-02   -0.38814E-03 12730   0.197E-01    0.270E-01
RMM:   6    -0.655527756797E+03   -0.27695E-03   -0.27192E-03 13433   0.103E-01    0.339E-01
RMM:   7    -0.655527179860E+03    0.57694E-03   -0.18338E-03 14346   0.107E-01    0.239E-01
RMM:   8    -0.655527090719E+03    0.89141E-04   -0.67268E-04 12552   0.771E-02    0.187E-01
RMM:   9    -0.655526939487E+03    0.15123E-03   -0.45340E-04 12608   0.435E-02    0.367E-02
RMM:  10    -0.655526980002E+03   -0.40515E-04   -0.18332E-04 10924   0.336E-02    0.853E-02
RMM:  11    -0.655526955831E+03    0.24172E-04   -0.12551E-04 10619   0.233E-02    0.220E-02
RMM:  12    -0.655526967418E+03   -0.11587E-04   -0.63485E-05  8952   0.198E-02    0.397E-02
RMM:  13    -0.655526965511E+03    0.19065E-05   -0.38673E-05  8044   0.173E-02
  35 F= -.65552697E+03 E0= -.65546646E+03  d E =-.414374E-02
 trial-energy change:   -0.004144  1 .order   -0.004114   -0.007318   -0.000909
 step:   1.1213(harm=  1.1213)  dis= 0.00870  next Energy=  -655.527000 (dE=-0.418E-02)
 bond charge predicted
       N       E                     dE             d eps       ncg     rms          rms(c)
DAV:   1    -0.655525570228E+03    0.13972E-02   -0.76813E-02 11088   0.139E+00    0.829E-02
RMM:   2    -0.655527422761E+03   -0.18525E-02   -0.16132E-02 14584   0.288E-01    0.250E-01
RMM:   3    -0.655527124987E+03    0.29777E-03   -0.96507E-04 10150   0.139E-01    0.119E-01
RMM:   4    -0.655527162960E+03   -0.37973E-04   -0.41998E-04 11210   0.494E-02    0.120E-01
RMM:   5    -0.655527076237E+03    0.86723E-04   -0.94376E-05  8267   0.325E-02    0.387E-02
RMM:   6    -0.655527081958E+03   -0.57205E-05   -0.58565E-05  8089   0.199E-02
  36 F= -.65552708E+03 E0= -.65546656E+03  d E =-.426018E-02
 curvature:  -1.65 expect dE=-0.521E-02 dE for cont linesearch -0.595E-05
 trial: gam= 0.34613 g(F)=  0.277E-02 g(S)=  0.394E-03 ort = 0.281E-03 (trialstep = 0.101E+01)
 search vector abs. value=  0.598E-02
 bond charge predicted
       N       E                     dE             d eps       ncg     rms          rms(c)
DAV:   1    -0.655509607622E+03    0.17469E-01   -0.10906E+00 10368   0.509E+00    0.327E-01
RMM:   2    -0.655537982356E+03   -0.28375E-01   -0.21743E-01 14803   0.110E+00    0.112E+00
RMM:   3    -0.655530200757E+03    0.77816E-02   -0.15153E-02 10916   0.551E-01    0.388E-01
RMM:   4    -0.655530926213E+03   -0.72546E-03   -0.63160E-03 14174   0.186E-01    0.442E-01
RMM:   5    -0.655529790695E+03    0.11355E-02   -0.11474E-03 12931   0.985E-02    0.970E-02
RMM:   6    -0.655530004489E+03   -0.21379E-03   -0.76391E-04 12247   0.614E-02    0.231E-01
RMM:   7    -0.655529734962E+03    0.26953E-03   -0.41977E-04 12802   0.546E-02    0.818E-02
RMM:   8    -0.655529827860E+03   -0.92897E-04   -0.27235E-04 10903   0.453E-02    0.154E-01
RMM:   9    -0.655529710208E+03    0.11765E-03   -0.14061E-04 10400   0.318E-02    0.234E-02
RMM:  10    -0.655529729320E+03   -0.19111E-04   -0.88583E-05  8833   0.220E-02    0.621E-02
RMM:  11    -0.655529712227E+03    0.17092E-04   -0.39095E-05  6959   0.184E-02    0.995E-03
RMM:  12    -0.655529712874E+03   -0.64697E-06   -0.32833E-05  6769   0.135E-02
  37 F= -.65552971E+03 E0= -.65546924E+03  d E =-.263092E-02
 trial-energy change:   -0.002631  1 .order   -0.002445   -0.003293   -0.001597
 step:   1.4925(harm=  1.9613)  dis= 0.00721  next Energy=  -655.530115 (dE=-0.303E-02)
 bond charge predicted
       N       E                     dE             d eps       ncg     rms          rms(c)
DAV:   1    -0.655525790820E+03    0.39214E-02   -0.25003E-01 10488   0.243E+00    0.157E-01
RMM:   2    -0.655532211998E+03   -0.64212E-02   -0.49554E-02 14723   0.524E-01    0.521E-01
RMM:   3    -0.655530427156E+03    0.17848E-02   -0.34630E-03 10732   0.265E-01    0.158E-01
RMM:   4    -0.655530679637E+03   -0.25248E-03   -0.14492E-03 13087   0.872E-02    0.233E-01
RMM:   5    -0.655530388683E+03    0.29095E-03   -0.25297E-04 10041   0.496E-02    0.602E-02
RMM:   6    -0.655530404806E+03   -0.16122E-04   -0.17557E-04  9946   0.279E-02    0.750E-02
RMM:   7    -0.655530377766E+03    0.27040E-04   -0.11617E-04 10322   0.267E-02    0.519E-02
RMM:   8    -0.655530380005E+03   -0.22388E-05   -0.47624E-05  7279   0.240E-02
  38 F= -.65553038E+03 E0= -.65546995E+03  d E =-.329805E-02
 curvature:  -1.36 expect dE=-0.262E-02 dE for cont linesearch -0.220E-03
 ZBRENT: increasing intervall
 opt :   2.4577  next Energy=  -655.530752 (dE=-0.367E-02)
 bond charge predicted
       N       E                     dE             d eps       ncg     rms          rms(c)
DAV:   1    -0.655512220380E+03    0.18157E-01   -0.99583E-01 10392   0.486E+00    0.313E-01
RMM:   2    -0.655537553641E+03   -0.25333E-01   -0.19773E-01 14737   0.104E+00    0.102E+00
RMM:   3    -0.655530717630E+03    0.68360E-02   -0.13619E-02 10940   0.526E-01    0.314E-01
RMM:   4    -0.655531820219E+03   -0.11026E-02   -0.57691E-03 14127   0.174E-01    0.489E-01
RMM:   5    -0.655530554187E+03    0.12660E-02   -0.10339E-03 12665   0.952E-02    0.104E-01
RMM:   6    -0.655530711449E+03   -0.15726E-03   -0.68764E-04 11677   0.538E-02    0.201E-01
RMM:   7    -0.655530507512E+03    0.20394E-03   -0.38848E-04 13129   0.483E-02    0.776E-02
RMM:   8    -0.655530576288E+03   -0.68775E-04   -0.22242E-04 10481   0.449E-02    0.137E-01
RMM:   9    -0.655530480238E+03    0.96050E-04   -0.14378E-04 11058   0.314E-02    0.202E-02
RMM:  10    -0.655530497303E+03   -0.17065E-04   -0.84240E-05  8805   0.219E-02    0.573E-02
RMM:  11    -0.655530482831E+03    0.14471E-04   -0.33394E-05  6879   0.180E-02    0.104E-02
RMM:  12    -0.655530485066E+03   -0.22350E-05   -0.30769E-05  6787   0.142E-02
  39 F= -.65553049E+03 E0= -.65547005E+03  d E =-.340311E-02
 curvature:  -2.30 expect dE=-0.121E-01 dE for cont linesearch -0.291E-03
 ZBRENT: bracketing found
 ZBRENT: interpolating
 opt :   2.0047  next Energy=  -655.530682 (dE=-0.360E-02)
 bond charge predicted
       N       E                     dE             d eps       ncg     rms          rms(c)
DAV:   1    -0.655526624611E+03    0.38582E-02   -0.21933E-01 10488   0.228E+00    0.147E-01
RMM:   2    -0.655532195407E+03   -0.55708E-02   -0.43488E-02 14860   0.491E-01    0.473E-01
RMM:   3    -0.655530673310E+03    0.15221E-02   -0.29644E-03 10668   0.250E-01    0.139E-01
RMM:   4    -0.655530921809E+03   -0.24850E-03   -0.12075E-03 13226   0.824E-02    0.230E-01
RMM:   5    -0.655530637322E+03    0.28449E-03   -0.20418E-04  9972   0.477E-02    0.485E-02
RMM:   6    -0.655530667512E+03   -0.30190E-04   -0.12711E-04  8761   0.275E-02    0.926E-02
RMM:   7    -0.655530620152E+03    0.47360E-04   -0.72339E-05  8364   0.252E-02    0.391E-02
RMM:   8    -0.655530634875E+03   -0.14723E-04   -0.39361E-05  6486   0.227E-02    0.663E-02
RMM:   9    -0.655530613353E+03    0.21522E-04   -0.23834E-05  6085   0.195E-02    0.960E-03
RMM:  10    -0.655530618034E+03   -0.46810E-05   -0.12674E-05  5938   0.135E-02
  40 F= -.65553062E+03 E0= -.65547018E+03  d E =-.353608E-02
 curvature:  -1.56 expect dE=-0.520E-02 dE for cont linesearch -0.178E-06
 trial: gam= 1.13876 g(F)=  0.182E-02 g(S)=  0.152E-02 ort = 0.261E-04 (trialstep = 0.648E+00)
 search vector abs. value=  0.112E-01
 bond charge predicted
       N       E                     dE             d eps       ncg     rms          rms(c)
DAV:   1    -0.655515773494E+03    0.14840E-01   -0.88778E-01 12144   0.479E+00    0.485E-01
RMM:   2    -0.655561656841E+03   -0.45883E-01   -0.21293E-01 14413   0.114E+00    0.208E+00
RMM:   3    -0.655534149656E+03    0.27507E-01   -0.23987E-02 11022   0.603E-01    0.686E-01
RMM:   4    -0.655533031129E+03    0.11185E-02   -0.84891E-03 14359   0.212E-01    0.378E-01
RMM:   5    -0.655532165037E+03    0.86609E-03   -0.16639E-03 13538   0.113E-01    0.180E-01
RMM:   6    -0.655532235384E+03   -0.70347E-04   -0.67973E-04 11743   0.703E-02    0.223E-01
RMM:   7    -0.655532058722E+03    0.17666E-03   -0.60163E-04 13268   0.655E-02    0.160E-01
RMM:   8    -0.655531994665E+03    0.64057E-04   -0.23972E-04 10858   0.545E-02    0.109E-01
RMM:   9    -0.655531945650E+03    0.49015E-04   -0.19130E-04 11849   0.294E-02    0.312E-02
RMM:  10    -0.655531956601E+03   -0.10952E-04   -0.60923E-05  8097   0.228E-02    0.479E-02
RMM:  11    -0.655531952226E+03    0.43751E-05   -0.35354E-05  7130   0.182E-02
  41 F= -.65553195E+03 E0= -.65547161E+03  d E =-.133419E-02
 trial-energy change:   -0.001334  1 .order   -0.001352   -0.002184   -0.000521
 step:   0.8509(harm=  0.8509)  dis= 0.00652  next Energy=  -655.532052 (dE=-0.143E-02)
 bond charge predicted
       N       E                     dE             d eps       ncg     rms          rms(c)
DAV:   1    -0.655530449762E+03    0.15068E-02   -0.87430E-02 12504   0.150E+00    0.155E-01
RMM:   2    -0.655535187253E+03   -0.47375E-02   -0.21075E-02 14148   0.357E-01    0.679E-01
RMM:   3    -0.655532261045E+03    0.29262E-02   -0.23784E-03 10604   0.191E-01    0.220E-01
RMM:   4    -0.655532137593E+03    0.12345E-03   -0.85937E-04 12630   0.687E-02    0.117E-01
RMM:   5    -0.655532074582E+03    0.63011E-04   -0.18299E-04 10008   0.377E-02    0.721E-02
RMM:   6    -0.655532059538E+03    0.15044E-04   -0.65139E-05  7681   0.265E-02    0.505E-02
RMM:   7    -0.655532063880E+03   -0.43421E-05   -0.72747E-05  8750   0.242E-02
  42 F= -.65553206E+03 E0= -.65547177E+03  d E =-.144585E-02
 curvature:  -1.41 expect dE=-0.324E-02 dE for cont linesearch -0.120E-04
 trial: gam= 0.56795 g(F)=  0.134E-02 g(S)=  0.958E-03 ort = 0.308E-03 (trialstep = 0.689E+00)
 search vector abs. value=  0.625E-02
 bond charge predicted
       N       E                     dE             d eps       ncg     rms          rms(c)
DAV:   1    -0.655521403830E+03    0.10656E-01   -0.56452E-01 11208   0.379E+00    0.308E-01
RMM:   2    -0.655540997703E+03   -0.19594E-01   -0.13723E-01 14976   0.806E-01    0.105E+00
RMM:   3    -0.655533680229E+03    0.73175E-02   -0.98931E-03 10698   0.442E-01    0.323E-01
RMM:   4    -0.655534342861E+03   -0.66263E-03   -0.43493E-03 14264   0.146E-01    0.424E-01
RMM:   5    -0.655533341219E+03    0.10016E-02   -0.83268E-04 12552   0.867E-02    0.115E-01
RMM:   6    -0.655533443948E+03   -0.10273E-03   -0.50086E-04 11234   0.546E-02    0.182E-01
RMM:   7    -0.655533273988E+03    0.16996E-03   -0.39806E-04 13342   0.489E-02    0.101E-01
RMM:   8    -0.655533279021E+03   -0.50328E-05   -0.14313E-04  9226   0.436E-02    0.108E-01
RMM:   9    -0.655533223526E+03    0.55495E-04   -0.11589E-04 10292   0.246E-02    0.171E-02
RMM:  10    -0.655533231694E+03   -0.81680E-05   -0.44876E-05  7337   0.196E-02
  43 F= -.65553323E+03 E0= -.65547281E+03  d E =-.116781E-02
 trial-energy change:   -0.001168  1 .order   -0.001102   -0.001703   -0.000502
 step:   0.8908(harm=  0.9764)  dis= 0.00480  next Energy=  -655.533307 (dE=-0.124E-02)
 bond charge predicted
       N       E                     dE             d eps       ncg     rms          rms(c)
DAV:   1    -0.655532304626E+03    0.91890E-03   -0.48852E-02 12072   0.112E+00    0.930E-02
RMM:   2    -0.655534101513E+03   -0.17969E-02   -0.12023E-02 14671   0.239E-01    0.327E-01
RMM:   3    -0.655533368066E+03    0.73345E-03   -0.89354E-04  9729   0.133E-01    0.956E-02
RMM:   4    -0.655533423218E+03   -0.55153E-04   -0.40672E-04 11419   0.448E-02    0.121E-01
RMM:   5    -0.655533339373E+03    0.83846E-04   -0.76662E-05  7913   0.289E-02    0.295E-02
RMM:   6    -0.655533356511E+03   -0.17138E-04   -0.50012E-05  7278   0.211E-02    0.668E-02
RMM:   7    -0.655533334896E+03    0.21615E-04   -0.37652E-05  6973   0.213E-02    0.297E-02
RMM:   8    -0.655533333435E+03    0.14611E-05   -0.19767E-05  6197   0.166E-02
  44 F= -.65553333E+03 E0= -.65547290E+03  d E =-.126956E-02
 curvature:  -1.12 expect dE=-0.953E-03 dE for cont linesearch -0.206E-04
 ZBRENT: increasing intervall
 opt :   1.2952  next Energy=  -655.533312 (dE=-0.125E-02)
 bond charge predicted
       N       E                     dE             d eps       ncg     rms          rms(c)
DAV:   1    -0.655529188655E+03    0.41462E-02   -0.19430E-01 11472   0.223E+00    0.184E-01
RMM:   2    -0.655536241849E+03   -0.70532E-02   -0.47576E-02 14841   0.476E-01    0.645E-01
RMM:   3    -0.655533404587E+03    0.28373E-02   -0.34796E-03 10557   0.259E-01    0.194E-01
RMM:   4    -0.655533611921E+03   -0.20733E-03   -0.15566E-03 13360   0.864E-02    0.241E-01
RMM:   5    -0.655533278897E+03    0.33302E-03   -0.27647E-04 10633   0.515E-02    0.592E-02
RMM:   6    -0.655533344183E+03   -0.65287E-04   -0.18457E-04  9560   0.345E-02    0.131E-01
RMM:   7    -0.655533262260E+03    0.81923E-04   -0.14604E-04 11101   0.313E-02    0.554E-02
RMM:   8    -0.655533259802E+03    0.24580E-05   -0.55836E-05  7392   0.271E-02
  45 F= -.65553326E+03 E0= -.65547276E+03  d E =-.119592E-02
 curvature:   1.16 expect dE= 0.259E-02 dE for cont linesearch  0.850E-04
 ZBRENT: bracketing found
 ZBRENT: interpolating
 opt :   1.0256  next Energy=  -655.533356 (dE=-0.129E-02)
 bond charge predicted
       N       E                     dE             d eps       ncg     rms          rms(c)
DAV:   1    -0.655531571086E+03    0.16912E-02   -0.87297E-02 11976   0.149E+00    0.123E-01
RMM:   2    -0.655534674249E+03   -0.31032E-02   -0.21021E-02 14937   0.318E-01    0.431E-01
RMM:   3    -0.655533442671E+03    0.12316E-02   -0.15363E-03 10332   0.176E-01    0.138E-01
RMM:   4    -0.655533501458E+03   -0.58787E-04   -0.62768E-04 12593   0.584E-02    0.150E-01
RMM:   5    -0.655533361215E+03    0.14024E-03   -0.10821E-04  8237   0.370E-02    0.376E-02
RMM:   6    -0.655533402998E+03   -0.41784E-04   -0.68175E-05  7250   0.256E-02    0.105E-01
RMM:   7    -0.655533349511E+03    0.53488E-04   -0.59722E-05  7774   0.262E-02    0.343E-02
[...]
 curvature:  -2.68 expect dE=-0.294E-02 dE for cont linesearch -0.625E-04
 ZBRENT: interpolating
 opt :   1.3497  next Energy=  -655.534090 (dE=-0.740E-03)
 bond charge predicted
       N       E                     dE             d eps       ncg     rms          rms(c)
DAV:   1    -0.655532643680E+03    0.14005E-02   -0.59513E-02 10776   0.126E+00    0.604E-02
RMM:   2    -0.655534146599E+03   -0.15029E-02   -0.14613E-02 14340   0.263E-01    0.152E-01
RMM:   3    -0.655534112865E+03    0.33734E-04   -0.86208E-04  9506   0.111E-01    0.791E-02
RMM:   4    -0.655534118417E+03   -0.55519E-05   -0.26938E-04  9552   0.346E-02    0.582E-02
RMM:   5    -0.655534100936E+03    0.17481E-04   -0.31278E-05  6215   0.247E-02    0.252E-02
RMM:   6    -0.655534104416E+03   -0.34805E-05   -0.15426E-05  5973   0.155E-02
  49 F= -.65553410E+03 E0= -.65547363E+03  d E =-.755066E-03
 curvature:  -1.80 expect dE=-0.217E-02 dE for cont linesearch -0.190E-06
 trial: gam= 0.76165 g(F)=  0.632E-03 g(S)=  0.570E-03 ort = 0.197E-04 (trialstep = 0.875E+00)
 search vector abs. value=  0.337E-02
 bond charge predicted
       N       E                     dE             d eps       ncg     rms          rms(c)
DAV:   1    -0.655525819762E+03    0.82812E-02   -0.52349E-01 13272   0.389E+00    0.486E-01
RMM:   2    -0.655566482405E+03   -0.40663E-01   -0.13743E-01 13251   0.926E-01    0.218E+00
RMM:   3    -0.655536521341E+03    0.29961E-01   -0.18928E-02 11542   0.511E-01    0.671E-01
RMM:   4    -0.655535043677E+03    0.14777E-02   -0.62763E-03 14066   0.183E-01    0.340E-01
RMM:   5    -0.655534548299E+03    0.49538E-03   -0.15871E-03 13067   0.106E-01    0.278E-01
RMM:   6    -0.655534250005E+03    0.29829E-03   -0.53846E-04 11045   0.726E-02    0.159E-01
RMM:   7    -0.655534352755E+03   -0.10275E-03   -0.59375E-04 13130   0.622E-02    0.225E-01
RMM:   8    -0.655534111379E+03    0.24138E-03   -0.22362E-04 10283   0.541E-02    0.623E-02
RMM:   9    -0.655534117396E+03   -0.60165E-05   -0.15922E-04 11252   0.271E-02    0.611E-02
RMM:  10    -0.655534104848E+03    0.12548E-04   -0.50228E-05  7497   0.219E-02    0.233E-02
WARNING in EDDRMM: call to ZHEGV failed, returncode =   6  3      7
RMM:  11    -0.655534109747E+03   -0.48991E-05   -0.31429E-05  6820   0.164E-02
  50 F= -.65553411E+03 E0= -.65547374E+03  d E =-.533115E-05
 trial-energy change:   -0.000005  1 .order   -0.000206   -0.001065    0.000653
 step:   0.3908(harm=  0.5421)  dis= 0.00197  next Energy=  -655.534324 (dE=-0.220E-03)
 bond charge predicted
       N       E                     dE             d eps       ncg     rms          rms(c)
DAV:   1    -0.655531815921E+03    0.22889E-02   -0.16059E-01 13584   0.215E+00    0.266E-01
RMM:   2    -0.655543777824E+03   -0.11962E-01   -0.40951E-02 13286   0.505E-01    0.118E+00
RMM:   3    -0.655535054603E+03    0.87232E-02   -0.56092E-03 11543   0.280E-01    0.372E-01
RMM:   4    -0.655534607646E+03    0.44696E-03   -0.19192E-03 13337   0.105E-01    0.191E-01
RMM:   5    -0.655534443497E+03    0.16415E-03   -0.50134E-04 12230   0.617E-02    0.152E-01
RMM:   6    -0.655534357377E+03    0.86119E-04   -0.17227E-04  9450   0.451E-02    0.929E-02
RMM:   7    -0.655534378499E+03   -0.21122E-04   -0.18517E-04 11294   0.349E-02    0.124E-01
RMM:   8    -0.655534301901E+03    0.76598E-04   -0.58351E-05  6889   0.327E-02    0.369E-02
RMM:   9    -0.655534296083E+03    0.58182E-05   -0.42496E-05  6882   0.174E-02
  51 F= -.65553430E+03 E0= -.65547385E+03  d E =-.191667E-03
 curvature:  -0.59 expect dE=-0.483E-03 dE for cont linesearch -0.231E-05
 trial: gam= 0.49100 g(F)=  0.406E-03 g(S)=  0.407E-03 ort = 0.114E-03 (trialstep = 0.778E+00)
 search vector abs. value=  0.174E-02
 bond charge predicted
       N       E                     dE             d eps       ncg     rms          rms(c)
DAV:   1    -0.655531381324E+03    0.29206E-02   -0.20083E-01 12840   0.239E+00    0.249E-01
RMM:   2    -0.655542156187E+03   -0.10775E-01   -0.48213E-02 14055   0.524E-01    0.101E+00
RMM:   3    -0.655535170715E+03    0.69855E-02   -0.53141E-03 10911   0.292E-01    0.304E-01
RMM:   4    -0.655535070930E+03    0.99786E-04   -0.19421E-03 13336   0.988E-02    0.222E-01
RMM:   5    -0.655534813136E+03    0.25779E-03   -0.42286E-04 12376   0.565E-02    0.132E-01
RMM:   6    -0.655534761306E+03    0.51830E-04   -0.15618E-04  8870   0.424E-02    0.952E-02
RMM:   7    -0.655534756958E+03    0.43477E-05   -0.19004E-04 12583   0.320E-02    0.104E-01
RMM:   8    -0.655534706704E+03    0.50254E-04   -0.58963E-05  7053   0.321E-02    0.443E-02
RMM:   9    -0.655534694673E+03    0.12030E-04   -0.33034E-05  6838   0.174E-02    0.127E-02
RMM:  10    -0.655534698203E+03   -0.35301E-05   -0.17179E-05  6155   0.166E-02
  52 F= -.65553470E+03 E0= -.65547428E+03  d E =-.402120E-03
 trial-energy change:   -0.000402  1 .order   -0.000388   -0.000676   -0.000100
 step:   0.9132(harm=  0.9132)  dis= 0.00276  next Energy=  -655.534693 (dE=-0.397E-03)
 bond charge predicted
       N       E                     dE             d eps       ncg     rms          rms(c)
DAV:   1    -0.655534599577E+03    0.95096E-04   -0.60630E-03 13368   0.417E-01    0.434E-02
RMM:   2    -0.655534920157E+03   -0.32058E-03   -0.14533E-03 12804   0.914E-02    0.173E-01
RMM:   3    -0.655534712658E+03    0.20750E-03   -0.16909E-04  8178   0.588E-02    0.502E-02
RMM:   4    -0.655534712143E+03    0.51518E-06   -0.57272E-05  7258   0.207E-02
  53 F= -.65553471E+03 E0= -.65547429E+03  d E =-.416060E-03
 curvature:  -0.91 expect dE=-0.254E-03 dE for cont linesearch -0.127E-05
 trial: gam= 0.16565 g(F)=  0.222E-03 g(S)=  0.568E-04 ort = 0.491E-04 (trialstep = 0.805E+00)
 search vector abs. value=  0.343E-03
 bond charge predicted
       N       E                     dE             d eps       ncg     rms          rms(c)
DAV:   1    -0.655534528141E+03    0.18452E-03   -0.41533E-02 13368   0.105E+00    0.198E-01
RMM:   2    -0.655540122080E+03   -0.55939E-02   -0.11200E-02 12273   0.349E-01    0.870E-01
RMM:   3    -0.655535174333E+03    0.49477E-02   -0.25357E-03 11612   0.177E-01    0.275E-01
RMM:   4    -0.655534880340E+03    0.29399E-03   -0.59307E-04 11781   0.754E-02    0.120E-01
RMM:   5    -0.655534790777E+03    0.89564E-04   -0.22115E-04 12054   0.407E-02    0.717E-02
RMM:   6    -0.655534796750E+03   -0.59732E-05   -0.68642E-05  7348   0.341E-02
  54 F= -.65553480E+03 E0= -.65547440E+03  d E =-.846067E-04
 trial-energy change:   -0.000085  1 .order   -0.000135   -0.000231   -0.000039
 step:   0.9691(harm=  0.9691)  dis= 0.00071  next Energy=  -655.534851 (dE=-0.139E-03)
 bond charge predicted
       N       E                     dE             d eps       ncg     rms          rms(c)
DAV:   1    -0.655534740972E+03    0.49805E-04   -0.16652E-03 14424   0.220E-01    0.660E-02
RMM:   2    -0.655535767194E+03   -0.10262E-02   -0.88640E-04 10078   0.954E-02    0.428E-01
RMM:   3    -0.655534772334E+03    0.99486E-03   -0.31212E-04  8572   0.709E-02    0.788E-02
RMM:   4    -0.655534737882E+03    0.34452E-04   -0.38807E-05  6504   0.232E-02    0.300E-02
RMM:   5    -0.655534741319E+03   -0.34372E-05   -0.16319E-05  5998   0.175E-02
  55 F= -.65553474E+03 E0= -.65547432E+03  d E =-.291760E-04
 curvature:  -0.58 expect dE=-0.180E-03 dE for cont linesearch -0.397E-05
 ZBRENT: interpolating
 opt :   0.8871  next Energy=  -655.534743 (dE=-0.312E-04)
 bond charge predicted
       N       E                     dE             d eps       ncg     rms          rms(c)
DAV:   1    -0.655534740165E+03   -0.22835E-05   -0.51120E-04 13536   0.119E-01    0.222E-02
RMM:   2    -0.655534842736E+03   -0.10257E-03   -0.13103E-04  8593   0.385E-02    0.134E-01
RMM:   3    -0.655534746151E+03    0.96585E-04   -0.32657E-05  6256   0.262E-02    0.299E-02
RMM:   4    -0.655534741363E+03    0.47882E-05   -0.96391E-06  5060   0.135E-02
  56 F= -.65553474E+03 E0= -.65547434E+03  d E =-.292198E-04
 curvature:  -0.29 expect dE=-0.427E-03 dE for cont linesearch -0.184E-04
 ZBRENT: interpolating
 opt :   0.8253  next Energy=  -655.534797 (dE=-0.851E-04)
 bond charge predicted
       N       E                     dE             d eps       ncg     rms          rms(c)
DAV:   1    -0.655534746867E+03   -0.71625E-06   -0.26924E-04 14472   0.822E-02    0.232E-02
RMM:   2    -0.655534854394E+03   -0.10753E-03   -0.10059E-04  7787   0.343E-02    0.143E-01
RMM:   3    -0.655534750190E+03    0.10420E-03   -0.31743E-05  6264   0.260E-02    0.297E-02
RMM:   4    -0.655534745551E+03    0.46392E-05   -0.71333E-06  4863   0.108E-02
  57 F= -.65553475E+03 E0= -.65547434E+03  d E =-.334077E-04
 curvature:  -0.01 expect dE=-0.107E-04 dE for cont linesearch -0.486E-06
 ZBRENT: interpolating
 opt :   0.8101  next Energy=  -655.534797 (dE=-0.847E-04)
 bond charge predicted
       N       E                     dE             d eps       ncg     rms          rms(c)
DAV:   1    -0.655534747644E+03    0.25461E-05   -0.17906E-05  6480   0.289E-02    0.227E-02
RMM:   2    -0.655534913941E+03   -0.16630E-03   -0.76338E-05  7244   0.316E-02    0.179E-01
RMM:   3    -0.655534748559E+03    0.16538E-03   -0.36144E-05  6367   0.251E-02    0.203E-02
RMM:   4    -0.655534745872E+03    0.26873E-05   -0.40170E-06  4776   0.695E-03
  58 F= -.65553475E+03 E0= -.65547434E+03  d E =-.337290E-04
 curvature:  -0.00 expect dE=-0.201E-05 dE for cont linesearch -0.430E-07
 ZBRENT: interpolating
 opt :   0.8068  next Energy=  -655.534797 (dE=-0.847E-04)
 bond charge predicted
       N       E                     dE             d eps       ncg     rms          rms(c)
DAV:   1    -0.655534746420E+03    0.21398E-05   -0.37269E-06  5424   0.129E-02    0.108E-02
RMM:   2    -0.655534778548E+03   -0.32128E-04   -0.15354E-05  6058   0.150E-02    0.776E-02
RMM:   3    -0.655534747319E+03    0.31229E-04   -0.78279E-06  5076   0.130E-02    0.139E-02
RMM:   4    -0.655534746169E+03    0.11504E-05   -0.14104E-06  4150   0.392E-03
  59 F= -.65553475E+03 E0= -.65547434E+03  d E =-.340255E-04
 curvature:  -0.00 expect dE=-0.197E-05 dE for cont linesearch -0.539E-07
 ZBRENT: interpolating
 opt :   0.8056  next Energy=  -655.534797 (dE=-0.846E-04)
 bond charge predicted
       N       E                     dE             d eps       ncg     rms          rms(c)
DAV:   1    -0.655534746369E+03    0.95011E-06   -0.10880E-06  5376   0.606E-03    0.479E-03
RMM:   2    -0.655534753510E+03   -0.71412E-05   -0.28515E-06  4469   0.697E-03
  60 F= -.65553475E+03 E0= -.65547432E+03  d E =-.413669E-04
 curvature:  -0.00 expect dE=-0.308E-06 dE for cont linesearch -0.848E-09
 trial: gam= 2.01962 g(F)=  0.133E-03 g(S)=  0.409E-03 ort =-0.226E-04 (trialstep = 0.149E+00)
 search vector abs. value=  0.185E-02
 bond charge predicted
       N       E                     dE             d eps       ncg     rms          rms(c)
DAV:   1    -0.655534637512E+03    0.10886E-03   -0.75732E-03 10752   0.462E-01    0.242E-02
RMM:   2    -0.655534825705E+03   -0.18819E-03   -0.17131E-03 13846   0.981E-02    0.747E-02
RMM:   3    -0.655534808684E+03    0.17020E-04   -0.12317E-04  7907   0.511E-02    0.322E-02
RMM:   4    -0.655534812387E+03   -0.37029E-05   -0.28815E-05  6316   0.183E-02
  61 F= -.65553481E+03 E0= -.65547442E+03  d E =-.588773E-04
 trial-energy change:   -0.000059  1 .order   -0.000056   -0.000074   -0.000037
 step:   0.2998(harm=  0.2998)  dis= 0.00059  next Energy=  -655.534828 (dE=-0.743E-04)
 bond charge predicted
       N       E                     dE             d eps       ncg     rms          rms(c)
DAV:   1    -0.655534672938E+03    0.13575E-03   -0.78849E-03 10728   0.466E-01    0.281E-02
RMM:   2    -0.655534894737E+03   -0.22180E-03   -0.17756E-03 13874   0.101E-01    0.991E-02
RMM:   3    -0.655534847376E+03    0.47361E-04   -0.12796E-04  7987   0.528E-02    0.396E-02
RMM:   4    -0.655534849376E+03   -0.19997E-05   -0.45018E-05  6961   0.199E-02
  62 F= -.65553485E+03 E0= -.65547449E+03  d E =-.958658E-04
 curvature:  -0.56 expect dE=-0.908E-03 dE for cont linesearch -0.302E-05
 trial: gam= 1.47061 g(F)=  0.144E-03 g(S)=  0.148E-02 ort = 0.999E-04 (trialstep = 0.560E-01)
 search vector abs. value=  0.592E-02
 bond charge predicted
       N       E                     dE             d eps       ncg     rms          rms(c)
DAV:   1    -0.655534904400E+03   -0.57024E-04   -0.36726E-03 13920   0.312E-01    0.733E-02
RMM:   2    -0.655535639721E+03   -0.73532E-03   -0.11437E-03 11469   0.116E-01    0.324E-01
RMM:   3    -0.655534944969E+03    0.69475E-03   -0.30199E-04  9366   0.690E-02    0.962E-02
RMM:   4    -0.655534908108E+03    0.36860E-04   -0.60434E-05  7261   0.289E-02    0.436E-02
RMM:   5    -0.655534904817E+03    0.32912E-05   -0.26820E-05  6152   0.202E-02
  63 F= -.65553490E+03 E0= -.65547457E+03  d E =-.554414E-04
 trial-energy change:   -0.000055  1 .order   -0.000085   -0.000099   -0.000071
 step:   0.1941(harm=  0.1941)  dis= 0.00058  next Energy=  -655.535021 (dE=-0.172E-03)
 bond charge predicted
       N       E                     dE             d eps       ncg     rms          rms(c)
DAV:   1    -0.655534952067E+03   -0.43958E-04   -0.21993E-02 13512   0.783E-01    0.174E-01
RMM:   2    -0.655539122292E+03   -0.41702E-02   -0.68276E-03 12224   0.275E-01    0.763E-01
RMM:   3    -0.655535183819E+03    0.39385E-02   -0.17588E-03 11027   0.157E-01    0.217E-01
RMM:   4    -0.655535008241E+03    0.17558E-03   -0.37033E-04 11412   0.620E-02    0.108E-01
RMM:   5    -0.655534968203E+03    0.40038E-04   -0.15663E-04 11272   0.369E-02    0.959E-02
RMM:   6    -0.655534932890E+03    0.35313E-04   -0.54349E-05  6798   0.319E-02    0.562E-02
RMM:   7    -0.655534939497E+03   -0.66067E-05   -0.53623E-05  7044   0.238E-02
  64 F= -.65553494E+03 E0= -.65547466E+03  d E =-.901208E-04
 curvature:  -0.32 expect dE=-0.984E-04 dE for cont linesearch -0.409E-06
 ZBRENT: extrapolating
 opt :   0.2043  next Energy=  -655.534940 (dE=-0.906E-04)
 bond charge predicted
       N       E                     dE             d eps       ncg     rms          rms(c)
DAV:   1    -0.655534917099E+03    0.15791E-04   -0.18493E-04 14832   0.828E-02    0.235E-02
RMM:   2    -0.655535058164E+03   -0.14106E-03   -0.91016E-05  7474   0.322E-02    0.154E-01
RMM:   3    -0.655534926363E+03    0.13180E-03   -0.38063E-05  6439   0.272E-02    0.324E-02
RMM:   4    -0.655534921208E+03    0.51544E-05   -0.60269E-06  5121   0.101E-02
  65 F= -.65553492E+03 E0= -.65547465E+03  d E =-.718326E-04
 curvature:  -0.35 expect dE=-0.106E-03 dE for cont linesearch -0.268E-05
 ZBRENT: bracketing found
 ZBRENT: interpolating
 opt :   0.1971  next Energy=  -655.534940 (dE=-0.902E-04)
 bond charge predicted
       N       E                     dE             d eps       ncg     rms          rms(c)
DAV:   1    -0.655534926723E+03   -0.36044E-06   -0.69944E-05 12432   0.456E-02    0.128E-02
RMM:   2    -0.655534974445E+03   -0.47722E-04   -0.27731E-05  6348   0.206E-02    0.938E-02
RMM:   3    -0.655534929329E+03    0.45117E-04   -0.13218E-05  5825   0.192E-02    0.113E-02
RMM:   4    -0.655534929355E+03   -0.26746E-07   -0.34848E-06  4782   0.584E-03
  66 F= -.65553493E+03 E0= -.65547465E+03  d E =-.799795E-04
 curvature:  -0.02 expect dE=-0.550E-05 dE for cont linesearch -0.155E-06
 ZBRENT: interpolating
 opt :   0.1949  next Energy=  -655.534940 (dE=-0.902E-04)
 bond charge predicted
       N       E                     dE             d eps       ncg     rms          rms(c)
DAV:   1    -0.655534931052E+03   -0.17239E-05   -0.54311E-06  5712   0.185E-02    0.638E-03
RMM:   2    -0.655534938944E+03   -0.78915E-05   -0.66905E-06  5184   0.121E-02
  67 F= -.65553494E+03 E0= -.65547465E+03  d E =-.895682E-04
 curvature:  -0.00 expect dE=-0.155E-05 dE for cont linesearch -0.216E-06
 ZBRENT: interpolating
 opt :   0.1965  next Energy=  -655.534929 (dE=-0.801E-04)
 bond charge predicted
       N       E                     dE             d eps       ncg     rms          rms(c)
DAV:   1    -0.655534931288E+03   -0.23535E-06   -0.11511E-05  5976   0.257E-02    0.919E-03
RMM:   2    -0.655534956611E+03   -0.25323E-04   -0.10196E-05  5616   0.122E-02    0.686E-02
RMM:   3    -0.655534932306E+03    0.24306E-04   -0.63193E-06  4832   0.115E-02    0.121E-02
RMM:   4    -0.655534931396E+03    0.90941E-06   -0.11430E-06  4038   0.355E-03
  68 F= -.65553493E+03 E0= -.65547465E+03  d E =-.820203E-04
 curvature:  -0.00 expect dE=-0.384E-06 dE for cont linesearch -0.149E-07
 ZBRENT: bisectioning
 opt :   0.1957  next Energy=  -655.534932 (dE=-0.822E-04)
 bond charge predicted
       N       E                     dE             d eps       ncg     rms          rms(c)
DAV:   1    -0.655534931898E+03    0.40783E-06   -0.12081E-06  5712   0.747E-03    0.439E-03
RMM:   2    -0.655534938274E+03   -0.63768E-05   -0.26994E-06  4444   0.630E-03
  69 F= -.65553494E+03 E0= -.65547468E+03  d E =-.888987E-04
 curvature:  -0.02 expect dE=-0.574E-05 dE for cont linesearch -0.326E-07
 ZBRENT: interpolating
 opt :   0.1953  next Energy=  -655.534938 (dE=-0.889E-04)
 bond charge predicted
       N       E                     dE             d eps       ncg     rms          rms(c)
DAV:   1    -0.655534932180E+03   -0.28227E-06   -0.12139E-05  5712   0.189E-02    0.249E-03
RMM:   2    -0.655534933591E+03   -0.14108E-05   -0.84497E-07  4483   0.391E-03
  70 F= -.65553493E+03 E0= -.65547466E+03  d E =-.842149E-04
 curvature:  -0.01 expect dE=-0.392E-05 dE for cont linesearch -0.265E-09
 trial: gam= 0.10259 g(F)=  0.249E-03 g(S)=  0.598E-04 ort =-0.111E-04 (trialstep = 0.839E-01)
 search vector abs. value=  0.368E-03
 bond charge predicted
       N       E                     dE             d eps       ncg     rms          rms(c)
DAV:   1    -0.655534943053E+03   -0.10873E-04   -0.47843E-04 12408   0.116E-01    0.125E-02
RMM:   2    -0.655534968674E+03   -0.25621E-04   -0.11957E-04  8835   0.278E-02    0.489E-02
RMM:   3    -0.655534952139E+03    0.16535E-04   -0.13361E-05  5551   0.194E-02    0.134E-02
RMM:   4    -0.655534952458E+03   -0.31917E-06   -0.45983E-06  4728   0.869E-03
  71 F= -.65553495E+03 E0= -.65547468E+03  d E =-.188673E-04
 trial-energy change:   -0.000019  1 .order   -0.000022   -0.000026   -0.000019
 step:   0.2992(harm=  0.2992)  dis= 0.00026  next Energy=  -655.534980 (dE=-0.460E-04)
 bond charge predicted
       N       E                     dE             d eps       ncg     rms          rms(c)
DAV:   1    -0.655534934756E+03    0.17383E-04   -0.32469E-03 12480   0.300E-01    0.324E-02
RMM:   2    -0.655535110272E+03   -0.17552E-03   -0.83966E-04 12880   0.706E-02    0.134E-01
RMM:   3    -0.655535002261E+03    0.10801E-03   -0.80454E-05  7345   0.421E-02    0.419E-02
RMM:   4    -0.655534999004E+03    0.32571E-05   -0.26279E-05  6262   0.178E-02
  72 F= -.65553500E+03 E0= -.65547473E+03  d E =-.654132E-04
 curvature:  -0.18 expect dE=-0.348E-04 dE for cont linesearch -0.192E-04
 ZBRENT: increasing intervall
 opt :   0.7297  next Energy=  -655.535075 (dE=-0.141E-03)
 bond charge predicted
       N       E                     dE             d eps       ncg     rms          rms(c)
DAV:   1    -0.655534785560E+03    0.21670E-03   -0.12698E-02 11664   0.594E-01    0.660E-02
RMM:   2    -0.655535502962E+03   -0.71740E-03   -0.34234E-03 14420   0.144E-01    0.276E-01
RMM:   3    -0.655535065297E+03    0.43767E-03   -0.33908E-04  9136   0.756E-02    0.896E-02
RMM:   4    -0.655535051202E+03    0.14096E-04   -0.14085E-04  9865   0.337E-02    0.629E-02
RMM:   5    -0.655535031128E+03    0.20074E-04   -0.37792E-05  6485   0.207E-02    0.424E-02
RMM:   6    -0.655535025571E+03    0.55566E-05   -0.16495E-05  6021   0.187E-02
  73 F= -.65553503E+03 E0= -.65547475E+03  d E =-.919804E-04
 curvature:  -0.71 expect dE=-0.956E-04 dE for cont linesearch -0.457E-05
 trial: gam= 0.17490 g(F)=  0.448E-04 g(S)=  0.902E-04 ort = 0.488E-04 (trialstep = 0.213E+00)
 search vector abs. value=  0.163E-03
 reached required accuracy - stopping structural energy minimisation
