<?xml version="1.0" encoding="ISO-8859-1"?>
<modeling>
 <generator>
  <i name="program" type="string">vasp </i>
  <i name="version" type="string">5.4.4.18Apr17-6-g9f103f2a35  </i>
  <i name="subversion" type="string">(build Oct 18 2021 20:38:43) complex            parallel </i>
  <i name="platform" type="string">LinuxIFC </i>
  <i name="date" type="string">2024 06 11 </i>
  <i name="time" type="string">16:59:46 </i>
 </generator>
 <incar>
  <i type="string" name="SYSTEM">HECN</i>
  <i type="int" name="ISTART">     0</i>
  <i type="string" name="PREC">normal</i>
  <i type="string" name="ALGO">Fast</i>
  <i type="int" name="ICHARG">     2</i>
  <i type="int" name="NELM">    60</i>
  <i type="int" name="IBRION">     2</i>
  <i name="EDIFF">      0.00001000</i>
  <i name="EDIFFG">     -0.01000000</i>
  <i type="int" name="NSW">   100</i>
  <i type="int" name="ISIF">     3</i>
  <i name="ENCUT">    400.00000000</i>
  <i name="POTIM">      0.50000000</i>
  <i type="logical" name="LREAL"> F  </i>
  <i type="int" name="ISMEAR">     0</i>
  <i name="SIGMA">      0.10000000</i>
  <i type="logical" name="LWAVE"> F  </i>
  <i type="logical" name="LCHARG"> F  </i>
  <v type="int" name="KPOINT_BSE">    -1     0     0     0</v>
  <i type="int" name="NELM">    60</i>
 </incar>
 <structure name="primitive_cell" >
  <crystal>
   <varray name="basis" >
    <v>       8.93249989       0.00000000       0.00000000 </v>
    <v>       0.00575300       9.05559834       0.00000000 </v>
    <v>       0.03210180      -0.01574346       8.93712807 </v>
   </varray>
   <i name="volume">    722.91652451 </i>
   <varray name="rec_basis" >
    <v>       0.11195074      -0.00007112      -0.00040225 </v>
    <v>       0.00000000       0.11042893       0.00019453 </v>
    <v>       0.00000000       0.00000000       0.11189277 </v>
   </varray>
  </crystal>
  <varray name="positions" >
   <v>      -0.00311999      -0.00795003      -0.00075998 </v>
   <v>      -0.25232999      -0.00252000       0.01202000 </v>
   <v>      -0.00162995      -0.25686004       0.00460000 </v>
   <v>      -0.00280000      -0.00228008       0.25899999 </v>
   <v>       0.00281000       0.25024000       0.00130000 </v>
   <v>      -0.01103011       0.00202000      -0.26291001 </v>
   <v>       0.26146999      -0.00015998      -0.00704004 </v>
   <v>      -0.00135002      -0.22426001       0.26102000 </v>
   <v>      -0.25720997      -0.02130006      -0.23549005 </v>
   <v>       0.23780002       0.01082000      -0.25392002 </v>
   <v>      -0.24282000      -0.25897003       0.01100000 </v>
   <v>       0.24762001      -0.25026001      -0.00025994 </v>
   <v>      -0.00485996      -0.25507996      -0.25488003 </v>
   <v>      -0.24281000       0.25603001      -0.00408003 </v>
   <v>       0.25398003      -0.00285005       0.24912000 </v>
   <v>       0.24788999       0.24839000      -0.00342003 </v>
   <v>      -0.00562996       0.23617001       0.26379999 </v>
   <v>      -0.25120996      -0.01212001       0.26967001 </v>
   <v>       0.00201000       0.25541000      -0.26105999 </v>
   <v>       0.24177002      -0.24659003      -0.24981998 </v>
   <v>      -0.24963995      -0.25112000      -0.25243996 </v>
   <v>      -0.24255004       0.24437997      -0.25103001 </v>
   <v>       0.25133999      -0.25041998       0.24910999 </v>
   <v>      -0.24367000      -0.26108997       0.25767000 </v>
   <v>      -0.24686002       0.24616999       0.25492002 </v>
   <v>       0.24982001       0.24942998       0.24825000 </v>
   <v>       0.24900999       0.25315000      -0.25146000 </v>
   <v>      -0.48411003       0.01358000      -0.01924992 </v>
   <v>      -0.00158006      -0.49023002      -0.01386996 </v>
   <v>       0.02362000      -0.00216999       0.49557002 </v>
   <v>      -0.49480995      -0.23869001       0.00855000 </v>
   <v>      -0.49285006      -0.00023001       0.24673000 </v>
   <v>      -0.24160996      -0.49684002       0.00288000 </v>
   <v>      -0.00999997      -0.23784997       0.49746000 </v>
   <v>      -0.00948001       0.48088003       0.24100999 </v>
   <v>       0.24446000      -0.00176004      -0.49712002 </v>
   <v>      -0.26367999       0.00417000      -0.48937000 </v>
   <v>       0.24328000      -0.49927003      -0.00489006 </v>
   <v>      -0.49572003       0.24673000       0.00262000 </v>
   <v>      -0.00796004      -0.49944001      -0.24861998 </v>
   <v>      -0.00195991       0.24229999      -0.49871997 </v>
   <v>      -0.49991002       0.00061000      -0.26528002 </v>
   <v>      -0.26123997      -0.47171998      -0.26185001 </v>
   <v>       0.49950005      -0.24518001      -0.25182996 </v>
   <v>       0.24457999      -0.24951001       0.49983999 </v>
   <v>      -0.24599997      -0.27062001       0.49116997 </v>
   <v>      -0.49520997       0.24631001      -0.25289998 </v>
   <v>       0.24803003      -0.49835000       0.24955001 </v>
   <v>      -0.26448999      -0.48531996       0.26666001 </v>
   <v>      -0.49167000       0.25676999       0.25376001 </v>
   <v>      -0.49620997      -0.26073003       0.25905001 </v>
   <v>      -0.24692999       0.26163001      -0.49466998 </v>
   <v>       0.25272001       0.24823001      -0.49984997 </v>
   <v>       0.25679999       0.49462002      -0.25454998 </v>
   <v>       0.47957999      -0.01691999       0.49717999 </v>
   <v>      -0.49498994       0.49745998      -0.00165997 </v>
   <v>      -0.00572008      -0.49550001       0.49779000 </v>
   <v>      -0.49436004       0.23264998       0.49544997 </v>
   <v>      -0.49424994      -0.25041998       0.49720000 </v>
   <v>      -0.49299998      -0.49666998       0.25878999 </v>
   <v>      -0.49498997      -0.49782002      -0.26087997 </v>
   <v>      -0.25963999      -0.49803000      -0.49932997 </v>
   <v>       0.25841001      -0.49937998      -0.49870999 </v>
   <v>      -0.49461000      -0.47166995       0.49917999 </v>
  </varray>
 </structure>
 <varray name="primitive_index" >
  <v type="int" >        1 </v>
  <v type="int" >       25 </v>
  <v type="int" >       38 </v>
  <v type="int" >       34 </v>
  <v type="int" >       23 </v>
  <v type="int" >       29 </v>
  <v type="int" >       22 </v>
  <v type="int" >       59 </v>
  <v type="int" >       58 </v>
  <v type="int" >       56 </v>
  <v type="int" >        9 </v>
  <v type="int" >       18 </v>
  <v type="int" >       12 </v>
  <v type="int" >       17 </v>
  <v type="int" >        2 </v>
  <v type="int" >       14 </v>
  <v type="int" >        8 </v>
  <v type="int" >       16 </v>
  <v type="int" >       10 </v>
  <v type="int" >       45 </v>
  <v type="int" >       49 </v>
  <v type="int" >       30 </v>
  <v type="int" >       36 </v>
  <v type="int" >       39 </v>
  <v type="int" >       24 </v>
  <v type="int" >       21 </v>
  <v type="int" >       42 </v>
  <v type="int" >       53 </v>
  <v type="int" >       54 </v>
  <v type="int" >       61 </v>
  <v type="int" >       28 </v>
  <v type="int" >       26 </v>
  <v type="int" >       40 </v>
  <v type="int" >       47 </v>
  <v type="int" >       27 </v>
  <v type="int" >       43 </v>
  <v type="int" >       31 </v>
  <v type="int" >       37 </v>
  <v type="int" >       35 </v>
  <v type="int" >       48 </v>
  <v type="int" >       44 </v>
  <v type="int" >       33 </v>
  <v type="int" >       63 </v>
  <v type="int" >        7 </v>
  <v type="int" >       20 </v>
  <v type="int" >       64 </v>
  <v type="int" >        5 </v>
  <v type="int" >        3 </v>
  <v type="int" >       60 </v>
  <v type="int" >       15 </v>
  <v type="int" >       55 </v>
  <v type="int" >       11 </v>
  <v type="int" >       19 </v>
  <v type="int" >       13 </v>
  <v type="int" >       57 </v>
  <v type="int" >        4 </v>
  <v type="int" >        6 </v>
  <v type="int" >       32 </v>
  <v type="int" >       51 </v>
  <v type="int" >       41 </v>
  <v type="int" >       52 </v>
  <v type="int" >       50 </v>
  <v type="int" >       46 </v>
  <v type="int" >       62 </v>
 </varray>
 <kpoints>
  <generation param="Gamma">
   <v type="int" name="divisions">       3        3        3 </v>
   <v name="usershift">      0.00000000       0.00000000       0.00000000 </v>
   <v name="genvec1">      0.33333333      -0.00000000      -0.00000000 </v>
   <v name="genvec2">      0.00000000       0.33333333       0.00000000 </v>
   <v name="genvec3">      0.00000000       0.00000000       0.33333333 </v>
   <v name="shift">      0.00000000       0.00000000       0.00000000 </v>
  </generation>
  <varray name="kpointlist" >
   <v>       0.00000000       0.00000000       0.00000000 </v>
   <v>       0.33333333       0.00000000       0.00000000 </v>
   <v>       0.00000000       0.33333333       0.00000000 </v>
   <v>       0.33333333       0.33333333       0.00000000 </v>
   <v>      -0.33333333       0.33333333       0.00000000 </v>
   <v>       0.00000000       0.00000000       0.33333333 </v>
   <v>       0.33333333       0.00000000       0.33333333 </v>
   <v>      -0.33333333       0.00000000       0.33333333 </v>
   <v>       0.00000000       0.33333333       0.33333333 </v>
   <v>       0.33333333       0.33333333       0.33333333 </v>
   <v>      -0.33333333       0.33333333       0.33333333 </v>
   <v>       0.00000000      -0.33333333       0.33333333 </v>
   <v>       0.33333333      -0.33333333       0.33333333 </v>
   <v>      -0.33333333      -0.33333333       0.33333333 </v>
  </varray>
  <varray name="weights" >
   <v>       0.03703704 </v>
   <v>       0.07407407 </v>
   <v>       0.07407407 </v>
   <v>       0.07407407 </v>
   <v>       0.07407407 </v>
   <v>       0.07407407 </v>
   <v>       0.07407407 </v>
   <v>       0.07407407 </v>
   <v>       0.07407407 </v>
   <v>       0.07407407 </v>
   <v>       0.07407407 </v>
   <v>       0.07407407 </v>
   <v>       0.07407407 </v>
   <v>       0.07407407 </v>
  </varray>
 </kpoints>
 <parameters>
  <separator name="general" >
   <i type="string" name="SYSTEM">HECN</i>
   <i type="logical" name="LCOMPAT"> F  </i>
  </separator>
  <separator name="electronic" >
   <i type="string" name="PREC">normal</i>
   <i name="ENMAX">    400.00000000</i>
   <i name="ENAUG">    644.87300000</i>
   <i name="EDIFF">      0.00001000</i>
   <i type="int" name="IALGO">    68</i>
   <i type="int" name="IWAVPR">    11</i>
   <i type="int" name="NBANDS">   336</i>
   <i name="NELECT">    526.00000000</i>
   <i type="int" name="TURBO">     0</i>
   <i type="int" name="IRESTART">     0</i>
   <i type="int" name="NREBOOT">     0</i>
   <i type="int" name="NMIN">     0</i>
   <i name="EREF">      0.00000000</i>
   <separator name="electronic smearing" >
    <i type="int" name="ISMEAR">     0</i>
    <i name="SIGMA">      0.10000000</i>
    <i name="KSPACING">      0.50000000</i>
    <i type="logical" name="KGAMMA"> T  </i>
   </separator>
   <separator name="electronic projectors" >
    <i type="logical" name="LREAL"> F  </i>
    <v name="ROPT">      0.00000000      0.00000000      0.00000000      0.00000000      0.00000000      0.00000000      0.00000000</v>
    <i type="int" name="LMAXPAW">  -100</i>
    <i type="int" name="LMAXMIX">     2</i>
    <i type="logical" name="NLSPLINE"> F  </i>
   </separator>
   <separator name="electronic startup" >
    <i type="int" name="ISTART">     0</i>
    <i type="int" name="ICHARG">     2</i>
    <i type="int" name="INIWAV">     1</i>
   </separator>
   <separator name="electronic spin" >
    <i type="int" name="ISPIN">     1</i>
    <i type="logical" name="LNONCOLLINEAR"> F  </i>
    <v name="MAGMOM">      1.00000000      1.00000000      1.00000000      1.00000000      1.00000000      1.00000000      1.00000000      1.00000000      1.00000000      1.00000000      1.00000000      1.00000000      1.00000000      1.00000000      1.00000000      1.00000000      1.00000000      1.00000000      1.00000000      1.00000000
      1.00000000      1.00000000      1.00000000      1.00000000      1.00000000      1.00000000      1.00000000      1.00000000      1.00000000      1.00000000      1.00000000      1.00000000      1.00000000      1.00000000      1.00000000      1.00000000      1.00000000      1.00000000      1.00000000      1.00000000
      1.00000000      1.00000000      1.00000000      1.00000000      1.00000000      1.00000000      1.00000000      1.00000000      1.00000000      1.00000000      1.00000000      1.00000000      1.00000000      1.00000000      1.00000000      1.00000000      1.00000000      1.00000000      1.00000000      1.00000000
      1.00000000      1.00000000      1.00000000      1.00000000</v>
    <i name="NUPDOWN">     -1.00000000</i>
    <i type="logical" name="LSORBIT"> F  </i>
    <v name="SAXIS">      0.00000000      0.00000000      1.00000000</v>
    <i type="logical" name="LSPIRAL"> F  </i>
    <v name="QSPIRAL">      0.00000000      0.00000000      0.00000000</v>
    <i type="logical" name="LZEROZ"> F  </i>
   </separator>
   <separator name="electronic exchange-correlation" >
    <i type="logical" name="LASPH"> F  </i>
    <i type="logical" name="LMETAGGA"> F  </i>
   </separator>
   <separator name="electronic convergence" >
    <i type="int" name="NELM">    60</i>
    <i type="int" name="NELMDL">    -5</i>
    <i type="int" name="NELMIN">     2</i>
    <i name="ENINI">    400.00000000</i>
    <separator name="electronic convergence detail" >
     <i type="logical" name="LDIAG"> T  </i>
     <i type="logical" name="LSUBROT"> F  </i>
     <i name="WEIMIN">      0.00100000</i>
     <i name="EBREAK">      0.00000001</i>
     <i name="DEPER">      0.30000000</i>
     <i type="int" name="NRMM">     4</i>
     <i name="TIME">      0.40000000</i>
    </separator>
   </separator>
   <separator name="electronic mixer" >
    <i name="AMIX">      0.40000000</i>
    <i name="BMIX">      1.00000000</i>
    <i name="AMIN">      0.10000000</i>
    <i name="AMIX_MAG">      1.60000000</i>
    <i name="BMIX_MAG">      1.00000000</i>
    <separator name="electronic mixer details" >
     <i type="int" name="IMIX">     4</i>
     <i type="logical" name="MIXFIRST"> F  </i>
     <i type="int" name="MAXMIX">   -45</i>
     <i name="WC">    100.00000000</i>
     <i type="int" name="INIMIX">     1</i>
     <i type="int" name="MIXPRE">     1</i>
     <i type="int" name="MREMOVE">     5</i>
    </separator>
   </separator>
   <separator name="electronic dipolcorrection" >
    <i type="logical" name="LDIPOL"> F  </i>
    <i type="logical" name="LMONO"> F  </i>
    <i type="int" name="IDIPOL">     0</i>
    <i name="EPSILON">      1.00000000</i>
    <v name="DIPOL">   -100.00000000   -100.00000000   -100.00000000</v>
    <i name="EFIELD">      0.00000000</i>
   </separator>
  </separator>
  <separator name="grids" >
   <i type="int" name="NGX">    48</i>
   <i type="int" name="NGY">    48</i>
   <i type="int" name="NGZ">    48</i>
   <i type="int" name="NGXF">    96</i>
   <i type="int" name="NGYF">    96</i>
   <i type="int" name="NGZF">    96</i>
   <i type="logical" name="ADDGRID"> F  </i>
  </separator>
  <separator name="ionic" >
   <i type="int" name="NSW">   100</i>
   <i type="int" name="IBRION">     2</i>
   <i type="int" name="MDALGO">     0</i>
   <i type="int" name="ISIF">     3</i>
   <i name="PSTRESS">      0.00000000</i>
   <i name="EDIFFG">     -0.01000000</i>
   <i type="int" name="NFREE">     1</i>
   <i name="POTIM">      0.50000000</i>
   <i name="SMASS">     -3.00000000</i>
   <i name="SCALEE">      1.00000000</i>
  </separator>
  <separator name="ionic md" >
   <i name="TEBEG">      0.00010000</i>
   <i name="TEEND">      0.00010000</i>
   <i type="int" name="NBLOCK">     1</i>
   <i type="int" name="KBLOCK">   100</i>
   <i type="int" name="NPACO">   256</i>
   <i name="APACO">     16.00000000</i>
  </separator>
  <separator name="symmetry" >
   <i type="int" name="ISYM">     2</i>
   <i name="SYMPREC">      0.00001000</i>
  </separator>
  <separator name="dos" >
   <i type="int" name="LORBIT">     0</i>
   <v name="RWIGS">     -1.00000000     -1.00000000     -1.00000000     -1.00000000     -1.00000000     -1.00000000     -1.00000000</v>
   <i type="int" name="NEDOS">   301</i>
   <i name="EMIN">     10.00000000</i>
   <i name="EMAX">    -10.00000000</i>
   <i name="EFERMI">      0.00000000</i>
  </separator>
  <separator name="writing" >
   <i type="int" name="NWRITE">     2</i>
   <i type="logical" name="LWAVE"> F  </i>
   <i type="logical" name="LDOWNSAMPLE"> F  </i>
   <i type="logical" name="LCHARG"> F  </i>
   <i type="logical" name="LPARD"> F  </i>
   <i type="logical" name="LVTOT"> F  </i>
   <i type="logical" name="LVHAR"> F  </i>
   <i type="logical" name="LELF"> F  </i>
   <i type="logical" name="LOPTICS"> F  </i>
   <v name="STM">      0.00000000      0.00000000      0.00000000      0.00000000      0.00000000      0.00000000      0.00000000</v>
  </separator>
  <separator name="performance" >
   <i type="int" name="NPAR">    24</i>
   <i type="int" name="NSIM">     4</i>
   <i type="int" name="NBLK">    -1</i>
   <i type="logical" name="LPLANE"> T  </i>
   <i type="logical" name="LSCALAPACK"> T  </i>
   <i type="logical" name="LSCAAWARE"> F  </i>
   <i type="logical" name="LSCALU"> F  </i>
   <i type="logical" name="LASYNC"> F  </i>
   <i type="logical" name="LORBITALREAL"> F  </i>
  </separator>
  <separator name="miscellaneous" >
   <i type="int" name="IDIOT">     3</i>
   <i type="int" name="ISPECIAL">     0</i>
   <i type="logical" name="LMUSIC"> F  </i>
   <v name="POMASS">     92.91000000    180.94800000     91.22400000     14.00100000     12.01100000     51.99600000    183.85000000</v>
   <v name="DARWINR">      0.00000000      0.00000000      0.00000000      0.00000000      0.00000000      0.00000000      0.00000000</v>
   <v name="DARWINV">      1.00000000      1.00000000      1.00000000      1.00000000      1.00000000      1.00000000      1.00000000</v>
   <i type="logical" name="LCORR"> T  </i>
  </separator>
  <i type="logical" name="GGA_COMPAT"> T  </i>
  <i type="logical" name="LBERRY"> F  </i>
  <i type="int" name="ICORELEVEL">     0</i>
  <i type="logical" name="LDAU"> F  </i>
  <i type="int" name="I_CONSTRAINED_M">     0</i>
  <separator name="electronic exchange-correlation" >
   <i type="string" name="GGA">--</i>
   <i type="int" name="VOSKOWN">     0</i>
   <i type="logical" name="LHFCALC"> F  </i>
   <i type="string" name="PRECFOCK"></i>
   <i type="logical" name="LSYMGRAD"> F  </i>
   <i type="logical" name="LHFONE"> F  </i>
   <i type="logical" name="LRHFCALC"> F  </i>
   <i type="logical" name="LTHOMAS"> F  </i>
   <i type="logical" name="LMODELHF"> F  </i>
   <i name="ENCUT4O">     -1.00000000</i>
   <i type="int" name="EXXOEP">     0</i>
   <i type="int" name="FOURORBIT">     0</i>
   <i name="AEXX">      0.00000000</i>
   <i name="HFALPHA">      0.00000000</i>
   <i name="MCALPHA">      0.00000000</i>
   <i name="ALDAX">      1.00000000</i>
   <i name="AGGAX">      1.00000000</i>
   <i name="ALDAC">      1.00000000</i>
   <i name="AGGAC">      1.00000000</i>
   <i type="int" name="NKREDX">     1</i>
   <i type="int" name="NKREDY">     1</i>
   <i type="int" name="NKREDZ">     1</i>
   <i type="logical" name="SHIFTRED"> F  </i>
   <i type="logical" name="ODDONLY"> F  </i>
   <i type="logical" name="EVENONLY"> F  </i>
   <i type="int" name="LMAXFOCK">     0</i>
   <i type="int" name="NMAXFOCKAE">     0</i>
   <i type="logical" name="LFOCKAEDFT"> F  </i>
   <i name="HFSCREEN">      0.00000000</i>
   <i name="HFSCREENC">      0.00000000</i>
   <i type="int" name="NBANDSGWLOW">     0</i>
  </separator>
  <separator name="vdW DFT" >
   <i type="logical" name="LUSE_VDW"> F  </i>
   <i name="Zab_VDW">     -0.84910000</i>
   <i name="PARAM1">      0.12340000</i>
   <i name="PARAM2">      1.00000000</i>
   <i name="PARAM3">      0.00000000</i>
  </separator>
  <separator name="model GW" >
   <i type="int" name="MODEL_GW">     0</i>
   <i name="MODEL_EPS0">      6.77734242</i>
   <i name="MODEL_ALPHA">      1.00000000</i>
  </separator>
  <separator name="linear response parameters" >
   <i type="logical" name="LEPSILON"> F  </i>
   <i type="logical" name="LRPA"> F  </i>
   <i type="logical" name="LNABLA"> F  </i>
   <i type="logical" name="LVEL"> F  </i>
   <i type="int" name="KINTER">     0</i>
   <i name="CSHIFT">      0.10000000</i>
   <i name="OMEGAMAX">     -1.00000000</i>
   <i name="DEG_THRESHOLD">      0.00200000</i>
   <i name="RTIME">     -0.10000000</i>
   <i name="WPLASMAI">      0.00000000</i>
   <v name="DFIELD">      0.00000000      0.00000000      0.00000000</v>
   <v name="WPLASMA">      0.00000000      0.00000000      0.00000000      0.00000000      0.00000000      0.00000000      0.00000000      0.00000000      0.00000000</v>
  </separator>
  <separator name="orbital magnetization" >
   <i type="logical" name="NUCIND"> F  </i>
   <v name="MAGPOS">      0.00000000      0.00000000      0.00000000</v>
   <i type="logical" name="LNICSALL"> T  </i>
   <i type="logical" name="ORBITALMAG"> F  </i>
   <i type="logical" name="LMAGBLOCH"> F  </i>
   <i type="logical" name="LCHIMAG"> F  </i>
   <i type="logical" name="LGAUGE"> T  </i>
   <i type="int" name="MAGATOM">     0</i>
   <v name="MAGDIPOL">      0.00000000      0.00000000      0.00000000</v>
   <v name="AVECCONST">      0.00000000      0.00000000      0.00000000</v>
  </separator>
  <separator name="response functions" >
   <i type="logical" name="LADDER"> F  </i>
   <i type="logical" name="LRPAFORCE"> F  </i>
   <i type="logical" name="LFXC"> F  </i>
   <i type="logical" name="LHARTREE"> T  </i>
   <i type="int" name="IBSE">     0</i>
   <v type="int" name="KPOINT">    -1     0     0     0</v>
   <i type="logical" name="LTCTE"> F  </i>
   <i type="logical" name="LTETE"> F  </i>
   <i type="logical" name="LTRIPLET"> F  </i>
   <i type="logical" name="LFXCEPS"> F  </i>
   <i type="logical" name="LFXHEG"> F  </i>
   <i type="int" name="NATURALO">     2</i>
   <i type="logical" name="L2ORDER"> F  </i>
   <i type="logical" name="LMP2LT"> F  </i>
   <i type="logical" name="LUSEW"> F  </i>
   <i name="ENCUTGW">     -2.00000000</i>
   <i name="ENCUTGWSOFT">     -2.00000000</i>
   <i name="ENCUTLF">     -1.00000000</i>
   <i type="int" name="LMAXMP2">    -1</i>
   <i name="SCISSOR">      0.00000000</i>
   <i type="int" name="NOMEGA">     0</i>
   <i type="int" name="NOMEGAR">     0</i>
   <i type="int" name="NBANDSGW">    -1</i>
   <i type="int" name="NBANDSO">    -1</i>
   <i type="int" name="NBANDSV">    -1</i>
   <i type="int" name="NELM">    60</i>
   <i type="int" name="NELMHF">     1</i>
   <i type="int" name="DIM">     3</i>
   <i type="int" name="ANTIRES">     0</i>
   <i name="OMEGAMAX">    -30.00000000</i>
   <i name="OMEGAMIN">    -30.00000000</i>
   <i name="OMEGATL">   -200.00000000</i>
   <i type="int" name="OMEGAGRID">   140</i>
   <i name="CSHIFT">     -0.10000000</i>
   <i type="logical" name="SELFENERGY"> F  </i>
   <i type="logical" name="LSPECTRAL"> F  </i>
   <i type="logical" name="LSPECTRALGW"> F  </i>
   <i type="logical" name="LSINGLES"> F  </i>
   <i type="logical" name="LFERMIGW"> F  </i>
   <i type="logical" name="ODDONLYGW"> F  </i>
   <i type="logical" name="EVENONLYGW"> F  </i>
   <i type="int" name="NKREDLFX">     1</i>
   <i type="int" name="NKREDLFY">     1</i>
   <i type="int" name="NKREDLFZ">     1</i>
   <i type="int" name="MAXMEM">  2800</i>
   <i type="int" name="TELESCOPE">     0</i>
   <i type="int" name="TAUPAR">     1</i>
   <i type="int" name="OMEGAPAR">    -1</i>
   <i name="LAMBDA">      1.00000000</i>
  </separator>
  <separator name="External order field" >
   <i name="OFIELD_KAPPA">      0.00000000</i>
   <v name="OFIELD_K">      0.00000000      0.00000000      0.00000000</v>
   <i name="OFIELD_Q6_NEAR">      0.00000000</i>
   <i name="OFIELD_Q6_FAR">      0.00000000</i>
   <i name="OFIELD_A">      0.00000000</i>
  </separator>
 </parameters>
 <atominfo>
  <atoms>      64 </atoms>
  <types>       7 </types>
  <array name="atoms" >
   <dimension dim="1">ion</dimension>
   <field type="string">element</field>
   <field type="int">atomtype</field>
   <set>
    <rc><c>Nb</c><c>   1</c></rc>
    <rc><c>Nb</c><c>   1</c></rc>
    <rc><c>Nb</c><c>   1</c></rc>
    <rc><c>Nb</c><c>   1</c></rc>
    <rc><c>Nb</c><c>   1</c></rc>
    <rc><c>Nb</c><c>   1</c></rc>
    <rc><c>Nb</c><c>   1</c></rc>
    <rc><c>Ta</c><c>   2</c></rc>
    <rc><c>Ta</c><c>   2</c></rc>
    <rc><c>Ta</c><c>   2</c></rc>
    <rc><c>Ta</c><c>   2</c></rc>
    <rc><c>Ta</c><c>   2</c></rc>
    <rc><c>Ta</c><c>   2</c></rc>
    <rc><c>Zr</c><c>   3</c></rc>
    <rc><c>Zr</c><c>   3</c></rc>
    <rc><c>Zr</c><c>   3</c></rc>
    <rc><c>Zr</c><c>   3</c></rc>
    <rc><c>Zr</c><c>   3</c></rc>
    <rc><c>Zr</c><c>   3</c></rc>
    <rc><c>Zr</c><c>   3</c></rc>
    <rc><c>N </c><c>   4</c></rc>
    <rc><c>N </c><c>   4</c></rc>
    <rc><c>N </c><c>   4</c></rc>
    <rc><c>N </c><c>   4</c></rc>
    <rc><c>N </c><c>   4</c></rc>
    <rc><c>N </c><c>   4</c></rc>
    <rc><c>N </c><c>   4</c></rc>
    <rc><c>N </c><c>   4</c></rc>
    <rc><c>N </c><c>   4</c></rc>
    <rc><c>N </c><c>   4</c></rc>
    <rc><c>N </c><c>   4</c></rc>
    <rc><c>N </c><c>   4</c></rc>
    <rc><c>N </c><c>   4</c></rc>
    <rc><c>C </c><c>   5</c></rc>
    <rc><c>C </c><c>   5</c></rc>
    <rc><c>C </c><c>   5</c></rc>
    <rc><c>C </c><c>   5</c></rc>
    <rc><c>C </c><c>   5</c></rc>
    <rc><c>C </c><c>   5</c></rc>
    <rc><c>C </c><c>   5</c></rc>
    <rc><c>C </c><c>   5</c></rc>
    <rc><c>C </c><c>   5</c></rc>
    <rc><c>C </c><c>   5</c></rc>
    <rc><c>C </c><c>   5</c></rc>
    <rc><c>C </c><c>   5</c></rc>
    <rc><c>C </c><c>   5</c></rc>
    <rc><c>C </c><c>   5</c></rc>
    <rc><c>C </c><c>   5</c></rc>
    <rc><c>C </c><c>   5</c></rc>
    <rc><c>C </c><c>   5</c></rc>
    <rc><c>C </c><c>   5</c></rc>
    <rc><c>C </c><c>   5</c></rc>
    <rc><c>Cr</c><c>   6</c></rc>
    <rc><c>Cr</c><c>   6</c></rc>
    <rc><c>Cr</c><c>   6</c></rc>
    <rc><c>Cr</c><c>   6</c></rc>
    <rc><c>Cr</c><c>   6</c></rc>
    <rc><c>Cr</c><c>   6</c></rc>
    <rc><c>W </c><c>   7</c></rc>
    <rc><c>W </c><c>   7</c></rc>
    <rc><c>W </c><c>   7</c></rc>
    <rc><c>W </c><c>   7</c></rc>
    <rc><c>W </c><c>   7</c></rc>
    <rc><c>W </c><c>   7</c></rc>
   </set>
  </array>
  <array name="atomtypes" >
   <dimension dim="1">type</dimension>
   <field type="int">atomspertype</field>
   <field type="string">element</field>
   <field>mass</field>
   <field>valence</field>
   <field type="string">pseudopotential</field>
   <set>
    <rc><c>   7</c><c>Nb</c><c>     92.91000000</c><c>     13.00000000</c><c> PAW_PBE Nb_sv 17Jan2003                </c></rc>
    <rc><c>   6</c><c>Ta</c><c>    180.94800000</c><c>     11.00000000</c><c> PAW_PBE Ta_pv 07Sep2000                </c></rc>
    <rc><c>   7</c><c>Zr</c><c>     91.22400000</c><c>     12.00000000</c><c> PAW_PBE Zr_sv 07Sep2000                </c></rc>
    <rc><c>  13</c><c>N </c><c>     14.00100000</c><c>      5.00000000</c><c> PAW_PBE N 08Apr2002                    </c></rc>
    <rc><c>  19</c><c>C </c><c>     12.01100000</c><c>      4.00000000</c><c> PAW_PBE C 08Apr2002                    </c></rc>
    <rc><c>   6</c><c>Cr</c><c>     51.99600000</c><c>     12.00000000</c><c> PAW_PBE Cr_pv 07Sep2000                </c></rc>
    <rc><c>   6</c><c>W </c><c>    183.85000000</c><c>     12.00000000</c><c> PAW_PBE W_pv 06Sep2000                 </c></rc>
   </set>
  </array>
 </atominfo>
 <structure name="initialpos" >
  <crystal>
   <varray name="basis" >
    <v>       8.93249989       0.00000000       0.00000000 </v>
    <v>       0.00575300       9.05559834       0.00000000 </v>
    <v>       0.03210180      -0.01574346       8.93712807 </v>
   </varray>
   <i name="volume">    722.91652451 </i>
   <varray name="rec_basis" >
    <v>       0.11195074      -0.00007112      -0.00040225 </v>
    <v>       0.00000000       0.11042893       0.00019453 </v>
    <v>       0.00000000       0.00000000       0.11189277 </v>
   </varray>
  </crystal>
  <varray name="positions" >
   <v>       0.99688001       0.99204997       0.99924002 </v>
   <v>       0.25398003       0.99714995       0.24912000 </v>
   <v>       0.24803003       0.50165000       0.24955001 </v>
   <v>       0.50501006       0.49745998       0.99834003 </v>
   <v>       0.50479003       0.24631001       0.74710002 </v>
   <v>       0.99427992       0.50449999       0.49779000 </v>
   <v>       0.49950005       0.75481999       0.74817004 </v>
   <v>       0.99437004       0.23617001       0.26379999 </v>
   <v>       0.75718000       0.74102998       0.01100000 </v>
   <v>       0.00201000       0.25541000       0.73894001 </v>
   <v>       0.75307001       0.26163001       0.50533002 </v>
   <v>       0.99514004       0.74492004       0.74511997 </v>
   <v>       0.25679999       0.49462002       0.74545002 </v>
   <v>       0.24788999       0.24839000       0.99657997 </v>
   <v>       0.50833000       0.25676999       0.25376001 </v>
   <v>       0.74879004       0.98787999       0.26967001 </v>
   <v>       0.75719000       0.25603001       0.99591997 </v>
   <v>       0.24762001       0.74973999       0.99974006 </v>
   <v>       0.25272001       0.24823001       0.50015003 </v>
   <v>       0.24457999       0.75048999       0.49983999 </v>
   <v>       0.24982001       0.24942998       0.24825000 </v>
   <v>       0.26146999       0.99984002       0.99295996 </v>
   <v>       0.00281000       0.25024000       0.00130000 </v>
   <v>       0.75313998       0.24617000       0.25492002 </v>
   <v>       0.74767001       0.99748000       0.01202000 </v>
   <v>       0.50714994       0.99977000       0.24673000 </v>
   <v>       0.99051999       0.48088002       0.24100998 </v>
   <v>       0.50519005       0.76130999       0.00855000 </v>
   <v>       0.98896989       0.00202000       0.73708999 </v>
   <v>       0.75744996       0.24437997       0.74896999 </v>
   <v>       0.73632001       0.00417000       0.51063000 </v>
   <v>       0.50563996       0.23264999       0.49544997 </v>
   <v>       0.50008998       0.00061000       0.73471998 </v>
   <v>       0.99720000       0.99771992       0.25899999 </v>
   <v>       0.50427997       0.24673000       0.00262000 </v>
   <v>       0.25133999       0.74958002       0.24910999 </v>
   <v>       0.24328000       0.50072997       0.99510994 </v>
   <v>       0.99837005       0.74313996       0.00460000 </v>
   <v>       0.75633000       0.73891003       0.25767000 </v>
   <v>       0.75839004       0.50315998       0.00288000 </v>
   <v>       0.50700002       0.50333002       0.25878999 </v>
   <v>       0.24900999       0.25315000       0.74854000 </v>
   <v>       0.24446000       0.99823996       0.50287998 </v>
   <v>       0.99804009       0.24229999       0.50128003 </v>
   <v>       0.24177002       0.75340997       0.75018002 </v>
   <v>       0.25841001       0.50062002       0.50129001 </v>
   <v>       0.99000004       0.76215003       0.49746000 </v>
   <v>       0.99203996       0.50055999       0.75138002 </v>
   <v>       0.75036005       0.74888000       0.74756004 </v>
   <v>       0.74036002       0.50197000       0.50067003 </v>
   <v>       0.50575006       0.74958002       0.49720000 </v>
   <v>       0.50501003       0.50217998       0.73912003 </v>
   <v>       0.51588997       0.01358000       0.98075008 </v>
   <v>       0.99841994       0.50976998       0.98613004 </v>
   <v>       0.50379003       0.73926997       0.25905001 </v>
   <v>       0.23780002       0.01082000       0.74607998 </v>
   <v>       0.47957999       0.98308000       0.49717999 </v>
   <v>       0.74279003       0.97869994       0.76450995 </v>
   <v>       0.99864998       0.77573999       0.26102000 </v>
   <v>       0.73551001       0.51468004       0.26666001 </v>
   <v>       0.02362000       0.99783001       0.49557002 </v>
   <v>       0.50539000       0.52833005       0.49917999 </v>
   <v>       0.73876003       0.52828003       0.73814999 </v>
   <v>       0.75400003       0.72937999       0.49116997 </v>
  </varray>
 </structure>
 <calculation>
  <scstep>
   <time name="dav">   22.81   22.87</time>
   <time name="total">   22.85   22.92</time>
   <energy>
    <i name="alphaZ">   4579.41384750 </i>
    <i name="ewald"> -44473.01171042 </i>
    <i name="hartreedc">  -7605.90246017 </i>
    <i name="XCdc">   1964.54738467 </i>
    <i name="pawpsdc">  30715.19454712 </i>
    <i name="pawaedc"> -30608.94377919 </i>
    <i name="eentropy">     -0.07252057 </i>
    <i name="bandstr">   2173.53852289 </i>
    <i name="atom">  49823.73348182 </i>
    <i name="e_fr_energy">   6568.49731364 </i>
    <i name="e_wo_entrp">   6568.56983421 </i>
    <i name="e_0_energy">   6568.53357393 </i>
   </energy>
  </scstep>
  <scstep>
   <time name="dav">   27.05   27.53</time>
   <time name="total">   27.05   27.53</time>
   <energy>
    <i name="e_fr_energy">    264.68997178 </i>
    <i name="e_wo_entrp">    264.80574711 </i>
    <i name="e_0_energy">    264.74785944 </i>
   </energy>
  </scstep>
  <scstep>
   <time name="dav">   34.27   34.31</time>
   <time name="total">   34.27   34.32</time>
   <energy>
    <i name="e_fr_energy">   -681.58762140 </i>
    <i name="e_wo_entrp">   -681.48175828 </i>
    <i name="e_0_energy">   -681.53468984 </i>
   </energy>
  </scstep>
  <scstep>
   <time name="dav">   37.80   37.82</time>
   <time name="total">   37.80   37.82</time>
   <energy>
    <i name="e_fr_energy">   -775.67192781 </i>
    <i name="e_wo_entrp">   -775.56284476 </i>
    <i name="e_0_energy">   -775.61738628 </i>
   </energy>
  </scstep>
  <scstep>
   <time name="dav">   41.50   41.57</time>
   <time name="total">   41.78   41.86</time>
   <energy>
    <i name="e_fr_energy">   -787.96225350 </i>
    <i name="e_wo_entrp">   -787.84515615 </i>
    <i name="e_0_energy">   -787.90370482 </i>
   </energy>
  </scstep>
  <scstep>
   <time name="diag">    1.96    1.96</time>
   <time name="diis">   19.78   19.79</time>
   <time name="orth">    0.50    0.50</time>
   <time name="total">   22.53   22.55</time>
   <energy>
    <i name="e_fr_energy">   -978.43686199 </i>
    <i name="e_wo_entrp">   -978.28974982 </i>
    <i name="e_0_energy">   -978.36330591 </i>
   </energy>
  </scstep>
  <scstep>
   <time name="diag">    1.97    1.98</time>
   <time name="diis">   23.33   23.37</time>
   <time name="orth">    0.50    0.50</time>
   <time name="total">   26.10   26.14</time>
   <energy>
    <i name="e_fr_energy">   -655.86905804 </i>
    <i name="e_wo_entrp">   -655.73274885 </i>
    <i name="e_0_energy">   -655.80090344 </i>
   </energy>
  </scstep>
  <scstep>
   <time name="diag">    1.96    1.96</time>
   <time name="diis">   24.06   24.10</time>
   <time name="orth">    0.50    0.50</time>
   <time name="total">   26.82   26.86</time>
   <energy>
    <i name="e_fr_energy">   -658.98449772 </i>
    <i name="e_wo_entrp">   -658.83748094 </i>
    <i name="e_0_energy">   -658.91098933 </i>
   </energy>
  </scstep>
  <scstep>
   <time name="diag">    1.97    1.97</time>
   <time name="diis">   22.86   22.95</time>
   <time name="orth">    0.50    0.50</time>
   <time name="total">   25.62   25.72</time>
   <energy>
    <i name="e_fr_energy">   -655.07275069 </i>
    <i name="e_wo_entrp">   -654.88534559 </i>
    <i name="e_0_energy">   -654.97904814 </i>
   </energy>
  </scstep>
  <scstep>
   <time name="diag">    1.96    1.96</time>
   <time name="diis">   25.17   25.19</time>
   <time name="orth">    0.49    0.52</time>
   <time name="total">   27.92   27.98</time>
   <energy>
    <i name="e_fr_energy">   -651.57565902 </i>
    <i name="e_wo_entrp">   -651.36573759 </i>
    <i name="e_0_energy">   -651.47069831 </i>
   </energy>
  </scstep>
  <scstep>
   <time name="diag">    1.96    1.96</time>
   <time name="diis">   19.41   19.47</time>
   <time name="orth">    0.50    0.50</time>
   <time name="total">   22.17   22.23</time>
   <energy>
    <i name="e_fr_energy">   -653.91813701 </i>
    <i name="e_wo_entrp">   -653.73870523 </i>
    <i name="e_0_energy">   -653.82842112 </i>
   </energy>
  </scstep>
  <scstep>
   <time name="diag">    1.96    1.96</time>
   <time name="diis">   22.93   22.95</time>
   <time name="orth">    0.49    0.49</time>
   <time name="total">   25.67   25.70</time>
   <energy>
    <i name="e_fr_energy">   -651.74124251 </i>
    <i name="e_wo_entrp">   -651.52823925 </i>
    <i name="e_0_energy">   -651.63474088 </i>
   </energy>
  </scstep>
  <scstep>
   <time name="diag">    1.95    1.95</time>
   <time name="diis">   23.94   23.97</time>
   <time name="orth">    0.50    0.51</time>
   <time name="total">   26.69   26.74</time>
   <energy>
    <i name="e_fr_energy">   -651.35112101 </i>
    <i name="e_wo_entrp">   -651.14843099 </i>
    <i name="e_0_energy">   -651.24977600 </i>
   </energy>
  </scstep>
  <scstep>
   <time name="diag">    1.97    1.98</time>
   <time name="diis">   21.82   21.87</time>
   <time name="orth">    0.50    0.50</time>
   <time name="total">   24.58   24.64</time>
   <energy>
    <i name="e_fr_energy">   -651.12554689 </i>
    <i name="e_wo_entrp">   -650.92543512 </i>
    <i name="e_0_energy">   -651.02549100 </i>
   </energy>
  </scstep>
  <scstep>
   <time name="diag">    1.96    1.96</time>
   <time name="diis">   23.24   23.28</time>
   <time name="orth">    0.50    0.50</time>
   <time name="total">   25.99   26.04</time>
   <energy>
    <i name="e_fr_energy">   -651.31806016 </i>
    <i name="e_wo_entrp">   -651.11148572 </i>
    <i name="e_0_energy">   -651.21477294 </i>
   </energy>
  </scstep>
  <scstep>
   <time name="diag">    1.96    1.96</time>
   <time name="diis">   23.47   23.52</time>
   <time name="orth">    0.50    0.50</time>
   <time name="total">   26.23   26.29</time>
   <energy>
    <i name="e_fr_energy">   -650.91453061 </i>
    <i name="e_wo_entrp">   -650.70194596 </i>
    <i name="e_0_energy">   -650.80823828 </i>
   </energy>
  </scstep>
  <scstep>
   <time name="diag">    1.94    1.95</time>
   <time name="diis">   24.11   24.17</time>
   <time name="orth">    0.51    0.51</time>
   <time name="total">   26.87   26.94</time>
   <energy>
    <i name="e_fr_energy">   -651.05590709 </i>
    <i name="e_wo_entrp">   -650.83762630 </i>
    <i name="e_0_energy">   -650.94676669 </i>
   </energy>
  </scstep>
  <scstep>
   <time name="diag">    1.97    1.99</time>
   <time name="diis">   23.26   23.34</time>
   <time name="orth">    0.49    0.49</time>
   <time name="total">   26.02   26.12</time>
   <energy>
    <i name="e_fr_energy">   -650.92643596 </i>
    <i name="e_wo_entrp">   -650.70988009 </i>
    <i name="e_0_energy">   -650.81815802 </i>
   </energy>
  </scstep>
  <scstep>
   <time name="diag">    1.96    1.96</time>
   <time name="diis">   23.22   23.24</time>
   <time name="orth">    0.49    0.49</time>
   <time name="total">   25.96   25.99</time>
   <energy>
    <i name="e_fr_energy">   -650.93095799 </i>
    <i name="e_wo_entrp">   -650.71421269 </i>
    <i name="e_0_energy">   -650.82258534 </i>
   </energy>
  </scstep>
  <scstep>
   <time name="diag">    1.95    1.95</time>
   <time name="diis">   23.35   23.39</time>
   <time name="orth">    0.50    0.50</time>
   <time name="total">   26.09   26.13</time>
   <energy>
    <i name="e_fr_energy">   -650.91117805 </i>
    <i name="e_wo_entrp">   -650.69378992 </i>
    <i name="e_0_energy">   -650.80248399 </i>
   </energy>
  </scstep>
  <scstep>
   <time name="diag">    1.96    1.96</time>
   <time name="diis">   24.17   24.18</time>
   <time name="orth">    0.50    0.50</time>
   <time name="total">   26.93   26.94</time>
   <energy>
    <i name="e_fr_energy">   -650.91063188 </i>
    <i name="e_wo_entrp">   -650.69436594 </i>
    <i name="e_0_energy">   -650.80249891 </i>
   </energy>
  </scstep>
  <scstep>
   <time name="diag">    1.99    2.00</time>
   <time name="diis">   22.12   22.14</time>
   <time name="orth">    0.50    0.50</time>
   <time name="total">   24.91   24.94</time>
   <energy>
    <i name="e_fr_energy">   -650.91218998 </i>
    <i name="e_wo_entrp">   -650.69589386 </i>
    <i name="e_0_energy">   -650.80404192 </i>
   </energy>
  </scstep>
  <scstep>
   <time name="diag">    1.96    1.96</time>
   <time name="diis">   23.85   23.95</time>
   <time name="orth">    0.52    0.52</time>
   <time name="total">   26.62   26.72</time>
   <energy>
    <i name="e_fr_energy">   -650.91354619 </i>
    <i name="e_wo_entrp">   -650.69731629 </i>
    <i name="e_0_energy">   -650.80543124 </i>
   </energy>
  </scstep>
  <scstep>
   <time name="diag">    1.95    1.95</time>
   <time name="diis">   23.42   23.47</time>
   <time name="orth">    0.49    0.49</time>
   <time name="total">   26.16   26.21</time>
   <energy>
    <i name="e_fr_energy">   -650.91390448 </i>
    <i name="e_wo_entrp">   -650.69751173 </i>
    <i name="e_0_energy">   -650.80570810 </i>
   </energy>
  </scstep>
  <scstep>
   <time name="diag">    1.95    1.95</time>
   <time name="diis">   21.56   21.61</time>
   <time name="orth">    0.49    0.49</time>
   <time name="total">   24.30   24.35</time>
   <energy>
    <i name="e_fr_energy">   -650.91439714 </i>
    <i name="e_wo_entrp">   -650.69806829 </i>
    <i name="e_0_energy">   -650.80623271 </i>
   </energy>
  </scstep>
  <scstep>
   <time name="diag">    1.96    1.96</time>
   <time name="diis">   21.28   21.34</time>
   <time name="orth">    0.49    0.49</time>
   <time name="total">   24.03   24.09</time>
   <energy>
    <i name="e_fr_energy">   -650.91460955 </i>
    <i name="e_wo_entrp">   -650.69830810 </i>
    <i name="e_0_energy">   -650.80645883 </i>
   </energy>
  </scstep>
  <scstep>
   <time name="diag">    1.96    1.96</time>
   <time name="diis">   20.29   20.33</time>
   <time name="orth">    0.49    0.49</time>
   <time name="total">   23.07   23.12</time>
   <energy>
    <i name="e_fr_energy">   -650.91476547 </i>
    <i name="e_wo_entrp">   -650.69847137 </i>
    <i name="e_0_energy">   -650.80661842 </i>
   </energy>
  </scstep>
  <scstep>
   <time name="diag">    1.98    1.99</time>
   <time name="diis">   19.78   19.89</time>
   <time name="orth">    0.50    0.50</time>
   <time name="total">   22.55   22.67</time>
   <energy>
    <i name="e_fr_energy">   -650.91486243 </i>
    <i name="e_wo_entrp">   -650.69854536 </i>
    <i name="e_0_energy">   -650.80670390 </i>
   </energy>
  </scstep>
  <scstep>
   <time name="diag">    1.95    1.96</time>
   <time name="diis">   19.26   19.31</time>
   <time name="orth">    0.49    0.49</time>
   <time name="total">   22.02   22.07</time>
   <energy>
    <i name="e_fr_energy">   -650.91492577 </i>
    <i name="e_wo_entrp">   -650.69861829 </i>
    <i name="e_0_energy">   -650.80677203 </i>
   </energy>
  </scstep>
  <scstep>
   <time name="diag">    1.99    1.99</time>
   <time name="diis">   18.77   18.80</time>
   <time name="orth">    0.49    0.50</time>
   <time name="total">   21.56   21.60</time>
   <energy>
    <i name="e_fr_energy">   -650.91496709 </i>
    <i name="e_wo_entrp">   -650.69864874 </i>
    <i name="e_0_energy">   -650.80680791 </i>
   </energy>
  </scstep>
  <scstep>
   <time name="diag">    1.96    1.96</time>
   <time name="diis">   18.23   18.27</time>
   <time name="orth">    0.49    0.49</time>
   <time name="total">   21.00   21.04</time>
   <energy>
    <i name="e_fr_energy">   -650.91499518 </i>
    <i name="e_wo_entrp">   -650.69868145 </i>
    <i name="e_0_energy">   -650.80683832 </i>
   </energy>
  </scstep>
  <scstep>
   <time name="diag">    1.95    1.95</time>
   <time name="diis">   17.74   17.79</time>
   <time name="orth">    0.49    0.49</time>
   <time name="total">   20.48   20.53</time>
   <energy>
    <i name="e_fr_energy">   -650.91501309 </i>
    <i name="e_wo_entrp">   -650.69869666 </i>
    <i name="e_0_energy">   -650.80685488 </i>
   </energy>
  </scstep>
  <scstep>
   <time name="diag">    1.95    1.95</time>
   <time name="diis">   16.64   16.66</time>
   <time name="orth">    0.49    0.49</time>
   <time name="total">   19.39   19.42</time>
   <energy>
    <i name="e_fr_energy">   -650.91502454 </i>
    <i name="e_wo_entrp">   -650.69871072 </i>
    <i name="e_0_energy">   -650.80686763 </i>
   </energy>
  </scstep>
  <scstep>
   <time name="diag">    1.97    1.97</time>
   <time name="diis">   16.17   16.20</time>
   <time name="orth">    0.49    0.49</time>
   <time name="total">   18.67   18.70</time>
   <energy>
    <i name="alphaZ">   4579.41384750 </i>
    <i name="ewald"> -44473.01171042 </i>
    <i name="hartreedc">  -7108.19731479 </i>
    <i name="XCdc">   1952.01770996 </i>
    <i name="pawpsdc">  31852.97768124 </i>
    <i name="pawaedc"> -31792.88933501 </i>
    <i name="eentropy">     -0.21631492 </i>
    <i name="bandstr">  -5484.74307824 </i>
    <i name="atom">  49823.73348182 </i>
    <i name="e_fr_energy">   -650.91503287 </i>
    <i name="e_wo_entrp">   -650.69871795 </i>
    <i name="e_0_energy">   -650.80687541 </i>
   </energy>
  </scstep>
  <structure>
   <crystal>
    <varray name="basis" >
     <v>       8.93249989       0.00000000       0.00000000 </v>
     <v>       0.00575300       9.05559834       0.00000000 </v>
     <v>       0.03210180      -0.01574346       8.93712807 </v>
    </varray>
    <i name="volume">    722.91652451 </i>
    <varray name="rec_basis" >
     <v>       0.11195074      -0.00007112      -0.00040225 </v>
     <v>       0.00000000       0.11042893       0.00019453 </v>
     <v>       0.00000000       0.00000000       0.11189277 </v>
    </varray>
   </crystal>
   <varray name="positions" >
    <v>       0.99688001       0.99204997       0.99924002 </v>
    <v>       0.25398003       0.99714995       0.24912000 </v>
    <v>       0.24803003       0.50165000       0.24955001 </v>
    <v>       0.50501006       0.49745998       0.99834003 </v>
    <v>       0.50479003       0.24631001       0.74710002 </v>
    <v>       0.99427992       0.50449999       0.49779000 </v>
    <v>       0.49950005       0.75481999       0.74817004 </v>
    <v>       0.99437004       0.23617001       0.26379999 </v>
    <v>       0.75718000       0.74102998       0.01100000 </v>
    <v>       0.00201000       0.25541000       0.73894001 </v>
    <v>       0.75307001       0.26163001       0.50533002 </v>
    <v>       0.99514004       0.74492004       0.74511997 </v>
    <v>       0.25679999       0.49462002       0.74545002 </v>
    <v>       0.24788999       0.24839000       0.99657997 </v>
    <v>       0.50833000       0.25676999       0.25376001 </v>
    <v>       0.74879004       0.98787999       0.26967001 </v>
    <v>       0.75719000       0.25603001       0.99591997 </v>
    <v>       0.24762001       0.74973999       0.99974006 </v>
    <v>       0.25272001       0.24823001       0.50015003 </v>
    <v>       0.24457999       0.75048999       0.49983999 </v>
    <v>       0.24982001       0.24942998       0.24825000 </v>
    <v>       0.26146999       0.99984002       0.99295996 </v>
    <v>       0.00281000       0.25024000       0.00130000 </v>
    <v>       0.75313998       0.24617000       0.25492002 </v>
    <v>       0.74767001       0.99748000       0.01202000 </v>
    <v>       0.50714994       0.99977000       0.24673000 </v>
    <v>       0.99051999       0.48088002       0.24100998 </v>
    <v>       0.50519005       0.76130999       0.00855000 </v>
    <v>       0.98896989       0.00202000       0.73708999 </v>
    <v>       0.75744996       0.24437997       0.74896999 </v>
    <v>       0.73632001       0.00417000       0.51063000 </v>
    <v>       0.50563996       0.23264999       0.49544997 </v>
    <v>       0.50008998       0.00061000       0.73471998 </v>
    <v>       0.99720000       0.99771992       0.25899999 </v>
    <v>       0.50427997       0.24673000       0.00262000 </v>
    <v>       0.25133999       0.74958002       0.24910999 </v>
    <v>       0.24328000       0.50072997       0.99510994 </v>
    <v>       0.99837005       0.74313996       0.00460000 </v>
    <v>       0.75633000       0.73891003       0.25767000 </v>
    <v>       0.75839004       0.50315998       0.00288000 </v>
    <v>       0.50700002       0.50333002       0.25878999 </v>
    <v>       0.24900999       0.25315000       0.74854000 </v>
    <v>       0.24446000       0.99823996       0.50287998 </v>
    <v>       0.99804009       0.24229999       0.50128003 </v>
    <v>       0.24177002       0.75340997       0.75018002 </v>
    <v>       0.25841001       0.50062002       0.50129001 </v>
    <v>       0.99000004       0.76215003       0.49746000 </v>
    <v>       0.99203996       0.50055999       0.75138002 </v>
    <v>       0.75036005       0.74888000       0.74756004 </v>
    <v>       0.74036002       0.50197000       0.50067003 </v>
    <v>       0.50575006       0.74958002       0.49720000 </v>
    <v>       0.50501003       0.50217998       0.73912003 </v>
    <v>       0.51588997       0.01358000       0.98075008 </v>
    <v>       0.99841994       0.50976998       0.98613004 </v>
    <v>       0.50379003       0.73926997       0.25905001 </v>
    <v>       0.23780002       0.01082000       0.74607998 </v>
    <v>       0.47957999       0.98308000       0.49717999 </v>
    <v>       0.74279003       0.97869994       0.76450995 </v>
    <v>       0.99864998       0.77573999       0.26102000 </v>
    <v>       0.73551001       0.51468004       0.26666001 </v>
    <v>       0.02362000       0.99783001       0.49557002 </v>
    <v>       0.50539000       0.52833005       0.49917999 </v>
    <v>       0.73876003       0.52828003       0.73814999 </v>
    <v>       0.75400003       0.72937999       0.49116997 </v>
   </varray>
  </structure>
  <varray name="forces" >
   <v>       0.11374203      -0.23594945      -0.30829605 </v>
   <v>       0.09656661      -0.76092722      -0.29579584 </v>
   <v>       0.59742634       0.75649872      -0.46928834 </v>
   <v>      -0.38131602      -0.47680792      -0.10303579 </v>
   <v>      -0.64649183      -0.79367051       0.73841783 </v>
   <v>       0.35528616      -0.57563303       0.64855579 </v>
   <v>      -0.21919346       1.16102873       0.20217708 </v>
   <v>       0.58568008      -0.00452238      -0.63906313 </v>
   <v>      -0.66968019       0.81642855      -0.34871016 </v>
   <v>       0.42057654      -0.35810325       0.39312278 </v>
   <v>      -0.52360419      -0.74344626       0.51936802 </v>
   <v>       0.76234401       0.52462739       0.62816158 </v>
   <v>      -0.31943619       0.51946460       0.78917977 </v>
   <v>       0.45098793      -0.30356248       0.08641241 </v>
   <v>      -0.70766631      -1.18016859      -0.44921136 </v>
   <v>      -1.50428140       0.53121694      -0.58483232 </v>
   <v>      -0.48209915      -0.55850690      -0.45105391 </v>
   <v>       0.86724066       0.44179370      -0.00809746 </v>
   <v>       0.70430795       0.02547858      -0.05455844 </v>
   <v>       0.84904601      -0.03597204      -0.05411070 </v>
   <v>      -0.35509406       0.12485934       0.09884891 </v>
   <v>      -0.38103526       0.06718920       0.15154117 </v>
   <v>      -0.10148391      -0.37328162       0.11273085 </v>
   <v>       0.60650849       0.36970080       0.33274190 </v>
   <v>       0.03773418      -0.58639649      -1.22226386 </v>
   <v>      -1.40215283      -0.37845372       0.27416600 </v>
   <v>       0.39637946       0.02611523       0.47981956 </v>
   <v>       0.51820715      -0.36046085      -0.46191350 </v>
   <v>      -0.14491588       0.06896796       0.74971582 </v>
   <v>      -0.34430478      -0.02822589      -0.51571304 </v>
   <v>       0.27443436       0.01490005       0.48979975 </v>
   <v>       0.40385070      -0.01586493       1.00946341 </v>
   <v>       0.56436198      -0.02061957       0.58508386 </v>
   <v>       0.91854547       0.80061423      -1.23531685 </v>
   <v>      -0.03976764       0.20250938      -1.03869869 </v>
   <v>       0.14291937      -0.11872442       0.09046170 </v>
   <v>       0.36103996      -0.16962210       0.34059912 </v>
   <v>      -0.44225237       0.02304905      -0.00712691 </v>
   <v>      -0.65278946       0.39167861      -1.06520726 </v>
   <v>      -0.13321917       0.38982324      -0.00433327 </v>
   <v>      -1.52196681       0.96032024      -0.96708566 </v>
   <v>       0.28459335      -0.55615453       0.00022405 </v>
   <v>       1.67249361      -0.04338014       0.48598472 </v>
   <v>      -0.32706445       0.69302369      -0.03578962 </v>
   <v>       0.52180702      -0.00418690       0.02554532 </v>
   <v>      -0.56994123      -0.06160875      -0.47995239 </v>
   <v>       0.32326130      -0.81400749       0.73156575 </v>
   <v>       0.22817371       0.00448719       0.03811857 </v>
   <v>      -0.49975992       1.65431539       0.38325591 </v>
   <v>       1.23162282      -1.10399523       0.49399500 </v>
   <v>      -0.14631748       1.44249495      -0.26438645 </v>
   <v>      -0.63952731      -0.38579753       0.94694771 </v>
   <v>       0.29823443       0.61516210      -0.70404128 </v>
   <v>       0.21767602       0.93901828      -0.76389770 </v>
   <v>       0.06879285      -0.50391809      -0.09769693 </v>
   <v>      -0.16733116       0.01869776       0.41570349 </v>
   <v>      -0.51957813      -0.16272956       0.16187610 </v>
   <v>      -0.73997283      -0.81372424       0.51402930 </v>
   <v>       0.81940743      -0.29704533      -1.17255901 </v>
   <v>       0.39437048      -0.65540060      -1.59732949 </v>
   <v>      -0.65972833       0.68027625       0.66872806 </v>
   <v>      -1.24654187      -0.68896637      -0.25550830 </v>
   <v>       0.42325903      -1.41427520       1.34579212 </v>
   <v>      -0.02236389       1.32036943       0.72274033 </v>
  </varray>
  <varray name="stress" >
   <v>     -70.03452154       1.59089408      -1.50118620 </v>
   <v>       1.59089459     -87.99770644       1.23986284 </v>
   <v>      -1.50118547       1.23986346     -64.82833671 </v>
  </varray>
  <energy>
   <i name="e_fr_energy">   -650.91503287 </i>
   <i name="e_wo_entrp">   -650.80687541 </i>
   <i name="e_0_energy">     -0.21631492 </i>
  </energy>
  <time name="totalsc">  919.55  921.87</time>
 </calculation>
 <calculation>
  <scstep>
   <time name="dav">   29.90   29.92</time>
   <time name="total">   30.21   30.22</time>
   <energy>
    <i name="alphaZ">   4944.92874434 </i>
    <i name="ewald"> -45646.37551895 </i>
    <i name="hartreedc">  -7279.94950881 </i>
    <i name="XCdc">   2004.08258501 </i>
    <i name="pawpsdc">  31852.95626280 </i>
    <i name="pawaedc"> -31792.88472943 </i>
    <i name="eentropy">     -0.15368347 </i>
    <i name="bandstr">  -4571.05608070 </i>
    <i name="atom">  49823.73348182 </i>
    <i name="e_fr_energy">   -664.71844739 </i>
    <i name="e_wo_entrp">   -664.56476392 </i>
    <i name="e_0_energy">   -664.64160565 </i>
   </energy>
  </scstep>
  <scstep>
   <time name="diag">    1.96    1.99</time>
   <time name="diis">   17.93   17.99</time>
   <time name="orth">    0.51    0.51</time>
   <time name="total">   20.70   20.80</time>
   <energy>
    <i name="e_fr_energy">   -790.92363005 </i>
    <i name="e_wo_entrp">   -790.79347589 </i>
    <i name="e_0_energy">   -790.85855297 </i>
   </energy>
  </scstep>
  <scstep>
   <time name="diag">    1.97    1.97</time>
   <time name="diis">   20.01   20.05</time>
   <time name="orth">    0.49    0.49</time>
   <time name="total">   22.78   22.83</time>
   <energy>
    <i name="e_fr_energy">   -656.38796730 </i>
    <i name="e_wo_entrp">   -656.23050324 </i>
    <i name="e_0_energy">   -656.30923527 </i>
   </energy>
  </scstep>
  <scstep>
   <time name="diag">    1.97    1.97</time>
   <time name="diis">   21.53   21.58</time>
   <time name="orth">    0.49    0.49</time>
   <time name="total">   24.29   24.34</time>
   <energy>
    <i name="e_fr_energy">   -661.15588135 </i>
    <i name="e_wo_entrp">   -661.00524216 </i>
    <i name="e_0_energy">   -661.08056175 </i>
   </energy>
  </scstep>
  <scstep>
   <time name="diag">    1.95    1.95</time>
   <time name="diis">   19.92   19.94</time>
   <time name="orth">    0.49    0.49</time>
   <time name="total">   22.66   22.69</time>
   <energy>
    <i name="e_fr_energy">   -654.72677189 </i>
    <i name="e_wo_entrp">   -654.57914953 </i>
    <i name="e_0_energy">   -654.65296071 </i>
   </energy>
  </scstep>
  <scstep>
   <time name="diag">    1.98    1.99</time>
   <time name="diis">   20.54   20.58</time>
   <time name="orth">    0.50    0.50</time>
   <time name="total">   23.31   23.36</time>
   <energy>
    <i name="e_fr_energy">   -654.37839314 </i>
    <i name="e_wo_entrp">   -654.21710966 </i>
    <i name="e_0_energy">   -654.29775140 </i>
   </energy>
  </scstep>
  <scstep>
   <time name="diag">    1.95    1.95</time>
   <time name="diis">   22.34   22.35</time>
   <time name="orth">    0.49    0.49</time>
   <time name="total">   25.08   25.09</time>
   <energy>
    <i name="e_fr_energy">   -652.69592042 </i>
    <i name="e_wo_entrp">   -652.52772117 </i>
    <i name="e_0_energy">   -652.61182079 </i>
   </energy>
  </scstep>
  <scstep>
   <time name="diag">    1.96    1.98</time>
   <time name="diis">   20.47   20.55</time>
   <time name="orth">    0.50    0.50</time>
   <time name="total">   23.21   23.32</time>
   <energy>
    <i name="e_fr_energy">   -653.28927517 </i>
    <i name="e_wo_entrp">   -653.13583856 </i>
    <i name="e_0_energy">   -653.21255687 </i>
   </energy>
  </scstep>
  <scstep>
   <time name="diag">    1.97    1.97</time>
   <time name="diis">   21.00   21.11</time>
   <time name="orth">    0.50    0.50</time>
   <time name="total">   23.76   23.87</time>
   <energy>
    <i name="e_fr_energy">   -652.38732872 </i>
    <i name="e_wo_entrp">   -652.22125859 </i>
    <i name="e_0_energy">   -652.30429365 </i>
   </energy>
  </scstep>
  <scstep>
   <time name="diag">    1.96    1.96</time>
   <time name="diis">   25.29   25.34</time>
   <time name="orth">    0.49    0.49</time>
   <time name="total">   28.03   28.10</time>
   <energy>
    <i name="e_fr_energy">   -652.45168735 </i>
    <i name="e_wo_entrp">   -652.28315972 </i>
    <i name="e_0_energy">   -652.36742354 </i>
   </energy>
  </scstep>
  <scstep>
   <time name="diag">    1.96    1.96</time>
   <time name="diis">   24.99   25.05</time>
   <time name="orth">    0.49    0.50</time>
   <time name="total">   27.73   27.81</time>
   <energy>
    <i name="e_fr_energy">   -652.40186900 </i>
    <i name="e_wo_entrp">   -652.23380583 </i>
    <i name="e_0_energy">   -652.31783742 </i>
   </energy>
  </scstep>
  <scstep>
   <time name="diag">    1.96    1.96</time>
   <time name="diis">   25.29   25.39</time>
   <time name="orth">    0.50    0.50</time>
   <time name="total">   28.05   28.15</time>
   <energy>
    <i name="e_fr_energy">   -652.42250512 </i>
    <i name="e_wo_entrp">   -652.25412543 </i>
    <i name="e_0_energy">   -652.33831527 </i>
   </energy>
  </scstep>
  <scstep>
   <time name="diag">    1.96    1.99</time>
   <time name="diis">   25.21   25.26</time>
   <time name="orth">    0.49    0.49</time>
   <time name="total">   27.96   28.04</time>
   <energy>
    <i name="e_fr_energy">   -652.45678925 </i>
    <i name="e_wo_entrp">   -652.28695245 </i>
    <i name="e_0_energy">   -652.37187085 </i>
   </energy>
  </scstep>
  <scstep>
   <time name="diag">    1.96    1.97</time>
   <time name="diis">   24.86   24.92</time>
   <time name="orth">    0.49    0.49</time>
   <time name="total">   27.61   27.68</time>
   <energy>
    <i name="e_fr_energy">   -652.43703177 </i>
    <i name="e_wo_entrp">   -652.26844117 </i>
    <i name="e_0_energy">   -652.35273647 </i>
   </energy>
  </scstep>
  <scstep>
   <time name="diag">    1.95    1.96</time>
   <time name="diis">   25.02   25.08</time>
   <time name="orth">    0.49    0.49</time>
   <time name="total">   27.76   27.82</time>
   <energy>
    <i name="e_fr_energy">   -652.44096010 </i>
    <i name="e_wo_entrp">   -652.27196209 </i>
    <i name="e_0_energy">   -652.35646109 </i>
   </energy>
  </scstep>
  <scstep>
   <time name="diag">    1.96    1.96</time>
   <time name="diis">   24.89   24.92</time>
   <time name="orth">    0.50    0.50</time>
   <time name="total">   27.65   27.69</time>
   <energy>
    <i name="e_fr_energy">   -652.44262559 </i>
    <i name="e_wo_entrp">   -652.27375167 </i>
    <i name="e_0_energy">   -652.35818863 </i>
   </energy>
  </scstep>
  <scstep>
   <time name="diag">    1.96    1.97</time>
   <time name="diis">   25.65   25.69</time>
   <time name="orth">    0.50    0.50</time>
   <time name="total">   28.41   28.46</time>
   <energy>
    <i name="e_fr_energy">   -652.44413741 </i>
    <i name="e_wo_entrp">   -652.27527102 </i>
    <i name="e_0_energy">   -652.35970421 </i>
   </energy>
  </scstep>
  <scstep>
   <time name="diag">    1.94    1.94</time>
   <time name="diis">   24.68   24.73</time>
   <time name="orth">    0.49    0.49</time>
   <time name="total">   27.41   27.47</time>
   <energy>
    <i name="e_fr_energy">   -652.44463495 </i>
    <i name="e_wo_entrp">   -652.27575074 </i>
    <i name="e_0_energy">   -652.36019285 </i>
   </energy>
  </scstep>
  <scstep>
   <time name="diag">    1.95    1.95</time>
   <time name="diis">   23.16   23.19</time>
   <time name="orth">    0.49    0.49</time>
   <time name="total">   25.90   25.94</time>
   <energy>
    <i name="e_fr_energy">   -652.44510137 </i>
    <i name="e_wo_entrp">   -652.27621435 </i>
    <i name="e_0_energy">   -652.36065786 </i>
   </energy>
  </scstep>
  <scstep>
   <time name="diag">    1.96    1.96</time>
   <time name="diis">   22.69   22.71</time>
   <time name="orth">    0.49    0.49</time>
   <time name="total">   25.44   25.46</time>
   <energy>
    <i name="e_fr_energy">   -652.44530141 </i>
    <i name="e_wo_entrp">   -652.27641104 </i>
    <i name="e_0_energy">   -652.36085623 </i>
   </energy>
  </scstep>
  <scstep>
   <time name="diag">    1.96    1.96</time>
   <time name="diis">   21.67   21.77</time>
   <time name="orth">    0.49    0.49</time>
   <time name="total">   24.41   24.51</time>
   <energy>
    <i name="e_fr_energy">   -652.44546914 </i>
    <i name="e_wo_entrp">   -652.27657053 </i>
    <i name="e_0_energy">   -652.36101983 </i>
   </energy>
  </scstep>
  <scstep>
   <time name="diag">    1.95    1.96</time>
   <time name="diis">   21.77   21.80</time>
   <time name="orth">    0.49    0.49</time>
   <time name="total">   24.52   24.55</time>
   <energy>
    <i name="e_fr_energy">   -652.44555412 </i>
    <i name="e_wo_entrp">   -652.27666092 </i>
    <i name="e_0_energy">   -652.36110752 </i>
   </energy>
  </scstep>
  <scstep>
   <time name="diag">    1.96    1.96</time>
   <time name="diis">   20.41   20.49</time>
   <time name="orth">    0.51    0.51</time>
   <time name="total">   23.18   23.28</time>
   <energy>
    <i name="e_fr_energy">   -652.44561366 </i>
    <i name="e_wo_entrp">   -652.27671508 </i>
    <i name="e_0_energy">   -652.36116437 </i>
   </energy>
  </scstep>
  <scstep>
   <time name="diag">    1.99    2.01</time>
   <time name="diis">   21.21   21.25</time>
   <time name="orth">    0.49    0.49</time>
   <time name="total">   23.99   24.05</time>
   <energy>
    <i name="e_fr_energy">   -652.44564954 </i>
    <i name="e_wo_entrp">   -652.27675426 </i>
    <i name="e_0_energy">   -652.36120190 </i>
   </energy>
  </scstep>
  <scstep>
   <time name="diag">    1.98    1.98</time>
   <time name="diis">   19.75   19.79</time>
   <time name="orth">    0.49    0.49</time>
   <time name="total">   22.53   22.58</time>
   <energy>
    <i name="e_fr_energy">   -652.44567117 </i>
    <i name="e_wo_entrp">   -652.27677339 </i>
    <i name="e_0_energy">   -652.36122228 </i>
   </energy>
  </scstep>
  <scstep>
   <time name="diag">    1.95    1.96</time>
   <time name="diis">   18.46   18.50</time>
   <time name="orth">    0.49    0.49</time>
   <time name="total">   21.20   21.26</time>
   <energy>
    <i name="e_fr_energy">   -652.44568478 </i>
    <i name="e_wo_entrp">   -652.27678782 </i>
    <i name="e_0_energy">   -652.36123630 </i>
   </energy>
  </scstep>
  <scstep>
   <time name="diag">    1.97    1.97</time>
   <time name="diis">   17.21   17.26</time>
   <time name="orth">    0.49    0.49</time>
   <time name="total">   19.98   20.05</time>
   <energy>
    <i name="e_fr_energy">   -652.44569367 </i>
    <i name="e_wo_entrp">   -652.27679692 </i>
    <i name="e_0_energy">   -652.36124529 </i>
   </energy>
  </scstep>
  <scstep>
   <time name="diag">    1.95    1.95</time>
   <time name="diis">   16.23   16.27</time>
   <time name="orth">    0.49    0.49</time>
   <time name="total">   18.71   18.74</time>
   <energy>
    <i name="alphaZ">   4944.92874434 </i>
    <i name="ewald"> -45646.37551895 </i>
    <i name="hartreedc">  -6730.58060376 </i>
    <i name="XCdc">   1973.04729714 </i>
    <i name="pawpsdc">  32631.30667719 </i>
    <i name="pawaedc"> -32566.69048276 </i>
    <i name="eentropy">     -0.16889618 </i>
    <i name="bandstr">  -5081.64639838 </i>
    <i name="atom">  49823.73348182 </i>
    <i name="e_fr_energy">   -652.44569953 </i>
    <i name="e_wo_entrp">   -652.27680335 </i>
    <i name="e_0_energy">   -652.36125144 </i>
   </energy>
  </scstep>
  <structure>
   <crystal>
    <varray name="basis" >
     <v>       8.71972813       0.00483329      -0.00456075 </v>
     <v>       0.01051586       8.78457150       0.00381580 </v>
     <v>       0.02676551      -0.01148612       8.74004814 </v>
    </varray>
    <i name="volume">    669.48061622 </i>
    <varray name="rec_basis" >
     <v>       0.11468237      -0.00013713      -0.00035138 </v>
     <v>      -0.00006302       0.11383596       0.00014980 </v>
     <v>       0.00005987      -0.00004977       0.11441560 </v>
    </varray>
   </crystal>
   <varray name="positions" >
    <v>       0.99750110       0.99079008       0.99757583 </v>
    <v>       0.25450992       0.99309343       0.24752329 </v>
    <v>       0.25126312       0.50567576       0.24701679 </v>
    <v>       0.50295429       0.49491887       0.99778384 </v>
    <v>       0.50128685       0.24208875       0.75108600 </v>
    <v>       0.99618814       0.50143946       0.50129090 </v>
    <v>       0.49830833       0.76100713       0.74926139 </v>
    <v>       0.99754560       0.23613992       0.26035032 </v>
    <v>       0.75356715       0.74537613       0.00911766 </v>
    <v>       0.00427505       0.25350594       0.74106209 </v>
    <v>       0.75023460       0.25767426       0.50813357 </v>
    <v>       0.99924332       0.74772082       0.74851079 </v>
    <v>       0.25505769       0.49739482       0.74971002 </v>
    <v>       0.25032505       0.24677361       0.99704642 </v>
    <v>       0.50452080       0.25047857       0.25133516 </v>
    <v>       0.74067524       0.99070450       0.26651308 </v>
    <v>       0.75459694       0.25305039       0.99348518 </v>
    <v>       0.25230245       0.75209352       0.99969635 </v>
    <v>       0.25652480       0.24836523       0.49985553 </v>
    <v>       0.24916669       0.75029784       0.49954790 </v>
    <v>       0.24789988       0.25009608       0.24878358 </v>
    <v>       0.25940892       0.00019938       0.99377798 </v>
    <v>       0.00226100       0.24825245       0.00190852 </v>
    <v>       0.75640789       0.24814266       0.25671616 </v>
    <v>       0.74789954       0.99434457       0.00542221 </v>
    <v>       0.49957317       0.99775640       0.24820995 </v>
    <v>       0.99265136       0.48102365       0.24360005 </v>
    <v>       0.50799899       0.75938534       0.00605659 </v>
    <v>       0.98817244       0.00239445       0.74113696 </v>
    <v>       0.75560054       0.24422476       0.74618617 </v>
    <v>       0.73779262       0.00425397       0.51327394 </v>
    <v>       0.50780154       0.23257494       0.50089906 </v>
    <v>       0.50312670       0.00050564       0.73787827 </v>
    <v>       0.00218211       0.00197351       0.25233175 </v>
    <v>       0.50408465       0.24779909      -0.00298690 </v>
    <v>       0.25211052       0.74894837       0.24959830 </v>
    <v>       0.24522388       0.49982953       0.99694850 </v>
    <v>       0.99598159       0.74326269       0.00456153 </v>
    <v>       0.75282374       0.74098665       0.25192000 </v>
    <v>       0.75766930       0.50523667       0.00285661 </v>
    <v>       0.49879565       0.50843694       0.25356966 </v>
    <v>       0.25054892       0.25018716       0.74854121 </v>
    <v>       0.25348353       0.99801342       0.50550332 </v>
    <v>       0.99627199       0.24599166       0.50108684 </v>
    <v>       0.24458771       0.75338791       0.75031791 </v>
    <v>       0.25534139       0.50028730       0.49869922 </v>
    <v>       0.99173450       0.75782036       0.50140899 </v>
    <v>       0.99327153       0.50058426       0.75158578 </v>
    <v>       0.74764784       0.75769677       0.74962886 </v>
    <v>       0.74700597       0.49609323       0.50333661 </v>
    <v>       0.50496001       0.75726226       0.49577284 </v>
    <v>       0.50153902       0.50013358       0.74423166 </v>
    <v>       0.51751222       0.01685060       0.97694966 </v>
    <v>       0.99960717       0.51476533       0.98200651 </v>
    <v>       0.50416519       0.73658448       0.25852264 </v>
    <v>       0.23688817       0.01092351       0.74832395 </v>
    <v>       0.47677127       0.98221460       0.49805380 </v>
    <v>       0.73878640       0.97436974       0.76728468 </v>
    <v>       0.00309921       0.77414651       0.25469052 </v>
    <v>       0.73767317       0.51117348       0.25803762 </v>
    <v>       0.02004163       0.00146038       0.49917981 </v>
    <v>       0.49866499       0.52465727       0.49780076 </v>
    <v>       0.74102471       0.52075827       0.74541458 </v>
    <v>       0.75386070       0.73642089       0.49507132 </v>
   </varray>
  </structure>
  <varray name="forces" >
   <v>       0.42447761       0.04879671      -0.49951042 </v>
   <v>      -0.00200608      -0.14156451       0.19041221 </v>
   <v>       0.17401664       0.29094336      -0.31528608 </v>
   <v>      -0.18328471      -0.14208752       0.04602824 </v>
   <v>      -0.48463613      -0.49790134       0.16778741 </v>
   <v>       0.66095766      -0.32392535       0.37068444 </v>
   <v>       0.00229002       0.35735016      -0.22872515 </v>
   <v>       0.58044023       0.53768071      -0.62542826 </v>
   <v>      -0.64362044       0.57659409      -0.53801009 </v>
   <v>       0.42349404      -0.61764330       0.67832701 </v>
   <v>      -0.21933970      -0.77228584       0.10700688 </v>
   <v>       0.02456506       0.43409717       0.63594529 </v>
   <v>      -0.56442802       0.20144602       0.26645754 </v>
   <v>      -0.10646286      -0.19144878       0.15915226 </v>
   <v>      -0.35678239       0.00460333      -0.24244569 </v>
   <v>       0.17447217       0.18376900      -0.59503074 </v>
   <v>       0.02257472      -0.37254042      -0.02953838 </v>
   <v>       0.43623910       0.22788171       0.07209792 </v>
   <v>       0.00121443       0.02789169      -0.00883022 </v>
   <v>      -0.15567674       0.14510159       0.07577501 </v>
   <v>      -0.13103967       0.05266146      -0.00037018 </v>
   <v>      -0.04836301      -0.01822926      -0.03204358 </v>
   <v>      -0.07393704       0.00499000       0.11877632 </v>
   <v>      -0.20592124       0.25017880      -0.08572129 </v>
   <v>      -0.22050424      -0.10680234      -0.83591383 </v>
   <v>      -0.72327027      -0.50005493      -0.03920995 </v>
   <v>       0.14166869       0.77668359       0.21621546 </v>
   <v>       0.04223612       0.00381216      -0.31469850 </v>
   <v>      -0.10922047       0.02354678       0.48717168 </v>
   <v>      -0.24602407       0.23649124      -0.01935766 </v>
   <v>       0.59467571      -0.34020460       0.46184569 </v>
   <v>       0.16165113       0.35718273       0.23195285 </v>
   <v>       0.35158663       0.04528959       0.60719757 </v>
   <v>      -0.30813849      -0.34783720      -0.35670193 </v>
   <v>      -0.16193865      -0.02904213      -0.04099170 </v>
   <v>       0.49275347      -0.07864152      -0.12588139 </v>
   <v>      -0.10508402       0.02727675       0.25548014 </v>
   <v>       0.49293783      -0.14778302       0.09471421 </v>
   <v>      -0.41528954       0.30761011       0.18152404 </v>
   <v>       0.21546264      -0.29332810       0.08910377 </v>
   <v>      -0.28554102       0.08791769      -0.44718995 </v>
   <v>       0.20368853      -0.41753443       0.08428003 </v>
   <v>       0.33269263       0.14382344       0.56488744 </v>
   <v>       0.26357285       0.45218658      -0.11336005 </v>
   <v>       0.45661632       0.38356252       0.05260201 </v>
   <v>      -0.43413370      -0.09040235      -0.04142451 </v>
   <v>       0.41945342      -0.32729531      -0.14890296 </v>
   <v>       0.38412897       0.03213968       0.27102340 </v>
   <v>       0.11890988      -0.11545881      -0.12981131 </v>
   <v>      -0.15512106       0.40239939      -0.30113313 </v>
   <v>       0.16591975       0.61078036      -0.35923498 </v>
   <v>      -0.08752949      -0.09698872       0.19331446 </v>
   <v>       0.10312698       0.16769602      -0.53864653 </v>
   <v>       0.13219044       0.51459670      -0.65757864 </v>
   <v>      -0.15185797      -0.27891204       0.05330460 </v>
   <v>      -0.44496252      -0.42349362       0.26279700 </v>
   <v>       0.14183094       0.26943564      -0.00660603 </v>
   <v>      -0.77293772       0.28994331       0.58171621 </v>
   <v>       0.01266494      -0.61534889      -0.56448001 </v>
   <v>      -0.27605198      -0.63007969      -0.87889680 </v>
   <v>      -0.19164160       0.41288798       0.05034912 </v>
   <v>       0.25787439      -0.79399735      -0.29898800 </v>
   <v>       0.32217984      -0.29384593       1.36628158 </v>
   <v>      -0.46781892       0.11542924       0.42573617 </v>
  </varray>
  <varray name="stress" >
   <v>     156.48670525      -0.32677744       0.24611885 </v>
   <v>      -0.32677642     152.51434095       0.10305918 </v>
   <v>       0.24611664       0.10305970     145.52188927 </v>
  </varray>
  <energy>
   <i name="e_fr_energy">   -652.44569953 </i>
   <i name="e_wo_entrp">   -652.36125144 </i>
   <i name="e_0_energy">     -0.16889618 </i>
  </energy>
  <time name="totalsc">  744.49  746.28</time>
 </calculation>
 <calculation>
  <scstep>
   <time name="dav">   30.67   30.77</time>
   <time name="total">   30.98   31.08</time>
   <energy>
    <i name="alphaZ">   4817.36768475 </i>
    <i name="ewald"> -45257.50967054 </i>
    <i name="hartreedc">  -6663.06407951 </i>
    <i name="XCdc">   1955.35470589 </i>
    <i name="pawpsdc">  32631.52105000 </i>
    <i name="pawaedc"> -32566.79089326 </i>
    <i name="eentropy">     -0.19081110 </i>
    <i name="bandstr">  -5395.23657133 </i>
    <i name="atom">  49823.73348182 </i>
    <i name="e_fr_energy">   -654.81510327 </i>
    <i name="e_wo_entrp">   -654.62429217 </i>
    <i name="e_0_energy">   -654.71969772 </i>
   </energy>
  </scstep>
  <scstep>
   <time name="diag">    1.96    1.96</time>
   <time name="diis">   21.96   22.00</time>
   <time name="orth">    0.49    0.49</time>
   <time name="total">   24.69   24.74</time>
   <energy>
    <i name="e_fr_energy">   -695.15206917 </i>
    <i name="e_wo_entrp">   -695.01330216 </i>
    <i name="e_0_energy">   -695.08268566 </i>
   </energy>
  </scstep>
  <scstep>
   <time name="diag">    1.96    1.96</time>
   <time name="diis">   19.26   19.29</time>
   <time name="orth">    0.49    0.49</time>
   <time name="total">   22.01   22.04</time>
   <energy>
    <i name="e_fr_energy">   -654.35440462 </i>
    <i name="e_wo_entrp">   -654.18841072 </i>
    <i name="e_0_energy">   -654.27140767 </i>
   </energy>
  </scstep>
  <scstep>
   <time name="diag">    1.98    1.99</time>
   <time name="diis">   23.09   23.13</time>
   <time name="orth">    0.50    0.50</time>
   <time name="total">   25.86   25.91</time>
   <energy>
    <i name="e_fr_energy">   -654.11782679 </i>
    <i name="e_wo_entrp">   -653.94536128 </i>
    <i name="e_0_energy">   -654.03159404 </i>
   </energy>
  </scstep>
  <scstep>
   <time name="diag">    1.96    1.96</time>
   <time name="diis">   19.81   19.83</time>
   <time name="orth">    0.50    0.50</time>
   <time name="total">   22.56   22.59</time>
   <energy>
    <i name="e_fr_energy">   -653.66260357 </i>
    <i name="e_wo_entrp">   -653.48264132 </i>
    <i name="e_0_energy">   -653.57262244 </i>
   </energy>
  </scstep>
  <scstep>
   <time name="diag">    1.95    1.96</time>
   <time name="diis">   20.33   20.43</time>
   <time name="orth">    0.49    0.50</time>
   <time name="total">   23.08   23.18</time>
   <energy>
    <i name="e_fr_energy">   -653.26235376 </i>
    <i name="e_wo_entrp">   -653.07699772 </i>
    <i name="e_0_energy">   -653.16967574 </i>
   </energy>
  </scstep>
  <scstep>
   <time name="diag">    1.96    1.96</time>
   <time name="diis">   20.65   20.71</time>
   <time name="orth">    0.49    0.49</time>
   <time name="total">   23.39   23.46</time>
   <energy>
    <i name="e_fr_energy">   -653.11145867 </i>
    <i name="e_wo_entrp">   -652.93059683 </i>
    <i name="e_0_energy">   -653.02102775 </i>
   </energy>
  </scstep>
  <scstep>
   <time name="diag">    1.94    1.95</time>
   <time name="diis">   20.92   20.99</time>
   <time name="orth">    0.50    0.50</time>
   <time name="total">   23.65   23.72</time>
   <energy>
    <i name="e_fr_energy">   -653.10864718 </i>
    <i name="e_wo_entrp">   -652.92074455 </i>
    <i name="e_0_energy">   -653.01469587 </i>
   </energy>
  </scstep>
  <scstep>
   <time name="diag">    1.95    1.95</time>
   <time name="diis">   23.34   23.41</time>
   <time name="orth">    0.49    0.49</time>
   <time name="total">   26.07   26.15</time>
   <energy>
    <i name="e_fr_energy">   -653.05093761 </i>
    <i name="e_wo_entrp">   -652.86577476 </i>
    <i name="e_0_energy">   -652.95835619 </i>
   </energy>
  </scstep>
  <scstep>
   <time name="diag">    1.95    1.95</time>
   <time name="diis">   24.07   24.11</time>
   <time name="orth">    0.49    0.49</time>
   <time name="total">   26.80   26.85</time>
   <energy>
    <i name="e_fr_energy">   -653.05683579 </i>
    <i name="e_wo_entrp">   -652.87143597 </i>
    <i name="e_0_energy">   -652.96413588 </i>
   </energy>
  </scstep>
  <scstep>
   <time name="diag">    1.95    1.95</time>
   <time name="diis">   23.37   23.45</time>
   <time name="orth">    0.50    0.50</time>
   <time name="total">   26.10   26.19</time>
   <energy>
    <i name="e_fr_energy">   -653.04664613 </i>
    <i name="e_wo_entrp">   -652.86062915 </i>
    <i name="e_0_energy">   -652.95363764 </i>
   </energy>
  </scstep>
  <scstep>
   <time name="diag">    1.95    1.95</time>
   <time name="diis">   25.09   25.15</time>
   <time name="orth">    0.50    0.51</time>
   <time name="total">   27.83   27.90</time>
   <energy>
    <i name="e_fr_energy">   -653.05055020 </i>
    <i name="e_wo_entrp">   -652.86415020 </i>
    <i name="e_0_energy">   -652.95735020 </i>
   </energy>
  </scstep>
  <scstep>
   <time name="diag">    1.97    1.98</time>
   <time name="diis">   24.63   24.70</time>
   <time name="orth">    0.49    0.49</time>
   <time name="total">   27.38   27.47</time>
   <energy>
    <i name="e_fr_energy">   -653.04919671 </i>
    <i name="e_wo_entrp">   -652.86301235 </i>
    <i name="e_0_energy">   -652.95610453 </i>
   </energy>
  </scstep>
  <scstep>
   <time name="diag">    1.96    1.96</time>
   <time name="diis">   25.62   25.67</time>
   <time name="orth">    0.49    0.49</time>
[...]
      </set>
     </set>
    </set>
   </array>
  </eigenvalues>
  <separator name="orbital magnetization" >
   <v name="MAGDIPOLOUT">      0.00000000      0.00000000      0.00000000</v>
  </separator>
  <dos>
   <i name="efermi">      8.94856420 </i>
   <total>
    <array>
     <dimension dim="1">gridpoints</dimension>
     <dimension dim="2">spin</dimension>
     <field>energy</field>
     <field>total</field>
     <field>integrated</field>
     <set>
      <set comment="spin 1">
       <r>   -50.0794     0.0000     0.0000 </r>
       <r>   -49.8607     0.0000     0.0000 </r>
       <r>   -49.6420     0.0000     0.0000 </r>
       <r>   -49.4233     0.0000     0.0000 </r>
       <r>   -49.2046     0.0000     0.0000 </r>
       <r>   -48.9859     0.0000     0.0000 </r>
       <r>   -48.7672     0.0000     0.0000 </r>
       <r>   -48.5485     0.0000     0.0000 </r>
       <r>   -48.3298     0.0000     0.0000 </r>
       <r>   -48.1111     0.0000     0.0000 </r>
       <r>   -47.8924     0.0000     0.0000 </r>
       <r>   -47.6737     0.0000     0.0000 </r>
       <r>   -47.4550     0.0000     0.0000 </r>
       <r>   -47.2363     0.2251     0.0492 </r>
       <r>   -47.0176    10.7170     2.3931 </r>
       <r>   -46.7989    29.2836     8.7974 </r>
       <r>   -46.5802    23.5105    13.9392 </r>
       <r>   -46.3615     0.2779    14.0000 </r>
       <r>   -46.1428     0.0000    14.0000 </r>
       <r>   -45.9241     0.0000    14.0000 </r>
       <r>   -45.7054     0.0000    14.0000 </r>
       <r>   -45.4867     0.0000    14.0000 </r>
       <r>   -45.2680     0.0000    14.0000 </r>
       <r>   -45.0493     0.0000    14.0000 </r>
       <r>   -44.8306     0.0000    14.0000 </r>
       <r>   -44.6119     0.0000    14.0000 </r>
       <r>   -44.3932     0.0000    14.0000 </r>
       <r>   -44.1745     0.0000    14.0000 </r>
       <r>   -43.9558     0.0000    14.0000 </r>
       <r>   -43.7371     0.0000    14.0000 </r>
       <r>   -43.5184     0.0000    14.0000 </r>
       <r>   -43.2997     0.0000    14.0000 </r>
       <r>   -43.0810     0.0000    14.0000 </r>
       <r>   -42.8623     0.0000    14.0000 </r>
       <r>   -42.6436     0.0000    14.0000 </r>
       <r>   -42.4249     0.0000    14.0000 </r>
       <r>   -42.2062     0.0000    14.0000 </r>
       <r>   -41.9875     0.0000    14.0000 </r>
       <r>   -41.7688     0.0000    14.0000 </r>
       <r>   -41.5501     0.0000    14.0000 </r>
       <r>   -41.3314     0.0000    14.0000 </r>
       <r>   -41.1127     0.0000    14.0000 </r>
       <r>   -40.8940     0.0000    14.0000 </r>
       <r>   -40.6753     0.0000    14.0000 </r>
       <r>   -40.4566     0.5607    14.1226 </r>
       <r>   -40.2379    16.7474    17.7853 </r>
       <r>   -40.0192     9.9902    19.9702 </r>
       <r>   -39.8005     9.5720    22.0636 </r>
       <r>   -39.5818    17.8134    25.9594 </r>
       <r>   -39.3631     4.8393    27.0178 </r>
       <r>   -39.1444     4.4826    27.9982 </r>
       <r>   -38.9257     0.0084    28.0000 </r>
       <r>   -38.7069     0.0000    28.0000 </r>
       <r>   -38.4882     0.0000    28.0000 </r>
       <r>   -38.2695     0.0000    28.0000 </r>
       <r>   -38.0508     0.0000    28.0000 </r>
       <r>   -37.8321     0.0000    28.0000 </r>
       <r>   -37.6134     0.0000    28.0000 </r>
       <r>   -37.3947     0.0000    28.0000 </r>
       <r>   -37.1760     0.0000    28.0000 </r>
       <r>   -36.9573     0.0000    28.0000 </r>
       <r>   -36.7386     0.0000    28.0000 </r>
       <r>   -36.5199     0.0000    28.0000 </r>
       <r>   -36.3012     0.0000    28.0000 </r>
       <r>   -36.0825     0.0000    28.0000 </r>
       <r>   -35.8638     0.0000    28.0000 </r>
       <r>   -35.6451     0.0000    28.0000 </r>
       <r>   -35.4264     0.0000    28.0000 </r>
       <r>   -35.2077     0.0000    28.0000 </r>
       <r>   -34.9890     0.0566    28.0124 </r>
       <r>   -34.7703    12.4395    30.7329 </r>
       <r>   -34.5516    91.5793    50.7614 </r>
       <r>   -34.3329    58.7231    63.6043 </r>
       <r>   -34.1142     1.8093    64.0000 </r>
       <r>   -33.8955     0.0001    64.0000 </r>
       <r>   -33.6768     0.0000    64.0000 </r>
       <r>   -33.4581     0.0000    64.0000 </r>
       <r>   -33.2394     0.0000    64.0000 </r>
       <r>   -33.0207     0.0000    64.0000 </r>
       <r>   -32.8020     0.0000    64.0000 </r>
       <r>   -32.5833     0.0000    64.0000 </r>
       <r>   -32.3646     0.0000    64.0000 </r>
       <r>   -32.1459     0.0000    64.0000 </r>
       <r>   -31.9272     0.0000    64.0000 </r>
       <r>   -31.7085     0.0000    64.0000 </r>
       <r>   -31.4898     0.0000    64.0000 </r>
       <r>   -31.2711     0.0000    64.0000 </r>
       <r>   -31.0524     0.0000    64.0000 </r>
       <r>   -30.8337     0.0000    64.0000 </r>
       <r>   -30.6150     0.6527    64.1428 </r>
       <r>   -30.3963    46.9853    74.4185 </r>
       <r>   -30.1776    83.3311    92.6432 </r>
       <r>   -29.9589    33.2505    99.9151 </r>
       <r>   -29.7402     0.3883   100.0000 </r>
       <r>   -29.5215     0.0000   100.0000 </r>
       <r>   -29.3028     0.0000   100.0000 </r>
       <r>   -29.0841     0.0000   100.0000 </r>
       <r>   -28.8654     0.0000   100.0000 </r>
       <r>   -28.6467     0.0000   100.0000 </r>
       <r>   -28.4280     0.0000   100.0000 </r>
       <r>   -28.2093     0.0000   100.0000 </r>
       <r>   -27.9906     0.0000   100.0000 </r>
       <r>   -27.7719     0.0000   100.0000 </r>
       <r>   -27.5532     0.0000   100.0000 </r>
       <r>   -27.3345     0.0000   100.0000 </r>
       <r>   -27.1158     0.0018   100.0004 </r>
       <r>   -26.8971     3.9480   100.8638 </r>
       <r>   -26.6784    33.9451   108.2877 </r>
       <r>   -26.4597    38.3847   116.6825 </r>
       <r>   -26.2410    53.4941   128.3817 </r>
       <r>   -26.0223    33.2775   135.6596 </r>
       <r>   -25.8036     1.5566   136.0000 </r>
       <r>   -25.5849     0.0001   136.0000 </r>
       <r>   -25.3662     0.0000   136.0000 </r>
       <r>   -25.1475     0.0000   136.0000 </r>
       <r>   -24.9287     0.0000   136.0000 </r>
       <r>   -24.7100     0.0000   136.0000 </r>
       <r>   -24.4913     0.0000   136.0000 </r>
       <r>   -24.2726     0.0000   136.0000 </r>
       <r>   -24.0539     0.0000   136.0000 </r>
       <r>   -23.8352     0.0000   136.0000 </r>
       <r>   -23.6165     0.0001   136.0000 </r>
       <r>   -23.3978     1.4070   136.3077 </r>
       <r>   -23.1791    33.4837   143.6307 </r>
       <r>   -22.9604    88.9401   163.0820 </r>
       <r>   -22.7417    58.4990   175.8758 </r>
       <r>   -22.5230     9.6750   177.9918 </r>
       <r>   -22.3043     0.0376   178.0000 </r>
       <r>   -22.0856     0.0000   178.0000 </r>
       <r>   -21.8669     0.0000   178.0000 </r>
       <r>   -21.6482     0.0000   178.0000 </r>
       <r>   -21.4295     0.0000   178.0000 </r>
       <r>   -21.2108     0.0000   178.0000 </r>
       <r>   -20.9921     0.0000   178.0000 </r>
       <r>   -20.7734     0.0000   178.0000 </r>
       <r>   -20.5547     0.0000   178.0000 </r>
       <r>   -20.3360     0.0000   178.0000 </r>
       <r>   -20.1173     0.0000   178.0000 </r>
       <r>   -19.8986     0.0000   178.0000 </r>
       <r>   -19.6799     0.0000   178.0000 </r>
       <r>   -19.4612     0.0000   178.0000 </r>
       <r>   -19.2425     0.0000   178.0000 </r>
       <r>   -19.0238     0.4143   178.0906 </r>
       <r>   -18.8051    10.3750   180.3596 </r>
       <r>   -18.5864    29.9159   186.9023 </r>
       <r>   -18.3677    36.9532   194.9840 </r>
       <r>   -18.1490    34.3529   202.4970 </r>
       <r>   -17.9303    51.9427   213.8570 </r>
       <r>   -17.7116    22.6524   218.8111 </r>
       <r>   -17.4929     5.4348   219.9997 </r>
       <r>   -17.2742     0.0014   220.0000 </r>
       <r>   -17.0555     0.0000   220.0000 </r>
       <r>   -16.8368     0.0000   220.0000 </r>
       <r>   -16.6181     0.0000   220.0000 </r>
       <r>   -16.3994     0.0000   220.0000 </r>
       <r>   -16.1807     0.0000   220.0000 </r>
       <r>   -15.9620     0.0000   220.0000 </r>
       <r>   -15.7433     0.0000   220.0000 </r>
       <r>   -15.5246     0.0000   220.0000 </r>
       <r>   -15.3059     0.0000   220.0000 </r>
       <r>   -15.0872     0.0000   220.0000 </r>
       <r>   -14.8685     0.0000   220.0000 </r>
       <r>   -14.6498     0.0000   220.0000 </r>
       <r>   -14.4311     0.0000   220.0000 </r>
       <r>   -14.2124     0.0000   220.0000 </r>
       <r>   -13.9937     0.0000   220.0000 </r>
       <r>   -13.7750     0.0000   220.0000 </r>
       <r>   -13.5563     0.0000   220.0000 </r>
       <r>   -13.3376     0.0000   220.0000 </r>
       <r>   -13.1189     0.0000   220.0000 </r>
       <r>   -12.9002     0.0000   220.0000 </r>
       <r>   -12.6815     0.0000   220.0000 </r>
       <r>   -12.4628     0.0000   220.0000 </r>
       <r>   -12.2441     0.0000   220.0000 </r>
       <r>   -12.0254     0.0000   220.0000 </r>
       <r>   -11.8067     0.0000   220.0000 </r>
       <r>   -11.5880     0.0000   220.0000 </r>
       <r>   -11.3692     0.0000   220.0000 </r>
       <r>   -11.1505     0.0000   220.0000 </r>
       <r>   -10.9318     0.0000   220.0000 </r>
       <r>   -10.7131     0.0000   220.0000 </r>
       <r>   -10.4944     0.0000   220.0000 </r>
       <r>   -10.2757     0.0000   220.0000 </r>
       <r>   -10.0570     0.0000   220.0000 </r>
       <r>    -9.8383     0.0000   220.0000 </r>
       <r>    -9.6196     0.0000   220.0000 </r>
       <r>    -9.4009     0.0000   220.0000 </r>
       <r>    -9.1822     0.0000   220.0000 </r>
       <r>    -8.9635     0.0000   220.0000 </r>
       <r>    -8.7448     0.0000   220.0000 </r>
       <r>    -8.5261     0.0000   220.0000 </r>
       <r>    -8.3074     0.0000   220.0000 </r>
       <r>    -8.0887     0.0000   220.0000 </r>
       <r>    -7.8700     0.0000   220.0000 </r>
       <r>    -7.6513     0.0000   220.0000 </r>
       <r>    -7.4326     0.1902   220.0416 </r>
       <r>    -7.2139     5.1836   221.1753 </r>
       <r>    -6.9952     5.0010   222.2690 </r>
       <r>    -6.7765    14.7964   225.5050 </r>
       <r>    -6.5578    12.4392   228.2255 </r>
       <r>    -6.3391    15.1677   231.5427 </r>
       <r>    -6.1204    12.1440   234.1986 </r>
       <r>    -5.9017    15.8032   237.6548 </r>
       <r>    -5.6830    21.2161   242.2947 </r>
       <r>    -5.4643    14.4722   245.4598 </r>
       <r>    -5.2456     2.4689   245.9998 </r>
       <r>    -5.0269     0.0009   246.0000 </r>
       <r>    -4.8082     0.0000   246.0000 </r>
       <r>    -4.5895     0.0004   246.0001 </r>
       <r>    -4.3708     0.5884   246.1288 </r>
       <r>    -4.1521     5.6569   247.3659 </r>
       <r>    -3.9334     2.8803   247.9959 </r>
       <r>    -3.7147     3.9235   248.8539 </r>
       <r>    -3.4960    10.2249   251.0901 </r>
       <r>    -3.2773    12.6762   253.8624 </r>
       <r>    -3.0586    16.3996   257.4491 </r>
       <r>    -2.8399    24.1198   262.7241 </r>
       <r>    -2.6212    20.9019   267.2954 </r>
       <r>    -2.4025    17.0335   271.0206 </r>
       <r>    -2.1838    19.4922   275.2836 </r>
       <r>    -1.9651    18.9000   279.4171 </r>
       <r>    -1.7464     9.9212   281.5868 </r>
       <r>    -1.5277     8.2314   283.3871 </r>
       <r>    -1.3090     2.6617   283.9692 </r>
       <r>    -1.0903     0.1409   284.0000 </r>
       <r>    -0.8716     0.0001   284.0000 </r>
       <r>    -0.6529     0.0000   284.0000 </r>
       <r>    -0.4342     0.0000   284.0000 </r>
       <r>    -0.2155     0.0000   284.0000 </r>
       <r>     0.0032     0.0000   284.0000 </r>
       <r>     0.2219     0.0000   284.0000 </r>
       <r>     0.4406     0.0012   284.0003 </r>
       <r>     0.6593     0.3905   284.0857 </r>
       <r>     0.8780     1.3751   284.3864 </r>
       <r>     1.0967     6.6282   285.8360 </r>
       <r>     1.3154     9.8501   287.9902 </r>
       <r>     1.5341    12.5016   290.7244 </r>
       <r>     1.7528    14.7949   293.9600 </r>
       <r>     1.9715    20.5599   298.4565 </r>
       <r>     2.1902    28.6141   304.7145 </r>
       <r>     2.4090    24.9352   310.1678 </r>
       <r>     2.6277    27.3993   316.1601 </r>
       <r>     2.8464    30.4529   322.8202 </r>
       <r>     3.0651    31.5916   329.7293 </r>
       <r>     3.2838    38.5136   338.1523 </r>
       <r>     3.5025    51.3417   349.3808 </r>
       <r>     3.7212    59.3878   362.3690 </r>
       <r>     3.9399    63.9576   376.3567 </r>
       <r>     4.1586    65.9117   390.7717 </r>
       <r>     4.3773    63.4722   404.6531 </r>
       <r>     4.5960    58.0921   417.3580 </r>
       <r>     4.8147    49.8518   428.2606 </r>
       <r>     5.0334    46.2937   438.3851 </r>
       <r>     5.2521    37.5677   446.6013 </r>
       <r>     5.4708    31.1026   453.4035 </r>
       <r>     5.6895    31.3268   460.2547 </r>
       <r>     5.9082    28.1118   466.4028 </r>
       <r>     6.1269    20.4413   470.8733 </r>
       <r>     6.3456    14.1887   473.9764 </r>
       <r>     6.5643     8.5879   475.8546 </r>
       <r>     6.7830     9.3588   477.9014 </r>
       <r>     7.0017    17.4491   481.7175 </r>
       <r>     7.2204    20.5850   486.2195 </r>
       <r>     7.4391    16.9185   489.9196 </r>
       <r>     7.6578    18.7333   494.0166 </r>
       <r>     7.8765    18.9316   498.1570 </r>
       <r>     8.0952    23.4753   503.2911 </r>
       <r>     8.3139    25.1529   508.7920 </r>
       <r>     8.5326    30.2598   515.4099 </r>
       <r>     8.7513    26.1256   521.1236 </r>
       <r>     8.9700    24.6759   526.5202 </r>
       <r>     9.1887    27.8165   532.6038 </r>
       <r>     9.4074    34.9945   540.2571 </r>
       <r>     9.6261    39.3953   548.8729 </r>
       <r>     9.8448    42.6173   558.1934 </r>
       <r>    10.0635    43.7331   567.7579 </r>
       <r>    10.2822    43.0131   577.1649 </r>
       <r>    10.5009    44.9912   587.0046 </r>
       <r>    10.7196    43.5327   596.5252 </r>
       <r>    10.9383    44.6993   606.3010 </r>
       <r>    11.1570    45.2261   616.1921 </r>
       <r>    11.3757    45.5493   626.1538 </r>
       <r>    11.5944    43.5844   635.6857 </r>
       <r>    11.8131    47.0473   645.9751 </r>
       <r>    12.0318    49.3116   656.7596 </r>
       <r>    12.2505    45.6655   666.7467 </r>
       <r>    12.4692    19.6686   671.0483 </r>
       <r>    12.6879     4.3143   671.9918 </r>
       <r>    12.9066     0.0375   672.0000 </r>
       <r>    13.1253     0.0000   672.0000 </r>
       <r>    13.3440     0.0000   672.0000 </r>
       <r>    13.5627     0.0000   672.0000 </r>
       <r>    13.7814     0.0000   672.0000 </r>
       <r>    14.0001     0.0000   672.0000 </r>
       <r>    14.2188     0.0000   672.0000 </r>
       <r>    14.4375     0.0000   672.0000 </r>
       <r>    14.6562     0.0000   672.0000 </r>
       <r>    14.8749     0.0000   672.0000 </r>
       <r>    15.0936     0.0000   672.0000 </r>
       <r>    15.3123     0.0000   672.0000 </r>
       <r>    15.5310     0.0000   672.0000 </r>
      </set>
     </set>
    </array>
   </total>
  </dos>
 </calculation>
 <structure name="finalpos" >
  <crystal>
   <varray name="basis" >
    <v>       8.87674620      -0.00516316      -0.02144235 </v>
    <v>       0.00053107       8.90686126      -0.01286990 </v>
    <v>       0.01042526      -0.02830379       8.90617646 </v>
   </varray>
   <i name="volume">    704.15624484 </i>
   <varray name="rec_basis" >
    <v>       0.11265357      -0.00000691      -0.00013189 </v>
    <v>       0.00006617       0.11227351       0.00035673 </v>
    <v>       0.00027132       0.00016222       0.11228183 </v>
   </varray>
  </crystal>
  <varray name="positions" >
   <v>       0.00035300       0.98505328       0.99874731 </v>
   <v>       0.24569296       0.98975407       0.25716359 </v>
   <v>       0.25813937       0.51210012       0.24622524 </v>
   <v>       0.50369459       0.48741846       0.99310596 </v>
   <v>       0.49044494       0.24782404       0.74836018 </v>
   <v>       0.00078351       0.49871408       0.50669478 </v>
   <v>       0.50588214       0.75609733       0.73776673 </v>
   <v>      -0.00165677       0.24134241       0.25575610 </v>
   <v>       0.75006256       0.74645583       0.00460976 </v>
   <v>       0.00879685       0.24512729       0.74449614 </v>
   <v>       0.75040931       0.25680749       0.51096458 </v>
   <v>       0.00227472       0.75184331       0.75154991 </v>
   <v>       0.24979934       0.50445779       0.75299320 </v>
   <v>       0.24620395       0.24515713      -0.00117311 </v>
   <v>       0.49821967       0.24335987       0.24816660 </v>
   <v>       0.73659763       0.98975850       0.26299617 </v>
   <v>       0.75136087       0.24509974       0.98948629 </v>
   <v>       0.26544709       0.75698512       0.00134898 </v>
   <v>       0.25295195       0.25161182       0.50104396 </v>
   <v>       0.24826903       0.75188679       0.50139489 </v>
   <v>       0.24362022       0.25121827       0.25031697 </v>
   <v>       0.24594352      -0.00000646       0.00270417 </v>
   <v>      -0.00150211       0.24055690       0.00331001 </v>
   <v>       0.75337593       0.24943273       0.25539358 </v>
   <v>       0.74474434       0.98996701      -0.00354894 </v>
   <v>       0.49122218       0.99280444       0.28296283 </v>
   <v>       0.99559496       0.49057808       0.25590569 </v>
   <v>       0.51203266       0.75943540      -0.01302327 </v>
   <v>       0.98702377       0.00228302       0.74402994 </v>
   <v>       0.75390066       0.25632519       0.74342698 </v>
   <v>       0.76488037       0.00891048       0.50758036 </v>
   <v>       0.50899323       0.25288048       0.50144554 </v>
   <v>       0.53321820       0.00404184       0.73105810 </v>
   <v>      -0.00507015       0.00007396       0.24839349 </v>
   <v>       0.49979167       0.23923449      -0.00571901 </v>
   <v>       0.25828855       0.75019645       0.25142106 </v>
   <v>       0.24256089       0.50196503       0.99869213 </v>
   <v>       0.00158264       0.74392739       0.00400505 </v>
   <v>       0.74488848       0.73959868       0.24967485 </v>
   <v>       0.76365217       0.50086316       0.00468319 </v>
   <v>       0.49653625       0.50689542       0.24474264 </v>
   <v>       0.24958853       0.24607679       0.75054296 </v>
   <v>       0.24990467       0.00132870       0.51482107 </v>
   <v>       0.99723895       0.25040683       0.50094656 </v>
   <v>       0.25131749       0.75853517       0.75155404 </v>
   <v>       0.25265124       0.50196829       0.50038151 </v>
   <v>       0.99081017       0.75573102       0.49977720 </v>
   <v>       0.99968000       0.50017717       0.75314621 </v>
   <v>       0.75359230       0.75339469       0.74573186 </v>
   <v>       0.74793960       0.49706786       0.50071507 </v>
   <v>       0.50667739       0.76669521       0.49452416 </v>
   <v>       0.50520057       0.50035993       0.74283774 </v>
   <v>       0.52535589       0.01844964       0.94434398 </v>
   <v>      -0.00395248       0.52927484       0.96968987 </v>
   <v>       0.50817355       0.73291505       0.28371589 </v>
   <v>       0.22208108      -0.00289337       0.75078349 </v>
   <v>       0.46278574       0.99517853       0.51929171 </v>
   <v>       0.74163033       0.96693922       0.77010471 </v>
   <v>      -0.00094236       0.76721860       0.25245469 </v>
   <v>       0.72804456       0.50779341       0.24413350 </v>
   <v>       0.01347210       0.00760901       0.49383895 </v>
   <v>       0.49846054       0.51288178       0.49170385 </v>
   <v>       0.75311941       0.51579664       0.75999643 </v>
   <v>       0.74816592       0.72905829       0.49581211 </v>
  </varray>
 </structure>
</modeling>
