  64  64   0   0
  0.1129557E+02  0.8932500E-09  0.9055600E-09  0.8937200E-09  0.5000000E-15
  1.000000000000000E-004
  CAR 
 HECN                                    
     14.33584194    -60.40265347  301      7.95934273      1.00000000
    -60.403  0.0000E+00  0.0000E+00
    -60.154  0.0000E+00  0.0000E+00
    -59.904  0.0000E+00  0.0000E+00
    -59.655  0.0000E+00  0.0000E+00
    -59.406  0.0000E+00  0.0000E+00
    -59.157  0.0000E+00  0.0000E+00
    -58.908  0.0000E+00  0.0000E+00
    -58.659  0.0000E+00  0.0000E+00
    -58.410  0.0000E+00  0.0000E+00
    -58.160  0.0000E+00  0.0000E+00
    -57.911  0.0000E+00  0.0000E+00
    -57.662  0.0000E+00  0.0000E+00
    -57.413  0.3275E-09  0.8159E-10
    -57.164  0.1063E-02  0.2649E-03
    -56.915  0.2264E+00  0.5666E-01
    -56.666  0.3329E+00  0.1396E+00
    -56.417  0.1631E-02  0.1400E+00
    -56.167  0.3609E-09  0.1400E+00
    -55.918  0.0000E+00  0.1400E+00
    -55.669  0.0000E+00  0.1400E+00
    -55.420  0.0000E+00  0.1400E+00
    -55.171  0.0000E+00  0.1400E+00
    -54.922  0.0000E+00  0.1400E+00
    -54.673  0.0000E+00  0.1400E+00
    -54.424  0.0000E+00  0.1400E+00
    -54.174  0.0000E+00  0.1400E+00
    -53.925  0.0000E+00  0.1400E+00
    -53.676  0.0000E+00  0.1400E+00
    -53.427  0.0000E+00  0.1400E+00
    -53.178  0.0000E+00  0.1400E+00
    -52.929  0.0000E+00  0.1400E+00
    -52.680  0.0000E+00  0.1400E+00
    -52.431  0.0000E+00  0.1400E+00
    -52.181  0.0000E+00  0.1400E+00
    -51.932  0.0000E+00  0.1400E+00
    -51.683  0.0000E+00  0.1400E+00
    -51.434  0.0000E+00  0.1400E+00
    -51.185  0.0000E+00  0.1400E+00
    -50.936  0.0000E+00  0.1400E+00
    -50.687  0.0000E+00  0.1400E+00
    -50.438  0.0000E+00  0.1400E+00
    -50.188  0.0000E+00  0.1400E+00
    -49.939  0.0000E+00  0.1400E+00
    -49.690  0.0000E+00  0.1400E+00
    -49.441  0.0000E+00  0.1400E+00
    -49.192  0.0000E+00  0.1400E+00
    -48.943  0.0000E+00  0.1400E+00
    -48.694  0.0000E+00  0.1400E+00
    -48.444  0.0000E+00  0.1400E+00
    -48.195  0.0000E+00  0.1400E+00
    -47.946  0.0000E+00  0.1400E+00
    -47.697  0.0000E+00  0.1400E+00
    -47.448  0.0000E+00  0.1400E+00
    -47.199  0.0000E+00  0.1400E+00
    -46.950  0.0000E+00  0.1400E+00
    -46.701  0.0000E+00  0.1400E+00
    -46.451  0.0000E+00  0.1400E+00
    -46.202  0.0000E+00  0.1400E+00
    -45.953  0.0000E+00  0.1400E+00
    -45.704  0.0000E+00  0.1400E+00
    -45.455  0.0000E+00  0.1400E+00
    -45.206  0.0000E+00  0.1400E+00
    -44.957  0.0000E+00  0.1400E+00
    -44.708  0.0000E+00  0.1400E+00
    -44.458  0.0000E+00  0.1400E+00
    -44.209  0.0000E+00  0.1400E+00
    -43.960  0.0000E+00  0.1400E+00
    -43.711  0.0000E+00  0.1400E+00
    -43.462  0.0000E+00  0.1400E+00
    -43.213  0.0000E+00  0.1400E+00
    -42.964  0.0000E+00  0.1400E+00
    -42.715  0.0000E+00  0.1400E+00
    -42.465  0.0000E+00  0.1400E+00
    -42.216  0.0000E+00  0.1400E+00
    -41.967  0.4902E-16  0.1400E+00
    -41.718  0.2956E-06  0.1400E+00
    -41.469  0.1354E-01  0.1434E+00
    -41.220  0.6753E-01  0.1602E+00
    -40.971  0.1296E+00  0.1925E+00
    -40.722  0.2143E+00  0.2459E+00
    -40.472  0.1362E+00  0.2798E+00
    -40.223  0.7579E-03  0.2800E+00
    -39.974  0.1301E-09  0.2800E+00
    -39.725  0.0000E+00  0.2800E+00
    -39.476  0.0000E+00  0.2800E+00
    -39.227  0.0000E+00  0.2800E+00
    -38.978  0.0000E+00  0.2800E+00
    -38.728  0.0000E+00  0.2800E+00
    -38.479  0.0000E+00  0.2800E+00
    -38.230  0.0000E+00  0.2800E+00
    -37.981  0.0000E+00  0.2800E+00
    -37.732  0.0000E+00  0.2800E+00
    -37.483  0.0000E+00  0.2800E+00
    -37.234  0.0000E+00  0.2800E+00
    -36.985  0.0000E+00  0.2800E+00
    -36.735  0.0000E+00  0.2800E+00
    -36.486  0.0000E+00  0.2800E+00
    -36.237  0.0000E+00  0.2800E+00
    -35.988  0.0000E+00  0.2800E+00
    -35.739  0.0000E+00  0.2800E+00
    -35.490  0.0000E+00  0.2800E+00
    -35.241  0.0000E+00  0.2800E+00
    -34.992  0.0000E+00  0.2800E+00
    -34.742  0.0000E+00  0.2800E+00
    -34.493  0.0000E+00  0.2800E+00
    -34.244  0.0000E+00  0.2800E+00
    -33.995  0.0000E+00  0.2800E+00
    -33.746  0.0000E+00  0.2800E+00
    -33.497  0.0000E+00  0.2800E+00
    -33.248  0.0000E+00  0.2800E+00
    -32.999  0.0000E+00  0.2800E+00
    -32.749  0.0000E+00  0.2800E+00
    -32.500  0.0000E+00  0.2800E+00
    -32.251  0.6343E-15  0.2800E+00
    -32.002  0.1383E-05  0.2800E+00
    -31.753  0.3190E-01  0.2879E+00
    -31.504  0.2899E+00  0.3602E+00
    -31.255  0.7329E+00  0.5428E+00
    -31.006  0.5136E+00  0.6707E+00
    -30.756  0.1206E+01  0.9711E+00
    -30.507  0.3565E+00  0.1060E+01
    -30.258  0.1795E-03  0.1060E+01
    -30.009  0.2123E-11  0.1060E+01
    -29.760  0.0000E+00  0.1060E+01
    -29.511  0.0000E+00  0.1060E+01
    -29.262  0.0000E+00  0.1060E+01
    -29.012  0.0000E+00  0.1060E+01
    -28.763  0.0000E+00  0.1060E+01
    -28.514  0.0000E+00  0.1060E+01
    -28.265  0.5297E-14  0.1060E+01
    -28.016  0.4177E-05  0.1060E+01
    -27.767  0.3152E-01  0.1068E+01
    -27.518  0.3621E+00  0.1158E+01
    -27.269  0.6467E+00  0.1319E+01
    -27.019  0.2807E+00  0.1389E+01
    -26.770  0.1238E+00  0.1420E+01
    -26.521  0.1425E-03  0.1420E+01
    -26.272  0.2895E-11  0.1420E+01
    -26.023  0.0000E+00  0.1420E+01
    -25.774  0.0000E+00  0.1420E+01
    -25.525  0.0000E+00  0.1420E+01
    -25.276  0.0000E+00  0.1420E+01
    -25.026  0.0000E+00  0.1420E+01
    -24.777  0.0000E+00  0.1420E+01
    -24.528  0.0000E+00  0.1420E+01
    -24.279  0.0000E+00  0.1420E+01
    -24.030  0.0000E+00  0.1420E+01
    -23.781  0.0000E+00  0.1420E+01
    -23.532  0.0000E+00  0.1420E+01
    -23.283  0.0000E+00  0.1420E+01
    -23.033  0.0000E+00  0.1420E+01
    -22.784  0.0000E+00  0.1420E+01
    -22.535  0.0000E+00  0.1420E+01
    -22.286  0.0000E+00  0.1420E+01
    -22.037  0.0000E+00  0.1420E+01
    -21.788  0.0000E+00  0.1420E+01
    -21.539  0.0000E+00  0.1420E+01
    -21.290  0.0000E+00  0.1420E+01
    -21.040  0.0000E+00  0.1420E+01
    -20.791  0.0000E+00  0.1420E+01
    -20.542  0.0000E+00  0.1420E+01
    -20.293  0.8789E-12  0.1420E+01
    -20.044  0.6171E-04  0.1420E+01
    -19.795  0.7419E-01  0.1438E+01
    -19.546  0.1724E+00  0.1481E+01
    -19.296  0.5597E+00  0.1621E+01
    -19.047  0.5160E+00  0.1749E+01
    -18.798  0.3013E+00  0.1824E+01
    -18.549  0.6213E-01  0.1840E+01
    -18.300  0.1119E-03  0.1840E+01
    -18.051  0.2951E-11  0.1840E+01
    -17.802  0.0000E+00  0.1840E+01
    -17.553  0.0000E+00  0.1840E+01
    -17.303  0.0000E+00  0.1840E+01
    -17.054  0.0000E+00  0.1840E+01
    -16.805  0.0000E+00  0.1840E+01
    -16.556  0.0000E+00  0.1840E+01
    -16.307  0.0000E+00  0.1840E+01
    -16.058  0.0000E+00  0.1840E+01
    -15.809  0.0000E+00  0.1840E+01
    -15.560  0.0000E+00  0.1840E+01
    -15.310  0.0000E+00  0.1840E+01
    -15.061  0.0000E+00  0.1840E+01
    -14.812  0.0000E+00  0.1840E+01
    -14.563  0.0000E+00  0.1840E+01
    -14.314  0.0000E+00  0.1840E+01
    -14.065  0.0000E+00  0.1840E+01
    -13.816  0.0000E+00  0.1840E+01
    -13.567  0.0000E+00  0.1840E+01
    -13.317  0.0000E+00  0.1840E+01
    -13.068  0.0000E+00  0.1840E+01
    -12.819  0.0000E+00  0.1840E+01
    -12.570  0.0000E+00  0.1840E+01
    -12.321  0.0000E+00  0.1840E+01
    -12.072  0.0000E+00  0.1840E+01
    -11.823  0.0000E+00  0.1840E+01
    -11.574  0.0000E+00  0.1840E+01
    -11.324  0.0000E+00  0.1840E+01
    -11.075  0.0000E+00  0.1840E+01
    -10.826  0.0000E+00  0.1840E+01
    -10.577  0.0000E+00  0.1840E+01
    -10.328  0.0000E+00  0.1840E+01
    -10.079  0.0000E+00  0.1840E+01
     -9.830  0.0000E+00  0.1840E+01
     -9.580  0.0000E+00  0.1840E+01
     -9.331  0.2042E-15  0.1840E+01
     -9.082  0.1957E-06  0.1840E+01
     -8.833  0.2886E-02  0.1841E+01
     -8.584  0.5082E-01  0.1853E+01
     -8.335  0.4465E-01  0.1865E+01
     -8.086  0.9111E-01  0.1887E+01
     -7.837  0.1352E+00  0.1921E+01
     -7.587  0.1699E+00  0.1963E+01
     -7.338  0.1433E+00  0.1999E+01
     -7.089  0.1164E+00  0.2028E+01
     -6.840  0.1354E+00  0.2062E+01
     -6.591  0.8115E-01  0.2082E+01
     -6.342  0.7177E-01  0.2100E+01
     -6.093  0.9924E-03  0.2100E+01
     -5.844  0.5077E-09  0.2100E+01
     -5.594  0.9531E-14  0.2100E+01
     -5.345  0.1801E-05  0.2100E+01
     -5.096  0.7127E-02  0.2102E+01
     -4.847  0.6282E-01  0.2117E+01
     -4.598  0.4673E-01  0.2129E+01
     -4.349  0.8270E-01  0.2150E+01
     -4.100  0.1270E+00  0.2181E+01
     -3.851  0.2233E+00  0.2237E+01
     -3.601  0.2554E+00  0.2301E+01
     -3.352  0.2359E+00  0.2359E+01
     -3.103  0.1965E+00  0.2408E+01
     -2.854  0.1529E+00  0.2446E+01
     -2.605  0.8532E-01  0.2468E+01
     -2.356  0.4311E-01  0.2478E+01
     -2.107  0.6465E-02  0.2480E+01
     -1.857  0.1670E-04  0.2480E+01
     -1.608  0.1458E-11  0.2480E+01
     -1.359  0.0000E+00  0.2480E+01
     -1.110  0.0000E+00  0.2480E+01
     -0.861  0.1784E-09  0.2480E+01
     -0.612  0.1162E-03  0.2480E+01
     -0.363  0.8119E-02  0.2482E+01
     -0.114  0.4773E-01  0.2494E+01
      0.136  0.1045E+00  0.2520E+01
      0.385  0.1266E+00  0.2552E+01
      0.634  0.1416E+00  0.2587E+01
      0.883  0.2038E+00  0.2638E+01
      1.132  0.2578E+00  0.2702E+01
      1.381  0.2591E+00  0.2766E+01
      1.630  0.2932E+00  0.2839E+01
      1.879  0.3256E+00  0.2921E+01
      2.129  0.3356E+00  0.3004E+01
      2.378  0.4295E+00  0.3111E+01
      2.627  0.5103E+00  0.3238E+01
      2.876  0.5805E+00  0.3383E+01
      3.125  0.6303E+00  0.3540E+01
      3.374  0.6025E+00  0.3690E+01
      3.623  0.5520E+00  0.3828E+01
      3.872  0.4992E+00  0.3952E+01
      4.122  0.4450E+00  0.4063E+01
      4.371  0.3651E+00  0.4154E+01
      4.620  0.2922E+00  0.4227E+01
      4.869  0.2780E+00  0.4296E+01
      5.118  0.1943E+00  0.4344E+01
      5.367  0.1471E+00  0.4381E+01
      5.616  0.1011E+00  0.4406E+01
      5.865  0.1376E+00  0.4440E+01
      6.115  0.1629E+00  0.4481E+01
      6.364  0.1687E+00  0.4523E+01
      6.613  0.2253E+00  0.4579E+01
      6.862  0.2109E+00  0.4632E+01
      7.111  0.2010E+00  0.4682E+01
      7.360  0.2861E+00  0.4753E+01
      7.609  0.2611E+00  0.4818E+01
      7.859  0.2341E+00  0.4876E+01
      8.108  0.2372E+00  0.4935E+01
      8.357  0.3073E+00  0.5012E+01
      8.606  0.4178E+00  0.5116E+01
      8.855  0.4514E+00  0.5229E+01
      9.104  0.4839E+00  0.5349E+01
      9.353  0.4855E+00  0.5470E+01
      9.602  0.5025E+00  0.5595E+01
      9.852  0.4982E+00  0.5719E+01
     10.101  0.4699E+00  0.5836E+01
     10.350  0.4669E+00  0.5953E+01
     10.599  0.4509E+00  0.6065E+01
     10.848  0.3276E+00  0.6147E+01
     11.097  0.5347E-01  0.6160E+01
     11.346  0.2094E-03  0.6160E+01
     11.595  0.5052E-10  0.6160E+01
     11.845  0.0000E+00  0.6160E+01
     12.094  0.0000E+00  0.6160E+01
     12.343  0.0000E+00  0.6160E+01
     12.592  0.0000E+00  0.6160E+01
     12.841  0.0000E+00  0.6160E+01
     13.090  0.0000E+00  0.6160E+01
     13.339  0.0000E+00  0.6160E+01
     13.588  0.0000E+00  0.6160E+01
     13.838  0.0000E+00  0.6160E+01
     14.087  0.0000E+00  0.6160E+01
     14.336  0.0000E+00  0.6160E+01
