       N       E                     dE             d eps       ncg     rms          rms(c)
DAV:   1     0.453819690348E+04    0.45382E+04   -0.22249E+05  8624   0.139E+03
DAV:   2    -0.213479834305E+03   -0.47517E+04   -0.45844E+04  8652   0.464E+02
DAV:   3    -0.751550156292E+03   -0.53807E+03   -0.51941E+03 12292   0.136E+02
DAV:   4    -0.785659843288E+03   -0.34110E+02   -0.33485E+02 13692   0.342E+01
DAV:   5    -0.787244996915E+03   -0.15852E+01   -0.15733E+01 14028   0.633E+00    0.671E+01
RMM:   6    -0.780632634171E+03    0.66124E+01   -0.16938E+03 11838   0.684E+01    0.882E+01
RMM:   7    -0.665752121196E+03    0.11488E+03   -0.22283E+02  9641   0.347E+01    0.358E+01
RMM:   8    -0.650721734146E+03    0.15030E+02   -0.60387E+01 12618   0.127E+01    0.120E+01
RMM:   9    -0.650451034396E+03    0.27070E+00   -0.15339E+01 13232   0.561E+00    0.147E+01
RMM:  10    -0.650012478951E+03    0.43856E+00   -0.52401E+00 13573   0.340E+00    0.111E+01
RMM:  11    -0.648947978617E+03    0.10645E+01   -0.28773E+00 12737   0.240E+00    0.503E+00
RMM:  12    -0.649656033113E+03   -0.70805E+00   -0.31962E+00 12851   0.271E+00    0.129E+01
RMM:  13    -0.648924745865E+03    0.73129E+00   -0.13026E+00 13412   0.199E+00    0.412E+00
RMM:  14    -0.649005562811E+03   -0.80817E-01   -0.68648E-01 13344   0.119E+00    0.643E+00
RMM:  15    -0.648771533677E+03    0.23403E+00   -0.34782E-01 13336   0.887E-01    0.141E+00
RMM:  16    -0.648768928775E+03    0.26049E-02   -0.34798E-01 13308   0.698E-01    0.879E-01
RMM:  17    -0.648781505173E+03   -0.12576E-01   -0.10526E-01 13748   0.458E-01    0.128E+00
RMM:  18    -0.648780229980E+03    0.12752E-02   -0.46104E-02 14051   0.292E-01    0.106E+00
RMM:  19    -0.648777169013E+03    0.30610E-02   -0.26094E-02 13596   0.236E-01    0.969E-01
RMM:  20    -0.648772400369E+03    0.47686E-02   -0.24351E-02 13436   0.233E-01    0.556E-01
RMM:  21    -0.648771032662E+03    0.13677E-02   -0.14850E-02 13538   0.172E-01    0.336E-01
RMM:  22    -0.648770974296E+03    0.58366E-04   -0.50295E-03 14417   0.101E-01    0.256E-01
RMM:  23    -0.648770494879E+03    0.47942E-03   -0.23796E-03 13432   0.743E-02    0.920E-02
RMM:  24    -0.648770500985E+03   -0.61062E-05   -0.12813E-03 13521   0.433E-02    0.496E-02
RMM:  25    -0.648770501006E+03   -0.21013E-07   -0.53415E-04 12673   0.285E-02    0.282E-02
RMM:  26    -0.648770508214E+03   -0.72079E-05   -0.35863E-04 11575   0.217E-02    0.130E-02
RMM:  27    -0.648770524150E+03   -0.15936E-04   -0.19812E-04 10360   0.152E-02    0.730E-03
RMM:  28    -0.648770530398E+03   -0.62480E-05   -0.84386E-05  8649   0.118E-02
   1 F= -.64877053E+03 E0= -.64867704E+03  d E =-.648771E+03
       N       E                     dE             d eps       ncg     rms          rms(c)
DAV:   1    -0.681687093018E+03   -0.32917E+02   -0.13435E+03  8988   0.115E+02    0.424E+01
RMM:   2    -0.720264021793E+03   -0.38577E+02   -0.36387E+02  9154   0.502E+01    0.645E+01
RMM:   3    -0.656514874214E+03    0.63749E+02   -0.57946E+01  9715   0.237E+01    0.237E+01
RMM:   4    -0.653323872160E+03    0.31910E+01   -0.16065E+01 10606   0.101E+01    0.184E+01
RMM:   5    -0.650720488452E+03    0.26034E+01   -0.12664E+01  9636   0.872E+00    0.175E+01
RMM:   6    -0.649330259913E+03    0.13902E+01   -0.52791E+00 10692   0.510E+00    0.109E+01
RMM:   7    -0.648737891014E+03    0.59237E+00   -0.19895E+00 11329   0.327E+00    0.605E+00
RMM:   8    -0.648745509063E+03   -0.76180E-02   -0.93141E-01 13303   0.191E+00    0.618E+00
RMM:   9    -0.648463920313E+03    0.28159E+00   -0.27630E-01 12716   0.113E+00    0.151E+00
RMM:  10    -0.648490106536E+03   -0.26186E-01   -0.17215E-01 14353   0.692E-01    0.226E+00
RMM:  11    -0.648466236125E+03    0.23870E-01   -0.83825E-02 14534   0.505E-01    0.884E-01
RMM:  12    -0.648477186376E+03   -0.10950E-01   -0.51089E-02 14639   0.375E-01    0.125E+00
RMM:  13    -0.648471887980E+03    0.52984E-02   -0.30965E-02 14860   0.295E-01    0.487E-01
RMM:  14    -0.648474730746E+03   -0.28428E-02   -0.21609E-02 14897   0.218E-01    0.352E-01
RMM:  15    -0.648476987482E+03   -0.22567E-02   -0.11876E-02 14913   0.169E-01    0.523E-01
RMM:  16    -0.648476348627E+03    0.63886E-03   -0.61663E-03 14762   0.126E-01    0.224E-01
RMM:  17    -0.648476718775E+03   -0.37015E-03   -0.35455E-03 15126   0.915E-02    0.108E-01
RMM:  18    -0.648476889258E+03   -0.17048E-03   -0.20306E-03 14972   0.770E-02    0.524E-02
RMM:  19    -0.648476926289E+03   -0.37031E-04   -0.99971E-04 14718   0.523E-02    0.205E-02
RMM:  20    -0.648476978199E+03   -0.51909E-04   -0.57326E-04 14359   0.376E-02    0.192E-02
RMM:  21    -0.648477007414E+03   -0.29215E-04   -0.27316E-04 13488   0.292E-02    0.808E-03
RMM:  22    -0.648477028270E+03   -0.20856E-04   -0.17726E-04 12317   0.233E-02    0.341E-03
RMM:  23    -0.648477039470E+03   -0.11200E-04   -0.93192E-05 10138   0.192E-02    0.346E-03
RMM:  24    -0.648477048304E+03   -0.88340E-05   -0.78913E-05  9681   0.182E-02
   2 F= -.64847705E+03 E0= -.64840775E+03  d E =0.293482E+00
       N       E                     dE             d eps       ncg     rms          rms(c)
DAV:   1    -0.662235238002E+03   -0.13758E+02   -0.36433E+02  9408   0.593E+01    0.362E+01
RMM:   2    -0.736257802219E+03   -0.74023E+02   -0.10420E+02 10617   0.223E+01    0.505E+01
RMM:   3    -0.659567612152E+03    0.76690E+02   -0.29695E+01  9312   0.145E+01    0.230E+01
RMM:   4    -0.653103858154E+03    0.64638E+01   -0.74743E+00 11504   0.557E+00    0.124E+01
RMM:   5    -0.652536094357E+03    0.56776E+00   -0.79260E+00 11759   0.551E+00    0.162E+01
RMM:   6    -0.652308694268E+03    0.22740E+00   -0.31497E+00 12875   0.312E+00    0.150E+01
RMM:   7    -0.651148347700E+03    0.11603E+01   -0.11730E+00 10774   0.235E+00    0.764E+00
RMM:   8    -0.651126899562E+03    0.21448E-01   -0.77618E-01 10401   0.183E+00    0.802E+00
RMM:   9    -0.650885180027E+03    0.24172E+00   -0.31696E-01 12426   0.116E+00    0.417E+00
RMM:  10    -0.650751925171E+03    0.13325E+00   -0.10538E-01 12673   0.713E-01    0.139E+00
RMM:  11    -0.650751937164E+03   -0.11993E-04   -0.58873E-02 14536   0.416E-01    0.150E+00
RMM:  12    -0.650738937678E+03    0.12999E-01   -0.31748E-02 14390   0.330E-01    0.449E-01
RMM:  13    -0.650743840955E+03   -0.49033E-02   -0.19535E-02 14732   0.219E-01    0.823E-01
RMM:  14    -0.650741604493E+03    0.22365E-02   -0.11157E-02 14703   0.168E-01    0.345E-01
RMM:  15    -0.650742223503E+03   -0.61901E-03   -0.73880E-03 14923   0.116E-01    0.204E-01
RMM:  16    -0.650743164084E+03   -0.94058E-03   -0.41521E-03 14845   0.891E-02    0.313E-01
RMM:  17    -0.650743049525E+03    0.11456E-03   -0.22544E-03 14683   0.708E-02    0.157E-01
RMM:  18    -0.650743305052E+03   -0.25553E-03   -0.13520E-03 14487   0.597E-02    0.127E-01
RMM:  19    -0.650743241482E+03    0.63569E-04   -0.88517E-04 14281   0.486E-02    0.346E-02
RMM:  20    -0.650743284002E+03   -0.42520E-04   -0.54317E-04 13567   0.361E-02    0.429E-02
RMM:  21    -0.650743291669E+03   -0.76672E-05   -0.23955E-04 12937   0.244E-02    0.128E-02
RMM:  22    -0.650743302257E+03   -0.10588E-04   -0.11947E-04 11358   0.177E-02    0.381E-03
RMM:  23    -0.650743306856E+03   -0.45988E-05   -0.56895E-05  9714   0.144E-02
   3 F= -.65074331E+03 E0= -.65066336E+03  d E =-.197278E+01
       N       E                     dE             d eps       ncg     rms          rms(c)
DAV:   1    -0.648688824380E+03    0.20545E+01   -0.48404E+02  8680   0.702E+01    0.777E+00
RMM:   2    -0.657578916549E+03   -0.88901E+01   -0.37747E+01 10108   0.157E+01    0.211E+01
RMM:   3    -0.651885171913E+03    0.56937E+01   -0.84975E+00  9372   0.843E+00    0.310E+00
RMM:   4    -0.652217122256E+03   -0.33195E+00   -0.26673E+00 13989   0.334E+00    0.587E+00
RMM:   5    -0.651991684163E+03    0.22544E+00   -0.52558E-01 13183   0.129E+00    0.164E+00
RMM:   6    -0.652010605823E+03   -0.18922E-01   -0.22430E-01 13155   0.743E-01    0.269E+00
RMM:   7    -0.651988981566E+03    0.21624E-01   -0.13590E-01 13177   0.628E-01    0.196E+00
RMM:   8    -0.651965169530E+03    0.23812E-01   -0.65586E-02 13263   0.425E-01    0.102E+00
RMM:   9    -0.651963564835E+03    0.16047E-02   -0.27512E-02 14299   0.271E-01    0.846E-01
RMM:  10    -0.651959399493E+03    0.41653E-02   -0.14769E-02 13723   0.180E-01    0.420E-01
RMM:  11    -0.651960532707E+03   -0.11332E-02   -0.92231E-03 14490   0.147E-01    0.548E-01
RMM:  12    -0.651959029433E+03    0.15033E-02   -0.46508E-03 14278   0.103E-01    0.142E-01
RMM:  13    -0.651959033351E+03   -0.39179E-05   -0.19584E-03 14588   0.607E-02    0.154E-01
RMM:  14    -0.651959015131E+03    0.18220E-04   -0.10905E-03 13789   0.438E-02    0.971E-02
RMM:  15    -0.651959024936E+03   -0.98050E-05   -0.73824E-04 13799   0.354E-02    0.455E-02
RMM:  16    -0.651959031172E+03   -0.62354E-05   -0.35034E-04 12878   0.263E-02    0.249E-02
RMM:  17    -0.651959039829E+03   -0.86578E-05   -0.20422E-04 11495   0.196E-02    0.233E-02
RMM:  18    -0.651959047800E+03   -0.79708E-05   -0.11412E-04 11008   0.156E-02    0.241E-02
RMM:  19    -0.651959049869E+03   -0.20683E-05   -0.66868E-05  9922   0.124E-02
   4 F= -.65195905E+03 E0= -.65188610E+03  d E =-.121574E+01
       N       E                     dE             d eps       ncg     rms          rms(c)
DAV:   1    -0.651958714219E+03    0.33358E-03   -0.77359E-02 10528   0.893E-01    0.974E-02
RMM:   2    -0.651960304455E+03   -0.15902E-02   -0.63674E-03  9972   0.204E-01    0.364E-01
RMM:   3    -0.651959286631E+03    0.10178E-02   -0.14753E-03  9003   0.114E-01    0.100E-01
RMM:   4    -0.651959265096E+03    0.21535E-04   -0.48346E-04 12488   0.462E-02    0.548E-02
RMM:   5    -0.651959252894E+03    0.12201E-04   -0.89587E-05  9583   0.184E-02    0.456E-02
RMM:   6    -0.651959243600E+03    0.92942E-05   -0.32145E-05  6185   0.111E-02
   5 F= -.65195924E+03 E0= -.65188629E+03  d E =-.121594E+01
       N       E                     dE             d eps       ncg     rms          rms(c)
DAV:   1    -0.650894280859E+03    0.10650E+01   -0.12026E+02  8624   0.422E+01    0.303E+00
RMM:   2    -0.652538362387E+03   -0.16441E+01   -0.13536E+01  9772   0.926E+00    0.702E+00
RMM:   3    -0.652386169140E+03    0.15219E+00   -0.28145E+00 11971   0.401E+00    0.272E+00
RMM:   4    -0.652436190651E+03   -0.50022E-01   -0.60274E-01 13534   0.168E+00    0.287E+00
RMM:   5    -0.652378917664E+03    0.57273E-01   -0.11534E-01 12549   0.702E-01    0.125E+00
RMM:   6    -0.652378892503E+03    0.25161E-04   -0.48623E-02 13448   0.395E-01    0.126E+00
RMM:   7    -0.652368188710E+03    0.10704E-01   -0.31219E-02 12335   0.306E-01    0.569E-01
RMM:   8    -0.652367993458E+03    0.19525E-03   -0.16707E-02 12980   0.226E-01    0.753E-01
RMM:   9    -0.652365175526E+03    0.28179E-02   -0.70126E-03 13881   0.152E-01    0.324E-01
RMM:  10    -0.652364614814E+03    0.56071E-03   -0.31173E-03 13888   0.889E-02    0.175E-01
RMM:  11    -0.652364799692E+03   -0.18488E-03   -0.18129E-03 14136   0.673E-02    0.225E-01
RMM:  12    -0.652364500064E+03    0.29963E-03   -0.96638E-04 13820   0.486E-02    0.634E-02
RMM:  13    -0.652364554592E+03   -0.54528E-04   -0.44131E-04 13218   0.303E-02    0.100E-01
RMM:  14    -0.652364512977E+03    0.41615E-04   -0.25235E-04 11831   0.232E-02    0.369E-02
RMM:  15    -0.652364519288E+03   -0.63105E-05   -0.16061E-04 11166   0.175E-02    0.224E-02
RMM:  16    -0.652364526649E+03   -0.73616E-05   -0.88935E-05 10323   0.142E-02
   6 F= -.65236453E+03 E0= -.65229317E+03  d E =-.405283E+00
       N       E                     dE             d eps       ncg     rms          rms(c)
DAV:   1    -0.651953031502E+03    0.41149E+00   -0.39458E+01  8708   0.243E+01    0.178E+00
RMM:   2    -0.652519581198E+03   -0.56655E+00   -0.44263E+00  9823   0.528E+00    0.445E+00
RMM:   3    -0.652438397205E+03    0.81184E-01   -0.93616E-01 11565   0.231E+00    0.159E+00
RMM:   4    -0.652451747405E+03   -0.13350E-01   -0.19065E-01 13520   0.957E-01    0.159E+00
RMM:   5    -0.652434194921E+03    0.17552E-01   -0.37931E-02 12467   0.402E-01    0.762E-01
RMM:   6    -0.652433156024E+03    0.10389E-02   -0.15883E-02 13519   0.228E-01    0.650E-01
RMM:   7    -0.652430229745E+03    0.29263E-02   -0.10605E-02 12317   0.176E-01    0.313E-01
RMM:   8    -0.652429758589E+03    0.47116E-03   -0.54250E-03 13044   0.128E-01    0.343E-01
RMM:   9    -0.652429257040E+03    0.50155E-03   -0.21510E-03 13756   0.834E-02    0.187E-01
RMM:  10    -0.652429074943E+03    0.18210E-03   -0.10115E-03 13647   0.504E-02    0.105E-01
RMM:  11    -0.652429114320E+03   -0.39377E-04   -0.58538E-04 13175   0.383E-02    0.120E-01
RMM:  12    -0.652429034526E+03    0.79795E-04   -0.31568E-04 12834   0.276E-02    0.344E-02
RMM:  13    -0.652429050151E+03   -0.15625E-04   -0.16088E-04 10980   0.177E-02    0.511E-02
RMM:  14    -0.652429039841E+03    0.10309E-04   -0.86244E-05 10459   0.140E-02    0.225E-02
RMM:  15    -0.652429042662E+03   -0.28208E-05   -0.57327E-05  8932   0.111E-02
   7 F= -.65242904E+03 E0= -.65235890E+03  d E =-.469799E+00
       N       E                     dE             d eps       ncg     rms          rms(c)
DAV:   1    -0.650891583783E+03    0.15375E+01   -0.14642E+02  8624   0.514E+01    0.545E+00
RMM:   2    -0.654589046941E+03   -0.36975E+01   -0.21734E+01  9458   0.117E+01    0.146E+01
RMM:   3    -0.652713883139E+03    0.18752E+01   -0.44799E+00  9589   0.567E+00    0.371E+00
RMM:   4    -0.652778546552E+03   -0.64663E-01   -0.10756E+00 13883   0.219E+00    0.355E+00
RMM:   5    -0.652678798599E+03    0.99748E-01   -0.21823E-01 12379   0.100E+00    0.169E+00
RMM:   6    -0.652683498089E+03   -0.46995E-02   -0.10333E-01 12922   0.629E-01    0.213E+00
RMM:   7    -0.652658320739E+03    0.25177E-01   -0.72111E-02 12486   0.535E-01    0.111E+00
RMM:   8    -0.652645154279E+03    0.13166E-01   -0.33541E-02 12801   0.374E-01    0.520E-01
RMM:   9    -0.652645178324E+03   -0.24045E-04   -0.11587E-02 14122   0.203E-01    0.475E-01
RMM:  10    -0.652644085873E+03    0.10925E-02   -0.50513E-03 14160   0.119E-01    0.187E-01
RMM:  11    -0.652644362486E+03   -0.27661E-03   -0.26808E-03 14755   0.805E-02    0.219E-01
RMM:  12    -0.652644223775E+03    0.13871E-03   -0.13898E-03 14329   0.581E-02    0.968E-02
RMM:  13    -0.652644378317E+03   -0.15454E-03   -0.76481E-04 13875   0.396E-02    0.116E-01
RMM:  14    -0.652644392104E+03   -0.13787E-04   -0.45817E-04 13215   0.332E-02    0.761E-02
RMM:  15    -0.652644453633E+03   -0.61529E-04   -0.31576E-04 13037   0.260E-02    0.291E-02
RMM:  16    -0.652644475214E+03   -0.21581E-04   -0.19515E-04 11973   0.200E-02    0.165E-02
RMM:  17    -0.654913902256E+03   -0.22694E+01   -0.22694E+01 10791   0.160E-02    0.307E-01
RMM:  18    -0.652394273451E+03    0.25196E+01   -0.57160E-05  9848   0.133E-02    0.594E-02
RMM:  19    -0.652627929784E+03   -0.23366E+00   -0.18007E+00  8047   0.571E-02    0.268E-02
RMM:  20    -0.652638507714E+03   -0.10578E-01   -0.10912E-01  8659   0.202E-02    0.103E-02
RMM:  21    -0.652642088572E+03   -0.35809E-02   -0.34519E-02  6517   0.128E-02    0.656E-03
RMM:  22    -0.652643505189E+03   -0.14166E-02   -0.12266E-02  6820   0.997E-03    0.381E-03
RMM:  23    -0.652644069341E+03   -0.56415E-03   -0.51433E-03  5892   0.823E-03    0.319E-03
RMM:  24    -0.652644300613E+03   -0.23127E-03   -0.20776E-03  6284   0.758E-03    0.322E-03
RMM:  25    -0.652644406815E+03   -0.10620E-03   -0.99581E-04  5416   0.642E-03    0.245E-03
RMM:  26    -0.652644450659E+03   -0.43844E-04   -0.39756E-04  4809   0.548E-03    0.166E-03
RMM:  27    -0.652644471520E+03   -0.20861E-04   -0.19834E-04  5309   0.510E-03    0.175E-03
RMM:  28    -0.652644480213E+03   -0.86927E-05   -0.81574E-05  4540   0.429E-03
   8 F= -.65264448E+03 E0= -.65257901E+03  d E =-.215438E+00
       N       E                     dE             d eps       ncg     rms          rms(c)
DAV:   1    -0.652639724363E+03    0.47472E-02   -0.46358E-01  9800   0.291E+00    0.311E-01
RMM:   2    -0.652650946554E+03   -0.11222E-01   -0.66847E-02  9502   0.649E-01    0.771E-01
RMM:   3    -0.652645467383E+03    0.54792E-02   -0.13278E-02  9617   0.323E-01    0.214E-01
RMM:   4    -0.652645861917E+03   -0.39453E-03   -0.44929E-03 13896   0.137E-01    0.230E-01
RMM:   5    -0.652645454071E+03    0.40785E-03   -0.69875E-04 11908   0.576E-02    0.912E-02
RMM:   6    -0.652645471156E+03   -0.17085E-04   -0.34573E-04 12269   0.356E-02    0.115E-01
RMM:   7    -0.652645388797E+03    0.82359E-04   -0.22152E-04 11506   0.286E-02    0.521E-02
RMM:   8    -0.652645351115E+03    0.37681E-04   -0.89667E-05 10711   0.182E-02    0.231E-02
RMM:   9    -0.652645353165E+03   -0.20494E-05   -0.33722E-05  6552   0.114E-02
   9 F= -.65264535E+03 E0= -.65257969E+03  d E =-.216311E+00
       N       E                     dE             d eps       ncg     rms          rms(c)
DAV:   1    -0.651619439005E+03    0.10259E+01   -0.13280E+02  8624   0.457E+01    0.563E+00
RMM:   2    -0.654534057646E+03   -0.29146E+01   -0.15424E+01  9550   0.993E+00    0.126E+01
RMM:   3    -0.652823978596E+03    0.17101E+01   -0.34814E+00  9491   0.536E+00    0.333E+00
RMM:   4    -0.652940687314E+03   -0.11671E+00   -0.10198E+00 13949   0.218E+00    0.436E+00
RMM:   5    -0.652807580047E+03    0.13311E+00   -0.23447E-01 12458   0.101E+00    0.136E+00
RMM:   6    -0.652816544008E+03   -0.89640E-02   -0.11080E-01 12989   0.620E-01    0.201E+00
RMM:   7    -0.652794150185E+03    0.22394E-01   -0.62059E-02 12796   0.486E-01    0.970E-01
RMM:   8    -0.652786789496E+03    0.73607E-02   -0.27633E-02 13055   0.310E-01    0.620E-01
RMM:   9    -0.652786039597E+03    0.74990E-03   -0.11435E-02 14227   0.203E-01    0.508E-01
RMM:  10    -0.652784548567E+03    0.14910E-02   -0.49258E-03 14050   0.118E-01    0.191E-01
RMM:  11    -0.652784774646E+03   -0.22608E-03   -0.27314E-03 14617   0.821E-02    0.221E-01
RMM:  12    -0.652784621734E+03    0.15291E-03   -0.14790E-03 14111   0.601E-02    0.107E-01
RMM:  13    -0.652784661921E+03   -0.40187E-04   -0.74637E-04 13905   0.405E-02    0.103E-01
RMM:  14    -0.652784657927E+03    0.39944E-05   -0.43755E-04 13244   0.318E-02    0.674E-02
RMM:  15    -0.652784682189E+03   -0.24262E-04   -0.32296E-04 13294   0.264E-02    0.308E-02
RMM:  16    -0.652784702250E+03   -0.20061E-04   -0.18908E-04 12025   0.209E-02    0.468E-02
RMM:  17    -0.652784694008E+03    0.82422E-05   -0.10736E-04 11304   0.169E-02    0.186E-02
RMM:  18    -0.652784695845E+03   -0.18378E-05   -0.64626E-05  9963   0.124E-02
  10 F= -.65278470E+03 E0= -.65271836E+03  d E =-.139343E+00
       N       E                     dE             d eps       ncg     rms          rms(c)
DAV:   1    -0.652749633626E+03    0.35060E-01   -0.50164E+00  9352   0.899E+00    0.109E+00
RMM:   2    -0.652870866081E+03   -0.12123E+00   -0.61707E-01  9450   0.203E+00    0.286E+00
RMM:   3    -0.652798522187E+03    0.72344E-01   -0.13668E-01  9464   0.105E+00    0.953E-01
RMM:   4    -0.652797492038E+03    0.10301E-02   -0.37046E-02 13820   0.419E-01    0.657E-01
RMM:   5    -0.652794258888E+03    0.32332E-02   -0.91404E-03 12438   0.207E-01    0.321E-01
RMM:   6    -0.652794488650E+03   -0.22976E-03   -0.43828E-03 12820   0.131E-01    0.418E-01
RMM:   7    -0.652793451251E+03    0.10374E-02   -0.25739E-03 12384   0.101E-01    0.191E-01
RMM:   8    -0.652793331323E+03    0.11993E-03   -0.12927E-03 12840   0.713E-02    0.194E-01
RMM:   9    -0.652793087619E+03    0.24370E-03   -0.47232E-04 12938   0.446E-02    0.633E-02
RMM:  10    -0.652793086289E+03    0.13298E-05   -0.18574E-04 12358   0.212E-02    0.425E-02
RMM:  11    -0.652793096027E+03   -0.97381E-05   -0.96472E-05 11113   0.157E-02
  11 F= -.65279310E+03 E0= -.65272699E+03  d E =-.147743E+00
       N       E                     dE             d eps       ncg     rms          rms(c)
DAV:   1    -0.652555581451E+03    0.23750E+00   -0.37706E+01  8624   0.223E+01    0.179E+00
RMM:   2    -0.652979672214E+03   -0.42409E+00   -0.33920E+00  9853   0.487E+00    0.416E+00
RMM:   3    -0.652901308816E+03    0.78363E-01   -0.72579E-01 10880   0.218E+00    0.159E+00
RMM:   4    -0.652914051734E+03   -0.12743E-01   -0.19016E-01 13451   0.930E-01    0.158E+00
RMM:   5    -0.652893836666E+03    0.20215E-01   -0.40155E-02 12444   0.429E-01    0.602E-01
RMM:   6    -0.652895347518E+03   -0.15109E-02   -0.18611E-02 13235   0.260E-01    0.781E-01
RMM:   7    -0.652891350775E+03    0.39967E-02   -0.11277E-02 12448   0.201E-01    0.366E-01
RMM:   8    -0.652891236538E+03    0.11424E-03   -0.52312E-03 13240   0.139E-01    0.416E-01
RMM:   9    -0.652890067914E+03    0.11686E-02   -0.21739E-03 13921   0.860E-02    0.105E-01
RMM:  10    -0.652890182893E+03   -0.11498E-03   -0.97738E-04 13547   0.473E-02    0.141E-01
RMM:  11    -0.652890090912E+03    0.91981E-04   -0.52037E-04 12971   0.349E-02    0.548E-02
RMM:  12    -0.652890106273E+03   -0.15361E-04   -0.27190E-04 11930   0.226E-02    0.469E-02
RMM:  13    -0.652890114772E+03   -0.84992E-05   -0.15048E-04 10809   0.178E-02    0.392E-02
RMM:  14    -0.652890114014E+03    0.75790E-06   -0.81881E-05  9905   0.132E-02
  12 F= -.65289011E+03 E0= -.65282336E+03  d E =-.970180E-01
       N       E                     dE             d eps       ncg     rms          rms(c)
DAV:   1    -0.652843484213E+03    0.46631E-01   -0.65202E+00  9744   0.926E+00    0.732E-01
RMM:   2    -0.652914315456E+03   -0.70831E-01   -0.58199E-01  9910   0.196E+00    0.160E+00
RMM:   3    -0.652901177868E+03    0.13138E-01   -0.10752E-01 11307   0.855E-01    0.613E-01
RMM:   4    -0.652903644910E+03   -0.24670E-02   -0.30839E-02 13497   0.376E-01    0.663E-01
RMM:   5    -0.652900165084E+03    0.34798E-02   -0.69708E-03 12616   0.180E-01    0.243E-01
RMM:   6    -0.652900448771E+03   -0.28369E-03   -0.31908E-03 13163   0.107E-01    0.323E-01
RMM:   7    -0.652899798553E+03    0.65022E-03   -0.19353E-03 12540   0.845E-02    0.156E-01
RMM:   8    -0.652899777715E+03    0.20838E-04   -0.91479E-04 13137   0.582E-02    0.170E-01
RMM:   9    -0.652899582052E+03    0.19566E-03   -0.38653E-04 12982   0.363E-02    0.417E-02
RMM:  10    -0.652899605373E+03   -0.23321E-04   -0.18549E-04 11684   0.204E-02    0.568E-02
RMM:  11    -0.652899592435E+03    0.12938E-04   -0.10211E-04 10656   0.154E-02    0.231E-02
RMM:  12    -0.652899595592E+03   -0.31564E-05   -0.53029E-05  8621   0.105E-02
  13 F= -.65289960E+03 E0= -.65283271E+03  d E =-.106500E+00
       N       E                     dE             d eps       ncg     rms          rms(c)
DAV:   1    -0.652611170266E+03    0.28842E+00   -0.30111E+01  8624   0.203E+01    0.159E+00
RMM:   2    -0.652988629942E+03   -0.37746E+00   -0.33003E+00 10158   0.455E+00    0.307E+00
RMM:   3    -0.652967289835E+03    0.21340E-01   -0.74329E-01 11493   0.203E+00    0.140E+00
RMM:   4    -0.652979180595E+03   -0.11891E-01   -0.15130E-01 13591   0.822E-01    0.145E+00
RMM:   5    -0.652962560609E+03    0.16620E-01   -0.29608E-02 12341   0.358E-01    0.401E-01
RMM:   6    -0.652963651748E+03   -0.10911E-02   -0.12873E-02 12892   0.199E-01    0.646E-01
RMM:   7    -0.652961497701E+03    0.21540E-02   -0.82138E-03 12631   0.173E-01    0.408E-01
RMM:   8    -0.652960438194E+03    0.10595E-02   -0.40584E-03 13045   0.119E-01    0.255E-01
RMM:   9    -0.652960204518E+03    0.23368E-03   -0.16284E-03 13820   0.721E-02    0.163E-01
RMM:  10    -0.652960053344E+03    0.15117E-03   -0.67713E-04 13473   0.415E-02    0.638E-02
RMM:  11    -0.652960079691E+03   -0.26347E-04   -0.37906E-04 12692   0.289E-02    0.752E-02
RMM:  12    -0.652960052418E+03    0.27273E-04   -0.20383E-04 11687   0.215E-02    0.291E-02
RMM:  13    -0.652960056679E+03   -0.42607E-05   -0.10955E-04 10231   0.146E-02    0.270E-02
RMM:  14    -0.652960060837E+03   -0.41582E-05   -0.62640E-05  9857   0.124E-02
  14 F= -.65296006E+03 E0= -.65289370E+03  d E =-.604652E-01
       N       E                     dE             d eps       ncg     rms          rms(c)
DAV:   1    -0.652892407483E+03    0.67649E-01   -0.64707E+00  9408   0.943E+00    0.739E-01
RMM:   2    -0.652973891911E+03   -0.81484E-01   -0.71035E-01 10185   0.211E+00    0.142E+00
RMM:   3    -0.652969011948E+03    0.48800E-02   -0.15939E-01 11528   0.936E-01    0.634E-01
RMM:   4    -0.652971637653E+03   -0.26257E-02   -0.32523E-02 13545   0.383E-01    0.666E-01
RMM:   5    -0.652968127649E+03    0.35100E-02   -0.65921E-03 12378   0.168E-01    0.187E-01
RMM:   6    -0.652968402217E+03   -0.27457E-03   -0.28237E-03 12825   0.935E-02    0.307E-01
RMM:   7    -0.652967866354E+03    0.53586E-03   -0.17921E-03 12683   0.812E-02    0.178E-01
RMM:   8    -0.652967672812E+03    0.19354E-03   -0.88630E-04 13130   0.553E-02    0.117E-01
RMM:   9    -0.652967620941E+03    0.51871E-04   -0.35479E-04 12883   0.334E-02    0.730E-02
RMM:  10    -0.652967592893E+03    0.28047E-04   -0.15692E-04 11867   0.198E-02    0.328E-02
RMM:  11    -0.652967596946E+03   -0.40532E-05   -0.91631E-05 10099   0.141E-02
  15 F= -.65296760E+03 E0= -.65290158E+03  d E =-.680014E-01
       N       E                     dE             d eps       ncg     rms          rms(c)
DAV:   1    -0.652615602309E+03    0.35199E+00   -0.35139E+01  8988   0.229E+01    0.239E+00
RMM:   2    -0.653281295721E+03   -0.66569E+00   -0.44460E+00 10205   0.530E+00    0.575E+00
RMM:   3    -0.653018171009E+03    0.26312E+00   -0.95025E-01  9829   0.261E+00    0.169E+00
RMM:   4    -0.653037258146E+03   -0.19087E-01   -0.27287E-01 13619   0.104E+00    0.166E+00
RMM:   5    -0.653014339317E+03    0.22919E-01   -0.52468E-02 12634   0.482E-01    0.671E-01
RMM:   6    -0.653016840016E+03   -0.25007E-02   -0.24734E-02 13102   0.299E-01    0.934E-01
RMM:   7    -0.653010356531E+03    0.64835E-02   -0.15368E-02 12279   0.245E-01    0.379E-01
RMM:   8    -0.653010220431E+03    0.13610E-03   -0.74131E-03 12974   0.166E-01    0.431E-01
RMM:   9    -0.653009005750E+03    0.12147E-02   -0.26964E-03 14027   0.102E-01    0.123E-01
RMM:  10    -0.653009037815E+03   -0.32064E-04   -0.10775E-03 14102   0.516E-02    0.120E-01
RMM:  11    -0.653008998379E+03    0.39436E-04   -0.53810E-04 13293   0.364E-02    0.673E-02
RMM:  12    -0.653009016575E+03   -0.18196E-04   -0.29658E-04 12854   0.244E-02    0.384E-02
RMM:  13    -0.653009047969E+03   -0.31395E-04   -0.17626E-04 11558   0.191E-02    0.513E-02
RMM:  14    -0.653009047278E+03    0.69103E-06   -0.10448E-04 10712   0.158E-02    0.246E-02
RMM:  15    -0.653009059735E+03   -0.12456E-04   -0.63443E-05  9636   0.119E-02    0.949E-03
RMM:  16    -0.653009061874E+03   -0.21391E-05   -0.21188E-05  7094   0.937E-03
  16 F= -.65300906E+03 E0= -.65294496E+03  d E =-.414649E-01
       N       E                     dE             d eps       ncg     rms          rms(c)
DAV:   1    -0.653009060207E+03   -0.47223E-06   -0.36561E-04  9464   0.712E-02    0.884E-03
RMM:   2    -0.653009068459E+03   -0.82521E-05   -0.51426E-05  7995   0.183E-02
  17 F= -.65300907E+03 E0= -.65294497E+03  d E =-.414715E-01
       N       E                     dE             d eps       ncg     rms          rms(c)
DAV:   1    -0.652756260785E+03    0.25280E+00   -0.23905E+01  8848   0.190E+01    0.196E+00
RMM:   2    -0.653217910813E+03   -0.46165E+00   -0.30996E+00 10160   0.431E+00    0.456E+00
RMM:   3    -0.653046250383E+03    0.17166E+00   -0.66531E-01  9795   0.213E+00    0.139E+00
RMM:   4    -0.653061872632E+03   -0.15622E-01   -0.18207E-01 13617   0.860E-01    0.145E+00
RMM:   5    -0.653045888094E+03    0.15985E-01   -0.39705E-02 12471   0.407E-01    0.481E-01
RMM:   6    -0.653047292234E+03   -0.14041E-02   -0.14957E-02 13217   0.223E-01    0.678E-01
RMM:   7    -0.653044135454E+03    0.31568E-02   -0.89187E-03 12466   0.178E-01    0.315E-01
RMM:   8    -0.653044030722E+03    0.10473E-03   -0.43236E-03 13027   0.122E-01    0.347E-01
RMM:   9    -0.653043206730E+03    0.82399E-03   -0.16961E-03 13852   0.788E-02    0.100E-01
RMM:  10    -0.653043242574E+03   -0.35843E-04   -0.75925E-04 13721   0.435E-02    0.108E-01
RMM:  11    -0.653043187653E+03    0.54921E-04   -0.38896E-04 12781   0.308E-02    0.501E-02
RMM:  12    -0.653043190504E+03   -0.28509E-05   -0.20562E-04 11748   0.200E-02    0.321E-02
RMM:  13    -0.653043202349E+03   -0.11846E-04   -0.12439E-04 10789   0.164E-02    0.413E-02
RMM:  14    -0.653043196624E+03    0.57249E-05   -0.71511E-05  9937   0.130E-02
  18 F= -.65304320E+03 E0= -.65297979E+03  d E =-.341282E-01
       N       E                     dE             d eps       ncg     rms          rms(c)
DAV:   1    -0.653034378390E+03    0.88240E-02   -0.80170E-01  9408   0.349E+00    0.361E-01
RMM:   2    -0.653050262702E+03   -0.15884E-01   -0.10520E-01 10169   0.798E-01    0.867E-01
RMM:   3    -0.653044334478E+03    0.59282E-02   -0.23250E-02  9657   0.396E-01    0.275E-01
RMM:   4    -0.653044774956E+03   -0.44048E-03   -0.65326E-03 13532   0.162E-01    0.252E-01
RMM:   5    -0.653044287917E+03    0.48704E-03   -0.13793E-03 12501   0.748E-02    0.921E-02
RMM:   6    -0.653044332317E+03   -0.44400E-04   -0.52259E-04 12559   0.411E-02    0.127E-01
RMM:   7    -0.653044222245E+03    0.11007E-03   -0.31501E-04 12183   0.333E-02    0.598E-02
RMM:   8    -0.653044217343E+03    0.49023E-05   -0.16824E-04 12434   0.238E-02    0.663E-02
RMM:   9    -0.653044186611E+03    0.30732E-04   -0.69792E-05 11188   0.156E-02    0.182E-02
RMM:  10    -0.653044186870E+03   -0.25933E-06   -0.33043E-05  6834   0.910E-03
  19 F= -.65304419E+03 E0= -.65298091E+03  d E =-.351184E-01
       N       E                     dE             d eps       ncg     rms          rms(c)
DAV:   1    -0.652934337765E+03    0.10985E+00   -0.98493E+00  8624   0.123E+01    0.782E-01
RMM:   2    -0.653053361736E+03   -0.11902E+00   -0.12294E+00 10136   0.275E+00    0.111E+00
RMM:   3    -0.653075040455E+03   -0.21679E-01   -0.26841E-01 12040   0.115E+00    0.826E-01
RMM:   4    -0.653076912779E+03   -0.18723E-02   -0.46857E-02 13442   0.456E-01    0.698E-01
RMM:   5    -0.653073208055E+03    0.37047E-02   -0.80525E-03 12825   0.187E-01    0.231E-01
RMM:   6    -0.653073514793E+03   -0.30674E-03   -0.34932E-03 12814   0.102E-01    0.352E-01
RMM:   7    -0.653072679886E+03    0.83491E-03   -0.24157E-03 12567   0.918E-02    0.180E-01
RMM:   8    -0.653072581887E+03    0.97999E-04   -0.12544E-03 12907   0.639E-02    0.156E-01
RMM:   9    -0.653072447019E+03    0.13487E-03   -0.50047E-04 13017   0.423E-02    0.638E-02
RMM:  10    -0.653072418188E+03    0.28831E-04   -0.22517E-04 12462   0.241E-02    0.389E-02
RMM:  11    -0.653072433933E+03   -0.15745E-04   -0.13647E-04 11382   0.179E-02    0.513E-02
RMM:  12    -0.653072420645E+03    0.13288E-04   -0.71106E-05 10281   0.134E-02    0.150E-02
RMM:  13    -0.653072422975E+03   -0.23299E-05   -0.29849E-05  6894   0.895E-03
  20 F= -.65307242E+03 E0= -.65300968E+03  d E =-.282361E-01
       N       E                     dE             d eps       ncg     rms          rms(c)
DAV:   1    -0.652871953786E+03    0.20047E+00   -0.15312E+01  8624   0.154E+01    0.973E-01
RMM:   2    -0.653057499379E+03   -0.18555E+00   -0.19116E+00 10146   0.341E+00    0.140E+00
RMM:   3    -0.653090687539E+03   -0.33188E-01   -0.41555E-01 12003   0.144E+00    0.102E+00
RMM:   4    -0.653093556783E+03   -0.28692E-02   -0.73753E-02 13457   0.570E-01    0.850E-01
RMM:   5    -0.653087931788E+03    0.56250E-02   -0.12190E-02 12843   0.231E-01    0.280E-01
RMM:   6    -0.653088420318E+03   -0.48853E-03   -0.54653E-03 12809   0.127E-01    0.438E-01
RMM:   7    -0.653087135185E+03    0.12851E-02   -0.36992E-03 12652   0.114E-01    0.220E-01
RMM:   8    -0.653086967738E+03    0.16745E-03   -0.18865E-03 13028   0.781E-02    0.180E-01
RMM:   9    -0.653086801843E+03    0.16589E-03   -0.74958E-04 13361   0.508E-02    0.818E-02
RMM:  10    -0.653086754766E+03    0.47077E-04   -0.34953E-04 12843   0.296E-02    0.457E-02
RMM:  11    -0.653086780464E+03   -0.25698E-04   -0.20884E-04 11981   0.219E-02    0.624E-02
RMM:  12    -0.653086760813E+03    0.19651E-04   -0.10607E-04 10979   0.164E-02    0.191E-02
RMM:  13    -0.653086765733E+03   -0.49205E-05   -0.56638E-05  8667   0.109E-02
  21 F= -.65308677E+03 E0= -.65302450E+03  d E =-.425789E-01
       N       E                     dE             d eps       ncg     rms          rms(c)
DAV:   1    -0.652926420680E+03    0.16034E+00   -0.14740E+01  8624   0.153E+01    0.115E+00
RMM:   2    -0.653135121268E+03   -0.20870E+00   -0.17415E+00  9805   0.322E+00    0.232E+00
RMM:   3    -0.653115219999E+03    0.19901E-01   -0.36049E-01 11610   0.138E+00    0.942E-01
RMM:   4    -0.653120476408E+03   -0.52564E-02   -0.70208E-02 13671   0.573E-01    0.938E-01
RMM:   5    -0.653113197913E+03    0.72785E-02   -0.14093E-02 12432   0.250E-01    0.260E-01
RMM:   6    -0.653114536885E+03   -0.13390E-02   -0.73621E-03 12978   0.152E-01    0.517E-01
RMM:   7    -0.653112563082E+03    0.19738E-02   -0.39083E-03 12867   0.121E-01    0.165E-01
RMM:   8    -0.653112560737E+03    0.23451E-05   -0.15316E-03 13770   0.664E-02    0.169E-01
RMM:   9    -0.653112395825E+03    0.16491E-03   -0.61839E-04 13380   0.413E-02    0.682E-02
RMM:  10    -0.653112376654E+03    0.19171E-04   -0.34169E-04 12814   0.269E-02    0.440E-02
RMM:  11    -0.653112398348E+03   -0.21694E-04   -0.18768E-04 11574   0.200E-02    0.589E-02
RMM:  12    -0.653112377998E+03    0.20350E-04   -0.95935E-05 10413   0.149E-02    0.182E-02
RMM:  13    -0.653112381034E+03   -0.30357E-05   -0.50335E-05  8220   0.105E-02
  22 F= -.65311238E+03 E0= -.65305105E+03  d E =-.256153E-01
       N       E                     dE             d eps       ncg     rms          rms(c)
DAV:   1    -0.653064220947E+03    0.48157E-01   -0.41659E+00  9408   0.818E+00    0.613E-01
RMM:   2    -0.653124016250E+03   -0.59795E-01   -0.49296E-01  9805   0.172E+00    0.127E+00
RMM:   3    -0.653117381542E+03    0.66347E-02   -0.10162E-01 11520   0.734E-01    0.500E-01
RMM:   4    -0.653118883178E+03   -0.15016E-02   -0.20224E-02 13619   0.306E-01    0.491E-01
RMM:   5    -0.653116867716E+03    0.20155E-02   -0.39654E-03 12440   0.132E-01    0.140E-01
RMM:   6    -0.653117258167E+03   -0.39045E-03   -0.20933E-03 12894   0.811E-02    0.276E-01
RMM:   7    -0.653116683705E+03    0.57446E-03   -0.11428E-03 12748   0.648E-02    0.845E-02
RMM:   8    -0.653116681736E+03    0.19693E-05   -0.44338E-04 13191   0.355E-02    0.866E-02
RMM:   9    -0.653116640563E+03    0.41173E-04   -0.18130E-04 12134   0.221E-02    0.374E-02
RMM:  10    -0.653116634828E+03    0.57343E-05   -0.10363E-04 11316   0.149E-02    0.252E-02
RMM:  11    -0.653116639073E+03   -0.42447E-05   -0.59470E-05  8758   0.115E-02
  23 F= -.65311664E+03 E0= -.65305575E+03  d E =-.298733E-01
       N       E                     dE             d eps       ncg     rms          rms(c)
DAV:   1    -0.652958526994E+03    0.15811E+00   -0.16200E+01  8708   0.166E+01    0.194E+00
RMM:   2    -0.653343359135E+03   -0.38483E+00   -0.22313E+00  9493   0.380E+00    0.475E+00
RMM:   3    -0.653140298447E+03    0.20306E+00   -0.49317E-01  9457   0.190E+00    0.136E+00
RMM:   4    -0.653144063220E+03   -0.37648E-02   -0.12133E-01 13652   0.741E-01    0.120E+00
RMM:   5    -0.653131890728E+03    0.12172E-01   -0.26811E-02 12182   0.358E-01    0.453E-01
RMM:   6    -0.653133501706E+03   -0.16110E-02   -0.13118E-02 12809   0.218E-01    0.692E-01
RMM:   7    -0.653130091071E+03    0.34106E-02   -0.80396E-03 12196   0.182E-01    0.273E-01
RMM:   8    -0.653129592353E+03    0.49872E-03   -0.32049E-03 13142   0.108E-01    0.207E-01
RMM:   9    -0.653129399917E+03    0.19244E-03   -0.11193E-03 13983   0.603E-02    0.104E-01
RMM:  10    -0.653129399942E+03   -0.25037E-07   -0.50953E-04 13192   0.341E-02    0.727E-02
RMM:  11    -0.653129405968E+03   -0.60251E-05   -0.26854E-04 12100   0.240E-02    0.509E-02
RMM:  12    -0.653129421409E+03   -0.15442E-04   -0.14772E-04 11011   0.174E-02    0.234E-02
RMM:  13    -0.653129440420E+03   -0.19010E-04   -0.93022E-05  9971   0.139E-02    0.310E-02
RMM:  14    -0.653129445460E+03   -0.50399E-05   -0.55635E-05  9078   0.121E-02
  24 F= -.65312945E+03 E0= -.65307018E+03  d E =-.128064E-01
       N       E                     dE             d eps       ncg     rms          rms(c)
DAV:   1    -0.653125221164E+03    0.42193E-02   -0.45991E-01  9464   0.278E+00    0.327E-01
RMM:   2    -0.653135906444E+03   -0.10685E-01   -0.62144E-02  9608   0.621E-01    0.774E-01
RMM:   3    -0.653130296464E+03    0.56100E-02   -0.13840E-02  9576   0.320E-01    0.217E-01
RMM:   4    -0.653130510680E+03   -0.21422E-03   -0.35692E-03 13682   0.128E-01    0.214E-01
RMM:   5    -0.653130117388E+03    0.39329E-03   -0.75008E-04 11901   0.603E-02    0.732E-02
RMM:   6    -0.653130160659E+03   -0.43271E-04   -0.37813E-04 12354   0.370E-02    0.114E-01
RMM:   7    -0.653130060281E+03    0.10038E-03   -0.21179E-04 10810   0.291E-02    0.446E-02
RMM:   8    -0.653130040382E+03    0.19900E-04   -0.89888E-05  9680   0.176E-02    0.321E-02
RMM:   9    -0.653130034100E+03    0.62820E-05   -0.27297E-05  6219   0.106E-02
  25 F= -.65313003E+03 E0= -.65307049E+03  d E =-.133950E-01
       N       E                     dE             d eps       ncg     rms          rms(c)
DAV:   1    -0.653018558919E+03    0.11148E+00   -0.94068E+00  8624   0.128E+01    0.908E-01
RMM:   2    -0.653153632604E+03   -0.13507E+00   -0.11573E+00  9238   0.260E+00    0.174E+00
RMM:   3    -0.653142779760E+03    0.10853E-01   -0.22175E-01 11421   0.108E+00    0.696E-01
RMM:   4    -0.653146157562E+03   -0.33778E-02   -0.40081E-02 13688   0.442E-01    0.744E-01
RMM:   5    -0.653141626661E+03    0.45309E-02   -0.83863E-03 12411   0.196E-01    0.204E-01
RMM:   6    -0.653142278412E+03   -0.65175E-03   -0.41676E-03 12922   0.117E-01    0.370E-01
RMM:   7    -0.653141194225E+03    0.10842E-02   -0.22591E-03 12810   0.911E-02    0.119E-01
RMM:   8    -0.653141144547E+03    0.49678E-04   -0.81419E-04 13745   0.485E-02    0.993E-02
RMM:   9    -0.653141117116E+03    0.27431E-04   -0.34804E-04 13022   0.310E-02    0.651E-02
RMM:  10    -0.653141090613E+03    0.26504E-04   -0.16820E-04 12237   0.198E-02    0.241E-02
RMM:  11    -0.653141104341E+03   -0.13729E-04   -0.10015E-04 10332   0.141E-02    0.402E-02
RMM:  12    -0.653141094897E+03    0.94441E-05   -0.50557E-05  9131   0.118E-02
  26 F= -.65314109E+03 E0= -.65308208E+03  d E =-.110608E-01
       N       E                     dE             d eps       ncg     rms          rms(c)
DAV:   1    -0.653137063119E+03    0.40412E-02   -0.33078E-01  9688   0.240E+00    0.174E-01
RMM:   2    -0.653142040290E+03   -0.49772E-02   -0.41499E-02  9264   0.492E-01    0.355E-01
RMM:   3    -0.653141501877E+03    0.53841E-03   -0.79636E-03 11314   0.204E-01    0.138E-01
RMM:   4    -0.653141613970E+03   -0.11209E-03   -0.15141E-03 13409   0.840E-02    0.137E-01
RMM:   5    -0.653141461114E+03    0.15286E-03   -0.31644E-04 11658   0.377E-02    0.402E-02
RMM:   6    -0.653141489426E+03   -0.28311E-04   -0.15946E-04 11482   0.226E-02    0.749E-02
RMM:   7    -0.653141445417E+03    0.44009E-04   -0.91389E-05 11072   0.185E-02    0.240E-02
RMM:   8    -0.653141444384E+03    0.10335E-05   -0.38030E-05  7649   0.108E-02
  27 F= -.65314144E+03 E0= -.65308253E+03  d E =-.114103E-01
       N       E                     dE             d eps       ncg     rms          rms(c)
DAV:   1    -0.653114134586E+03    0.27311E-01   -0.28138E+00  8792   0.689E+00    0.364E-01
RMM:   2    -0.653142931145E+03   -0.28797E-01   -0.30494E-01  9230   0.131E+00    0.422E-01
RMM:   3    -0.653149131990E+03   -0.62008E-02   -0.57465E-02 11968   0.523E-01    0.449E-01
RMM:   4    -0.653148404664E+03    0.72733E-03   -0.84185E-03 13365   0.199E-01    0.169E-01
RMM:   5    -0.653148266916E+03    0.13775E-03   -0.15922E-03 13027   0.772E-02    0.114E-01
RMM:   6    -0.653148214591E+03    0.52325E-04   -0.70461E-04 12402   0.478E-02    0.106E-01
RMM:   7    -0.653148183384E+03    0.31207E-04   -0.44132E-04 12276   0.385E-02    0.103E-01
RMM:   8    -0.653148112823E+03    0.70562E-04   -0.19830E-04 11968   0.257E-02    0.352E-02
RMM:   9    -0.653148117541E+03   -0.47188E-05   -0.83148E-05 11139   0.151E-02
  28 F= -.65314812E+03 E0= -.65308940E+03  d E =-.667316E-02
       N       E                     dE             d eps       ncg     rms          rms(c)
DAV:   1    -0.653126187611E+03    0.21925E-01   -0.19845E+00  8960   0.579E+00    0.308E-01
RMM:   2    -0.653146470950E+03   -0.20283E-01   -0.21556E-01  9238   0.111E+00    0.349E-01
RMM:   3    -0.653150936827E+03   -0.44659E-02   -0.40841E-02 12104   0.439E-01    0.383E-01
RMM:   4    -0.653150391295E+03    0.54553E-03   -0.59963E-03 13382   0.168E-01    0.145E-01
RMM:   5    -0.653150296542E+03    0.94753E-04   -0.12008E-03 12858   0.667E-02    0.945E-02
RMM:   6    -0.653150250395E+03    0.46147E-04   -0.51826E-04 12257   0.410E-02    0.820E-02
RMM:   7    -0.653150247400E+03    0.29949E-05   -0.31011E-04 12134   0.318E-02    0.906E-02
RMM:   8    -0.653150196851E+03    0.50549E-04   -0.14575E-04 11704   0.217E-02    0.299E-02
RMM:   9    -0.653150197217E+03   -0.36579E-06   -0.66312E-05  9944   0.124E-02
  29 F= -.65315020E+03 E0= -.65309167E+03  d E =-.875283E-02
       N       E                     dE             d eps       ncg     rms          rms(c)
DAV:   1    -0.653115729389E+03    0.34467E-01   -0.33906E+00  8624   0.736E+00    0.412E-01
RMM:   2    -0.653149765675E+03   -0.34036E-01   -0.36067E-01  9503   0.145E+00    0.521E-01
RMM:   3    -0.653156701869E+03   -0.69362E-02   -0.71928E-02 11952   0.591E-01    0.451E-01
RMM:   4    -0.653156190431E+03    0.51144E-03   -0.97642E-03 13031   0.216E-01    0.237E-01
RMM:   5    -0.653155858554E+03    0.33188E-03   -0.20263E-03 12834   0.897E-02    0.134E-01
RMM:   6    -0.653155866693E+03   -0.81389E-05   -0.89535E-04 12502   0.556E-02    0.155E-01
RMM:   7    -0.653155692681E+03    0.17401E-03   -0.58236E-04 12245   0.467E-02    0.815E-02
RMM:   8    -0.653155662916E+03    0.29765E-04   -0.24979E-04 12142   0.276E-02    0.587E-02
RMM:   9    -0.653155650932E+03    0.11984E-04   -0.11344E-04 11382   0.183E-02    0.392E-02
RMM:  10    -0.653155640641E+03    0.10290E-04   -0.58061E-05  9208   0.116E-02    0.159E-02
RMM:  11    -0.653155642959E+03   -0.23171E-05   -0.31801E-05  7011   0.910E-03
  30 F= -.65315564E+03 E0= -.65309732E+03  d E =-.544574E-02
       N       E                     dE             d eps       ncg     rms          rms(c)
DAV:   1    -0.653140476238E+03    0.15164E-01   -0.13869E+00  9408   0.470E+00    0.262E-01
RMM:   2    -0.653154421636E+03   -0.13945E-01   -0.14723E-01  9515   0.922E-01    0.338E-01
RMM:   3    -0.653157200885E+03   -0.27792E-02   -0.29441E-02 12068   0.375E-01    0.282E-01
RMM:   4    -0.653157018041E+03    0.18284E-03   -0.39226E-03 13089   0.137E-01    0.153E-01
RMM:   5    -0.653156875360E+03    0.14268E-03   -0.84309E-04 12452   0.577E-02    0.852E-02
RMM:   6    -0.653156886833E+03   -0.11473E-04   -0.37662E-04 12027   0.359E-02    0.103E-01
RMM:   7    -0.653156812647E+03    0.74186E-04   -0.24868E-04 11824   0.306E-02    0.531E-02
RMM:   8    -0.653156797337E+03    0.15311E-04   -0.10648E-04 11525   0.180E-02    0.350E-02
RMM:   9    -0.653156795169E+03    0.21672E-05   -0.53018E-05  9004   0.120E-02
  31 F= -.65315680E+03 E0= -.65309864E+03  d E =-.659795E-02
       N       E                     dE             d eps       ncg     rms          rms(c)
DAV:   1    -0.653119280338E+03    0.37517E-01   -0.36096E+00  8624   0.741E+00    0.447E-01
RMM:   2    -0.653153697730E+03   -0.34417E-01   -0.38290E-01  9772   0.147E+00    0.432E-01
RMM:   3    -0.653162830087E+03   -0.91324E-02   -0.75428E-02 11974   0.601E-01    0.576E-01
RMM:   4    -0.653160988706E+03    0.18414E-02   -0.10693E-02 13080   0.225E-01    0.166E-01
RMM:   5    -0.653161049284E+03   -0.60578E-04   -0.22321E-03 13161   0.902E-02    0.185E-01
RMM:   6    -0.653160795975E+03    0.25331E-03   -0.97529E-04 12431   0.582E-02    0.977E-02
RMM:   7    -0.653160754152E+03    0.41823E-04   -0.56501E-04 12443   0.432E-02    0.922E-02
RMM:   8    -0.653160713508E+03    0.40644E-04   -0.26082E-04 12199   0.292E-02    0.566E-02
RMM:   9    -0.653160703926E+03    0.95823E-05   -0.11914E-04 11355   0.182E-02    0.419E-02
RMM:  10    -0.653160692916E+03    0.11010E-04   -0.65680E-05  9376   0.124E-02    0.142E-02
RMM:  11    -0.653160695140E+03   -0.22236E-05   -0.36360E-05  7356   0.928E-03
  32 F= -.65316070E+03 E0= -.65310289E+03  d E =-.389997E-02
       N       E                     dE             d eps       ncg     rms          rms(c)
DAV:   1    -0.653151415467E+03    0.92774E-02   -0.84537E-01  9408   0.359E+00    0.215E-01
RMM:   2    -0.653159460396E+03   -0.80449E-02   -0.89533E-02  9797   0.710E-01    0.203E-01
RMM:   3    -0.653161629582E+03   -0.21692E-02   -0.17620E-02 12148   0.291E-01    0.282E-01
RMM:   4    -0.653161211348E+03    0.41823E-03   -0.26930E-03 13206   0.110E-01    0.849E-02
RMM:   5    -0.653161215003E+03   -0.36542E-05   -0.52300E-04 12508   0.429E-02    0.873E-02
RMM:   6    -0.653161163381E+03    0.51621E-04   -0.23998E-04 11861   0.287E-02    0.499E-02
RMM:   7    -0.653161150350E+03    0.13032E-04   -0.14231E-04 11632   0.214E-02    0.449E-02
RMM:   8    -0.653161143552E+03    0.67979E-05   -0.70209E-05 10914   0.149E-02
  33 F= -.65316114E+03 E0= -.65310352E+03  d E =-.434838E-02
       N       E                     dE             d eps       ncg     rms          rms(c)
DAV:   1    -0.653122099359E+03    0.39051E-01   -0.34348E+00  8624   0.706E+00    0.444E-01
RMM:   2    -0.653161152773E+03   -0.39053E-01   -0.37595E-01  9866   0.147E+00    0.745E-01
RMM:   3    -0.653164052249E+03   -0.28995E-02   -0.74752E-02 12105   0.594E-01    0.395E-01
RMM:   4    -0.653164832940E+03   -0.78069E-03   -0.11407E-02 13383   0.232E-01    0.383E-01
RMM:   5    -0.653163582404E+03    0.12505E-02   -0.23379E-03 12338   0.101E-01    0.104E-01
RMM:   6    -0.653163719367E+03   -0.13696E-03   -0.11187E-03 12708   0.593E-02    0.177E-01
RMM:   7    -0.653163494943E+03    0.22442E-03   -0.60934E-04 12520   0.460E-02    0.720E-02
RMM:   8    -0.653163467760E+03    0.27183E-04   -0.25406E-04 12621   0.272E-02    0.509E-02
RMM:   9    -0.653163463942E+03    0.38180E-05   -0.11361E-04 11596   0.177E-02    0.391E-02
RMM:  10    -0.653163454641E+03    0.93007E-05   -0.63362E-05  9654   0.120E-02
  34 F= -.65316345E+03 E0= -.65310587E+03  d E =-.231109E-02
       N       E                     dE             d eps       ncg     rms          rms(c)
DAV:   1    -0.653163415755E+03    0.48187E-04   -0.41217E-03 10444   0.245E-01    0.267E-02
RMM:   2    -0.653163545199E+03   -0.12944E-03   -0.52199E-04 10023   0.543E-02    0.107E-01
RMM:   3    -0.653163460048E+03    0.85151E-04   -0.12178E-04  7674   0.313E-02    0.143E-02
RMM:   4    -0.653163464535E+03   -0.44866E-05   -0.40375E-05  7301   0.126E-02
  35 F= -.65316346E+03 E0= -.65310588E+03  d E =-.232098E-02
       N       E                     dE             d eps       ncg     rms          rms(c)
DAV:   1    -0.653153106562E+03    0.10353E-01   -0.10655E+00  9100   0.402E+00    0.410E-01
RMM:   2    -0.653171499050E+03   -0.18392E-01   -0.12721E-01 10041   0.896E-01    0.891E-01
RMM:   3    -0.653164504979E+03    0.69941E-02   -0.26316E-02  9715   0.442E-01    0.251E-01
RMM:   4    -0.653165223206E+03   -0.71823E-03   -0.75649E-03 13611   0.179E-01    0.290E-01
RMM:   5    -0.653164538718E+03    0.68449E-03   -0.15275E-03 12391   0.806E-02    0.910E-02
RMM:   6    -0.653164609882E+03   -0.71164E-04   -0.69958E-04 12714   0.473E-02    0.140E-01
RMM:   7    -0.653164485103E+03    0.12478E-03   -0.38498E-04 12422   0.380E-02    0.658E-02
RMM:   8    -0.653164448809E+03    0.36294E-04   -0.14927E-04 12065   0.221E-02    0.288E-02
RMM:   9    -0.653164455450E+03   -0.66411E-05   -0.65139E-05  9934   0.134E-02
  36 F= -.65316446E+03 E0= -.65310706E+03  d E =-.990915E-03
       N       E                     dE             d eps       ncg     rms          rms(c)
DAV:   1    -0.653164385738E+03    0.63071E-04   -0.81139E-03 10080   0.351E-01    0.366E-02
RMM:   2    -0.653164528469E+03   -0.14273E-03   -0.95179E-04 10296   0.784E-02    0.838E-02
RMM:   3    -0.653164472413E+03    0.56056E-04   -0.19838E-04  9526   0.395E-02    0.272E-02
RMM:   4    -0.653164476603E+03   -0.41902E-05   -0.62522E-05  8393   0.170E-02
  37 F= -.65316448E+03 E0= -.65310706E+03  d E =-.101207E-02
       N       E                     dE             d eps       ncg     rms          rms(c)
DAV:   1    -0.653161951729E+03    0.25207E-02   -0.26177E-01  9156   0.205E+00    0.177E-01
RMM:   2    -0.653166201201E+03   -0.42495E-02   -0.30932E-02  9835   0.431E-01    0.403E-01
RMM:   3    -0.653165034069E+03    0.11671E-02   -0.58753E-03 10455   0.192E-01    0.134E-01
RMM:   4    -0.653165131270E+03   -0.97201E-04   -0.15746E-03 13374   0.819E-02    0.124E-01
RMM:   5    -0.653164996034E+03    0.13524E-03   -0.29241E-04 11358   0.360E-02    0.400E-02
RMM:   6    -0.653165018073E+03   -0.22039E-04   -0.13526E-04 11174   0.214E-02    0.686E-02
RMM:   7    -0.653164978582E+03    0.39491E-04   -0.80452E-05 10594   0.173E-02    0.221E-02
RMM:   8    -0.653164974684E+03    0.38973E-05   -0.29596E-05  6630   0.104E-02
  38 F= -.65316497E+03 E0= -.65310761E+03  d E =-.498081E-03
       N       E                     dE             d eps       ncg     rms          rms(c)
DAV:   1    -0.653163914003E+03    0.10646E-02   -0.10174E-01  9352   0.128E+00    0.111E-01
RMM:   2    -0.653165672294E+03   -0.17583E-02   -0.12169E-02  9814   0.270E-01    0.272E-01
RMM:   3    -0.653165124588E+03    0.54771E-03   -0.23251E-03 10122   0.121E-01    0.873E-02
RMM:   4    -0.653165160822E+03   -0.36234E-04   -0.65636E-04 12297   0.523E-02    0.759E-02
RMM:   5    -0.653165113215E+03    0.47607E-04   -0.12322E-04 10717   0.228E-02    0.280E-02
RMM:   6    -0.653165118090E+03   -0.48754E-05   -0.51636E-05  7939   0.131E-02
  39 F= -.65316512E+03 E0= -.65310778E+03  d E =-.641487E-03
       N       E                     dE             d eps       ncg     rms          rms(c)
DAV:   1    -0.653164875524E+03    0.23769E-03   -0.22045E-02  9436   0.592E-01    0.576E-02
RMM:   2    -0.653165280646E+03   -0.40512E-03   -0.26418E-03  9838   0.126E-01    0.140E-01
RMM:   3    -0.653165124428E+03    0.15622E-03   -0.52890E-04  8934   0.609E-02    0.448E-02
RMM:   4    -0.653165132639E+03   -0.82104E-05   -0.16212E-04 10541   0.259E-02    0.378E-02
RMM:   5    -0.653165120766E+03    0.11872E-04   -0.35339E-05  6621   0.127E-02    0.134E-02
RMM:   6    -0.653165122638E+03   -0.18716E-05   -0.15487E-05  5828   0.893E-03
  40 F= -.65316512E+03 E0= -.65310779E+03  d E =-.646035E-03
       N       E                     dE             d eps       ncg     rms          rms(c)
DAV:   1    -0.653165213766E+03   -0.93000E-04   -0.25762E-02  9408   0.551E-01    0.649E-02
RMM:   2    -0.653165643743E+03   -0.42998E-03   -0.24276E-03 10110   0.127E-01    0.159E-01
RMM:   3    -0.653165408453E+03    0.23529E-03   -0.55898E-04  8950   0.681E-02    0.433E-02
RMM:   4    -0.653165418235E+03   -0.97822E-05   -0.18181E-04 11024   0.274E-02    0.394E-02
RMM:   5    -0.653165405122E+03    0.13113E-04   -0.41587E-05  6903   0.136E-02    0.158E-02
RMM:   6    -0.653165405406E+03   -0.28377E-06   -0.17425E-05  5759   0.932E-03
  41 F= -.65316541E+03 E0= -.65310808E+03  d E =-.282768E-03
       N       E                     dE             d eps       ncg     rms          rms(c)
DAV:   1    -0.653165180153E+03    0.22497E-03   -0.49933E-02  9184   0.768E-01    0.913E-02
RMM:   2    -0.653166042841E+03   -0.86269E-03   -0.47031E-03 10128   0.177E-01    0.231E-01
RMM:   3    -0.653165564509E+03    0.47833E-03   -0.10946E-03  9280   0.950E-02    0.641E-02
RMM:   4    -0.653165582239E+03   -0.17730E-04   -0.36880E-04 12168   0.384E-02    0.546E-02
RMM:   5    -0.653165555414E+03    0.26825E-04   -0.85792E-05  9669   0.181E-02    0.205E-02
RMM:   6    -0.653165560924E+03   -0.55094E-05   -0.39261E-05  7039   0.120E-02
  42 F= -.65316556E+03 E0= -.65310824E+03  d E =-.438286E-03
       N       E                     dE             d eps       ncg     rms          rms(c)
DAV:   1    -0.653165676095E+03   -0.12068E-03   -0.29124E-02  9352   0.617E-01    0.121E-01
RMM:   2    -0.653166728324E+03   -0.10522E-02   -0.38007E-03  9941   0.162E-01    0.297E-01
RMM:   3    -0.653165766643E+03    0.96168E-03   -0.10081E-03  9384   0.974E-02    0.725E-02
RMM:   4    -0.653165773852E+03   -0.72083E-05   -0.29497E-04 12520   0.369E-02    0.666E-02
RMM:   5    -0.653165734292E+03    0.39560E-04   -0.85605E-05 10656   0.202E-02    0.245E-02
RMM:   6    -0.653165739905E+03   -0.56137E-05   -0.46465E-05  7652   0.136E-02
  43 F= -.65316574E+03 E0= -.65310842E+03  d E =-.178982E-03
       N       E                     dE             d eps       ncg     rms          rms(c)
DAV:   1    -0.653165652110E+03    0.82181E-04   -0.64821E-02  8960   0.923E-01    0.188E-01
RMM:   2    -0.653168218173E+03   -0.25661E-02   -0.87617E-03  9759   0.246E-01    0.465E-01
RMM:   3    -0.653165841648E+03    0.23765E-02   -0.23073E-03  9251   0.147E-01    0.116E-01
RMM:   4    -0.653165845125E+03   -0.34768E-05   -0.63091E-04 13093   0.549E-02    0.100E-01
RMM:   5    -0.653165749273E+03    0.95851E-04   -0.19336E-04 11310   0.308E-02    0.302E-02
RMM:   6    -0.653165773934E+03   -0.24660E-04   -0.11156E-04 10582   0.201E-02    0.600E-02
RMM:   7    -0.653165747722E+03    0.26212E-04   -0.45454E-05  6896   0.146E-02    0.158E-02
RMM:   8    -0.653165749213E+03   -0.14915E-05   -0.15309E-05  5638   0.921E-03
  44 F= -.65316575E+03 E0= -.65310850E+03  d E =-.188290E-03
       N       E                     dE             d eps       ncg     rms          rms(c)
DAV:   1    -0.653165773781E+03   -0.26059E-04   -0.10230E-02  9408   0.367E-01    0.728E-02
RMM:   2    -0.653166145674E+03   -0.37189E-03   -0.13424E-03  9909   0.969E-02    0.178E-01
RMM:   3    -0.653165802505E+03    0.34317E-03   -0.35292E-04  9224   0.579E-02    0.442E-02
RMM:   4    -0.653165803801E+03   -0.12958E-05   -0.98832E-05 11036   0.222E-02
  45 F= -.65316580E+03 E0= -.65310854E+03  d E =-.242877E-03
       N       E                     dE             d eps       ncg     rms          rms(c)
DAV:   1    -0.653165786638E+03    0.15867E-04   -0.58326E-03  9408   0.277E-01    0.613E-02
RMM:   2    -0.653166015576E+03   -0.22894E-03   -0.83192E-04 10184   0.749E-02    0.144E-01
RMM:   3    -0.653165794829E+03    0.22075E-03   -0.22410E-04  8821   0.454E-02    0.427E-02
RMM:   4    -0.653165792311E+03    0.25183E-05   -0.72505E-05  9487   0.186E-02
  46 F= -.65316579E+03 E0= -.65310852E+03  d E =-.231387E-03
       N       E                     dE             d eps       ncg     rms          rms(c)
DAV:   1    -0.653165756708E+03    0.38121E-04   -0.10325E-02  9408   0.380E-01    0.273E-02
RMM:   2    -0.653165852311E+03   -0.95603E-04   -0.91110E-04  9376   0.754E-02    0.496E-02
RMM:   3    -0.653165849563E+03    0.27477E-05   -0.17806E-04  8824   0.325E-02    0.242E-02
RMM:   4    -0.653165848843E+03    0.71988E-06   -0.34562E-05  6176   0.143E-02
  47 F= -.65316585E+03 E0= -.65310857E+03  d E =-.565327E-04
       N       E                     dE             d eps       ncg     rms          rms(c)
DAV:   1    -0.653165787052E+03    0.62511E-04   -0.11734E-02  9352   0.405E-01    0.247E-02
RMM:   2    -0.653165902972E+03   -0.11592E-03   -0.10489E-03  9501   0.820E-02    0.523E-02
RMM:   3    -0.653165904152E+03   -0.11797E-05   -0.22925E-04  9796   0.341E-02    0.208E-02
RMM:   4    -0.653165904314E+03   -0.16169E-06   -0.35126E-05  6416   0.143E-02
  48 F= -.65316590E+03 E0= -.65310863E+03  d E =-.112003E-03
       N       E                     dE             d eps       ncg     rms          rms(c)
DAV:   1    -0.653165496535E+03    0.40762E-03   -0.46816E-02  8960   0.810E-01    0.479E-02
RMM:   2    -0.653165949740E+03   -0.45320E-03   -0.41544E-03  9595   0.163E-01    0.982E-02
RMM:   3    -0.653165960052E+03   -0.10313E-04   -0.85638E-04 11540   0.681E-02    0.425E-02
RMM:   4    -0.653165966880E+03   -0.68279E-05   -0.15804E-04 10103   0.272E-02    0.361E-02
RMM:   5    -0.653165955666E+03    0.11215E-04   -0.31630E-05  6553   0.126E-02    0.157E-02
RMM:   6    -0.653165957373E+03   -0.17073E-05   -0.15121E-05  5775   0.896E-03
  49 F= -.65316596E+03 E0= -.65310869E+03  d E =-.165062E-03
       N       E                     dE             d eps       ncg     rms          rms(c)
DAV:   1    -0.653165986384E+03   -0.30718E-04   -0.24254E-03 10164   0.168E-01    0.245E-02
RMM:   2    -0.653166035312E+03   -0.48928E-04   -0.23493E-04  9656   0.401E-02    0.592E-02
RMM:   3    -0.653165999197E+03    0.36115E-04   -0.56758E-05  6677   0.224E-02    0.156E-02
RMM:   4    -0.653165999501E+03   -0.30445E-06   -0.15315E-05  5849   0.966E-03
  50 F= -.65316600E+03 E0= -.65310873E+03  d E =-.421285E-04
       N       E                     dE             d eps       ncg     rms          rms(c)
DAV:   1    -0.653165933667E+03    0.65530E-04   -0.21705E-02  9156   0.503E-01    0.584E-02
RMM:   2    -0.653166270167E+03   -0.33650E-03   -0.18584E-03  9760   0.115E-01    0.146E-01
RMM:   3    -0.653166084263E+03    0.18590E-03   -0.42545E-04  9681   0.591E-02    0.457E-02
RMM:   4    -0.653166085707E+03   -0.14440E-05   -0.14112E-04 10944   0.249E-02    0.346E-02
RMM:   5    -0.653166073665E+03    0.12042E-04   -0.34565E-05  6630   0.131E-02    0.136E-02
RMM:   6    -0.653166075115E+03   -0.14503E-05   -0.16196E-05  5619   0.918E-03
  51 F= -.65316608E+03 E0= -.65310881E+03  d E =-.117742E-03
       N       E                     dE             d eps       ncg     rms          rms(c)
DAV:   1    -0.653166063649E+03    0.10016E-04   -0.20368E-03  9576   0.154E-01    0.226E-02
RMM:   2    -0.653166116017E+03   -0.52368E-04   -0.20448E-04  9865   0.371E-02    0.679E-02
RMM:   3    -0.653166075952E+03    0.40065E-04   -0.49618E-05  6528   0.206E-02    0.190E-02
RMM:   4    -0.653166074651E+03    0.13014E-05   -0.15067E-05  5743   0.935E-03
  52 F= -.65316607E+03 E0= -.65310879E+03  d E =-.117278E-03
       N       E                     dE             d eps       ncg     rms          rms(c)
DAV:   1    -0.653166102102E+03   -0.26150E-04   -0.59166E-03  9408   0.261E-01    0.491E-02
RMM:   2    -0.653166294047E+03   -0.19195E-03   -0.66734E-04 10306   0.678E-02    0.126E-01
RMM:   3    -0.653166121616E+03    0.17243E-03   -0.18146E-04  8692   0.409E-02    0.284E-02
RMM:   4    -0.653166122878E+03   -0.12613E-05   -0.50258E-05  8190   0.155E-02
  53 F= -.65316612E+03 E0= -.65310885E+03  d E =-.482270E-04
