  64  64   0   0
  0.1129557E+02  0.8932500E-09  0.9055600E-09  0.8937200E-09  0.5000000E-15
  1.000000000000000E-004
  CAR 
 HECN                                    
     15.53104618    -50.07943191  301      8.94856420      1.00000000
    -50.079  0.0000E+00  0.0000E+00
    -49.861  0.0000E+00  0.0000E+00
    -49.642  0.0000E+00  0.0000E+00
    -49.423  0.0000E+00  0.0000E+00
    -49.205  0.0000E+00  0.0000E+00
    -48.986  0.0000E+00  0.0000E+00
    -48.767  0.0000E+00  0.0000E+00
    -48.549  0.0000E+00  0.0000E+00
    -48.330  0.0000E+00  0.0000E+00
    -48.111  0.0000E+00  0.0000E+00
    -47.892  0.0000E+00  0.0000E+00
    -47.674  0.1523E-16  0.3331E-17
    -47.455  0.1906E-07  0.4168E-08
    -47.236  0.2251E-02  0.4923E-03
    -47.018  0.1072E+00  0.2393E-01
    -46.799  0.2928E+00  0.8797E-01
    -46.580  0.2351E+00  0.1394E+00
    -46.362  0.2779E-02  0.1400E+00
    -46.143  0.1927E-07  0.1400E+00
    -45.924  0.2031E-16  0.1400E+00
    -45.705  0.0000E+00  0.1400E+00
    -45.487  0.0000E+00  0.1400E+00
    -45.268  0.0000E+00  0.1400E+00
    -45.049  0.0000E+00  0.1400E+00
    -44.831  0.0000E+00  0.1400E+00
    -44.612  0.0000E+00  0.1400E+00
    -44.393  0.0000E+00  0.1400E+00
    -44.174  0.0000E+00  0.1400E+00
    -43.956  0.0000E+00  0.1400E+00
    -43.737  0.0000E+00  0.1400E+00
    -43.518  0.0000E+00  0.1400E+00
    -43.300  0.0000E+00  0.1400E+00
    -43.081  0.0000E+00  0.1400E+00
    -42.862  0.0000E+00  0.1400E+00
    -42.644  0.0000E+00  0.1400E+00
    -42.425  0.0000E+00  0.1400E+00
    -42.206  0.0000E+00  0.1400E+00
    -41.987  0.0000E+00  0.1400E+00
    -41.769  0.0000E+00  0.1400E+00
    -41.550  0.0000E+00  0.1400E+00
    -41.331  0.0000E+00  0.1400E+00
    -41.113  0.0000E+00  0.1400E+00
    -40.894  0.1995E-15  0.1400E+00
    -40.675  0.9724E-07  0.1400E+00
    -40.457  0.5607E-02  0.1412E+00
    -40.238  0.1675E+00  0.1779E+00
    -40.019  0.9990E-01  0.1997E+00
    -39.800  0.9572E-01  0.2206E+00
    -39.582  0.1781E+00  0.2596E+00
    -39.363  0.4839E-01  0.2702E+00
    -39.144  0.4483E-01  0.2800E+00
    -38.926  0.8404E-04  0.2800E+00
    -38.707  0.2452E-10  0.2800E+00
    -38.488  0.0000E+00  0.2800E+00
    -38.270  0.0000E+00  0.2800E+00
    -38.051  0.0000E+00  0.2800E+00
    -37.832  0.0000E+00  0.2800E+00
    -37.613  0.0000E+00  0.2800E+00
    -37.395  0.0000E+00  0.2800E+00
    -37.176  0.0000E+00  0.2800E+00
    -36.957  0.0000E+00  0.2800E+00
    -36.739  0.0000E+00  0.2800E+00
    -36.520  0.0000E+00  0.2800E+00
    -36.301  0.0000E+00  0.2800E+00
    -36.083  0.0000E+00  0.2800E+00
    -35.864  0.0000E+00  0.2800E+00
    -35.645  0.0000E+00  0.2800E+00
    -35.426  0.0000E+00  0.2800E+00
    -35.208  0.9416E-09  0.2800E+00
    -34.989  0.5656E-03  0.2801E+00
    -34.770  0.1244E+00  0.3073E+00
    -34.552  0.9158E+00  0.5076E+00
    -34.333  0.5872E+00  0.6360E+00
    -34.114  0.1809E-01  0.6400E+00
    -33.896  0.1076E-05  0.6400E+00
    -33.677  0.9932E-14  0.6400E+00
    -33.458  0.0000E+00  0.6400E+00
    -33.239  0.0000E+00  0.6400E+00
    -33.021  0.0000E+00  0.6400E+00
    -32.802  0.0000E+00  0.6400E+00
    -32.583  0.0000E+00  0.6400E+00
    -32.365  0.0000E+00  0.6400E+00
    -32.146  0.0000E+00  0.6400E+00
    -31.927  0.0000E+00  0.6400E+00
    -31.708  0.0000E+00  0.6400E+00
    -31.490  0.0000E+00  0.6400E+00
    -31.271  0.0000E+00  0.6400E+00
    -31.052  0.9965E-16  0.6400E+00
    -30.834  0.6969E-07  0.6400E+00
    -30.615  0.6527E-02  0.6414E+00
    -30.396  0.4699E+00  0.7442E+00
    -30.178  0.8333E+00  0.9264E+00
    -29.959  0.3325E+00  0.9992E+00
    -29.740  0.3883E-02  0.1000E+01
    -29.521  0.2831E-07  0.1000E+01
    -29.303  0.2031E-16  0.1000E+01
    -29.084  0.0000E+00  0.1000E+01
    -28.865  0.0000E+00  0.1000E+01
    -28.647  0.0000E+00  0.1000E+01
    -28.428  0.0000E+00  0.1000E+01
    -28.209  0.0000E+00  0.1000E+01
    -27.991  0.0000E+00  0.1000E+01
    -27.772  0.0000E+00  0.1000E+01
    -27.553  0.0000E+00  0.1000E+01
    -27.334  0.1413E-11  0.1000E+01
    -27.116  0.1800E-04  0.1000E+01
    -26.897  0.3948E-01  0.1009E+01
    -26.678  0.3395E+00  0.1083E+01
    -26.460  0.3838E+00  0.1167E+01
    -26.241  0.5349E+00  0.1284E+01
    -26.022  0.3328E+00  0.1357E+01
    -25.804  0.1557E-01  0.1360E+01
    -25.585  0.7355E-06  0.1360E+01
    -25.366  0.5123E-14  0.1360E+01
    -25.147  0.0000E+00  0.1360E+01
    -24.929  0.0000E+00  0.1360E+01
    -24.710  0.0000E+00  0.1360E+01
    -24.491  0.0000E+00  0.1360E+01
    -24.273  0.0000E+00  0.1360E+01
    -24.054  0.0000E+00  0.1360E+01
    -23.835  0.4614E-14  0.1360E+01
    -23.617  0.6856E-06  0.1360E+01
    -23.398  0.1407E-01  0.1363E+01
    -23.179  0.3348E+00  0.1436E+01
    -22.960  0.8894E+00  0.1631E+01
    -22.742  0.5850E+00  0.1759E+01
    -22.523  0.9675E-01  0.1780E+01
    -22.304  0.3760E-03  0.1780E+01
    -22.086  0.4076E-09  0.1780E+01
    -21.867  0.0000E+00  0.1780E+01
    -21.648  0.0000E+00  0.1780E+01
    -21.430  0.0000E+00  0.1780E+01
    -21.211  0.0000E+00  0.1780E+01
    -20.992  0.0000E+00  0.1780E+01
    -20.773  0.0000E+00  0.1780E+01
    -20.555  0.0000E+00  0.1780E+01
    -20.336  0.0000E+00  0.1780E+01
    -20.117  0.0000E+00  0.1780E+01
    -19.899  0.0000E+00  0.1780E+01
    -19.680  0.0000E+00  0.1780E+01
    -19.461  0.1515E-15  0.1780E+01
    -19.243  0.7803E-07  0.1780E+01
    -19.024  0.4143E-02  0.1781E+01
    -18.805  0.1038E+00  0.1804E+01
    -18.586  0.2992E+00  0.1869E+01
    -18.368  0.3695E+00  0.1950E+01
    -18.149  0.3435E+00  0.2025E+01
    -17.930  0.5194E+00  0.2139E+01
    -17.712  0.2265E+00  0.2188E+01
    -17.493  0.5435E-01  0.2200E+01
    -17.274  0.1359E-04  0.2200E+01
    -17.055  0.4782E-12  0.2200E+01
    -16.837  0.0000E+00  0.2200E+01
    -16.618  0.0000E+00  0.2200E+01
    -16.399  0.0000E+00  0.2200E+01
    -16.181  0.0000E+00  0.2200E+01
    -15.962  0.0000E+00  0.2200E+01
    -15.743  0.0000E+00  0.2200E+01
    -15.525  0.0000E+00  0.2200E+01
    -15.306  0.0000E+00  0.2200E+01
    -15.087  0.0000E+00  0.2200E+01
    -14.868  0.0000E+00  0.2200E+01
    -14.650  0.0000E+00  0.2200E+01
    -14.431  0.0000E+00  0.2200E+01
    -14.212  0.0000E+00  0.2200E+01
    -13.994  0.0000E+00  0.2200E+01
    -13.775  0.0000E+00  0.2200E+01
    -13.556  0.0000E+00  0.2200E+01
    -13.338  0.0000E+00  0.2200E+01
    -13.119  0.0000E+00  0.2200E+01
    -12.900  0.0000E+00  0.2200E+01
    -12.681  0.0000E+00  0.2200E+01
    -12.463  0.0000E+00  0.2200E+01
    -12.244  0.0000E+00  0.2200E+01
    -12.025  0.0000E+00  0.2200E+01
    -11.807  0.0000E+00  0.2200E+01
    -11.588  0.0000E+00  0.2200E+01
    -11.369  0.0000E+00  0.2200E+01
    -11.151  0.0000E+00  0.2200E+01
    -10.932  0.0000E+00  0.2200E+01
    -10.713  0.0000E+00  0.2200E+01
    -10.494  0.0000E+00  0.2200E+01
    -10.276  0.0000E+00  0.2200E+01
    -10.057  0.0000E+00  0.2200E+01
     -9.838  0.0000E+00  0.2200E+01
     -9.620  0.0000E+00  0.2200E+01
     -9.401  0.0000E+00  0.2200E+01
     -9.182  0.0000E+00  0.2200E+01
     -8.964  0.0000E+00  0.2200E+01
     -8.745  0.0000E+00  0.2200E+01
     -8.526  0.0000E+00  0.2200E+01
     -8.307  0.0000E+00  0.2200E+01
     -8.089  0.0000E+00  0.2200E+01
     -7.870  0.1423E-13  0.2200E+01
     -7.651  0.3382E-06  0.2200E+01
     -7.433  0.1902E-02  0.2200E+01
     -7.214  0.5184E-01  0.2212E+01
     -6.995  0.5001E-01  0.2223E+01
     -6.777  0.1480E+00  0.2255E+01
     -6.558  0.1244E+00  0.2282E+01
     -6.339  0.1517E+00  0.2315E+01
     -6.120  0.1214E+00  0.2342E+01
     -5.902  0.1580E+00  0.2377E+01
     -5.683  0.2122E+00  0.2423E+01
     -5.464  0.1447E+00  0.2455E+01
     -5.246  0.2469E-01  0.2460E+01
     -5.027  0.9381E-05  0.2460E+01
     -4.808  0.1185E-11  0.2460E+01
     -4.590  0.3989E-05  0.2460E+01
     -4.371  0.5884E-02  0.2461E+01
     -4.152  0.5657E-01  0.2474E+01
     -3.933  0.2880E-01  0.2480E+01
     -3.715  0.3923E-01  0.2489E+01
     -3.496  0.1022E+00  0.2511E+01
     -3.277  0.1268E+00  0.2539E+01
     -3.059  0.1640E+00  0.2574E+01
     -2.840  0.2412E+00  0.2627E+01
     -2.621  0.2090E+00  0.2673E+01
     -2.402  0.1703E+00  0.2710E+01
     -2.184  0.1949E+00  0.2753E+01
     -1.965  0.1890E+00  0.2794E+01
     -1.746  0.9921E-01  0.2816E+01
     -1.528  0.8231E-01  0.2834E+01
     -1.309  0.2662E-01  0.2840E+01
     -1.090  0.1409E-02  0.2840E+01
     -0.872  0.5212E-06  0.2840E+01
     -0.653  0.3321E-13  0.2840E+01
     -0.434  0.0000E+00  0.2840E+01
     -0.215  0.0000E+00  0.2840E+01
      0.003  0.0000E+00  0.2840E+01
      0.222  0.7841E-11  0.2840E+01
      0.441  0.1201E-04  0.2840E+01
      0.659  0.3905E-02  0.2841E+01
      0.878  0.1375E-01  0.2844E+01
      1.097  0.6628E-01  0.2858E+01
      1.315  0.9850E-01  0.2880E+01
      1.534  0.1250E+00  0.2907E+01
      1.753  0.1479E+00  0.2940E+01
      1.972  0.2056E+00  0.2985E+01
      2.190  0.2861E+00  0.3047E+01
      2.409  0.2494E+00  0.3102E+01
      2.628  0.2740E+00  0.3162E+01
      2.846  0.3045E+00  0.3228E+01
      3.065  0.3159E+00  0.3297E+01
      3.284  0.3851E+00  0.3382E+01
      3.502  0.5134E+00  0.3494E+01
      3.721  0.5939E+00  0.3624E+01
      3.940  0.6396E+00  0.3764E+01
      4.159  0.6591E+00  0.3908E+01
      4.377  0.6347E+00  0.4047E+01
      4.596  0.5809E+00  0.4174E+01
      4.815  0.4985E+00  0.4283E+01
      5.033  0.4629E+00  0.4384E+01
      5.252  0.3757E+00  0.4466E+01
      5.471  0.3110E+00  0.4534E+01
      5.689  0.3133E+00  0.4603E+01
      5.908  0.2811E+00  0.4664E+01
      6.127  0.2044E+00  0.4709E+01
      6.346  0.1419E+00  0.4740E+01
      6.564  0.8588E-01  0.4759E+01
      6.783  0.9359E-01  0.4779E+01
      7.002  0.1745E+00  0.4817E+01
      7.220  0.2058E+00  0.4862E+01
      7.439  0.1692E+00  0.4899E+01
      7.658  0.1873E+00  0.4940E+01
      7.876  0.1893E+00  0.4982E+01
      8.095  0.2348E+00  0.5033E+01
      8.314  0.2515E+00  0.5088E+01
      8.533  0.3026E+00  0.5154E+01
      8.751  0.2613E+00  0.5211E+01
      8.970  0.2468E+00  0.5265E+01
      9.189  0.2782E+00  0.5326E+01
      9.407  0.3499E+00  0.5403E+01
      9.626  0.3940E+00  0.5489E+01
      9.845  0.4262E+00  0.5582E+01
     10.064  0.4373E+00  0.5678E+01
     10.282  0.4301E+00  0.5772E+01
     10.501  0.4499E+00  0.5870E+01
     10.720  0.4353E+00  0.5965E+01
     10.938  0.4470E+00  0.6063E+01
     11.157  0.4523E+00  0.6162E+01
     11.376  0.4555E+00  0.6262E+01
     11.594  0.4358E+00  0.6357E+01
     11.813  0.4705E+00  0.6460E+01
     12.032  0.4931E+00  0.6568E+01
     12.251  0.4567E+00  0.6667E+01
     12.469  0.1967E+00  0.6710E+01
     12.688  0.4314E-01  0.6720E+01
     12.907  0.3750E-03  0.6720E+01
     13.125  0.1974E-08  0.6720E+01
     13.344  0.1504E-17  0.6720E+01
     13.563  0.0000E+00  0.6720E+01
     13.781  0.0000E+00  0.6720E+01
     14.000  0.0000E+00  0.6720E+01
     14.219  0.0000E+00  0.6720E+01
     14.438  0.0000E+00  0.6720E+01
     14.656  0.0000E+00  0.6720E+01
     14.875  0.0000E+00  0.6720E+01
     15.094  0.0000E+00  0.6720E+01
     15.312  0.0000E+00  0.6720E+01
     15.531  0.0000E+00  0.6720E+01
