HECN                                    
           1
     8.932500    0.000000    0.000000
     0.005753    9.055598    0.000000
     0.032102   -0.015743    8.937128
   Nb   Ta   Zr   N    C    Cr   W 
   7   6   7  13  19   6   6
Direct configuration=     1
   0.99688001  0.99204997  0.99924002
   0.25398003  0.99714995  0.24912000
   0.24803003  0.50165000  0.24955001
   0.50501006  0.49745998  0.99834003
   0.50479003  0.24631001  0.74710002
   0.99427992  0.50449999  0.49779000
   0.49950005  0.75481999  0.74817004
   0.99437004  0.23617001  0.26379999
   0.75718000  0.74102998  0.01100000
   0.00201000  0.25541000  0.73894001
   0.75307001  0.26163001  0.50533002
   0.99514004  0.74492004  0.74511997
   0.25679999  0.49462002  0.74545002
   0.24788999  0.24839000  0.99657997
   0.50833000  0.25676999  0.25376001
   0.74879004  0.98787999  0.26967001
   0.75719000  0.25603001  0.99591997
   0.24762001  0.74973999  0.99974006
   0.25272001  0.24823001  0.50015003
   0.24457999  0.75048999  0.49983999
   0.24982001  0.24942998  0.24825000
   0.26146999  0.99984002  0.99295996
   0.00281000  0.25024000  0.00130000
   0.75313998  0.24617000  0.25492002
   0.74767001  0.99748000  0.01202000
   0.50714994  0.99977000  0.24673000
   0.99051999  0.48088002  0.24100998
   0.50519005  0.76130999  0.00855000
   0.98896989  0.00202000  0.73708999
   0.75744996  0.24437997  0.74896999
   0.73632001  0.00417000  0.51063000
   0.50563996  0.23264999  0.49544997
   0.50008998  0.00061000  0.73471998
   0.99720000  0.99771992  0.25899999
   0.50427997  0.24673000  0.00262000
   0.25133999  0.74958002  0.24910999
   0.24328000  0.50072997  0.99510994
   0.99837005  0.74313996  0.00460000
   0.75633000  0.73891003  0.25767000
   0.75839004  0.50315998  0.00288000
   0.50700002  0.50333002  0.25878999
   0.24900999  0.25315000  0.74854000
   0.24446000  0.99823996  0.50287998
   0.99804009  0.24229999  0.50128003
   0.24177002  0.75340997  0.75018002
   0.25841001  0.50062002  0.50129001
   0.99000004  0.76215003  0.49746000
   0.99203996  0.50055999  0.75138002
   0.75036005  0.74888000  0.74756004
   0.74036002  0.50197000  0.50067003
   0.50575006  0.74958002  0.49720000
   0.50501003  0.50217998  0.73912003
   0.51588997  0.01358000  0.98075008
   0.99841994  0.50976998  0.98613004
   0.50379003  0.73926997  0.25905001
   0.23780002  0.01082000  0.74607998
   0.47957999  0.98308000  0.49717999
   0.74279003  0.97869994  0.76450995
   0.99864998  0.77573999  0.26102000
   0.73551001  0.51468004  0.26666001
   0.02362000  0.99783001  0.49557002
   0.50539000  0.52833005  0.49917999
   0.73876003  0.52828003  0.73814999
   0.75400003  0.72937999  0.49116997
HECN                                    
           1
     8.719728    0.004833   -0.004561
     0.010516    8.784571    0.003816
     0.026766   -0.011486    8.740048
   Nb   Ta   Zr   N    C    Cr   W 
   7   6   7  13  19   6   6
Direct configuration=     2
   0.99750110  0.99079008  0.99757583
   0.25450992  0.99309343  0.24752329
   0.25126312  0.50567576  0.24701679
   0.50295429  0.49491887  0.99778384
   0.50128685  0.24208875  0.75108600
   0.99618814  0.50143946  0.50129090
   0.49830833  0.76100713  0.74926139
   0.99754560  0.23613992  0.26035032
   0.75356715  0.74537613  0.00911766
   0.00427505  0.25350594  0.74106209
   0.75023460  0.25767426  0.50813357
   0.99924332  0.74772082  0.74851079
   0.25505769  0.49739482  0.74971002
   0.25032505  0.24677361  0.99704642
   0.50452080  0.25047857  0.25133516
   0.74067524  0.99070450  0.26651308
   0.75459694  0.25305039  0.99348518
   0.25230245  0.75209352  0.99969635
   0.25652480  0.24836523  0.49985553
   0.24916669  0.75029784  0.49954790
   0.24789988  0.25009608  0.24878358
   0.25940892  0.00019938  0.99377798
   0.00226100  0.24825245  0.00190852
   0.75640789  0.24814266  0.25671616
   0.74789954  0.99434457  0.00542221
   0.49957317  0.99775640  0.24820995
   0.99265136  0.48102365  0.24360005
   0.50799899  0.75938534  0.00605659
   0.98817244  0.00239445  0.74113696
   0.75560054  0.24422476  0.74618617
   0.73779262  0.00425397  0.51327394
   0.50780154  0.23257494  0.50089906
   0.50312670  0.00050564  0.73787827
   0.00218211  0.00197351  0.25233175
   0.50408465  0.24779909 -0.00298690
   0.25211052  0.74894837  0.24959830
   0.24522388  0.49982953  0.99694850
   0.99598159  0.74326269  0.00456153
   0.75282374  0.74098665  0.25192000
   0.75766930  0.50523667  0.00285661
   0.49879565  0.50843694  0.25356966
   0.25054892  0.25018716  0.74854121
   0.25348353  0.99801342  0.50550332
   0.99627199  0.24599166  0.50108684
   0.24458771  0.75338791  0.75031791
   0.25534139  0.50028730  0.49869922
   0.99173450  0.75782036  0.50140899
   0.99327153  0.50058426  0.75158578
   0.74764784  0.75769677  0.74962886
   0.74700597  0.49609323  0.50333661
   0.50496001  0.75726226  0.49577284
   0.50153902  0.50013358  0.74423166
   0.51751222  0.01685060  0.97694966
   0.99960717  0.51476533  0.98200651
   0.50416519  0.73658448  0.25852264
   0.23688817  0.01092351  0.74832395
   0.47677127  0.98221460  0.49805380
   0.73878640  0.97436974  0.76728468
   0.00309921  0.77414651  0.25469052
   0.73767317  0.51117348  0.25803762
   0.02004163  0.00146038  0.49917981
   0.49866499  0.52465727  0.49780076
   0.74102471  0.52075827  0.74541458
   0.75386070  0.73642089  0.49507132
HECN                                    
           1
     8.791520    0.003202   -0.003022
     0.008909    8.876019    0.002528
     0.028566   -0.012923    8.806545
   Nb   Ta   Zr   N    C    Cr   W 
   7   6   7  13  19   6   6
Direct configuration=     3
   0.99728648  0.99122816  0.99814971
   0.25432626  0.99450423  0.24807347
   0.25014687  0.50427574  0.24789083
   0.50366446  0.49580225  0.99797572
   0.50249615  0.24355694  0.74971075
   0.99552733  0.50250488  0.50008221
   0.49872125  0.75885506  0.74888601
   0.99644861  0.23615046  0.26153995
   0.75481711  0.74386347  0.00976842
   0.00349139  0.25416897  0.74032923
   0.75121335  0.25905005  0.50716620
   0.99782498  0.74674795  0.74734058
   0.25565967  0.49643001  0.74824097
   0.24948298  0.24733636  0.99688480
   0.50583664  0.25266576  0.25217151
   0.74348120  0.98972005  0.26760418
   0.75549308  0.25408590  0.99432525
   0.25068446  0.75127580  0.99971094
   0.25520978  0.24831887  0.49995647
   0.24758134  0.75036550  0.49964782
   0.24856359  0.24986412  0.24859993
   0.26012124  0.00007412  0.99349618
   0.00245026  0.24894375  0.00169837
   0.75527841  0.24745742  0.25609616
   0.74782080  0.99543416  0.00769806
   0.50219137  0.99845556  0.24770040
   0.99191422  0.48097450  0.24270607
   0.50702817  0.76005493  0.00691607
   0.98844740  0.00226468  0.73974088
   0.75624026  0.24427797  0.74714695
   0.73728315  0.00422545  0.51236148
   0.50705339  0.23260229  0.49901861
   0.50207648  0.00054300  0.73678803
   0.00046213  0.00049394  0.25463217
   0.50415340  0.24742634 -0.00105221
   0.25184397  0.74916829  0.24942959
   0.24455148  0.50014337  0.99631367
   0.99680718  0.74321954  0.00457525
   0.75403712  0.74026281  0.25390481
   0.75791883  0.50451421  0.00286512
   0.50163340  0.50665828  0.25537303
   0.25001642  0.25121799  0.74854007
   0.25036407  0.99809433  0.50459655
   0.99688389  0.24470726  0.50115437
   0.24361376  0.75339614  0.75026982
   0.25640245  0.50040204  0.49959360
   0.99113342  0.75932725  0.50004554
   0.99284581  0.50057608  0.75151457
   0.74858665  0.75462992  0.74891690
   0.74470719  0.49813897  0.50241450
   0.50523485  0.75458985  0.49626655
   0.50273741  0.50084549  0.74246836
   0.51695284  0.01571274  0.97826108
   0.99919855  0.51302743  0.98342976
   0.50403509  0.73751854  0.25870412
   0.23720295  0.01088768  0.74754992
   0.47774176  0.98251521  0.49775270
   0.74016887  0.97587554  0.76632741
   0.00156220  0.77470063  0.25687327
   0.73692638  0.51239222  0.26101159
   0.02127852  0.00019753  0.49793556
   0.50098898  0.52593325  0.49827728
   0.74023913  0.52337604  0.74290660
   0.75390952  0.73397249  0.49372637
HECN                                    
           1
     8.873801    0.006260   -0.005959
     0.012069    8.901887    0.005290
     0.025913   -0.010230    8.885138
   Nb   Ta   Zr   N    C    Cr   W 
   7   6   7  13  19   6   6
Direct configuration=     4
   0.99928790  0.99023818  0.99499943
   0.25481717  0.99034503  0.24727833
   0.25390201  0.50884690  0.24460216
   0.50122424  0.49307708  0.99764254
   0.49782974  0.23811868  0.75392495
   0.99921948  0.49871675  0.50435188
   0.49781051  0.76564985  0.74908914
   0.00107998  0.23756595  0.25657874
   0.74949099  0.74969123  0.00638689
   0.00693891  0.25042447  0.74430254
   0.74806417  0.25327490  0.51006250
   0.00138267  0.75068077  0.75239495
   0.25228402  0.49953865  0.75289605
   0.25129979  0.24530404  0.99774306
   0.50139335  0.24721399  0.24932628
   0.73740607  0.99270644  0.26292499
   0.75327775  0.25034944  0.99205356
   0.25611492  0.75410513  0.99990494
   0.25849689  0.24848103  0.49971315
   0.25111758  0.75076984  0.49964467
   0.24653994  0.25060774  0.24903036
   0.25817190  0.00030904  0.99412169
   0.00174830  0.24721705  0.00266262
   0.75728098  0.24991093  0.25729175
   0.74723049  0.99219962 -0.00062110
   0.49332021  0.99535394  0.24880458
   0.99414394  0.48360496  0.24563373
   0.50964929  0.75843520  0.00371487
   0.98745774  0.00266822  0.74479494
   0.75381821  0.24498441  0.74461545
   0.74050338  0.00319049  0.51610128
   0.50946855  0.23370827  0.50433692
   0.50590964  0.00048617  0.74161698
   0.00355546  0.00314858  0.24786749
   0.50345139  0.24824985 -0.00607307
   0.25404869  0.74838506  0.24937460
   0.24594044  0.49941664  0.99870030
   0.99647471  0.74283244  0.00493861
   0.74967349  0.74308189  0.24960003
   0.75798072  0.50528039  0.00315606
   0.49345743  0.51142791  0.24953256
   0.25206007  0.24726434  0.74884431
   0.25914709  0.99830505  0.50864595
   0.99626887  0.24940272  0.50061178
   0.24748996  0.75454869  0.75063163
   0.25253151  0.49987357  0.49728113
   0.99396591  0.75458261  0.50287216
   0.99517685  0.50068886  0.75261372
   0.74659909  0.76203162  0.75024160
   0.74974624  0.49447050  0.50355071
   0.50493711  0.76323852  0.49394005
   0.49949694  0.49878425  0.74747610
   0.51875738  0.01918406  0.97304837
   0.00056150  0.51917962  0.97755103
   0.50384378  0.73402868  0.25849292
   0.23491246  0.00965342  0.75028954
   0.47548325  0.98239157  0.49841507
   0.73408782  0.97254664  0.77071977
   0.00551719  0.77142275  0.24950974
   0.73787374  0.50746160  0.25098242
   0.01783641  0.00483522  0.50110992
   0.49609485  0.52031643  0.49595381
   0.74322869  0.51622336  0.75375588
   0.75212063  0.73996855  0.49844112
HECN                                    
           1
     8.858477    0.005690   -0.005412
     0.011481    8.897070    0.004776
     0.026407   -0.010731    8.870501
   Nb   Ta   Zr   N    C    Cr   W 
   7   6   7  13  19   6   6
Direct configuration=     5
   0.99891874  0.99042196  0.99558077
   0.25472637  0.99111737  0.24742484
   0.25320964  0.50799809  0.24520925
   0.50167433  0.49358297  0.99770403
   0.49869014  0.23912851  0.75314701
   0.99853773  0.49942068  0.50356329
   0.49797899  0.76438803  0.74905209
   0.00022583  0.23730310  0.25749434
   0.75047431  0.74860849  0.00701175
   0.00630232  0.25112026  0.74356868
   0.74864468  0.25434730  0.50952772
   0.00072618  0.74995097  0.75146197
   0.25290679  0.49896144  0.75203715
   0.25096438  0.24568160  0.99758441
   0.50221301  0.24822593  0.24985144
   0.73852749  0.99215122  0.26378927
   0.75368640  0.25104302  0.99247281
   0.25511310  0.75358008  0.99986896
   0.25789040  0.24845111  0.49975788
   0.25046512  0.75069498  0.49964506
   0.24691335  0.25046955  0.24895107
   0.25853155  0.00026533  0.99400636
   0.00187765  0.24753771  0.00248457
   0.75691157  0.24945551  0.25707108
   0.74733970  0.99279975  0.00091440
   0.49495678  0.99592941  0.24860112
   0.99373253  0.48311680  0.24509332
   0.50916575  0.75873596  0.00430554
   0.98764007  0.00259352  0.74386208
   0.75426531  0.24485292  0.74508293
   0.73990891  0.00338310  0.51541069
   0.50902268  0.23350336  0.50335512
   0.50520208  0.00049725  0.74072536
   0.00298528  0.00265542  0.24911616
   0.50358128  0.24809659 -0.00514617
   0.25364185  0.74853064  0.24938457
   0.24568397  0.49955182  0.99825962
   0.99653601  0.74290432  0.00487154
   0.75047908  0.74255787  0.25039509
   0.75796933  0.50513813  0.00310240
   0.49496666  0.51054135  0.25061143
   0.25168272  0.24799867  0.74878780
   0.25752629  0.99826670  0.50789795
   0.99638269  0.24853071  0.50071224
   0.24677480  0.75433493  0.75056467
   0.25324586  0.49997133  0.49770820
   0.99344280  0.75546402  0.50234995
   0.99474668  0.50066813  0.75241069
   0.74696623  0.76065709  0.74999761
   0.74881616  0.49515211  0.50334046
   0.50499275  0.76163232  0.49437002
   0.50009441  0.49916710  0.74655179
   0.51842496  0.01853925  0.97401068
   0.00031078  0.51803691  0.97863647
   0.50387886  0.73467672  0.25853172
   0.23533483  0.00988264  0.74978390
   0.47589993  0.98241443  0.49829293
   0.73520937  0.97316469  0.76990915
   0.00478768  0.77203126  0.25086856
   0.73769922  0.50837668  0.25283338
   0.01847163  0.00397398  0.50052444
   0.49699765  0.52135902  0.49638267
   0.74267595  0.51755242  0.75175260
   0.75245081  0.73885525  0.49757127
HECN                                    
           1
     8.861380    0.004834   -0.007110
     0.010610    8.918977    0.005688
     0.024711   -0.009844    8.863066
   Nb   Ta   Zr   N    C    Cr   W 
   7   6   7  13  19   6   6
Direct configuration=     6
   0.00097491  0.98955577  0.99397419
   0.25356582  0.98990506  0.24964751
   0.25416395  0.50982104  0.24454527
   0.50179166  0.49233746  0.99743147
   0.49619271  0.23730235  0.75338977
   0.00051698  0.49841068  0.50629729
   0.49929303  0.76462812  0.74629909
   0.00176042  0.23894561  0.25617596
   0.74882313  0.74897192  0.00531878
   0.00860914  0.24844907  0.74476955
   0.74862291  0.25253000  0.51043691
   0.00046800  0.75078917  0.75306449
   0.25146096  0.49931424  0.75259496
   0.24974120  0.24487378  0.99802160
   0.50121824  0.24915427  0.24912340
   0.73900980  0.99188042  0.26213648
   0.75396054  0.24982712  0.99221089
   0.25664602  0.75438672  0.00018349
   0.25702571  0.24849758  0.50025897
   0.24925991  0.75106470  0.49987560
   0.24636839  0.25053842  0.24916080
   0.25758022  0.00028473  0.99455730
   0.00139548  0.24690517  0.00286303
   0.75607279  0.25004711  0.25685990
   0.74661461  0.99286673 -0.00251272
   0.49378143  0.99468101  0.24903836
   0.99403704  0.48600261  0.24740929
   0.50938349  0.75819571  0.00202510
   0.98789178  0.00272026  0.74496020
   0.75378915  0.24680253  0.74500178
   0.74383353  0.00266327  0.51523449
   0.50978812  0.23623858  0.50345939
   0.50738071  0.00069679  0.74391277
   0.00133356 -0.00014490  0.24879914
   0.50296578  0.24787246 -0.00436240
   0.25522231  0.74851527  0.24909157
   0.24509201  0.50013461  0.99880051
   0.99800700  0.74269816  0.00526594
   0.74925094  0.74203754  0.25199641
   0.75878797  0.50452375  0.00363218
   0.49634453  0.50986612  0.24952370
   0.25186852  0.24701169  0.74929724
   0.25693135  0.99918509  0.51024047
   0.99741660  0.24949737  0.50039274
   0.24816409  0.75569034  0.75076129
   0.25209095  0.49990399  0.49822663
   0.99386048  0.75488425  0.50108952
   0.99617966  0.50088862  0.75345165
   0.74826425  0.75795264  0.74890024
   0.74778360  0.49719204  0.50252097
   0.50625651  0.76154682  0.49244312
   0.50072300  0.49917542  0.74615737
   0.51984499  0.01997208  0.97084338
   0.00072676  0.52171602  0.97432411
   0.50348232  0.73208255  0.26036821
   0.23164438  0.00782909  0.75057504
   0.47564014  0.98358103  0.49833437
   0.73043187  0.97383139  0.77310034
   0.00388067  0.77263251  0.24920369
   0.73362483  0.50896010  0.24913879
   0.01969214  0.00514103  0.49988819
   0.49888639  0.52095431  0.49492581
   0.74335615  0.51886730  0.75660548
   0.75122486  0.73671304  0.49873907
HECN                                    
           1
     8.863016    0.004352   -0.008067
     0.010120    8.931328    0.006203
     0.023756   -0.009344    8.858874
   Nb   Ta   Zr   N    C    Cr   W 
   7   6   7  13  19   6   6
Direct configuration=     7
   0.00213356  0.98906883  0.99306794
   0.25291190  0.98922307  0.25090163
   0.25470184  0.51084637  0.24417061
   0.50185768  0.49163700  0.99727775
   0.49478507  0.23627516  0.75352659
   0.00163273  0.49784260  0.50784025
   0.50003336  0.76476337  0.74474580
   0.00262528  0.23986952  0.25543213
   0.74789236  0.74917632  0.00436330
   0.00990925  0.24694684  0.74544756
   0.74861063  0.25150789  0.51095003
   0.00032271  0.75126048  0.75396865
   0.25064617  0.49951255  0.75290954
   0.24905181  0.24441937  0.99826821
   0.50065756  0.24967637  0.24871243
   0.73928145  0.99172825  0.26120394
   0.75411496  0.24914332  0.99206319
   0.25751005  0.75484044  0.00036109
   0.25653842  0.24852364  0.50054162
   0.24858070  0.75127255  0.50000554
   0.24606127  0.25057711  0.24927909
   0.25704410  0.00029555  0.99486807
   0.00112372  0.24654938  0.00307657
   0.75560007  0.25037980  0.25674061
   0.74620559  0.99290455 -0.00444659
   0.49311897  0.99397881  0.24928502
   0.99420908  0.48762549  0.24871596
   0.50950594  0.75789201  0.00073839
   0.98803377  0.00279149  0.74557984
   0.75352088  0.24789897  0.74495582
   0.74604539  0.00225866  0.51513553
   0.51021969  0.23777692  0.50351815
   0.50860895  0.00080895  0.74571153
   0.00040244 -0.00171988  0.24862024
   0.50261896  0.24774634 -0.00392021
   0.25611303  0.74850673  0.24892641
   0.24475847  0.50046231  0.99910562
   0.99883608  0.74258228  0.00548866
   0.74855890  0.74174474  0.25289987
   0.75924938  0.50417824  0.00393123
   0.49712095  0.50948651  0.24891012
   0.25197323  0.24645658  0.74958478
   0.25659634  0.99970144  0.51156215
   0.99799934  0.25004110  0.50021251
   0.24894719  0.75645270  0.75087230
   0.25144009  0.49986603  0.49851903
   0.99409572  0.75455828  0.50037838
   0.99698742  0.50101264  0.75403916
   0.74899554  0.75643178  0.74828133
   0.74720167  0.49833930  0.50205833
   0.50696856  0.76149890  0.49135598
   0.50107724  0.49918015  0.74593488
   0.52064506  0.02077817  0.96905626
   0.00096096  0.52378543  0.97189065
   0.50325887  0.73062346  0.26140459
   0.22956439  0.00667391  0.75102118
   0.47549379  0.98423711  0.49835766
   0.72773964  0.97420591  0.77490046
   0.00336934  0.77297069  0.24826414
   0.73132813  0.50928820  0.24705359
   0.02038002  0.00579749  0.49952924
   0.49995071  0.52072688  0.49410399
   0.74374011  0.51960656  0.75934377
   0.75053391  0.73550811  0.49939801
HECN                                    
           1
     8.850406    0.003787   -0.007098
     0.009540    8.918834    0.002943
     0.024697   -0.012571    8.864571
   Nb   Ta   Zr   N    C    Cr   W 
   7   6   7  13  19   6   6
Direct configuration=     8
   0.00409586  0.98864260  0.99284057
   0.25217651  0.98902918  0.25345648
   0.25524975  0.51105841  0.24556736
   0.50187960  0.49100310  0.99573002
   0.49320134  0.23729448  0.75292266
   0.00063418  0.49795251  0.50954715
   0.50256125  0.76250248  0.74114861
   0.00194084  0.23898101  0.25501269
   0.74764914  0.74857163  0.00389135
   0.01048697  0.24467092  0.74562143
   0.74948899  0.25223019  0.51137769
   0.00002998  0.75228306  0.75292720
   0.25123607  0.50064079  0.75206940
   0.24807616  0.24458265  0.99920789
   0.50012304  0.24956828  0.24963592
   0.73901664  0.99092836  0.26114001
   0.75422465  0.24899969  0.99235094
   0.25925681  0.75535118 -0.00005496
   0.25646747  0.24923806  0.50046324
   0.24894595  0.75143446  0.49997815
   0.24596001  0.25089837  0.24965392
   0.25619020  0.00023984  0.99594299
   0.00078153  0.24578522  0.00308842
   0.75480226  0.25037931  0.25646307
   0.74629532  0.99289989 -0.00466680
   0.49387513  0.99411966  0.25028993
   0.99495150  0.48904218  0.25156518
   0.50961128  0.75703713 -0.00146555
   0.98912150  0.00236688  0.74462455
   0.75347900  0.24945430  0.74516567
   0.75033854  0.00349905  0.51310283
   0.51041594  0.24088577  0.50287629
   0.50966606  0.00037629  0.74613980
  -0.00136379  0.00088577  0.24942123
   0.50202909  0.24681331 -0.00318133
   0.25698223  0.74895166  0.24969369
   0.24359647  0.50101724  0.99878647
   0.99951543  0.74313787  0.00548374
   0.74820361  0.74090883  0.25303173
   0.76075049  0.50372332  0.00479875
   0.49657540  0.50697937  0.24819918
   0.25212681  0.24611153  0.75029648
   0.25654101  0.99959087  0.51330977
   0.99848959  0.24950193  0.50047609
   0.24936665  0.75748115  0.75079114
   0.25194473  0.50033435  0.49948166
   0.99297998  0.75521149  0.49899748
   0.99704585  0.50059033  0.75379760
   0.75036226  0.75633620  0.74764932
   0.74727273  0.49763098  0.50188571
   0.50652878  0.76144355  0.48922534
   0.50259205  0.49958840  0.74440321
   0.52143320  0.02256151  0.96837359
   0.00070735  0.52655039  0.97056055
   0.50353841  0.72973297  0.26463060
   0.22466050  0.00431493  0.75170655
   0.47442978  0.98597919  0.49857737
   0.72450340  0.97271434  0.77513678
   0.00174219  0.77033549  0.24870421
   0.73039709  0.51063270  0.24483568
   0.01884795  0.00628434  0.49861506
   0.50042685  0.51943311  0.49389109
   0.74461649  0.51974372  0.76068595
   0.75092836  0.73353198  0.50012135
HECN                                    
           1
     8.843549    0.003480   -0.006571
     0.009225    8.912040    0.001170
     0.025210   -0.014326    8.867669
   Nb   Ta   Zr   N    C    Cr   W 
   7   6   7  13  19   6   6
Direct configuration=     9
   0.00516436  0.98841055  0.99271682
   0.25177593  0.98892408  0.25484478
   0.25554802  0.51117416  0.24632635
   0.50189160  0.49065763  0.99488887
   0.49233904  0.23784933  0.75259478
   0.00009035  0.49801265  0.51047475
   0.50393786  0.76127079  0.73919332
   0.00156815  0.23849710  0.25478463
   0.74751671  0.74824227  0.00363478
   0.01080147  0.24343172  0.74571543
   0.74996728  0.25262361  0.51161018
  -0.00012933  0.75283964  0.75236150
   0.25155737  0.50125498  0.75161306
   0.24754485  0.24467170  0.99971861
   0.49983192  0.24950960  0.25013775
   0.73887243  0.99049279  0.26110512
   0.75428436  0.24892154  0.99250726
   0.26020799  0.75562926 -0.00028105
   0.25642887  0.24962706  0.50042079
   0.24914485  0.75152263  0.49996328
   0.24590486  0.25107336  0.24985767
   0.25572517  0.00020969  0.99652714
   0.00059517  0.24536911  0.00309472
   0.75436786  0.25037896  0.25631230
   0.74634419  0.99289731 -0.00478647
   0.49428682  0.99419658  0.25083598
   0.99535565  0.48981417  0.25311367
   0.50966873  0.75657121 -0.00266334
   0.98971383  0.00213553  0.74410529
   0.75345623  0.25030122  0.74528001
   0.75267640  0.00417419  0.51199827
   0.51052294  0.24257844  0.50252811
   0.51024164  0.00014082  0.74637237
  -0.00232549  0.00230466  0.24985711
   0.50170782  0.24630540 -0.00277999
   0.25745549  0.74919410  0.25011066
   0.24296378  0.50131931  0.99861323
   0.99988537  0.74344042  0.00548113
   0.74801011  0.74045368  0.25310324
   0.76156781  0.50347583  0.00526998
   0.49627829  0.50561406  0.24781239
   0.25221039  0.24592379  0.75068313
   0.25651078  0.99953101  0.51425940
   0.99875650  0.24920841  0.50061918
   0.24959509  0.75804115  0.75074721
   0.25221948  0.50058956  0.50000480
   0.99237254  0.75556686  0.49824730
   0.99707767  0.50036033  0.75366625
   0.75110649  0.75628408  0.74730579
   0.74731141  0.49724526  0.50179177
   0.50628944  0.76141298  0.48806758
   0.50341699  0.49981045  0.74357090
   0.52186245  0.02353245  0.96800294
   0.00056942  0.52805566  0.96983836
   0.50369042  0.72924874  0.26638340
   0.22199011  0.00303041  0.75207880
   0.47385046  0.98692777  0.49869717
   0.72274114  0.97190211  0.77526508
   0.00085606  0.76890064  0.24894291
   0.72989029  0.51136431  0.24363081
   0.01801377  0.00654920  0.49811848
   0.50068609  0.51872862  0.49377511
   0.74509362  0.51981870  0.76141525
   0.75114304  0.73245612  0.50051399
HECN                                    
           1
     8.888560    0.003623   -0.005486
     0.009404    8.940712   -0.000631
     0.026448   -0.016169    8.895791
   Nb   Ta   Zr   N    C    Cr   W 
   7   6   7  13  19   6   6
Direct configuration=    10
   0.00585114  0.98785705  0.99365306
   0.25086025  0.98912507  0.25721370
   0.25495137  0.51085882  0.24782207
   0.50151567  0.49008509  0.99338049
   0.49219771  0.24038938  0.75210692
  -0.00162601  0.49819904  0.51079990
   0.50564044  0.75814327  0.73569511
  -0.00010071  0.23957035  0.25550300
   0.74763827  0.74815989  0.00347884
   0.01014252  0.24219894  0.74578486
   0.75108569  0.25406226  0.51212618
   0.00039991  0.75369135  0.75058459
   0.25214581  0.50308970  0.75087674
   0.24712811  0.24575180  0.00037161
   0.49992325  0.24780266  0.25088379
   0.73829949  0.98942788  0.26187674
   0.75393923  0.24890672  0.99238468
   0.26234312  0.75582732 -0.00022496
   0.25607597  0.24991413  0.50060724
   0.24886535  0.75168395  0.50012033
   0.24561338  0.25147971  0.25053521
   0.25523372  0.00051886  0.99799999
   0.00034400  0.24436214  0.00308288
   0.75407115  0.25012277  0.25628623
   0.74672759  0.99233257 -0.00424748
   0.49437925  0.99471681  0.25223404
   0.99606145  0.49143965  0.25578481
   0.51031690  0.75516050 -0.00512925
   0.98973331  0.00118724  0.74268585
   0.75359437  0.25168639  0.74534038
   0.75712930  0.00628118  0.50945176
   0.51047368  0.24585738  0.50271811
   0.50997945 -0.00034703  0.74495748
  -0.00267961  0.00116085  0.24942287
   0.50129622  0.24577736 -0.00288393
   0.25815338  0.74984892  0.25052681
   0.24185375  0.50177877  0.99834756
   0.00048207  0.74476187  0.00446182
   0.74753530  0.74043908  0.25194563
   0.76337164  0.50332282  0.00561289
   0.49571888  0.50445013  0.24694171
   0.25192771  0.24554409  0.75111588
   0.25648041  0.99969758  0.51591304
   0.99877718  0.24890574  0.50083879
   0.24990001  0.75885627  0.75008960
   0.25309768  0.50122016  0.50082561
   0.99167800  0.75600176  0.49796132
   0.99713477  0.49996906  0.75392570
   0.75224418  0.75772012  0.74670085
   0.74812481  0.49562083  0.50171901
   0.50608513  0.76273620  0.48652557
   0.50447728  0.49982917  0.74223552
   0.52145060  0.02460044  0.96821662
   0.00003583  0.52918779  0.96926191
   0.50428294  0.72824127  0.27103902
   0.21815297  0.00005775  0.75274584
   0.47251029  0.98918503  0.49981122
   0.72258927  0.97068601  0.77475610
  -0.00007311  0.76898647  0.25048078
   0.73065778  0.51068986  0.24256305
   0.01533119  0.00640405  0.49728941
   0.50004056  0.51538612  0.49338433
   0.74691880  0.51799718  0.76103356
   0.75151034  0.73139419  0.50044718
HECN                                    
           1
     8.879850    0.003595   -0.005696
     0.009369    8.935164   -0.000283
     0.026208   -0.015812    8.890349
   Nb   Ta   Zr   N    C    Cr   W 
   7   6   7  13  19   6   6
Direct configuration=    11
   0.00571895  0.98796377  0.99347251
   0.25103659  0.98908621  0.25675673
   0.25506628  0.51091958  0.24753356
   0.50158800  0.49019558  0.99367145
   0.49222492  0.23989948  0.75220092
  -0.00129557  0.49816308  0.51073714
   0.50531256  0.75874665  0.73637004
   0.00022060  0.23936331  0.25536435
   0.74761486  0.74817579  0.00350893
   0.01026938  0.24243671  0.74577150
   0.75087039  0.25378476  0.51202662
   0.00029798  0.75352714  0.75092731
   0.25203251  0.50273585  0.75101871
   0.24720836  0.24554345  0.00024560
   0.49990568  0.24813187  0.25073996
   0.73840980  0.98963325  0.26172793
   0.75400567  0.24890958  0.99240832
   0.26193207  0.75578912 -0.00023574
   0.25614391  0.24985875  0.50057126
   0.24891917  0.75165283  0.50009003
   0.24566952  0.25140131  0.25040450
   0.25532837  0.00045917  0.99771587
   0.00039235  0.24455636  0.00308519
   0.75412827  0.25017218  0.25629126
   0.74665379  0.99244147 -0.00435142
   0.49436150  0.99461641  0.25196435
   0.99592564  0.49112602  0.25526953
   0.51019205  0.75543269 -0.00465354
   0.98972952  0.00137020  0.74295968
   0.75356778  0.25141922  0.74532868
   0.75627197  0.00587490  0.50994297
   0.51048318  0.24522493  0.50268133
   0.51002989 -0.00025288  0.74523041
  -0.00261145  0.00138148  0.24950666
   0.50137545  0.24587921 -0.00286387
   0.25801903  0.74972260  0.25044653
   0.24206745  0.50169015  0.99839876
   0.00036717  0.74450703  0.00465840
   0.74762669  0.74044194  0.25216891
   0.76302438  0.50335232  0.00554680
   0.49582655  0.50467466  0.24710969
   0.25198214  0.24561731  0.75103241
   0.25648630  0.99966539  0.51559406
   0.99877320  0.24896411  0.50079644
   0.24984129  0.75869907  0.75021642
   0.25292863  0.50109850  0.50066728
   0.99181170  0.75591788  0.49801644
   0.99712379  0.50004452  0.75387567
   0.75202514  0.75744316  0.74681751
   0.74796820  0.49593415  0.50173313
   0.50612443  0.76248104  0.48682295
   0.50427312  0.49982562  0.74249313
   0.52152990  0.02439444  0.96817535
   0.00013855  0.52896945  0.96937304
   0.50416898  0.72843541  0.27014106
   0.21889170  0.00063108  0.75261720
   0.47276833  0.98874961  0.49959621
   0.72261849  0.97092059  0.77485432
   0.00010581  0.76896985  0.25018412
   0.73051000  0.51081999  0.24276906
   0.01584762  0.00643207  0.49744927
   0.50016482  0.51603083  0.49345982
   0.74656740  0.51834853  0.76110730
   0.75143962  0.73159902  0.50046012
HECN                                    
           1
     8.863325    0.004448   -0.006967
     0.010218    8.913523    0.000069
     0.024870   -0.015421    8.866696
   Nb   Ta   Zr   N    C    Cr   W 
   7   6   7  13  19   6   6
Direct configuration=    12
   0.00533715  0.98742231  0.99450577
   0.25024752  0.98935240  0.25822735
   0.25443000  0.51094769  0.24825633