  64  64   0   0
  0.2218804E+02  0.1124000E-08  0.1124000E-08  0.1124000E-08  0.5000000E-15
  1.000000000000000E-004
  CAR 
 HECN                                    
     15.13154513    -58.94785214  301      9.46758345      1.00000000
    -58.948  0.0000E+00  0.0000E+00
    -58.701  0.0000E+00  0.0000E+00
    -58.454  0.0000E+00  0.0000E+00
    -58.207  0.0000E+00  0.0000E+00
    -57.960  0.0000E+00  0.0000E+00
    -57.713  0.0000E+00  0.0000E+00
    -57.466  0.0000E+00  0.0000E+00
    -57.219  0.0000E+00  0.0000E+00
    -56.972  0.0000E+00  0.0000E+00
    -56.725  0.0000E+00  0.0000E+00
    -56.479  0.0000E+00  0.0000E+00
    -56.232  0.0000E+00  0.0000E+00
    -55.985  0.4537E-09  0.1120E-09
    -55.738  0.1325E-02  0.3271E-03
    -55.491  0.3173E+00  0.7869E-01
    -55.244  0.2479E+00  0.1399E+00
    -54.997  0.3720E-03  0.1400E+00
    -54.750  0.2906E-10  0.1400E+00
    -54.503  0.0000E+00  0.1400E+00
    -54.256  0.0000E+00  0.1400E+00
    -54.009  0.0000E+00  0.1400E+00
    -53.762  0.0000E+00  0.1400E+00
    -53.515  0.0000E+00  0.1400E+00
    -53.268  0.0000E+00  0.1400E+00
    -53.022  0.0000E+00  0.1400E+00
    -52.775  0.0000E+00  0.1400E+00
    -52.528  0.0000E+00  0.1400E+00
    -52.281  0.0000E+00  0.1400E+00
    -52.034  0.0000E+00  0.1400E+00
    -51.787  0.0000E+00  0.1400E+00
    -51.540  0.0000E+00  0.1400E+00
    -51.293  0.0000E+00  0.1400E+00
    -51.046  0.0000E+00  0.1400E+00
    -50.799  0.0000E+00  0.1400E+00
    -50.552  0.0000E+00  0.1400E+00
    -50.305  0.0000E+00  0.1400E+00
    -50.058  0.0000E+00  0.1400E+00
    -49.811  0.0000E+00  0.1400E+00
    -49.564  0.0000E+00  0.1400E+00
    -49.318  0.0000E+00  0.1400E+00
    -49.071  0.0000E+00  0.1400E+00
    -48.824  0.1488E-11  0.1400E+00
    -48.577  0.7213E-04  0.1400E+00
    -48.330  0.5207E-01  0.1529E+00
    -48.083  0.1166E+00  0.1817E+00
    -47.836  0.3349E+00  0.2644E+00
    -47.589  0.6319E-01  0.2800E+00
    -47.342  0.1300E-03  0.2800E+00
    -47.095  0.5344E-04  0.2800E+00
    -46.848  0.4957E-01  0.2923E+00
    -46.601  0.1230E+00  0.3226E+00
    -46.354  0.2258E+00  0.3784E+00
    -46.107  0.8738E-01  0.4000E+00
    -45.860  0.1982E-03  0.4000E+00
    -45.614  0.1143E-10  0.4000E+00
    -45.367  0.0000E+00  0.4000E+00
    -45.120  0.0000E+00  0.4000E+00
    -44.873  0.0000E+00  0.4000E+00
    -44.626  0.0000E+00  0.4000E+00
    -44.379  0.0000E+00  0.4000E+00
    -44.132  0.0000E+00  0.4000E+00
    -43.885  0.0000E+00  0.4000E+00
    -43.638  0.0000E+00  0.4000E+00
    -43.391  0.0000E+00  0.4000E+00
    -43.144  0.0000E+00  0.4000E+00
    -42.897  0.0000E+00  0.4000E+00
    -42.650  0.0000E+00  0.4000E+00
    -42.403  0.0000E+00  0.4000E+00
    -42.157  0.0000E+00  0.4000E+00
    -41.910  0.0000E+00  0.4000E+00
    -41.663  0.0000E+00  0.4000E+00
    -41.416  0.0000E+00  0.4000E+00
    -41.169  0.0000E+00  0.4000E+00
    -40.922  0.0000E+00  0.4000E+00
    -40.675  0.0000E+00  0.4000E+00
    -40.428  0.0000E+00  0.4000E+00
    -40.181  0.0000E+00  0.4000E+00
    -39.934  0.0000E+00  0.4000E+00
    -39.687  0.0000E+00  0.4000E+00
    -39.440  0.0000E+00  0.4000E+00
    -39.193  0.0000E+00  0.4000E+00
    -38.946  0.0000E+00  0.4000E+00
    -38.699  0.0000E+00  0.4000E+00
    -38.453  0.0000E+00  0.4000E+00
    -38.206  0.0000E+00  0.4000E+00
    -37.959  0.0000E+00  0.4000E+00
    -37.712  0.0000E+00  0.4000E+00
    -37.465  0.0000E+00  0.4000E+00
    -37.218  0.0000E+00  0.4000E+00
    -36.971  0.0000E+00  0.4000E+00
    -36.724  0.0000E+00  0.4000E+00
    -36.477  0.0000E+00  0.4000E+00
    -36.230  0.0000E+00  0.4000E+00
    -35.983  0.0000E+00  0.4000E+00
    -35.736  0.0000E+00  0.4000E+00
    -35.489  0.0000E+00  0.4000E+00
    -35.242  0.0000E+00  0.4000E+00
    -34.996  0.0000E+00  0.4000E+00
    -34.749  0.0000E+00  0.4000E+00
    -34.502  0.0000E+00  0.4000E+00
    -34.255  0.0000E+00  0.4000E+00
    -34.008  0.0000E+00  0.4000E+00
    -33.761  0.0000E+00  0.4000E+00
    -33.514  0.0000E+00  0.4000E+00
    -33.267  0.0000E+00  0.4000E+00
    -33.020  0.0000E+00  0.4000E+00
    -32.773  0.0000E+00  0.4000E+00
    -32.526  0.0000E+00  0.4000E+00
    -32.279  0.0000E+00  0.4000E+00
    -32.032  0.0000E+00  0.4000E+00
    -31.785  0.0000E+00  0.4000E+00
    -31.538  0.0000E+00  0.4000E+00
    -31.292  0.0000E+00  0.4000E+00
    -31.045  0.0000E+00  0.4000E+00
    -30.798  0.0000E+00  0.4000E+00
    -30.551  0.2349E-09  0.4000E+00
    -30.304  0.9247E-03  0.4002E+00
    -30.057  0.2074E+00  0.4515E+00
    -29.810  0.9383E+00  0.6831E+00
    -29.563  0.5847E+00  0.8275E+00
    -29.316  0.1310E+01  0.1151E+01
    -29.069  0.1179E+00  0.1180E+01
    -28.822  0.5295E-05  0.1180E+01
    -28.575  0.4270E-14  0.1180E+01
    -28.328  0.0000E+00  0.1180E+01
    -28.081  0.0000E+00  0.1180E+01
    -27.835  0.0000E+00  0.1180E+01
    -27.588  0.0000E+00  0.1180E+01
    -27.341  0.0000E+00  0.1180E+01
    -27.094  0.0000E+00  0.1180E+01
    -26.847  0.0000E+00  0.1180E+01
    -26.600  0.0000E+00  0.1180E+01
    -26.353  0.0000E+00  0.1180E+01
    -26.106  0.0000E+00  0.1180E+01
    -25.859  0.0000E+00  0.1180E+01
    -25.612  0.0000E+00  0.1180E+01
    -25.365  0.4496E-17  0.1180E+01
    -25.118  0.5782E-07  0.1180E+01
    -24.871  0.1152E-01  0.1183E+01
    -24.624  0.2303E+00  0.1240E+01
    -24.377  0.7822E+00  0.1433E+01
    -24.131  0.6046E+00  0.1582E+01
    -23.884  0.7225E-01  0.1600E+01
    -23.637  0.1639E-04  0.1600E+01
    -23.390  0.1001E-04  0.1600E+01
    -23.143  0.4826E-01  0.1612E+01
    -22.896  0.2812E+00  0.1681E+01
    -22.649  0.4691E+00  0.1797E+01
    -22.402  0.5779E+00  0.1940E+01
    -22.155  0.8132E-01  0.1960E+01
    -21.908  0.3538E-04  0.1960E+01
    -21.661  0.3266E-12  0.1960E+01
    -21.414  0.0000E+00  0.1960E+01
    -21.167  0.0000E+00  0.1960E+01
    -20.920  0.0000E+00  0.1960E+01
    -20.673  0.0000E+00  0.1960E+01
    -20.427  0.0000E+00  0.1960E+01
    -20.180  0.0000E+00  0.1960E+01
    -19.933  0.0000E+00  0.1960E+01
    -19.686  0.0000E+00  0.1960E+01
    -19.439  0.0000E+00  0.1960E+01
    -19.192  0.0000E+00  0.1960E+01
    -18.945  0.0000E+00  0.1960E+01
    -18.698  0.0000E+00  0.1960E+01
    -18.451  0.0000E+00  0.1960E+01
    -18.204  0.0000E+00  0.1960E+01
    -17.957  0.0000E+00  0.1960E+01
    -17.710  0.0000E+00  0.1960E+01
    -17.463  0.0000E+00  0.1960E+01
    -17.216  0.0000E+00  0.1960E+01
    -16.970  0.0000E+00  0.1960E+01
    -16.723  0.0000E+00  0.1960E+01
    -16.476  0.0000E+00  0.1960E+01
    -16.229  0.0000E+00  0.1960E+01
    -15.982  0.0000E+00  0.1960E+01
    -15.735  0.0000E+00  0.1960E+01
    -15.488  0.0000E+00  0.1960E+01
    -15.241  0.0000E+00  0.1960E+01
    -14.994  0.0000E+00  0.1960E+01
    -14.747  0.0000E+00  0.1960E+01
    -14.500  0.0000E+00  0.1960E+01
    -14.253  0.0000E+00  0.1960E+01
    -14.006  0.0000E+00  0.1960E+01
    -13.759  0.0000E+00  0.1960E+01
    -13.512  0.0000E+00  0.1960E+01
    -13.266  0.0000E+00  0.1960E+01
    -13.019  0.0000E+00  0.1960E+01
    -12.772  0.0000E+00  0.1960E+01
    -12.525  0.0000E+00  0.1960E+01
    -12.278  0.0000E+00  0.1960E+01
    -12.031  0.0000E+00  0.1960E+01
    -11.784  0.0000E+00  0.1960E+01
    -11.537  0.0000E+00  0.1960E+01
    -11.290  0.0000E+00  0.1960E+01
    -11.043  0.0000E+00  0.1960E+01
    -10.796  0.0000E+00  0.1960E+01
    -10.549  0.0000E+00  0.1960E+01
    -10.302  0.0000E+00  0.1960E+01
    -10.055  0.0000E+00  0.1960E+01
     -9.809  0.0000E+00  0.1960E+01
     -9.562  0.0000E+00  0.1960E+01
     -9.315  0.0000E+00  0.1960E+01
     -9.068  0.0000E+00  0.1960E+01
     -8.821  0.0000E+00  0.1960E+01
     -8.574  0.0000E+00  0.1960E+01
     -8.327  0.0000E+00  0.1960E+01
     -8.080  0.0000E+00  0.1960E+01
     -7.833  0.0000E+00  0.1960E+01
     -7.586  0.2710E-10  0.1960E+01
     -7.339  0.6853E-04  0.1960E+01
     -7.092  0.2190E-01  0.1965E+01
     -6.845  0.6069E-01  0.1980E+01
     -6.598  0.8742E-01  0.2002E+01
     -6.351  0.9566E-01  0.2026E+01
     -6.105  0.1071E+00  0.2052E+01
     -5.858  0.1672E+00  0.2093E+01
     -5.611  0.2524E+00  0.2156E+01
     -5.364  0.2156E+00  0.2209E+01
     -5.117  0.4488E-01  0.2220E+01
     -4.870  0.2495E-04  0.2220E+01
     -4.623  0.2332E-12  0.2220E+01
     -4.376  0.1619E-09  0.2220E+01
     -4.129  0.1747E-03  0.2220E+01
     -3.882  0.2706E-01  0.2227E+01
     -3.635  0.5198E-01  0.2240E+01
     -3.388  0.5270E-01  0.2253E+01
     -3.141  0.6882E-01  0.2270E+01
     -2.894  0.1120E+00  0.2297E+01
     -2.648  0.1776E+00  0.2341E+01
     -2.401  0.2629E+00  0.2406E+01
     -2.154  0.2256E+00  0.2462E+01
     -1.907  0.1944E+00  0.2510E+01
     -1.660  0.1913E+00  0.2557E+01
     -1.413  0.1311E+00  0.2589E+01
     -1.166  0.4273E-01  0.2600E+01
     -0.919  0.4680E-03  0.2600E+01
     -0.672  0.2772E-08  0.2600E+01
     -0.425  0.0000E+00  0.2600E+01
     -0.178  0.0000E+00  0.2600E+01
      0.069  0.0000E+00  0.2600E+01
      0.316  0.0000E+00  0.2600E+01
      0.563  0.1291E-11  0.2600E+01
      0.810  0.1273E-04  0.2600E+01
      1.056  0.4411E-02  0.2601E+01
      1.303  0.2014E-01  0.2606E+01
      1.550  0.9367E-01  0.2629E+01
      1.797  0.8306E-01  0.2650E+01
      2.044  0.1566E+00  0.2688E+01
      2.291  0.2132E+00  0.2741E+01
      2.538  0.2884E+00  0.2812E+01
      2.785  0.2725E+00  0.2880E+01
      3.032  0.2698E+00  0.2946E+01
      3.279  0.3636E+00  0.3036E+01
      3.526  0.3710E+00  0.3128E+01
      3.773  0.4365E+00  0.3235E+01
      4.020  0.5376E+00  0.3368E+01
      4.267  0.6494E+00  0.3528E+01
      4.513  0.6592E+00  0.3691E+01
      4.760  0.5774E+00  0.3834E+01
      5.007  0.5883E+00  0.3979E+01
      5.254  0.5225E+00  0.4108E+01
      5.501  0.4083E+00  0.4209E+01
      5.748  0.3157E+00  0.4287E+01
      5.995  0.2956E+00  0.4360E+01
      6.242  0.2430E+00  0.4420E+01
      6.489  0.1910E+00  0.4467E+01
      6.736  0.1537E+00  0.4505E+01
      6.983  0.6297E-01  0.4521E+01
      7.230  0.1059E+00  0.4547E+01
      7.477  0.1518E+00  0.4584E+01
      7.724  0.1940E+00  0.4632E+01
      7.971  0.1905E+00  0.4679E+01
      8.217  0.1689E+00  0.4721E+01
      8.464  0.1852E+00  0.4767E+01
      8.711  0.2374E+00  0.4825E+01
      8.958  0.2728E+00  0.4893E+01
      9.205  0.2289E+00  0.4949E+01
      9.452  0.2698E+00  0.5016E+01
      9.699  0.3011E+00  0.5090E+01
      9.946  0.4205E+00  0.5194E+01
     10.193  0.5068E+00  0.5319E+01
     10.440  0.5663E+00  0.5459E+01
     10.687  0.5772E+00  0.5601E+01
     10.934  0.6403E+00  0.5760E+01
     11.181  0.6475E+00  0.5919E+01
     11.428  0.6171E+00  0.6072E+01
     11.675  0.5618E+00  0.6211E+01
     11.921  0.1191E+00  0.6240E+01
     12.168  0.3198E-03  0.6240E+01
     12.415  0.7324E-10  0.6240E+01
     12.662  0.0000E+00  0.6240E+01
     12.909  0.0000E+00  0.6240E+01
     13.156  0.0000E+00  0.6240E+01
     13.403  0.0000E+00  0.6240E+01
     13.650  0.0000E+00  0.6240E+01
     13.897  0.0000E+00  0.6240E+01
     14.144  0.0000E+00  0.6240E+01
     14.391  0.0000E+00  0.6240E+01
     14.638  0.0000E+00  0.6240E+01
     14.885  0.0000E+00  0.6240E+01
     15.132  0.0000E+00  0.6240E+01
