 running on   24 total cores
 distrk:  each k-point on   24 cores,    1 groups
 distr:  one band on    1 cores,   24 groups
 using from now: INCAR     
 vasp.5.4.4.18Apr17-6-g9f103f2a35 (build Oct 18 2021 20:38:43) complex          
  
 POSCAR found type information on POSCAR  Ti Mo V  N  C  Nb W 
 POSCAR found :  7 types and      64 ions
 scaLAPACK will be used

 ----------------------------------------------------------------------------- 
|                                                                             |
|           W    W    AA    RRRRR   N    N  II  N    N   GGGG   !!!           |
|           W    W   A  A   R    R  NN   N  II  NN   N  G    G  !!!           |
|           W    W  A    A  R    R  N N  N  II  N N  N  G       !!!           |
|           W WW W  AAAAAA  RRRRR   N  N N  II  N  N N  G  GGG   !            |
|           WW  WW  A    A  R   R   N   NN  II  N   NN  G    G                |
|           W    W  A    A  R    R  N    N  II  N    N   GGGG   !!!           |
|                                                                             |
|      For optimal performance we recommend to set                            |
|        NCORE= 4 - approx SQRT( number of cores)                             |
|      NCORE specifies how many cores store one orbital (NPAR=cpu/NCORE).     |
|      This setting can  greatly improve the performance of VASP for DFT.     |
|      The default,   NCORE=1            might be grossly inefficient         |
|      on modern multi-core architectures or massively parallel machines.     |
|      Do your own testing !!!!                                               |
|      Unfortunately you need to use the default for GW and RPA calculations. |
|      (for HF NCORE is supported but not extensively tested yet)             |
|                                                                             |
 ----------------------------------------------------------------------------- 


 ----------------------------------------------------------------------------- 
|                                                                             |
|  ADVICE TO THIS USER RUNNING 'VASP/VAMP'   (HEAR YOUR MASTER'S VOICE ...):  |
|                                                                             |
|      You have a (more or less) 'large supercell' and for larger cells       |
|      it might be more efficient to use real space projection operators      |
|      So try LREAL= Auto  in the INCAR   file.                               |
|      Mind: If you want to do a very accurate calculations keep the          |
|      reciprocal projection scheme          (i.e. LREAL=.FALSE.)             |
|                                                                             |
 ----------------------------------------------------------------------------- 

 LDA part: xc-table for Pade appr. of Perdew
 POSCAR, INCAR and KPOINTS ok, starting setup
 FFT: planning ...
 WAVECAR not read
 entering main loop
       N       E                     dE             d eps       ncg     rms          rms(c)
DAV:   1     0.514190441280E+04    0.51419E+04   -0.21786E+05 10056   0.128E+03
DAV:   2     0.341477439125E+03   -0.48004E+04   -0.46772E+04  9192   0.527E+02
DAV:   3    -0.483586848410E+03   -0.82506E+03   -0.78486E+03 14880   0.169E+02
DAV:   4    -0.589475599082E+03   -0.10589E+03   -0.10284E+03 13944   0.609E+01
DAV:   5    -0.608732360227E+03   -0.19257E+02   -0.18727E+02 17448   0.254E+01    0.786E+01
RMM:   6    -0.784147939123E+03   -0.17542E+03   -0.36564E+03 12382   0.881E+01    0.127E+02
RMM:   7    -0.485422160924E+03    0.29873E+03   -0.53355E+02 13336   0.358E+01    0.568E+01
RMM:   8    -0.440381910061E+03    0.45040E+02   -0.91028E+01 11777   0.236E+01    0.386E+01
RMM:   9    -0.435295717378E+03    0.50862E+01   -0.46954E+01 13225   0.823E+00    0.214E+01
RMM:  10    -0.437283945320E+03   -0.19882E+01   -0.18777E+01 13316   0.559E+00    0.347E+01
RMM:  11    -0.436054128391E+03    0.12298E+01   -0.12012E+01 13107   0.532E+00    0.283E+01
RMM:  12    -0.439395965675E+03   -0.33418E+01   -0.12672E+01 13238   0.486E+00    0.442E+01
RMM:  13    -0.434775570719E+03    0.46204E+01   -0.12616E+01 13132   0.501E+00    0.269E+01
RMM:  14    -0.434128944410E+03    0.64663E+00   -0.87570E+00 13189   0.423E+00    0.258E+01
RMM:  15    -0.432752738694E+03    0.13762E+01   -0.43621E+00 13282   0.330E+00    0.135E+01
RMM:  16    -0.432316393842E+03    0.43634E+00   -0.26346E+00 13278   0.184E+00    0.948E+00
RMM:  17    -0.432515445784E+03   -0.19905E+00   -0.17615E+00 13332   0.161E+00    0.153E+01
RMM:  18    -0.432331988098E+03    0.18346E+00   -0.21711E+00 13323   0.188E+00    0.149E+01
RMM:  19    -0.432249534251E+03    0.82454E-01   -0.23768E+00 13432   0.189E+00    0.158E+01
RMM:  20    -0.431917076568E+03    0.33246E+00   -0.23828E+00 13432   0.167E+00    0.103E+01
RMM:  21    -0.431971954005E+03   -0.54877E-01   -0.16622E+00 13552   0.139E+00    0.835E+00
RMM:  22    -0.431983613604E+03   -0.11660E-01   -0.13176E+00 13434   0.120E+00    0.476E+00
RMM:  23    -0.431903368550E+03    0.80245E-01   -0.69222E-01 13292   0.888E-01    0.355E+00
RMM:  24    -0.431873291263E+03    0.30077E-01   -0.47060E-01 13274   0.634E-01    0.237E+00
RMM:  25    -0.431861029596E+03    0.12262E-01   -0.41708E-01 13478   0.655E-01    0.147E+00
RMM:  26    -0.431905476719E+03   -0.44447E-01   -0.42420E-01 13551   0.697E-01    0.183E+00
RMM:  27    -0.431930601424E+03   -0.25125E-01   -0.30634E-01 13590   0.615E-01    0.151E+00
RMM:  28    -0.431935338024E+03   -0.47366E-02   -0.23043E-01 13460   0.372E-01    0.101E+00
RMM:  29    -0.431944225109E+03   -0.88871E-02   -0.19101E-01 13271   0.291E-01    0.878E-01
RMM:  30    -0.431951923167E+03   -0.76981E-02   -0.15587E-01 13209   0.231E-01    0.505E-01
RMM:  31    -0.431962131966E+03   -0.10209E-01   -0.13384E-01 13217   0.220E-01    0.337E-01
RMM:  32    -0.431973136128E+03   -0.11004E-01   -0.12140E-01 13074   0.200E-01    0.189E-01
RMM:  33    -0.431983230293E+03   -0.10094E-01   -0.10361E-01 12640   0.163E-01    0.161E-01
RMM:  34    -0.431991420334E+03   -0.81900E-02   -0.85533E-02 12152   0.138E-01    0.166E-01
RMM:  35    -0.431998641021E+03   -0.72207E-02   -0.75184E-02 12449   0.116E-01    0.174E-01
RMM:  36    -0.432004897957E+03   -0.62569E-02   -0.64479E-02 12449   0.108E-01    0.862E-02
RMM:  37    -0.432010727474E+03   -0.58295E-02   -0.58696E-02 11788   0.101E-01    0.794E-02
RMM:  38    -0.432015655551E+03   -0.49281E-02   -0.49879E-02 11134   0.786E-02    0.855E-02
RMM:  39    -0.432020163319E+03   -0.45078E-02   -0.45671E-02 10980   0.729E-02    0.692E-02
RMM:  40    -0.432024015579E+03   -0.38523E-02   -0.38982E-02 10404   0.621E-02    0.516E-02
RMM:  41    -0.432027543176E+03   -0.35276E-02   -0.35544E-02 10688   0.609E-02    0.270E-02
RMM:  42    -0.432030601599E+03   -0.30584E-02   -0.30817E-02 10265   0.546E-02    0.130E-02
RMM:  43    -0.432033364884E+03   -0.27633E-02   -0.27799E-02  9836   0.506E-02    0.128E-02
RMM:  44    -0.432035783493E+03   -0.24186E-02   -0.24343E-02 10368   0.475E-02    0.115E-02
RMM:  45    -0.432037980163E+03   -0.21967E-02   -0.22089E-02 10208   0.457E-02    0.128E-02
RMM:  46    -0.432039899392E+03   -0.19192E-02   -0.19301E-02 10228   0.428E-02    0.128E-02
RMM:  47    -0.432041647976E+03   -0.17486E-02   -0.17616E-02  8427   0.396E-02    0.101E-02
RMM:  48    -0.432043185265E+03   -0.15373E-02   -0.15487E-02  7504   0.360E-02    0.139E-02
WARNING in EDDRMM: call to ZHEGV failed, returncode =   6  3     10
RMM:  49    -0.432044584155E+03   -0.13989E-02   -0.14087E-02  7730   0.350E-02    0.164E-02
RMM:  50    -0.432045822916E+03   -0.12388E-02   -0.12470E-02  6638   0.330E-02    0.252E-02
RMM:  51    -0.432046950843E+03   -0.11279E-02   -0.11321E-02  6669   0.305E-02    0.364E-02
RMM:  52    -0.432047948085E+03   -0.99724E-03   -0.10048E-02  6478   0.283E-02    0.431E-02
RMM:  53    -0.432048860998E+03   -0.91291E-03   -0.91581E-03  6582   0.273E-02    0.544E-02
RMM:  54    -0.432049666125E+03   -0.80513E-03   -0.81043E-03  6225   0.252E-02    0.615E-02
RMM:  55    -0.432050401396E+03   -0.73527E-03   -0.74295E-03  6065   0.241E-02    0.655E-02
RMM:  56    -0.432051060379E+03   -0.65898E-03   -0.66042E-03  6160   0.225E-02    0.744E-02
RMM:  57    -0.432051659954E+03   -0.59957E-03   -0.60168E-03  6141   0.213E-02    0.817E-02
RMM:  58    -0.432052195222E+03   -0.53527E-03   -0.53901E-03  6054   0.201E-02    0.872E-02
RMM:  59    -0.432052679669E+03   -0.48445E-03   -0.48827E-03  5783   0.190E-02    0.922E-02
RMM:  60    -0.432053106900E+03   -0.42723E-03   -0.43427E-03  5626   0.180E-02
   1 F= -.43205311E+03 E0= -.43169048E+03  d E =-.432053E+03
 curvature:   0.00 expect dE= 0.000E+00 dE for cont linesearch  0.000E+00
 trial: gam= 0.00000 g(F)=  0.685E+00 g(S)=  0.316E+03 ort = 0.000E+00 (trialstep = 0.100E+01)
 search vector abs. value=  0.316E+03
 bond charge predicted
       N       E                     dE             d eps       ncg     rms          rms(c)
DAV:   1    -0.418032770477E+04   -0.37483E+04   -0.10989E+05  9912   0.115E+03    0.400E+02
RMM:   2    -0.139572758975E+04    0.27846E+04   -0.91775E+03 13075   0.328E+02    0.187E+02
RMM:   3    -0.644567408777E+03    0.75116E+03   -0.22964E+03  9390   0.219E+02    0.745E+01
RMM:   4    -0.628633890868E+03    0.15934E+02   -0.11243E+03 11656   0.855E+01    0.536E+01
RMM:   5    -0.614803275743E+03    0.13831E+02   -0.18033E+02 12732   0.416E+01    0.349E+01
RMM:   6    -0.601874773225E+03    0.12929E+02   -0.74132E+01 14226   0.222E+01    0.224E+01
RMM:   7    -0.601520386940E+03    0.35439E+00   -0.40485E+01 13933   0.158E+01    0.197E+01
RMM:   8    -0.602908970964E+03   -0.13886E+01   -0.25702E+01 14948   0.106E+01    0.120E+01
RMM:   9    -0.603755435599E+03   -0.84646E+00   -0.12209E+01 14989   0.796E+00    0.893E+00
RMM:  10    -0.604551950301E+03   -0.79651E+00   -0.77652E+00 15224   0.529E+00    0.671E+00
RMM:  11    -0.605935960471E+03   -0.13840E+01   -0.58083E+00 14966   0.466E+00    0.707E+00
RMM:  12    -0.606555651917E+03   -0.61969E+00   -0.44415E+00 15165   0.385E+00    0.514E+00
RMM:  13    -0.606914210603E+03   -0.35856E+00   -0.36104E+00 14343   0.403E+00    0.383E+00
RMM:  14    -0.607021305090E+03   -0.10709E+00   -0.20800E+00 15123   0.281E+00    0.312E+00
RMM:  15    -0.607026221434E+03   -0.49163E-02   -0.11790E+00 14774   0.221E+00    0.121E+00
RMM:  16    -0.607055086548E+03   -0.28865E-01   -0.60899E-01 15344   0.148E+00    0.928E-01
RMM:  17    -0.607074603707E+03   -0.19517E-01   -0.32907E-01 15372   0.105E+00    0.797E-01
RMM:  18    -0.607084209611E+03   -0.96059E-02   -0.18931E-01 15362   0.849E-01    0.359E-01
RMM:  19    -0.607091776303E+03   -0.75667E-02   -0.10676E-01 15209   0.654E-01    0.241E-01
RMM:  20    -0.607096164218E+03   -0.43879E-02   -0.59892E-02 15246   0.512E-01    0.198E-01
RMM:  21    -0.607098908362E+03   -0.27441E-02   -0.36372E-02 15052   0.368E-01    0.201E-01
RMM:  22    -0.607100450788E+03   -0.15424E-02   -0.20815E-02 15110   0.298E-01    0.110E-01
RMM:  23    -0.607101455581E+03   -0.10048E-02   -0.12705E-02 15020   0.227E-01    0.608E-02
RMM:  24    -0.607102094431E+03   -0.63885E-03   -0.76477E-03 15024   0.178E-01    0.864E-02
RMM:  25    -0.607102512370E+03   -0.41794E-03   -0.49027E-03 15070   0.145E-01    0.410E-02
RMM:  26    -0.607102768514E+03   -0.25614E-03   -0.30003E-03 14640   0.118E-01    0.297E-02
RMM:  27    -0.607102948264E+03   -0.17975E-03   -0.20275E-03 14170   0.869E-02    0.160E-02
RMM:  28    -0.607103059617E+03   -0.11135E-03   -0.12376E-03 14198   0.716E-02    0.535E-03
RMM:  29    -0.607103139097E+03   -0.79480E-04   -0.89746E-04 13680   0.571E-02    0.124E-02
RMM:  30    -0.607103187594E+03   -0.48497E-04   -0.53674E-04 13201   0.474E-02    0.475E-03
RMM:  31    -0.607103224710E+03   -0.37116E-04   -0.41082E-04 12417   0.400E-02    0.525E-03
RMM:  32    -0.607103246024E+03   -0.21314E-04   -0.24126E-04 11550   0.332E-02    0.141E-03
WARNING in EDDRMM: call to ZHEGV failed, returncode =   6  3      9
RMM:  33    -0.607103262852E+03   -0.16828E-04   -0.19124E-04 10931   0.283E-02    0.175E-03
RMM:  34    -0.607103272477E+03   -0.96253E-05   -0.11307E-04  9934   0.253E-02    0.145E-03
RMM:  35    -0.607103280427E+03   -0.79497E-05   -0.95425E-05  9506   0.221E-02
   2 F= -.60710328E+03 E0= -.60704332E+03  d E =-.175050E+03
 trial-energy change: -175.050174  1 .order  -10.098816 -316.397865  296.200233
 step:   0.7872(harm=  0.5165)  dis= 0.02149  next Energy=  -637.034476 (dE=-0.205E+03)
 bond charge predicted
       N       E                     dE             d eps       ncg     rms          rms(c)
DAV:   1    -0.928953835904E+03   -0.32185E+03   -0.63185E+03  9960   0.298E+02    0.165E+02
RMM:   2    -0.132434575932E+04   -0.39539E+03   -0.22491E+03 10850   0.124E+02    0.105E+02
RMM:   3    -0.819258482863E+03    0.50509E+03   -0.54602E+02 13066   0.533E+01    0.668E+01
RMM:   4    -0.671465667293E+03    0.14779E+03   -0.16743E+02 11946   0.364E+01    0.422E+01
RMM:   5    -0.668389889778E+03    0.30758E+01   -0.39526E+02 13091   0.357E+01    0.399E+01
RMM:   6    -0.652026195740E+03    0.16364E+02   -0.55728E+01 13058   0.198E+01    0.334E+01
RMM:   7    -0.644194533604E+03    0.78317E+01   -0.18168E+01 12882   0.911E+00    0.173E+01
RMM:   8    -0.641368053531E+03    0.28265E+01   -0.63854E+00 12403   0.704E+00    0.837E+00
RMM:   9    -0.640994201919E+03    0.37385E+00   -0.26113E+00 13423   0.379E+00    0.610E+00
RMM:  10    -0.641086034554E+03   -0.91833E-01   -0.20219E+00 13759   0.284E+00    0.613E+00
RMM:  11    -0.640980005214E+03    0.10603E+00   -0.12419E+00 14049   0.218E+00    0.427E+00
RMM:  12    -0.641066374341E+03   -0.86369E-01   -0.66574E-01 14282   0.165E+00    0.438E+00
RMM:  13    -0.640952876232E+03    0.11350E+00   -0.38169E-01 13891   0.134E+00    0.247E+00
RMM:  14    -0.640959428778E+03   -0.65525E-02   -0.28011E-01 14426   0.975E-01    0.201E+00
RMM:  15    -0.640974273564E+03   -0.14845E-01   -0.17464E-01 14262   0.777E-01    0.124E+00
RMM:  16    -0.641017972395E+03   -0.43699E-01   -0.19693E-01 14040   0.783E-01    0.104E+00
RMM:  17    -0.641034994171E+03   -0.17022E-01   -0.11357E-01 14368   0.631E-01    0.139E+00
RMM:  18    -0.641027600043E+03    0.73941E-02   -0.77583E-02 14183   0.451E-01    0.572E-01
RMM:  19    -0.641026467651E+03    0.11324E-02   -0.51900E-02 14007   0.357E-01    0.249E-01
RMM:  20    -0.641027963790E+03   -0.14961E-02   -0.29074E-02 14584   0.288E-01    0.231E-01
RMM:  21    -0.641029228939E+03   -0.12651E-02   -0.16249E-02 14600   0.188E-01    0.247E-01
RMM:  22    -0.641029872109E+03   -0.64317E-03   -0.86853E-03 14714   0.142E-01    0.248E-01
RMM:  23    -0.641029900962E+03   -0.28853E-04   -0.58167E-03 14046   0.107E-01    0.172E-01
RMM:  24    -0.641030006026E+03   -0.10506E-03   -0.65257E-03 13665   0.134E-01    0.727E-02
RMM:  25    -0.641030121490E+03   -0.11546E-03   -0.23584E-03 12281   0.100E-01    0.544E-02
RMM:  26    -0.641030200510E+03   -0.79020E-04   -0.14397E-03 12790   0.544E-02    0.258E-02
RMM:  27    -0.641030267898E+03   -0.67388E-04   -0.89237E-04 11934   0.437E-02    0.177E-02
RMM:  28    -0.641030330872E+03   -0.62974E-04   -0.61394E-04 12116   0.383E-02    0.436E-02
RMM:  29    -0.641030343687E+03   -0.12815E-04   -0.39579E-04 11332   0.314E-02    0.166E-02
RMM:  30    -0.641030361698E+03   -0.18011E-04   -0.26205E-04 10688   0.248E-02    0.826E-03
RMM:  31    -0.641030376073E+03   -0.14375E-04   -0.18620E-04 10208   0.215E-02    0.485E-03
RMM:  32    -0.641030384923E+03   -0.88493E-05   -0.11508E-04  9149   0.188E-02    0.303E-03
RMM:  33    -0.641030390642E+03   -0.57196E-05   -0.82474E-05  8731   0.173E-02
   3 F= -.64103039E+03 E0= -.64094140E+03  d E =-.208977E+03
 curvature:  -0.18 expect dE=-0.798E+00 dE for cont linesearch -0.475E+00
 ZBRENT: interpolating
 opt :   0.8062  next Energy=  -641.307760 (dE=-0.209E+03)
 bond charge predicted
       N       E                     dE             d eps       ncg     rms          rms(c)
DAV:   1    -0.643269687691E+03   -0.22393E+01   -0.46233E+01  9360   0.252E+01    0.114E+01
RMM:   2    -0.653530074336E+03   -0.10260E+02   -0.30801E+01 10526   0.146E+01    0.378E+01
RMM:   3    -0.642644074097E+03    0.10886E+02   -0.64419E+00 10526   0.780E+00    0.102E+01
RMM:   4    -0.641930150054E+03    0.71392E+00   -0.17411E+00 12097   0.326E+00    0.568E+00
RMM:   5    -0.641641219282E+03    0.28893E+00   -0.82226E-01 12100   0.205E+00    0.333E+00
RMM:   6    -0.641632049074E+03    0.91702E-02   -0.49170E-01 11723   0.172E+00    0.427E+00
RMM:   7    -0.641491318444E+03    0.14073E+00   -0.17905E-01 11419   0.117E+00    0.121E+00
RMM:   8    -0.641487014324E+03    0.43041E-02   -0.55914E-02 13428   0.605E-01    0.118E+00
RMM:   9    -0.641480671004E+03    0.63433E-02   -0.21025E-02 13374   0.339E-01    0.677E-01
RMM:  10    -0.641478897547E+03    0.17735E-02   -0.93360E-03 13414   0.208E-01    0.348E-01
RMM:  11    -0.641479637957E+03   -0.74041E-03   -0.44135E-03 13789   0.138E-01    0.388E-01
RMM:  12    -0.641479692634E+03   -0.54677E-04   -0.27688E-03 13673   0.993E-02    0.258E-01
RMM:  13    -0.641480528799E+03   -0.83617E-03   -0.25597E-03 13479   0.893E-02    0.170E-01
RMM:  14    -0.641481553548E+03   -0.10247E-02   -0.35046E-03 13654   0.101E-01    0.143E-01
RMM:  15    -0.641481748956E+03   -0.19541E-03   -0.21551E-03 12955   0.841E-02    0.133E-01
RMM:  16    -0.641481748711E+03    0.24482E-06   -0.13578E-03 12568   0.596E-02    0.432E-02
RMM:  17    -0.641481797477E+03   -0.48766E-04   -0.77035E-04 11705   0.452E-02    0.405E-02
RMM:  18    -0.641481829129E+03   -0.31652E-04   -0.44242E-04 11630   0.351E-02    0.467E-02
RMM:  19    -0.641481836136E+03   -0.70070E-05   -0.25655E-04 10940   0.282E-02    0.284E-02
RMM:  20    -0.641481845050E+03   -0.89144E-05   -0.15997E-04 10541   0.232E-02    0.212E-02
RMM:  21    -0.641481851114E+03   -0.60642E-05   -0.99707E-05  9929   0.201E-02
   4 F= -.64148185E+03 E0= -.64139609E+03  d E =-.209429E+03
 curvature:  -0.10 expect dE=-0.232E+00 dE for cont linesearch -0.187E-01
 ZBRENT: interpolating
 opt :   0.8127  next Energy=  -641.507165 (dE=-0.209E+03)
 bond charge predicted
       N       E                     dE             d eps       ncg     rms          rms(c)
DAV:   1    -0.641725407248E+03   -0.24356E+00   -0.54593E+00 10032   0.869E+00    0.404E+00
RMM:   2    -0.642960487414E+03   -0.12351E+01   -0.33384E+00 10570   0.487E+00    0.125E+01
RMM:   3    -0.641634527428E+03    0.13260E+01   -0.81754E-01 10509   0.271E+00    0.336E+00
RMM:   4    -0.641560783895E+03    0.73744E-01   -0.20069E-01 11817   0.116E+00    0.198E+00
RMM:   5    -0.641532079845E+03    0.28704E-01   -0.97181E-02 12146   0.699E-01    0.126E+00
RMM:   6    -0.641529928990E+03    0.21509E-02   -0.54172E-02 11687   0.570E-01    0.148E+00
RMM:   7    -0.641513482388E+03    0.16447E-01   -0.22401E-02 11421   0.410E-01    0.436E-01
RMM:   8    -0.641513997905E+03   -0.51552E-03   -0.77346E-03 13159   0.227E-01    0.545E-01
RMM:   9    -0.641512115761E+03    0.18821E-02   -0.29557E-03 13441   0.127E-01    0.160E-01
RMM:  10    -0.641512141461E+03   -0.25701E-04   -0.11392E-03 12939   0.737E-02    0.132E-01
RMM:  11    -0.641512185271E+03   -0.43810E-04   -0.58082E-04 12385   0.490E-02    0.114E-01
RMM:  12    -0.641512236526E+03   -0.51254E-04   -0.35989E-04 12000   0.376E-02    0.798E-02
RMM:  13    -0.641512366245E+03   -0.12972E-03   -0.32283E-04 11792   0.338E-02    0.650E-02
RMM:  14    -0.641512486709E+03   -0.12046E-03   -0.32292E-04 11854   0.351E-02    0.771E-02
RMM:  15    -0.641512543365E+03   -0.56656E-04   -0.31549E-04 11935   0.354E-02    0.234E-02
RMM:  16    -0.641512566986E+03   -0.23621E-04   -0.19299E-04 10859   0.280E-02    0.201E-02
RMM:  17    -0.641512576307E+03   -0.93208E-05   -0.11763E-04 10641   0.233E-02    0.227E-02
RMM:  18    -0.641512578799E+03   -0.24915E-05   -0.65377E-05  9338   0.181E-02
   5 F= -.64151258E+03 E0= -.64142789E+03  d E =-.209459E+03
 curvature:  -0.14 expect dE=-0.300E+00 dE for cont linesearch -0.809E-05
 trial: gam= 0.00722 g(F)=  0.215E+01 g(S)=  0.172E-02 ort =-0.135E+00 (trialstep = 0.963E+00)
 search vector abs. value=  0.216E+01
 bond charge predicted
       N       E                     dE             d eps       ncg     rms          rms(c)
DAV:   1    -0.639758918734E+03    0.17537E+01   -0.33394E+02  9408   0.605E+01    0.368E+00
RMM:   2    -0.643236780387E+03   -0.34779E+01   -0.35260E+01 13654   0.178E+01    0.584E+00
RMM:   3    -0.643021531263E+03    0.21525E+00   -0.31940E+00 13456   0.555E+00    0.401E+00
RMM:   4    -0.642926431246E+03    0.95100E-01   -0.65779E-01 14138   0.228E+00    0.262E+00
RMM:   5    -0.642882673612E+03    0.43758E-01   -0.30742E-01 13491   0.114E+00    0.148E+00
RMM:   6    -0.642881985145E+03    0.68847E-03   -0.21757E-01 13315   0.997E-01    0.177E+00
RMM:   7    -0.642873916252E+03    0.80689E-02   -0.14392E-01 13700   0.835E-01    0.144E+00
RMM:   8    -0.642859592524E+03    0.14324E-01   -0.57979E-02 13978   0.561E-01    0.575E-01
RMM:   9    -0.642862172688E+03   -0.25802E-02   -0.33861E-02 14299   0.334E-01    0.697E-01
RMM:  10    -0.642861095659E+03    0.10770E-02   -0.20903E-02 14148   0.262E-01    0.362E-01
RMM:  11    -0.642861589535E+03   -0.49388E-03   -0.12294E-02 14192   0.189E-01    0.326E-01
RMM:  12    -0.642861411790E+03    0.17774E-03   -0.59156E-03 13868   0.149E-01    0.181E-01
RMM:  13    -0.642861457943E+03   -0.46153E-04   -0.38180E-03 13789   0.984E-02    0.112E-01
RMM:  14    -0.642861804869E+03   -0.34693E-03   -0.29405E-03 13744   0.963E-02    0.172E-01
RMM:  15    -0.642861838500E+03   -0.33631E-04   -0.18155E-03 13305   0.828E-02    0.808E-02
RMM:  16    -0.642861859064E+03   -0.20564E-04   -0.95307E-04 12644   0.520E-02    0.365E-02
RMM:  17    -0.642861871521E+03   -0.12457E-04   -0.59274E-04 12140   0.400E-02    0.243E-02
RMM:  18    -0.642861907217E+03   -0.35696E-04   -0.40312E-04 11917   0.363E-02    0.393E-02
WARNING in EDDRMM: call to ZHEGV failed, returncode =   6  3      9
RMM:  19    -0.642861921294E+03   -0.14077E-04   -0.26179E-04 11163   0.267E-02    0.158E-02
RMM:  20    -0.642861924786E+03   -0.34916E-05   -0.13342E-04 10237   0.240E-02    0.111E-02
RMM:  21    -0.642861926289E+03   -0.15034E-05   -0.87189E-05  9286   0.178E-02
   6 F= -.64286193E+03 E0= -.64278384E+03  d E =-.134935E+01
 trial-energy change:   -1.349347  1 .order   -1.341993   -2.067147   -0.616840
 step:   1.3551(harm=  1.3719)  dis= 0.06198  next Energy=  -642.988213 (dE=-0.148E+01)
 bond charge predicted
       N       E                     dE             d eps       ncg     rms          rms(c)
DAV:   1    -0.642472760376E+03    0.38916E+00   -0.55669E+01  9408   0.247E+01    0.149E+00
RMM:   2    -0.643039714311E+03   -0.56695E+00   -0.58102E+00 13746   0.711E+00    0.216E+00
RMM:   3    -0.643012141552E+03    0.27573E-01   -0.50450E-01 13378   0.221E+00    0.168E+00
RMM:   4    -0.642997061963E+03    0.15080E-01   -0.10949E-01 14200   0.911E-01    0.107E+00
RMM:   5    -0.642990255998E+03    0.68060E-02   -0.51324E-02 13333   0.466E-01    0.591E-01
RMM:   6    -0.642989936715E+03    0.31928E-03   -0.33990E-02 13308   0.390E-01    0.647E-01
RMM:   7    -0.642989366563E+03    0.57015E-03   -0.22424E-02 13623   0.320E-01    0.601E-01
RMM:   8    -0.642986774887E+03    0.25917E-02   -0.92576E-03 13865   0.230E-01    0.192E-01
RMM:   9    -0.642987324735E+03   -0.54985E-03   -0.57156E-03 13900   0.132E-01    0.271E-01
RMM:  10    -0.642987175108E+03    0.14963E-03   -0.32435E-03 13611   0.107E-01    0.142E-01
RMM:  11    -0.642987212838E+03   -0.37730E-04   -0.19478E-03 13062   0.726E-02    0.104E-01
RMM:  12    -0.642987239888E+03   -0.27049E-04   -0.95281E-04 12521   0.595E-02    0.755E-02
RMM:  13    -0.642987259033E+03   -0.19146E-04   -0.59112E-04 11889   0.399E-02    0.481E-02
RMM:  14    -0.642987314431E+03   -0.55398E-04   -0.45195E-04 12045   0.394E-02    0.665E-02
RMM:  15    -0.642987323913E+03   -0.94819E-05   -0.30023E-04 11734   0.340E-02    0.308E-02
RMM:  16    -0.642987329407E+03   -0.54941E-05   -0.15994E-04 10829   0.262E-02    0.122E-02
RMM:  17    -0.642987332550E+03   -0.31424E-05   -0.95397E-05  9623   0.207E-02
   7 F= -.64298733E+03 E0= -.64290970E+03  d E =-.147475E+01
 curvature:  -0.69 expect dE=-0.265E+00 dE for cont linesearch -0.126E-04
 trial: gam= 0.16052 g(F)=  0.240E+00 g(S)=  0.144E+00 ort =-0.628E-02 (trialstep = 0.104E+01)
 search vector abs. value=  0.438E+00
 bond charge predicted
       N       E                     dE             d eps       ncg     rms          rms(c)
DAV:   1    -0.642838118702E+03    0.14921E+00   -0.96739E+01  9048   0.435E+01    0.101E+01
RMM:   2    -0.650842691839E+03   -0.80046E+01   -0.31168E+01 11431   0.167E+01    0.225E+01
RMM:   3    -0.643413907219E+03    0.74288E+01   -0.59563E+00 11553   0.823E+00    0.366E+00
RMM:   4    -0.643550081379E+03   -0.13617E+00   -0.14992E+00 13693   0.319E+00    0.636E+00
RMM:   5    -0.643237715975E+03    0.31237E+00   -0.47364E-01 13291   0.171E+00    0.245E+00
RMM:   6    -0.643223117486E+03    0.14598E-01   -0.24676E-01 13655   0.115E+00    0.266E+00
RMM:   7    -0.643195258073E+03    0.27859E-01   -0.14371E-01 13596   0.970E-01    0.192E+00
RMM:   8    -0.643165946703E+03    0.29311E-01   -0.72626E-02 13900   0.606E-01    0.666E-01
RMM:   9    -0.643164798200E+03    0.11485E-02   -0.26365E-02 13984   0.408E-01    0.725E-01
RMM:  10    -0.643161957214E+03    0.28410E-02   -0.13476E-02 14356   0.235E-01    0.329E-01
RMM:  11    -0.643162052322E+03   -0.95108E-04   -0.73339E-03 14294   0.169E-01    0.242E-01
RMM:  12    -0.643162500873E+03   -0.44855E-03   -0.44035E-03 14327   0.120E-01    0.251E-01
RMM:  13    -0.643162530817E+03   -0.29943E-04   -0.26028E-03 13995   0.981E-02    0.136E-01
RMM:  14    -0.643162854163E+03   -0.32335E-03   -0.19241E-03 13846   0.742E-02    0.125E-01
RMM:  15    -0.643163102706E+03   -0.24854E-03   -0.15599E-03 13739   0.746E-02    0.138E-01
RMM:  16    -0.643163114139E+03   -0.11434E-04   -0.12939E-03 13542   0.647E-02    0.454E-02
RMM:  17    -0.643163143955E+03   -0.29815E-04   -0.68313E-04 13069   0.501E-02    0.518E-02
RMM:  18    -0.643163148668E+03   -0.47129E-05   -0.38893E-04 12289   0.347E-02    0.265E-02
RMM:  19    -0.643163158696E+03   -0.10028E-04   -0.25514E-04 11682   0.292E-02    0.171E-02
RMM:  20    -0.643163167919E+03   -0.92234E-05   -0.14961E-04 11281   0.232E-02    0.787E-03
RMM:  21    -0.643163172718E+03   -0.47991E-05   -0.76789E-05  9145   0.189E-02
   8 F= -.64316317E+03 E0= -.64308455E+03  d E =-.175840E+00
 trial-energy change:   -0.175840  1 .order   -0.177006   -0.398923    0.044912
 step:   0.9342(harm=  0.9357)  dis= 0.02759  next Energy=  -643.165479 (dE=-0.178E+00)
 bond charge predicted
       N       E                     dE             d eps       ncg     rms          rms(c)
DAV:   1    -0.643161934179E+03    0.12337E-02   -0.10089E+00  9720   0.449E+00    0.985E-01
RMM:   2    -0.643245378891E+03   -0.83445E-01   -0.36277E-01 11437   0.180E+00    0.271E+00
RMM:   3    -0.643170412226E+03    0.74967E-01   -0.65026E-02 11563   0.874E-01    0.673E-01
RMM:   4    -0.643169084391E+03    0.13278E-02   -0.15646E-02 13680   0.324E-01    0.576E-01
RMM:   5    -0.643166057992E+03    0.30264E-02   -0.48140E-03 13105   0.179E-01    0.249E-01
RMM:   6    -0.643166261445E+03   -0.20345E-03   -0.29014E-03 13117   0.132E-01    0.349E-01
RMM:   7    -0.643165433026E+03    0.82842E-03   -0.18202E-03 12853   0.116E-01    0.123E-01
RMM:   8    -0.643165334540E+03    0.98486E-04   -0.64696E-04 13365   0.608E-02    0.900E-02
RMM:   9    -0.643165295453E+03    0.39087E-04   -0.24058E-04 12241   0.396E-02    0.559E-02
RMM:  10    -0.643165283822E+03    0.11630E-04   -0.11873E-04 11269   0.241E-02    0.244E-02
RMM:  11    -0.643165294553E+03   -0.10731E-04   -0.60796E-05  9318   0.187E-02    0.288E-02
RMM:  12    -0.643165297769E+03   -0.32157E-05   -0.35426E-05  7660   0.169E-02
   9 F= -.64316530E+03 E0= -.64308675E+03  d E =-.177965E+00
 curvature:  -0.53 expect dE=-0.217E+00 dE for cont linesearch -0.366E-05
 trial: gam= 1.08715 g(F)=  0.160E+00 g(S)=  0.246E+00 ort =-0.173E-02 (trialstep = 0.485E+00)
 search vector abs. value=  0.920E+00
 bond charge predicted
       N       E                     dE             d eps       ncg     rms          rms(c)
DAV:   1    -0.642554998741E+03    0.61030E+00   -0.42903E+01  9408   0.288E+01    0.191E+00
RMM:   2    -0.643446677844E+03   -0.89168E+00   -0.85578E+00 13732   0.835E+00    0.375E+00
RMM:   3    -0.643353563316E+03    0.93115E-01   -0.85897E-01 13662   0.269E+00    0.200E+00
RMM:   4    -0.643342799210E+03    0.10764E-01   -0.15813E-01 14215   0.109E+00    0.156E+00
RMM:   5    -0.643323656301E+03    0.19143E-01   -0.53869E-02 13485   0.521E-01    0.594E-01
RMM:   6    -0.643324194515E+03   -0.53821E-03   -0.30739E-02 13469   0.380E-01    0.714E-01
RMM:   7    -0.643322960457E+03    0.12341E-02   -0.20415E-02 13611   0.316E-01    0.592E-01
RMM:   8    -0.643320508865E+03    0.24516E-02   -0.11168E-02 13765   0.228E-01    0.289E-01
RMM:   9    -0.643320608401E+03   -0.99536E-04   -0.51235E-03 14155   0.154E-01    0.276E-01
RMM:  10    -0.643320412918E+03    0.19548E-03   -0.32707E-03 13659   0.100E-01    0.126E-01
RMM:  11    -0.643320470042E+03   -0.57124E-04   -0.18204E-03 13093   0.786E-02    0.115E-01
RMM:  12    -0.643322493848E+03   -0.20238E-02   -0.21216E-02 12659   0.530E-02    0.614E-02
RMM:  13    -0.643320578263E+03    0.19156E-02   -0.32017E-02 12094   0.637E-02    0.384E-02
RMM:  14    -0.643320505871E+03    0.72392E-04   -0.92653E-04 11724   0.351E-02    0.407E-02
RMM:  15    -0.643320541423E+03   -0.35552E-04   -0.37849E-04 11488   0.298E-02    0.342E-02
RMM:  16    -0.643320564439E+03   -0.23015E-04   -0.28270E-04 10215   0.238E-02    0.129E-02
RMM:  17    -0.643320579442E+03   -0.15003E-04   -0.18128E-04 10382   0.211E-02    0.639E-03
RMM:  18    -0.643320586551E+03   -0.71091E-05   -0.95130E-05  8968   0.176E-02
  10 F= -.64332059E+03 E0= -.64324251E+03  d E =-.155289E+00
 trial-energy change:   -0.155289  1 .order   -0.154316   -0.196373   -0.112259
 step:   1.0482(harm=  1.1326)  dis= 0.05609  next Energy=  -643.387253 (dE=-0.222E+00)
 bond charge predicted
       N       E                     dE             d eps       ncg     rms          rms(c)
DAV:   1    -0.642349905100E+03    0.97067E+00   -0.57722E+01  9408   0.334E+01    0.224E+00
RMM:   2    -0.643556400439E+03   -0.12065E+01   -0.11544E+01 13669   0.988E+00    0.455E+00
RMM:   3    -0.643436831141E+03    0.11957E+00   -0.12125E+00 13635   0.319E+00    0.248E+00
RMM:   4    -0.643413444947E+03    0.23386E-01   -0.22456E-01 14224   0.129E+00    0.173E+00
RMM:   5    -0.643389413005E+03    0.24032E-01   -0.75469E-02 13440   0.622E-01    0.735E-01
RMM:   6    -0.643389745316E+03   -0.33231E-03   -0.42573E-02 13459   0.452E-01    0.815E-01
RMM:   7    -0.643387868246E+03    0.18771E-02   -0.27966E-02 13518   0.366E-01    0.663E-01
RMM:   8    -0.643385251675E+03    0.26166E-02   -0.15669E-02 13760   0.274E-01    0.427E-01
RMM:   9    -0.643384630148E+03    0.62153E-03   -0.72293E-03 14188   0.182E-01    0.259E-01
RMM:  10    -0.643384534679E+03    0.95469E-04   -0.45027E-03 13844   0.117E-01    0.126E-01
RMM:  11    -0.643384660229E+03   -0.12555E-03   -0.24381E-03 13494   0.911E-02    0.130E-01
RMM:  12    -0.643384664653E+03   -0.44240E-05   -0.13261E-03 12850   0.614E-02    0.704E-02
RMM:  13    -0.643384708670E+03   -0.44016E-04   -0.79189E-04 12474   0.482E-02    0.422E-02
RMM:  14    -0.643384766605E+03   -0.57935E-04   -0.51651E-04 11918   0.382E-02    0.398E-02
RMM:  15    -0.643384802840E+03   -0.36235E-04   -0.33377E-04 11743   0.329E-02    0.373E-02
RMM:  16    -0.643384812230E+03   -0.93901E-05   -0.18098E-04 10432   0.259E-02    0.148E-02
RMM:  17    -0.643384822275E+03   -0.10045E-04   -0.14321E-04 10732   0.231E-02    0.125E-02
WARNING in EDDRMM: call to ZHEGV failed, returncode =   6  3     10
RMM:  18    -0.643384827860E+03   -0.55845E-05   -0.82813E-05  9372   0.186E-02
  11 F= -.64338483E+03 E0= -.64330592E+03  d E =-.219530E+00
 curvature:  -1.27 expect dE=-0.276E+00 dE for cont linesearch -0.282E-03
 trial: gam= 0.50919 g(F)=  0.186E+00 g(S)=  0.318E-01 ort =-0.143E-01 (trialstep = 0.598E+00)
 search vector abs. value=  0.442E+00
 bond charge predicted
       N       E                     dE             d eps       ncg     rms          rms(c)
DAV:   1    -0.643073941990E+03    0.31088E+00   -0.28616E+01  9408   0.222E+01    0.147E+00
RMM:   2    -0.643523044484E+03   -0.44910E+00   -0.46466E+00 13951   0.621E+00    0.200E+00
RMM:   3    -0.643511496931E+03    0.11548E-01   -0.46142E-01 13573   0.190E+00    0.148E+00
RMM:   4    -0.643497355312E+03    0.14142E-01   -0.72233E-02 14267   0.833E-01    0.750E-01
RMM:   5    -0.643494776165E+03    0.25791E-02   -0.33257E-02 13803   0.353E-01    0.585E-01
RMM:   6    -0.643495427304E+03   -0.65114E-03   -0.18449E-02 13852   0.299E-01    0.676E-01
RMM:   7    -0.643494338460E+03    0.10888E-02   -0.13512E-02 13714   0.230E-01    0.531E-01
RMM:   8    -0.643492179493E+03    0.21590E-02   -0.62612E-03 14065   0.193E-01    0.179E-01
RMM:   9    -0.643492293012E+03   -0.11352E-03   -0.34786E-03 13459   0.102E-01    0.160E-01
RMM:  10    -0.643492216758E+03    0.76255E-04   -0.18799E-03 12853   0.830E-02    0.729E-02
RMM:  11    -0.643492257440E+03   -0.40682E-04   -0.10414E-03 12482   0.515E-02    0.629E-02
RMM:  12    -0.643492285947E+03   -0.28507E-04   -0.59959E-04 12257   0.425E-02    0.439E-02
RMM:  13    -0.643492297555E+03   -0.11608E-04   -0.32739E-04 11110   0.302E-02    0.191E-02
RMM:  14    -0.643492315341E+03   -0.17786E-04   -0.23099E-04 11094   0.261E-02    0.190E-02
RMM:  15    -0.643492325272E+03   -0.99315E-05   -0.13541E-04  9831   0.215E-02    0.171E-02
RMM:  16    -0.643492330645E+03   -0.53734E-05   -0.92921E-05  9503   0.186E-02
  12 F= -.64349233E+03 E0= -.64341309E+03  d E =-.107503E+00
 trial-energy change:   -0.107503  1 .order   -0.106236   -0.126021   -0.086451
 step:   1.4822(harm=  1.9036)  dis= 0.04409  next Energy=  -643.560401 (dE=-0.176E+00)
 bond charge predicted
       N       E                     dE             d eps       ncg     rms          rms(c)
DAV:   1    -0.642648048196E+03    0.84428E+00   -0.62673E+01  9408   0.329E+01    0.219E+00
RMM:   2    -0.643639701581E+03   -0.99165E+00   -0.10233E+01 13932   0.916E+00    0.307E+00
RMM:   3    -0.643606623085E+03    0.33078E-01   -0.10125E+00 13482   0.284E+00    0.216E+00
RMM:   4    -0.643576301649E+03    0.30321E-01   -0.16721E-01 14345   0.124E+00    0.107E+00
RMM:   5    -0.643571363828E+03    0.49378E-02   -0.72477E-02 13868   0.516E-01    0.869E-01
RMM:   6    -0.643572619970E+03   -0.12561E-02   -0.40859E-02 13871   0.441E-01    0.995E-01
RMM:   7    -0.643570404386E+03    0.22156E-02   -0.29341E-02 13757   0.338E-01    0.790E-01
RMM:   8    -0.643565662930E+03    0.47415E-02   -0.13763E-02 14075   0.283E-01    0.257E-01
RMM:   9    -0.643565900520E+03   -0.23759E-03   -0.75218E-03 13994   0.151E-01    0.229E-01
RMM:  10    -0.643565778196E+03    0.12232E-03   -0.40786E-03 13405   0.120E-01    0.120E-01
RMM:  11    -0.643565883693E+03   -0.10550E-03   -0.22842E-03 12844   0.761E-02    0.113E-01
RMM:  12    -0.643565899370E+03   -0.15677E-04   -0.13305E-03 12603   0.613E-02    0.492E-02
RMM:  13    -0.643565936969E+03   -0.37599E-04   -0.72610E-04 12057   0.421E-02    0.241E-02
WARNING in EDDRMM: call to ZHEGV failed, returncode =   6  3      8
RMM:  14    -0.643565973099E+03   -0.36130E-04   -0.48392E-04 11819   0.348E-02    0.160E-02
RMM:  15    -0.643565996439E+03   -0.23340E-04   -0.28420E-04 10963   0.288E-02    0.151E-02
RMM:  16    -0.643566011242E+03   -0.14803E-04   -0.19347E-04 10604   0.237E-02    0.103E-02
RMM:  17    -0.643566019108E+03   -0.78656E-05   -0.11246E-04  9296   0.195E-02    0.441E-03
RMM:  18    -0.643566025754E+03   -0.66469E-05   -0.83129E-05  9498   0.172E-02
  13 F= -.64356603E+03 E0= -.64349080E+03  d E =-.181198E+00
 curvature:  -1.79 expect dE=-0.319E+00 dE for cont linesearch -0.573E-03
 trial: gam= 0.41392 g(F)=  0.137E+00 g(S)=  0.415E-01 ort = 0.119E-01 (trialstep = 0.775E+00)
 search vector abs. value=  0.264E+00
 bond charge predicted
       N       E                     dE             d eps       ncg     rms          rms(c)
DAV:   1    -0.643387629610E+03    0.17839E+00   -0.28470E+01  9192   0.228E+01    0.389E+00
RMM:   2    -0.644678740291E+03   -0.12911E+01   -0.72708E+00 11564   0.815E+00    0.900E+00
RMM:   3    -0.643707409997E+03    0.97133E+00   -0.11120E+00 11655   0.376E+00    0.240E+00
RMM:   4    -0.643713418700E+03   -0.60087E-02   -0.28486E-01 13999   0.135E+00    0.256E+00
RMM:   5    -0.643659762887E+03    0.53656E-01   -0.90411E-02 13311   0.780E-01    0.107E+00
RMM:   6    -0.643660048553E+03   -0.28567E-03   -0.53526E-02 13492   0.542E-01    0.123E+00
RMM:   7    -0.643649358133E+03    0.10690E-01   -0.29766E-02 13655   0.464E-01    0.521E-01
RMM:   8    -0.643649635582E+03   -0.27745E-03   -0.15453E-02 13998   0.274E-01    0.589E-01
RMM:   9    -0.643647011528E+03    0.26241E-02   -0.67573E-03 14223   0.195E-01    0.190E-01
RMM:  10    -0.643646887776E+03    0.12375E-03   -0.32456E-03 13891   0.108E-01    0.914E-02
RMM:  11    -0.643647032427E+03   -0.14465E-03   -0.16705E-03 13573   0.782E-02    0.101E-01
RMM:  12    -0.643647092759E+03   -0.60332E-04   -0.99083E-04 12862   0.554E-02    0.765E-02
RMM:  13    -0.643647152492E+03   -0.59733E-04   -0.61432E-04 12647   0.449E-02    0.579E-02
WARNING in EDDRMM: call to ZHEGV failed, returncode =   6  3      9
RMM:  14    -0.643647218238E+03   -0.65745E-04   -0.45915E-04 12598   0.393E-02    0.645E-02
RMM:  15    -0.643647231254E+03   -0.13017E-04   -0.34000E-04 12545   0.355E-02    0.340E-02
RMM:  16    -0.643647236951E+03   -0.56963E-05   -0.22540E-04 11861   0.305E-02    0.237E-02
RMM:  17    -0.643647242820E+03   -0.58697E-05   -0.13612E-04 11426   0.242E-02    0.193E-02
RMM:  18    -0.643647244386E+03   -0.15655E-05   -0.74230E-05  9801   0.194E-02
  14 F= -.64364724E+03 E0= -.64357296E+03  d E =-.812186E-01
 trial-energy change:   -0.081219  1 .order   -0.080841   -0.141970   -0.019711
 step:   0.8969(harm=  0.8995)  dis= 0.01750  next Energy=  -643.648801 (dE=-0.828E-01)
 bond charge predicted
       N       E                     dE             d eps       ncg     rms          rms(c)
DAV:   1    -0.643642330770E+03    0.49121E-02   -0.70604E-01  9744   0.360E+00    0.607E-01
RMM:   2    -0.643675266900E+03   -0.32936E-01   -0.18786E-01 11377   0.131E+00    0.152E+00
RMM:   3    -0.643651090475E+03    0.24176E-01   -0.28449E-02 11562   0.600E-01    0.487E-01
RMM:   4    -0.643650335708E+03    0.75477E-03   -0.73471E-03 14063   0.216E-01    0.369E-01
RMM:   5    -0.643649264595E+03    0.10711E-02   -0.23910E-03 13316   0.126E-01    0.192E-01
RMM:   6    -0.643649171262E+03    0.93333E-04   -0.13761E-03 13354   0.851E-02    0.184E-01
RMM:   7    -0.643648927183E+03    0.24408E-03   -0.80813E-04 13485   0.765E-02    0.823E-02
RMM:   8    -0.643648940265E+03   -0.13082E-04   -0.43205E-04 13044   0.450E-02    0.977E-02
RMM:   9    -0.643648863261E+03    0.77004E-04   -0.18939E-04 12245   0.340E-02    0.272E-02
RMM:  10    -0.643648860088E+03    0.31730E-05   -0.96026E-05 10498   0.197E-02
  15 F= -.64364886E+03 E0= -.64357470E+03  d E =-.828343E-01
 curvature:  -0.65 expect dE=-0.932E-01 dE for cont linesearch -0.377E-07
 trial: gam= 0.79016 g(F)=  0.512E-01 g(S)=  0.928E-01 ort = 0.124E-03 (trialstep = 0.683E+00)
 search vector abs. value=  0.309E+00
 bond charge predicted
       N       E                     dE             d eps       ncg     rms          rms(c)
DAV:   1    -0.643353118918E+03    0.29574E+00   -0.27336E+01  9408   0.227E+01    0.271E+00
RMM:   2    -0.644184855523E+03   -0.83174E+00   -0.61583E+00 12938   0.755E+00    0.642E+00
RMM:   3    -0.643757798602E+03    0.42706E+00   -0.77603E-01 12865   0.284E+00    0.220E+00
RMM:   4    -0.643743003837E+03    0.14795E-01   -0.17137E-01 13972   0.994E-01    0.182E+00
RMM:   5    -0.643715060696E+03    0.27943E-01   -0.54228E-02 13243   0.609E-01    0.789E-01
RMM:   6    -0.643715398899E+03   -0.33820E-03   -0.33382E-02 13394   0.423E-01    0.948E-01
RMM:   7    -0.643710215836E+03    0.51831E-02   -0.22032E-02 13453   0.392E-01    0.529E-01
RMM:   8    -0.643709306796E+03    0.90904E-03   -0.11416E-02 13610   0.245E-01    0.445E-01
RMM:   9    -0.643707927688E+03    0.13791E-02   -0.48643E-03 14079   0.163E-01    0.151E-01
RMM:  10    -0.643707954705E+03   -0.27017E-04   -0.25522E-03 13509   0.870E-02    0.844E-02
RMM:  11    -0.643708083054E+03   -0.12835E-03   -0.12881E-03 13119   0.680E-02    0.939E-02
RMM:  12    -0.643708116259E+03   -0.33205E-04   -0.73833E-04 12366   0.462E-02    0.583E-02
RMM:  13    -0.643708185356E+03   -0.69097E-04   -0.47794E-04 12078   0.374E-02    0.468E-02
RMM:  14    -0.643708242497E+03   -0.57141E-04   -0.33001E-04 11735   0.334E-02    0.491E-02
RMM:  15    -0.643708267298E+03   -0.24801E-04   -0.23624E-04 11724   0.307E-02    0.200E-02
RMM:  16    -0.643708281322E+03   -0.14024E-04   -0.14036E-04 10915   0.249E-02    0.107E-02
RMM:  17    -0.643708287575E+03   -0.62530E-05   -0.82935E-05  9964   0.198E-02
  16 F= -.64370829E+03 E0= -.64363576E+03  d E =-.594275E-01
 trial-energy change:   -0.059427  1 .order   -0.058480   -0.098341   -0.018618
 step:   0.8294(harm=  0.8422)  dis= 0.01673  next Energy=  -643.710298 (dE=-0.614E-01)
 bond charge predicted
       N       E                     dE             d eps       ncg     rms          rms(c)
DAV:   1    -0.643693625092E+03    0.14656E-01   -0.12621E+00 10080   0.487E+00    0.583E-01
RMM:   2    -0.643731052369E+03   -0.37427E-01   -0.27850E-01 12991   0.157E+00    0.131E+00
RMM:   3    -0.643712065070E+03    0.18987E-01   -0.34884E-02 12760   0.605E-01    0.423E-01
RMM:   4    -0.643711893985E+03    0.17109E-03   -0.79029E-03 14101   0.216E-01    0.411E-01
RMM:   5    -0.643710523745E+03    0.13702E-02   -0.25381E-03 13134   0.129E-01    0.163E-01
RMM:   6    -0.643710565390E+03   -0.41645E-04   -0.15605E-03 13324   0.899E-02    0.202E-01
RMM:   7    -0.643710336090E+03    0.22930E-03   -0.99910E-04 13377   0.843E-02    0.110E-01
RMM:   8    -0.643710314094E+03    0.21995E-04   -0.56792E-04 13048   0.524E-02    0.971E-02
RMM:   9    -0.643710250682E+03    0.63412E-04   -0.24090E-04 12317   0.375E-02    0.308E-02
RMM:  10    -0.643710257727E+03   -0.70449E-05   -0.13001E-04 11002   0.215E-02    0.185E-02
RMM:  11    -0.643710267372E+03   -0.96443E-05   -0.73346E-05 10031   0.198E-02
  17 F= -.64371027E+03 E0= -.64363809E+03  d E =-.614073E-01
 curvature:  -0.90 expect dE=-0.506E-01 dE for cont linesearch -0.132E-06
 trial: gam= 0.31921 g(F)=  0.500E-01 g(S)=  0.635E-02 ort = 0.214E-03 (trialstep = 0.712E+00)
 search vector abs. value=  0.880E-01
 bond charge predicted
       N       E                     dE             d eps       ncg     rms          rms(c)
DAV:   1    -0.643618334030E+03    0.91924E-01   -0.87088E+00  9408   0.117E+01    0.727E-01
RMM:   2    -0.643746463936E+03   -0.12813E+00   -0.13272E+00 13738   0.325E+00    0.944E-01
RMM:   3    -0.643746877923E+03   -0.41399E-03   -0.13854E-01 13351   0.995E-01    0.725E-01
RMM:   4    -0.643745048623E+03    0.18293E-02   -0.20470E-02 14117   0.432E-01    0.549E-01
RMM:   5    -0.643743148646E+03    0.19000E-02   -0.87619E-03 13709   0.184E-01    0.258E-01
RMM:   6    -0.643743378323E+03   -0.22968E-03   -0.45632E-03 13435   0.154E-01    0.304E-01
RMM:   7    -0.643742773823E+03    0.60450E-03   -0.32816E-03 13458   0.115E-01    0.158E-01
RMM:   8    -0.643742649346E+03    0.12448E-03   -0.15031E-03 13449   0.931E-02    0.118E-01
RMM:   9    -0.643742608086E+03    0.41260E-04   -0.83472E-04 12494   0.491E-02    0.556E-02
RMM:  10    -0.643742611802E+03   -0.37158E-05   -0.43554E-04 11867   0.406E-02    0.305E-02
RMM:  11    -0.643742627049E+03   -0.15247E-04   -0.22971E-04 11075   0.265E-02    0.340E-02
WARNING in EDDRMM: call to ZHEGV failed, returncode =   8  4      7
RMM:  12    -0.643742629740E+03   -0.26913E-05   -0.14997E-04 10608   0.237E-02    0.126E-02
RMM:  13    -0.643742634497E+03   -0.47562E-05   -0.74060E-05  9049   0.180E-02
  18 F= -.64374263E+03 E0= -.64367079E+03  d E =-.323671E-01
 trial-energy change:   -0.032367  1 .order   -0.032012   -0.040182   -0.023842
 step:   1.5244(harm=  1.7511)  dis= 0.01963  next Energy=  -643.756761 (dE=-0.465E-01)
 bond charge predicted
       N       E                     dE             d eps       ncg     rms          rms(c)
DAV:   1    -0.643596863839E+03    0.14577E+00   -0.11336E+01  9408   0.134E+01    0.830E-01
RMM:   2    -0.643763862618E+03   -0.16700E+00   -0.17352E+00 13734   0.373E+00    0.104E+00
RMM:   3    -0.643764887732E+03   -0.10251E-02   -0.18099E-01 13311   0.114E+00    0.827E-01
RMM:   4    -0.643762260339E+03    0.26274E-02   -0.26906E-02 14092   0.494E-01    0.605E-01
RMM:   5    -0.643760013601E+03    0.22467E-02   -0.11644E-02 13709   0.211E-01    0.289E-01
RMM:   6    -0.643760307964E+03   -0.29436E-03   -0.60408E-03 13438   0.176E-01    0.340E-01
RMM:   7    -0.643759552732E+03    0.75523E-03   -0.43017E-03 13492   0.131E-01    0.174E-01
RMM:   8    -0.643759387758E+03    0.16497E-03   -0.19645E-03 13584   0.105E-01    0.123E-01
RMM:   9    -0.643759370159E+03    0.17599E-04   -0.10880E-03 12706   0.552E-02    0.694E-02
RMM:  10    -0.643759371477E+03   -0.13184E-05   -0.58434E-04 12102   0.458E-02    0.335E-02
RMM:  11    -0.643759393056E+03   -0.21579E-04   -0.31128E-04 11405   0.301E-02    0.381E-02
WARNING in EDDRMM: call to ZHEGV failed, returncode =   6  3     10
RMM:  12    -0.643759398271E+03   -0.52152E-05   -0.20369E-04 10959   0.263E-02    0.149E-02
WARNING in EDDRMM: call to ZHEGV failed, returncode =   6  3      9
RMM:  13    -0.643759405037E+03   -0.67661E-05   -0.10407E-04  9471   0.199E-02    0.159E-02
RMM:  14    -0.643759409808E+03   -0.47706E-05   -0.77152E-05  9444   0.180E-02
  19 F= -.64375941E+03 E0= -.64368801E+03  d E =-.491424E-01
 curvature:  -1.30 expect dE=-0.454E-01 dE for cont linesearch -0.663E-03
 trial: gam= 0.45557 g(F)=  0.294E-01 g(S)=  0.558E-02 ort = 0.670E-02 (trialstep = 0.875E+00)
 search vector abs. value=  0.593E-01
 bond charge predicted
       N       E                     dE             d eps       ncg     rms          rms(c)
DAV:   1    -0.643635799109E+03    0.12361E+00   -0.90887E+00  9408   0.130E+01    0.824E-01
RMM:   2    -0.643785910407E+03   -0.15011E+00   -0.16361E+00 13846   0.357E+00    0.700E-01
RMM:   3    -0.643793895870E+03   -0.79855E-02   -0.16673E-01 13346   0.111E+00    0.108E+00
RMM:   4    -0.643785489162E+03    0.84067E-02   -0.26579E-02 14104   0.504E-01    0.365E-01
RMM:   5    -0.643785382981E+03    0.10618E-03   -0.12103E-02 13629   0.207E-01    0.306E-01
RMM:   6    -0.643785410118E+03   -0.27137E-04   -0.66612E-03 13371   0.195E-01    0.332E-01
RMM:   7    -0.643784815914E+03    0.59420E-03   -0.39973E-03 13586   0.127E-01    0.186E-01
RMM:   8    -0.643784586347E+03    0.22957E-03   -0.19062E-03 13401   0.950E-02    0.644E-02
RMM:   9    -0.643784671782E+03   -0.85435E-04   -0.10265E-03 12350   0.550E-02    0.886E-02
WARNING in EDDRMM: call to ZHEGV failed, returncode =   6  3      6
RMM:  10    -0.643784651539E+03    0.20243E-04   -0.59942E-04 11965   0.450E-02    0.302E-02
RMM:  11    -0.643784672449E+03   -0.20910E-04   -0.31764E-04 11175   0.304E-02    0.307E-02
WARNING in EDDRMM: call to ZHEGV failed, returncode =   8  4      7
WARNING in EDDRMM: call to ZHEGV failed, returncode =   6  3     11
RMM:  12    -0.643784682694E+03   -0.10245E-04   -0.20474E-04 10940   0.262E-02    0.167E-02
RMM:  13    -0.643784688588E+03   -0.58940E-05   -0.11090E-04  9829   0.195E-02    0.815E-03
WARNING in EDDRMM: call to ZHEGV failed, returncode =   8  4      7
RMM:  14    -0.643784694757E+03   -0.61692E-05   -0.75310E-05  9535   0.174E-02
  20 F= -.64378469E+03 E0= -.64371375E+03  d E =-.252849E-01
 trial-energy change:   -0.025285  1 .order   -0.024948   -0.033240   -0.016656
 step:   1.5931(harm=  1.7528)  dis= 0.01521  next Energy=  -643.791724 (dE=-0.323E-01)
 bond charge predicted
       N       E                     dE             d eps       ncg     rms          rms(c)
DAV:   1    -0.643691902903E+03    0.92786E-01   -0.61355E+00  9408   0.107E+01    0.680E-01
RMM:   2    -0.643794105507E+03   -0.10220E+00   -0.11122E+00 13875   0.294E+00    0.598E-01
RMM:   3    -0.643798997707E+03   -0.48922E-02   -0.11212E-01 13371   0.898E-01    0.895E-01
RMM:   4    -0.643793294563E+03    0.57031E-02   -0.18213E-02 14083   0.415E-01    0.308E-01
RMM:   5    -0.643793194253E+03    0.10031E-03   -0.83969E-03 13553   0.172E-01    0.254E-01
RMM:   6    -0.643793263822E+03   -0.69569E-04   -0.46538E-03 13319   0.161E-01    0.280E-01
RMM:   7    -0.643792808296E+03    0.45553E-03   -0.28465E-03 13538   0.107E-01    0.144E-01
RMM:   8    -0.643792672719E+03    0.13558E-03   -0.13478E-03 13045   0.805E-02    0.528E-02
RMM:   9    -0.643792733442E+03   -0.60723E-04   -0.72471E-04 12153   0.465E-02    0.723E-02
RMM:  10    -0.643792721673E+03    0.11769E-04   -0.43054E-04 11795   0.386E-02    0.249E-02
RMM:  11    -0.643792736850E+03   -0.15178E-04   -0.22555E-04 10701   0.267E-02    0.265E-02
RMM:  12    -0.643792743841E+03   -0.69910E-05   -0.14938E-04 10471   0.230E-02    0.125E-02
RMM:  13    -0.643792748112E+03   -0.42704E-05   -0.79953E-05  9352   0.176E-02
  21 F= -.64379275E+03 E0= -.64372218E+03  d E =-.333383E-01
 curvature:  -1.32 expect dE=-0.304E-01 dE for cont linesearch -0.147E-03
 trial: gam= 0.65912 g(F)=  0.158E-01 g(S)=  0.713E-02 ort = 0.256E-02 (trialstep = 0.102E+01)
 search vector abs. value=  0.521E-01
 bond charge predicted
       N       E                     dE             d eps       ncg     rms          rms(c)
DAV:   1    -0.643625478567E+03    0.16727E+00   -0.10757E+01  9384   0.142E+01    0.114E+00
RMM:   2    -0.643853880791E+03   -0.22840E+00   -0.21733E+00 13800   0.424E+00    0.206E+00
RMM:   3    -0.643813918700E+03    0.39962E-01   -0.22379E-01 13556   0.135E+00    0.829E-01
RMM:   4    -0.643814861703E+03   -0.94300E-03   -0.40832E-02 14069   0.562E-01    0.891E-01
RMM:   5    -0.643808898771E+03    0.59629E-02   -0.15255E-02 13519   0.283E-01    0.353E-01
RMM:   6    -0.643809085998E+03   -0.18723E-03   -0.83948E-03 13477   0.202E-01    0.391E-01
RMM:   7    -0.643808274683E+03    0.81131E-03   -0.54902E-03 13599   0.175E-01    0.241E-01
RMM:   8    -0.643807813761E+03    0.46092E-03   -0.29473E-03 13945   0.120E-01    0.138E-01
RMM:   9    -0.643807795683E+03    0.18078E-04   -0.13130E-03 13465   0.734E-02    0.897E-02
RMM:  10    -0.643807791733E+03    0.39500E-05   -0.73175E-04 12524   0.469E-02    0.340E-02
RMM:  11    -0.643807824621E+03   -0.32888E-04   -0.38521E-04 11992   0.354E-02    0.359E-02
RMM:  12    -0.643807841598E+03   -0.16977E-04   -0.23141E-04 11224   0.274E-02    0.261E-02
RMM:  13    -0.643807857847E+03   -0.16249E-04   -0.14673E-04 10663   0.237E-02    0.174E-02
RMM:  14    -0.643807868322E+03   -0.10476E-04   -0.97416E-05 10082   0.207E-02    0.178E-02
RMM:  15    -0.643807872179E+03   -0.38571E-05   -0.56313E-05  8965   0.172E-02
  22 F= -.64380787E+03 E0= -.64373804E+03  d E =-.151241E-01
 trial-energy change:   -0.015124  1 .order   -0.014850   -0.025113   -0.004588
 step:   1.2258(harm=  1.2458)  dis= 0.01188  next Energy=  -643.808342 (dE=-0.156E-01)
 bond charge predicted
       N       E                     dE             d eps       ncg     rms          rms(c)
DAV:   1    -0.643800703550E+03    0.71648E-02   -0.44687E-01 10032   0.291E+00    0.233E-01
RMM:   2    -0.643810174288E+03   -0.94707E-02   -0.90706E-02 13807   0.850E-01    0.409E-01
RMM:   3    -0.643808583657E+03    0.15906E-02   -0.93421E-03 13466   0.277E-01    0.164E-01
RMM:   4    -0.643808637299E+03   -0.53642E-04   -0.17928E-03 13736   0.117E-01    0.179E-01
RMM:   5    -0.643808407778E+03    0.22952E-03   -0.70634E-04 12578   0.605E-02    0.713E-02
RMM:   6    -0.643808423428E+03   -0.15650E-04   -0.38856E-04 12357   0.428E-02    0.803E-02
RMM:   7    -0.643808391994E+03    0.31434E-04   -0.25238E-04 12343   0.364E-02    0.481E-02
RMM:   8    -0.643808378602E+03    0.13392E-04   -0.14182E-04 11704   0.263E-02    0.302E-02
WARNING in EDDRMM: call to ZHEGV failed, returncode =   6  3     11
WARNING in EDDRMM: call to ZHEGV failed, returncode =   8  4      9
RMM:   9    -0.643808378331E+03    0.27147E-06   -0.73227E-05  9849   0.195E-02
  23 F= -.64380838E+03 E0= -.64373870E+03  d E =-.156302E-01
 curvature:  -1.31 expect dE=-0.177E-01 dE for cont linesearch -0.102E-05
 trial: gam= 0.58030 g(F)=  0.722E-02 g(S)=  0.630E-02 ort = 0.201E-03 (trialstep = 0.106E+01)
 search vector abs. value=  0.313E-01
 bond charge predicted
       N       E                     dE             d eps       ncg     rms          rms(c)
DAV:   1    -0.643724457496E+03    0.83921E-01   -0.69777E+00  9096   0.115E+01    0.159E+00
RMM:   2    -0.643962602911E+03   -0.23815E+00   -0.16872E+00 12478   0.388E+00    0.349E+00
RMM:   3    -0.643824083093E+03    0.13852E+00   -0.22154E-01 12284   0.160E+00    0.100E+00
RMM:   4    -0.643824722020E+03   -0.63893E-03   -0.53462E-02 13836   0.574E-01    0.106E+00
RMM:   5    -0.643815012689E+03    0.97093E-02   -0.15904E-02 13202   0.343E-01    0.416E-01
RMM:   6    -0.643814922954E+03    0.89736E-04   -0.94683E-03 13307   0.230E-01    0.470E-01
RMM:   7    -0.643813463681E+03    0.14593E-02   -0.54729E-03 13366   0.200E-01    0.247E-01
RMM:   8    -0.643813177132E+03    0.28655E-03   -0.26983E-03 13648   0.114E-01    0.205E-01
RMM:   9    -0.643812924989E+03    0.25214E-03   -0.11514E-03 13434   0.769E-02    0.926E-02
RMM:  10    -0.643812885136E+03    0.39854E-04   -0.59571E-04 12507   0.457E-02    0.427E-02
WARNING in EDDRMM: call to ZHEGV failed, returncode =   6  3      7
RMM:  11    -0.643812910040E+03   -0.24905E-04   -0.30707E-04 12232   0.347E-02    0.490E-02
RMM:  12    -0.643812910106E+03   -0.65796E-07   -0.17365E-04 10728   0.244E-02    0.279E-02
RMM:  13    -0.643812922348E+03   -0.12242E-04   -0.12435E-04 10843   0.227E-02    0.273E-02
RMM:  14    -0.643812925479E+03   -0.31314E-05   -0.82382E-05  9954   0.196E-02
  24 F= -.64381293E+03 E0= -.64374304E+03  d E =-.454715E-02
 trial-energy change:   -0.004547  1 .order   -0.004504   -0.014457    0.005449
 step:   0.7724(harm=  0.7697)  dis= 0.00563  next Energy=  -643.813663 (dE=-0.529E-02)
 bond charge predicted
       N       E                     dE             d eps       ncg     rms          rms(c)
DAV:   1    -0.643807191920E+03    0.57304E-02   -0.51308E-01  9744   0.312E+00    0.429E-01
RMM:   2    -0.643824964511E+03   -0.17773E-01   -0.12684E-01 12385   0.106E+00    0.969E-01
RMM:   3    -0.643814597262E+03    0.10367E-01   -0.15901E-02 12091   0.434E-01    0.290E-01
RMM:   4    -0.643814510811E+03    0.86452E-04   -0.40388E-03 13814   0.159E-01    0.279E-01
RMM:   5    -0.643813832708E+03    0.67810E-03   -0.11350E-03 12743   0.921E-02    0.119E-01
RMM:   6    -0.643813813616E+03    0.19093E-04   -0.67275E-04 12952   0.636E-02    0.131E-01
RMM:   7    -0.643813702539E+03    0.11108E-03   -0.40141E-04 12541   0.545E-02    0.687E-02
RMM:   8    -0.643813688413E+03    0.14126E-04   -0.19646E-04 12226   0.332E-02    0.625E-02
RMM:   9    -0.643813662495E+03    0.25918E-04   -0.73983E-05 10436   0.233E-02    0.239E-02
RMM:  10    -0.643813661332E+03    0.11626E-05   -0.32564E-05  7367   0.155E-02
  25 F= -.64381366E+03 E0= -.64374383E+03  d E =-.528300E-02
 curvature:  -0.88 expect dE=-0.774E-02 dE for cont linesearch -0.755E-07
 trial: gam= 0.63125 g(F)=  0.428E-02 g(S)=  0.448E-02 ort =-0.518E-04 (trialstep = 0.100E+01)
 search vector abs. value=  0.212E-01
 bond charge predicted
       N       E                     dE             d eps       ncg     rms          rms(c)
DAV:   1    -0.643755695388E+03    0.57967E-01   -0.41145E+00  9408   0.874E+00    0.766E-01
RMM:   2    -0.643845967828E+03   -0.90272E-01   -0.79996E-01 13770   0.260E+00    0.157E+00
RMM:   3    -0.643821469007E+03    0.24499E-01   -0.79024E-02 13616   0.862E-01    0.602E-01
RMM:   4    -0.643821179889E+03    0.28912E-03   -0.17310E-02 14129   0.337E-01    0.573E-01
RMM:   5    -0.643818314162E+03    0.28657E-02   -0.58449E-03 13292   0.187E-01    0.200E-01
RMM:   6    -0.643818518416E+03   -0.20425E-03   -0.35505E-03 13382   0.132E-01    0.273E-01
RMM:   7    -0.643818101978E+03    0.41644E-03   -0.21437E-03 13629   0.121E-01    0.160E-01
RMM:   8    -0.643817926078E+03    0.17590E-03   -0.11524E-03 13601   0.688E-02    0.869E-02
RMM:   9    -0.643817906360E+03    0.19717E-04   -0.48779E-04 12441   0.491E-02    0.522E-02
RMM:  10    -0.643817910457E+03   -0.40963E-05   -0.27877E-04 11641   0.288E-02    0.238E-02
RMM:  11    -0.643817926432E+03   -0.15975E-04   -0.16110E-04 11290   0.251E-02    0.232E-02
RMM:  12    -0.643817932436E+03   -0.60045E-05   -0.78637E-05  9538   0.185E-02
  26 F= -.64381793E+03 E0= -.64374821E+03  d E =-.427110E-02
 trial-energy change:   -0.004271  1 .order   -0.004326   -0.008746    0.000095
 step:   0.9911(harm=  0.9916)  dis= 0.00549  next Energy=  -643.817933 (dE=-0.427E-02)
 bond charge predicted
       N       E                     dE             d eps       ncg     rms          rms(c)
DAV:   1    -0.643817939321E+03   -0.12889E-04   -0.62336E-04 11472   0.101E-01    0.149E-02
RMM:   2    -0.643817958775E+03   -0.19454E-04   -0.13977E-04  9903   0.341E-02    0.296E-02
RMM:   3    -0.643817950878E+03    0.78974E-05   -0.17847E-05  5526   0.187E-02
  27 F= -.64381795E+03 E0= -.64374823E+03  d E =-.428955E-02
 curvature:  -1.20 expect dE=-0.351E-02 dE for cont linesearch -0.536E-05
 trial: gam= 0.27323 g(F)=  0.261E-02 g(S)=  0.312E-03 ort = 0.307E-03 (trialstep = 0.100E+01)
 search vector abs. value=  0.467E-02
 bond charge predicted
       N       E                     dE             d eps       ncg     rms          rms(c)
DAV:   1    -0.643807463803E+03    0.10495E-01   -0.90178E-01  9648   0.393E+00    0.220E-01
RMM:   2    -0.643820117371E+03   -0.12654E-01   -0.13526E-01 13815   0.108E+00    0.190E-01
RMM:   3    -0.643820645130E+03   -0.52776E-03   -0.12526E-02 13360   0.320E-01    0.281E-01
RMM:   4    -0.643820074652E+03    0.57048E-03   -0.19958E-03 13559   0.148E-01    0.956E-02
RMM:   5    -0.643820089388E+03   -0.14736E-04   -0.10164E-03 12476   0.620E-02    0.900E-02
RMM:   6    -0.643820064846E+03    0.24542E-04   -0.47868E-04 12350   0.511E-02    0.681E-02
WARNING in EDDRMM: call to ZHEGV failed, returncode =   6  3      8
RMM:   7    -0.643820032169E+03    0.32677E-04   -0.35669E-04 12466   0.371E-02    0.447E-02
RMM:   8    -0.643820025314E+03    0.68551E-05   -0.12812E-04 11385   0.312E-02    0.240E-02
RMM:   9    -0.643820026554E+03   -0.12399E-05   -0.62106E-05  9033   0.164E-02
  28 F= -.64382003E+03 E0= -.64375029E+03  d E =-.207568E-02
 trial-energy change:   -0.002076  1 .order   -0.002111   -0.003009   -0.001213
 step:   1.6756(harm=  1.6756)  dis= 0.00555  next Energy=  -643.820472 (dE=-0.252E-02)
 bond charge predicted
       N       E                     dE             d eps       ncg     rms          rms(c)
DAV:   1    -0.643814666472E+03    0.53588E-02   -0.41177E-01  9360   0.266E+00    0.149E-01
RMM:   2    -0.643820509474E+03   -0.58430E-02   -0.62549E-02 13840   0.728E-01    0.124E-01
RMM:   3    -0.643820713813E+03   -0.20434E-03   -0.57612E-03 13229   0.216E-01    0.180E-01
RMM:   4    -0.643820490825E+03    0.22299E-03   -0.10138E-03 13330   0.103E-01    0.687E-02
RMM:   5    -0.643820496676E+03   -0.58509E-05   -0.52337E-04 12008   0.463E-02    0.586E-02
RMM:   6    -0.643820492362E+03    0.43139E-05   -0.26649E-04 11843   0.370E-02    0.470E-02
WARNING in EDDRMM: call to ZHEGV failed, returncode =   8  4      8
RMM:   7    -0.643820482633E+03    0.97292E-05   -0.19710E-04 11447   0.263E-02    0.348E-02
RMM:   8    -0.643820477217E+03    0.54162E-05   -0.79542E-05 10655   0.239E-02
  29 F= -.64382048E+03 E0= -.64375075E+03  d E =-.252634E-02
 curvature:  -1.30 expect dE=-0.209E-02 dE for cont linesearch -0.278E-05
 trial: gam= 0.51716 g(F)=  0.138E-02 g(S)=  0.221E-03 ort = 0.100E-03 (trialstep = 0.114E+01)
 search vector abs. value=  0.296E-02
 bond charge predicted
       N       E                     dE             d eps       ncg     rms          rms(c)
DAV:   1    -0.643811910886E+03    0.85717E-02   -0.74034E-01  9072   0.358E+00    0.265E-01
RMM:   2    -0.643823757122E+03   -0.11846E-01   -0.11417E-01 13535   0.998E-01    0.442E-01
RMM:   3    -0.643821985102E+03    0.17720E-02   -0.12445E-02 13643   0.328E-01    0.180E-01
RMM:   4    -0.643822019656E+03   -0.34554E-04   -0.22553E-03 13956   0.128E-01    0.192E-01
RMM:   5    -0.643821731820E+03    0.28784E-03   -0.79524E-04 12614   0.617E-02    0.801E-02
RMM:   6    -0.643821754880E+03   -0.23061E-04   -0.50092E-04 12576   0.498E-02    0.103E-01
RMM:   7    -0.643821692923E+03    0.61957E-04   -0.31135E-04 12455   0.422E-02    0.589E-02
RMM:   8    -0.643821662007E+03    0.30916E-04   -0.15845E-04 11995   0.283E-02    0.303E-02
WARNING in EDDRMM: call to ZHEGV failed, returncode =   6  3      8
RMM:   9    -0.643821660731E+03    0.12761E-05   -0.71993E-05 10096   0.199E-02
  30 F= -.64382166E+03 E0= -.64375198E+03  d E =-.118351E-02
 trial-energy change:   -0.001184  1 .order   -0.001137   -0.001881   -0.000393
 step:   1.3788(harm=  1.4345)  dis= 0.00349  next Energy=  -643.821703 (dE=-0.123E-02)
 bond charge predicted
       N       E                     dE             d eps       ncg     rms          rms(c)
DAV:   1    -0.643821258247E+03    0.40376E-03   -0.34143E-02  9792   0.769E-01    0.569E-02
RMM:   2    -0.643821811130E+03   -0.55288E-03   -0.53670E-03 13490   0.216E-01    0.959E-02
RMM:   3    -0.643821736075E+03    0.75055E-04   -0.62409E-04 13014   0.721E-02    0.425E-02
RMM:   4    -0.643821737853E+03   -0.17782E-05   -0.12511E-04 11642   0.300E-02    0.414E-02
RMM:   5    -0.643821725021E+03    0.12832E-04   -0.56583E-05  9278   0.182E-02    0.166E-02
RMM:   6    -0.643821725579E+03   -0.55780E-06   -0.33901E-05  7697   0.166E-02
  31 F= -.64382173E+03 E0= -.64375207E+03  d E =-.124836E-02
 curvature:  -1.24 expect dE=-0.114E-02 dE for cont linesearch -0.525E-05
 trial: gam= 0.53364 g(F)=  0.578E-03 g(S)=  0.346E-03 ort = 0.112E-03 (trialstep = 0.118E+01)
 search vector abs. value=  0.189E-02
 bond charge predicted
       N       E                     dE             d eps       ncg     rms          rms(c)
DAV:   1    -0.643817483291E+03    0.42417E-02   -0.49313E-01  8736   0.292E+00    0.419E-01
RMM:   2    -0.643833750879E+03   -0.16268E-01   -0.10735E-01 11853   0.100E+00    0.983E-01
RMM:   3    -0.643823011069E+03    0.10740E-01   -0.15099E-02 12074   0.433E-01    0.279E-01
WARNING in EDDRMM: call to ZHEGV failed, returncode =   6  3      6
RMM:   4    -0.643822872205E+03    0.13886E-03   -0.36289E-03 13970   0.150E-01    0.260E-01
RMM:   5    -0.643822295152E+03    0.57705E-03   -0.11543E-03 13031   0.878E-02    0.113E-01
RMM:   6    -0.643822276562E+03    0.18591E-04   -0.66040E-04 13190   0.611E-02    0.122E-01
RMM:   7    -0.643822179597E+03    0.96964E-04   -0.40756E-04 12925   0.538E-02    0.615E-02
RMM:   8    -0.643822167425E+03    0.12172E-04   -0.19425E-04 12292   0.327E-02    0.485E-02
RMM:   9    -0.643822156303E+03    0.11122E-04   -0.80116E-05 10696   0.227E-02    0.253E-02
WARNING in EDDRMM: call to ZHEGV failed, returncode =   6  3      4
RMM:  10    -0.643822155630E+03    0.67285E-06   -0.38177E-05  7983   0.164E-02
  32 F= -.64382216E+03 E0= -.64375267E+03  d E =-.430051E-03
 trial-energy change:   -0.000430  1 .order   -0.000446   -0.001166    0.000274
 step:   0.9587(harm=  0.9587)  dis= 0.00174  next Energy=  -643.822198 (dE=-0.472E-03)
 bond charge predicted
       N       E                     dE             d eps       ncg     rms          rms(c)
DAV:   1    -0.643822032686E+03    0.12362E-03   -0.17876E-02  9408   0.555E-01    0.806E-02
RMM:   2    -0.643822626075E+03   -0.59339E-03   -0.39222E-03 11663   0.192E-01    0.189E-01
RMM:   3    -0.643822232549E+03    0.39353E-03   -0.54683E-04 11359   0.831E-02    0.538E-02
RMM:   4    -0.643822228220E+03    0.43296E-05   -0.13622E-04 11296   0.312E-02    0.508E-02
RMM:   5    -0.643822205048E+03    0.23171E-04   -0.36708E-05  7182   0.207E-02    0.231E-02
RMM:   6    -0.643822203288E+03    0.17608E-05   -0.18776E-05  5401   0.175E-02
  33 F= -.64382220E+03 E0= -.64375269E+03  d E =-.477709E-03
 curvature:  -0.92 expect dE=-0.881E-03 dE for cont linesearch -0.164E-06
 trial: gam= 1.15421 g(F)=  0.302E-03 g(S)=  0.656E-03 ort =-0.183E-04 (trialstep = 0.627E+00)
 search vector abs. value=  0.343E-02
 bond charge predicted
       N       E                     dE             d eps       ncg     rms          rms(c)
DAV:   1    -0.643819506764E+03    0.26983E-02   -0.24314E-01  9072   0.200E+00    0.176E-01
RMM:   2    -0.643823993707E+03   -0.44869E-02   -0.38877E-02 13546   0.589E-01    0.362E-01
RMM:   3    -0.643822708068E+03    0.12856E-02   -0.42336E-03 13478   0.202E-01    0.125E-01
RMM:   4    -0.643822718631E+03   -0.10563E-04   -0.93125E-04 13519   0.800E-02    0.127E-01
RMM:   5    -0.643822575990E+03    0.14264E-03   -0.32110E-04 12286   0.452E-02    0.452E-02
RMM:   6    -0.643822590378E+03   -0.14388E-04   -0.19199E-04 11988   0.314E-02    0.689E-02
RMM:   7    -0.643822561884E+03    0.28494E-04   -0.11408E-04 11493   0.272E-02    0.346E-02
RMM:   8    -0.643822551694E+03    0.10190E-04   -0.68299E-05 10320   0.185E-02    0.193E-02
RMM:   9    -0.643822550147E+03    0.15466E-05   -0.32895E-05  7423   0.162E-02
  34 F= -.64382255E+03 E0= -.64375307E+03  d E =-.346860E-03
 trial-energy change:   -0.000347  1 .order   -0.000347   -0.000587   -0.000106
 step:   0.7646(harm=  0.7646)  dis= 0.00194  next Energy=  -643.822562 (dE=-0.358E-03)
 bond charge predicted
       N       E                     dE             d eps       ncg     rms          rms(c)
DAV:   1    -0.643822413525E+03    0.13817E-03   -0.11801E-02  9744   0.442E-01    0.392E-02
RMM:   2    -0.643822644235E+03   -0.23071E-03   -0.19687E-03 13233   0.132E-01    0.856E-02
RMM:   3    -0.643822574317E+03    0.69917E-04   -0.23357E-04 12266   0.479E-02    0.287E-02
RMM:   4    -0.643822574285E+03    0.31992E-07   -0.56434E-05  9718   0.204E-02
  35 F= -.64382257E+03 E0= -.64375311E+03  d E =-.370998E-03
 curvature:  -1.40 expect dE=-0.620E-03 dE for cont linesearch -0.346E-06
 trial: gam= 0.06081 g(F)=  0.303E-03 g(S)=  0.140E-03 ort = 0.291E-04 (trialstep = 0.654E+00)
 search vector abs. value=  0.459E-03
 bond charge predicted
       N       E                     dE             d eps       ncg     rms          rms(c)
DAV:   1    -0.643822833016E+03   -0.25870E-03   -0.37322E-02 10296   0.768E-01    0.208E-01
RMM:   2    -0.643825652523E+03   -0.28195E-02   -0.12959E-02 10949   0.342E-01    0.498E-01
RMM:   3    -0.643822867656E+03    0.27849E-02   -0.23824E-03 10964   0.171E-01    0.133E-01
RMM:   4    -0.643822804856E+03    0.62801E-04   -0.62849E-04 12592   0.666E-02    0.114E-01
RMM:   5    -0.643822689165E+03    0.11569E-03   -0.24181E-04 11757   0.396E-02    0.529E-02
RMM:   6    -0.643822679096E+03    0.10069E-04   -0.13889E-04 10342   0.293E-02    0.576E-02
RMM:   7    -0.643822651140E+03    0.27956E-04   -0.63311E-05  7454   0.246E-02    0.250E-02
RMM:   8    -0.643822647621E+03    0.35196E-05   -0.24719E-05  5819   0.180E-02
  36 F= -.64382265E+03 E0= -.64375312E+03  d E =-.733356E-04
 trial-energy change:   -0.000073  1 .order   -0.000102   -0.000291    0.000087
 step:   0.5036(harm=  0.5036)  dis= 0.00040  next Energy=  -643.822686 (dE=-0.112E-03)
 bond charge predicted
       N       E                     dE             d eps       ncg     rms          rms(c)
DAV:   1    -0.643822662250E+03   -0.11109E-04   -0.20760E-03 10944   0.180E-01    0.482E-02
RMM:   2    -0.643822814631E+03   -0.15238E-03   -0.72163E-04 11309   0.793E-02    0.118E-01
RMM:   3    -0.643822660170E+03    0.15446E-03   -0.13225E-04  9624   0.398E-02    0.310E-02
RMM:   4    -0.643822655815E+03    0.43551E-05   -0.33194E-05  6460   0.192E-02
  37 F= -.64382266E+03 E0= -.64375314E+03  d E =-.815294E-04
 curvature:  -0.26 expect dE=-0.210E-03 dE for cont linesearch -0.819E-05
 ZBRENT: interpolating
 opt :   0.3964  next Energy=  -643.822662 (dE=-0.880E-04)
 bond charge predicted
       N       E                     dE             d eps       ncg     rms          rms(c)
DAV:   1    -0.643822655732E+03    0.44381E-05   -0.10136E-03 11088   0.126E-01    0.403E-02
RMM:   2    -0.643822748831E+03   -0.93100E-04   -0.39294E-04 11125   0.571E-02    0.970E-02
RMM:   3    -0.643822652654E+03    0.96177E-04   -0.80145E-05  7851   0.308E-02    0.318E-02
RMM:   4    -0.643822646625E+03    0.60289E-05   -0.20796E-05  5510   0.170E-02
  38 F= -.64382265E+03 E0= -.64375314E+03  d E =-.723397E-04
 curvature:  -0.20 expect dE=-0.133E-03 dE for cont linesearch -0.118E-05
 trial: gam= 1.57151 g(F)=  0.169E-03 g(S)=  0.481E-03 ort =-0.514E-04 (trialstep = 0.171E+00)
 search vector abs. value=  0.162E-02
 bond charge predicted
       N       E                     dE             d eps       ncg     rms          rms(c)
DAV:   1    -0.643822593335E+03    0.59318E-04   -0.85165E-03  9888   0.360E-01    0.258E-02
RMM:   2    -0.643822728871E+03   -0.13554E-03   -0.13622E-03 13243   0.106E-01    0.410E-02
RMM:   3    -0.643822716755E+03    0.12116E-04   -0.11751E-04 10358   0.355E-02    0.268E-02
RMM:   4    -0.643822711963E+03    0.47924E-05   -0.20483E-05  5657   0.165E-02
  39 F= -.64382271E+03 E0= -.64375321E+03  d E =-.653377E-04
 trial-energy change:   -0.000065  1 .order   -0.000071   -0.000097   -0.000044
 step:   0.3123(harm=  0.3123)  dis= 0.00069  next Energy=  -643.822736 (dE=-0.890E-04)
 bond charge predicted
       N       E                     dE             d eps       ncg     rms          rms(c)
DAV:   1    -0.643822655289E+03    0.61465E-04   -0.59048E-03  9936   0.298E-01    0.212E-02
RMM:   2    -0.643822761912E+03   -0.10662E-03   -0.99663E-04 13147   0.901E-02    0.448E-02
RMM:   3    -0.643822744417E+03    0.17495E-04   -0.97766E-05  9660   0.302E-02    0.180E-02
RMM:   4    -0.643822743016E+03    0.14016E-05   -0.18853E-05  5805   0.161E-02
  40 F= -.64382274E+03 E0= -.64375324E+03  d E =-.963909E-04
 curvature:  -0.44 expect dE=-0.142E-03 dE for cont linesearch -0.345E-05
 ZBRENT: increasing intervall
 opt :   0.5959  next Energy=  -643.822733 (dE=-0.867E-04)
 bond charge predicted
       N       E                     dE             d eps       ncg     rms          rms(c)
DAV:   1    -0.643822400107E+03    0.34431E-03   -0.23540E-02  9456   0.596E-01    0.380E-02
RMM:   2    -0.643822777472E+03   -0.37736E-03   -0.37934E-03 13708   0.179E-01    0.612E-02
RMM:   3    -0.643822751934E+03    0.25538E-04   -0.35236E-04 12427   0.535E-02    0.342E-02
RMM:   4    -0.643822745144E+03    0.67892E-05   -0.62081E-05  9636   0.259E-02
  41 F= -.64382275E+03 E0= -.64375324E+03  d E =-.985194E-04
 curvature:   1.25 expect dE= 0.644E-03 dE for cont linesearch  0.305E-04
 ZBRENT: bracketing found
 ZBRENT: interpolating
 opt :   0.4145  next Energy=  -643.822749 (dE=-0.102E-03)
 bond charge predicted
       N       E                     dE             d eps       ncg     rms          rms(c)
DAV:   1    -0.643822620149E+03    0.13178E-03   -0.97352E-03  9696   0.384E-01    0.297E-02
RMM:   2    -0.643822802015E+03   -0.18187E-03   -0.15773E-03 13234   0.115E-01    0.764E-02
RMM:   3    -0.643822757142E+03    0.44873E-04   -0.14307E-04  9517   0.379E-02    0.188E-02
RMM:   4    -0.643822757644E+03   -0.50166E-06   -0.19309E-05  5452   0.177E-02
  42 F= -.64382276E+03 E0= -.64375325E+03  d E =-.111019E-03
 curvature:  -0.24 expect dE=-0.402E-04 dE for cont linesearch -0.169E-05
 ZBRENT: bisectioning
 opt :   0.5052  next Energy=  -643.822767 (dE=-0.121E-03)
 bond charge predicted
       N       E                     dE             d eps       ncg     rms          rms(c)
DAV:   1    -0.643822721567E+03    0.35575E-04   -0.24150E-03 10080   0.192E-01    0.136E-02
RMM:   2    -0.643822766172E+03   -0.44605E-04   -0.40079E-04 12292   0.564E-02    0.345E-02
RMM:   3    -0.643822754284E+03    0.11888E-04   -0.30768E-05  5980   0.217E-02    0.795E-03
RMM:   4    -0.643822754613E+03   -0.32899E-06   -0.67771E-06  5140   0.120E-02
  43 F= -.64382275E+03 E0= -.64375325E+03  d E =-.107988E-03
 curvature:  -1.34 expect dE=-0.413E-03 dE for cont linesearch -0.105E-04
 ZBRENT: interpolating
 opt :   0.4589  next Energy=  -643.822760 (dE=-0.113E-03)
 bond charge predicted
       N       E                     dE             d eps       ncg     rms          rms(c)
DAV:   1    -0.643822746995E+03    0.72892E-05   -0.61563E-04 10080   0.979E-02    0.683E-03
RMM:   2    -0.643822757325E+03   -0.10330E-04   -0.10280E-04  8199   0.285E-02    0.134E-02
RMM:   3    -0.643822755191E+03    0.21347E-05   -0.85046E-06  4707   0.158E-02
  44 F= -.64382276E+03 E0= -.64375326E+03  d E =-.108566E-03
 curvature:  -0.31 expect dE=-0.870E-04 dE for cont linesearch -0.210E-05
 ZBRENT: bisectioning
 opt :   0.4821  next Energy=  -643.822758 (dE=-0.111E-03)
 bond charge predicted
       N       E                     dE             d eps       ncg     rms          rms(c)
DAV:   1    -0.643822753403E+03    0.39220E-05   -0.14671E-04 10176   0.489E-02    0.509E-03
RMM:   2    -0.643822758197E+03   -0.47941E-05   -0.24226E-05  5799   0.143E-02
  45 F= -.64382276E+03 E0= -.64375327E+03  d E =-.111572E-03
 curvature:  -0.35 expect dE=-0.146E-03 dE for cont linesearch -0.208E-05
 ZBRENT: interpolating
 opt :   0.4709  next Energy=  -643.822759 (dE=-0.112E-03)
 bond charge predicted
       N       E                     dE             d eps       ncg     rms          rms(c)
DAV:   1    -0.643822754659E+03   -0.12561E-05   -0.42030E-05  8352   0.287E-02    0.334E-03
RMM:   2    -0.643822756678E+03   -0.20188E-05   -0.76097E-06  4655   0.109E-02
  46 F= -.64382276E+03 E0= -.64375326E+03  d E =-.110053E-03
 curvature:  -0.09 expect dE=-0.254E-04 dE for cont linesearch -0.782E-06
 ZBRENT: interpolating
 opt :   0.4770  next Energy=  -643.822758 (dE=-0.112E-03)
 bond charge predicted
       N       E                     dE             d eps       ncg     rms          rms(c)
DAV:   1    -0.643822755079E+03   -0.42014E-06   -0.11115E-05  5832   0.160E-02    0.202E-03
RMM:   2    -0.643822755611E+03   -0.53167E-06   -0.22034E-06  4440   0.536E-03
  47 F= -.64382276E+03 E0= -.64375326E+03  d E =-.108986E-03
 curvature:  -0.03 expect dE=-0.101E-04 dE for cont linesearch -0.125E-06
 ZBRENT: bisectioning
 opt :   0.4740  next Energy=  -643.822756 (dE=-0.109E-03)
 bond charge predicted
       N       E                     dE             d eps       ncg     rms          rms(c)
DAV:   1    -0.643822755290E+03   -0.21023E-06   -0.32165E-06  5376   0.846E-03    0.183E-03
RMM:   2    -0.643822755920E+03   -0.63055E-06   -0.99700E-07  3967   0.335E-03
  48 F= -.64382276E+03 E0= -.64375326E+03  d E =-.109295E-03
 curvature:  -0.06 expect dE=-0.153E-04 dE for cont linesearch -0.206E-07
 trial: gam= 0.05182 g(F)=  0.179E-03 g(S)=  0.933E-04 ort = 0.244E-04 (trialstep = 0.231E+00)
 search vector abs. value=  0.280E-03
 bond charge predicted
       N       E                     dE             d eps       ncg     rms          rms(c)
DAV:   1    -0.643822809546E+03   -0.54256E-04   -0.28490E-03  9600   0.210E-01    0.558E-02
RMM:   2    -0.643823005826E+03   -0.19628E-03   -0.94832E-04 10451   0.954E-02    0.131E-01
RMM:   3    -0.643822812839E+03    0.19299E-03   -0.16829E-04  9020   0.469E-02    0.353E-02
RMM:   4    -0.643822809349E+03    0.34897E-05   -0.40951E-05  6645   0.208E-02
  49 F= -.64382281E+03 E0= -.64375331E+03  d E =-.534291E-04
 ZBRENT: can't locate minimum, use default step
 trial-energy change:   -0.000053  1 .order   -0.000060   -0.000063   -0.000057
 step:   0.9248(harm=  2.3386)  dis= 0.00088  next Energy=  -643.823076 (dE=-0.320E-03)
 bond charge predicted
       N       E                     dE             d eps       ncg     rms          rms(c)
DAV:   1    -0.643822940671E+03   -0.12783E-03   -0.25546E-02  9336   0.628E-01    0.177E-01
RMM:   2    -0.643824867360E+03   -0.19267E-02   -0.88786E-03 10547   0.292E-01    0.421E-01
RMM:   3    -0.643822971184E+03    0.18962E-02   -0.16900E-03 10883   0.143E-01    0.127E-01
RMM:   4    -0.643822904775E+03    0.66409E-04   -0.48904E-04 12236   0.568E-02    0.986E-02
RMM:   5    -0.643822820227E+03    0.84548E-04   -0.18737E-04 11558   0.353E-02    0.432E-02
RMM:   6    -0.643822814857E+03    0.53698E-05   -0.10004E-04  9291   0.253E-02    0.452E-02
RMM:   7    -0.643822801856E+03    0.13001E-04   -0.41610E-05  6536   0.221E-02    0.230E-02
RMM:   8    -0.643822802048E+03   -0.19242E-06   -0.18229E-05  5667   0.170E-02
  50 F= -.64382280E+03 E0= -.64375336E+03  d E =-.461280E-04
 curvature:  -0.66 expect dE=-0.198E-03 dE for cont linesearch -0.362E-04
 ZBRENT: interpolating
 opt :   0.6926  next Energy=  -643.822816 (dE=-0.605E-04)
 bond charge predicted
       N       E                     dE             d eps       ncg     rms          rms(c)
DAV:   1    -0.643822845264E+03   -0.43408E-04   -0.29626E-03  9672   0.213E-01    0.580E-02
RMM:   2    -0.643823058732E+03   -0.21347E-03   -0.10154E-03 10723   0.985E-02    0.139E-01
RMM:   3    -0.643822850774E+03    0.20796E-03   -0.18714E-04  9714   0.478E-02    0.383E-02
RMM:   4    -0.643822845689E+03    0.50850E-05   -0.49749E-05  7797   0.217E-02
  51 F= -.64382285E+03 E0= -.64375339E+03  d E =-.897683E-04
 curvature:  -0.26 expect dE=-0.133E-03 dE for cont linesearch -0.105E-04
 ZBRENT: bisectioning
 opt :   0.4619  next Energy=  -643.822868 (dE=-0.112E-03)
 bond charge predicted
       N       E                     dE             d eps       ncg     rms          rms(c)
DAV:   1    -0.643822866338E+03   -0.15565E-04   -0.28286E-03  9864   0.207E-01    0.644E-02
RMM:   2    -0.643823098624E+03   -0.23229E-03   -0.10333E-03 10531   0.981E-02    0.153E-01
RMM:   3    -0.643822863248E+03    0.23538E-03   -0.20998E-04  9453   0.497E-02    0.502E-02
RMM:   4    -0.643822850498E+03    0.12751E-04   -0.63622E-05  8073   0.237E-02    0.372E-02
RMM:   5    -0.643822836794E+03    0.13704E-04   -0.22232E-05  5498   0.176E-02    0.160E-02
RMM:   6    -0.643822833671E+03    0.31227E-05   -0.12154E-05  4748   0.154E-02
  52 F= -.64382283E+03 E0= -.64375336E+03  d E =-.777511E-04
 curvature:  -0.56 expect dE=-0.740E-04 dE for cont linesearch -0.321E-05
 ZBRENT: interpolating
 opt :   0.5254  next Energy=  -643.822835 (dE=-0.790E-04)
 bond charge predicted
       N       E                     dE             d eps       ncg     rms          rms(c)
DAV:   1    -0.643822835781E+03    0.10130E-05   -0.26905E-04 10920   0.623E-02    0.179E-02
RMM:   2    -0.643822862980E+03   -0.27199E-04   -0.95624E-05  8387   0.279E-02    0.556E-02
RMM:   3    -0.643822833041E+03    0.29940E-04   -0.17892E-05  5567   0.175E-02    0.938E-03
RMM:   4    -0.643822832297E+03    0.74330E-06   -0.45856E-06  4416   0.106E-02
  53 F= -.64382283E+03 E0= -.64375336E+03  d E =-.763771E-04
 curvature:  -0.22 expect dE=-0.124E-04 dE for cont linesearch -0.546E-05
 ZBRENT: bisectioning
 opt :   0.6090  next Energy=  -643.822842 (dE=-0.857E-04)
 bond charge predicted
       N       E                     dE             d eps       ncg     rms          rms(c)
DAV:   1    -0.643822834976E+03   -0.19358E-05   -0.37241E-04  9936   0.756E-02    0.232E-02
RMM:   2    -0.643822869027E+03   -0.34050E-04   -0.14263E-04  8681   0.362E-02    0.562E-02
RMM:   3    -0.643822834156E+03    0.34871E-04   -0.25290E-05  5707   0.205E-02    0.169E-02
RMM:   4    -0.643822832483E+03    0.16732E-05   -0.66922E-06  4416   0.126E-02
  54 F= -.64382283E+03 E0= -.64375336E+03  d E =-.765624E-04
 curvature:  -0.38 expect dE=-0.199E-04 dE for cont linesearch -0.207E-05
 ZBRENT: bisectioning
 opt :   0.6508  next Energy=  -643.822834 (dE=-0.777E-04)
 bond charge predicted
       N       E                     dE             d eps       ncg     rms          rms(c)
DAV:   1    -0.643822832041E+03    0.21147E-05   -0.10211E-04 10608   0.391E-02    0.137E-02
RMM:   2    -0.643822842751E+03   -0.10710E-04   -0.37511E-05  6262   0.197E-02    0.340E-02
RMM:   3    -0.643822832116E+03    0.10635E-04   -0.89398E-06  5051   0.127E-02    0.120E-02
RMM:   4    -0.643822831203E+03    0.91334E-06   -0.25904E-06  4410   0.755E-03
  55 F= -.64382283E+03 E0= -.64375336E+03  d E =-.752823E-04
 curvature:  -0.21 expect dE=-0.154E-04 dE for cont linesearch -0.264E-06
 ZBRENT: bisectioning
 opt :   0.6717  next Energy=  -643.822831 (dE=-0.756E-04)
 bond charge predicted
       N       E                     dE             d eps       ncg     rms          rms(c)
DAV:   1    -0.643822830243E+03    0.18726E-05   -0.21439E-05  6096   0.197E-02    0.656E-03
RMM:   2    -0.643822832746E+03   -0.25025E-05   -0.81170E-06  4581   0.129E-02
  56 F= -.64382283E+03 E0= -.64375335E+03  d E =-.768254E-04
 curvature:  -0.23 expect dE=-0.366E-04 dE for cont linesearch -0.521E-05
 trial: gam= 0.00000 g(F)=  0.345E-04 g(S)=  0.126E-03 ort =-0.800E-04 (trialstep = 0.319E+00)
 search vector abs. value=  0.161E-03
 reached required accuracy - stopping structural energy minimisation
