 running   28 mpi-ranks, on    1 nodes
 distrk:  each k-point on   28 cores,    1 groups
 distr:  one band on    1 cores,   28 groups
 vasp.6.4.3 19Mar24 (build Sep 18 2024 11:30:23) complex                        
  
 POSCAR found type information on POSCAR Hf
 POSCAR found :  1 types and       2 ions
 Reading from existing POTCAR
 scaLAPACK will be used
 -----------------------------------------------------------------------------
|                                                                             |
|           W    W    AA    RRRRR   N    N  II  N    N   GGGG   !!!           |
|           W    W   A  A   R    R  NN   N  II  NN   N  G    G  !!!           |
|           W    W  A    A  R    R  N N  N  II  N N  N  G       !!!           |
|           W WW W  AAAAAA  RRRRR   N  N N  II  N  N N  G  GGG   !            |
|           WW  WW  A    A  R   R   N   NN  II  N   NN  G    G                |
|           W    W  A    A  R    R  N    N  II  N    N   GGGG   !!!           |
|                                                                             |
|     For optimal performance we recommend to set                             |
|       NCORE = 2 up to number-of-cores-per-socket                            |
|     NCORE specifies how many cores store one orbital (NPAR=cpu/NCORE).      |
|     This setting can greatly improve the performance of VASP for DFT.       |
|     The default, NCORE=1 might be grossly inefficient on modern             |
|     multi-core architectures or massively parallel machines. Do your        |
|     own testing! More info at https://www.vasp.at/wiki/index.php/NCORE      |
|     Unfortunately you need to use the default for GW and RPA                |
|     calculations (for HF NCORE is supported but not extensively tested      |
|     yet).                                                                   |
|                                                                             |
 -----------------------------------------------------------------------------

 Reading from existing POTCAR
 LDA part: xc-table for (Slater+PW92), standard interpolation
 POSCAR, INCAR and KPOINTS ok, starting setup
 FFT: planning ... GRIDC
 FFT: planning ... GRID_SOFT
 FFT: planning ... GRID
 WAVECAR not read
 entering main loop
       N       E                     dE             d eps       ncg     rms          rms(c)
DAV:   1    -0.112085610665E+02   -0.11209E+02   -0.11622E+04   336   0.555E+02
DAV:   2    -0.206510709873E+02   -0.94425E+01   -0.94196E+01   504   0.426E+01
DAV:   3    -0.206618161887E+02   -0.10745E-01   -0.10745E-01   336   0.162E+00
DAV:   4    -0.206618220721E+02   -0.58834E-05   -0.58836E-05   616   0.405E-02
DAV:   5    -0.206618220728E+02   -0.70486E-09   -0.11928E-09   336   0.163E-04    0.388E+00
RMM:   6    -0.201379866311E+02    0.52384E+00   -0.23254E-01   336   0.198E+00    0.216E+00
RMM:   7    -0.199472412130E+02    0.19075E+00   -0.40645E-01   337   0.269E+00    0.358E-01
RMM:   8    -0.199454780307E+02    0.17632E-02   -0.18729E-02   336   0.746E-01    0.127E-01
RMM:   9    -0.199452209744E+02    0.25706E-03   -0.34978E-03   336   0.305E-01    0.240E-02
RMM:  10    -0.199452316801E+02   -0.10706E-04   -0.49545E-04   334   0.128E-01    0.135E-02
RMM:  11    -0.199452258668E+02    0.58133E-05   -0.38892E-05   320   0.365E-02
   1 F= -.19945226E+02 E0= -.19935580E+02  d E =-.199452E+02
 curvature:   0.00 expect dE= 0.000E+00 dE for cont linesearch  0.000E+00
 trial: gam= 0.00000 g(F)=  0.282E-45 g(S)=  0.111E-01 ort = 0.000E+00 (trialstep = 0.100E+01)
 search vector abs. value=  0.111E-01
 bond charge predicted
       N       E                     dE             d eps       ncg     rms          rms(c)
DAV:   1    -0.199862001608E+02   -0.40968E-01   -0.17271E+00   364   0.540E+00    0.914E-01
RMM:   2    -0.199601584054E+02    0.26042E-01   -0.23614E-02   336   0.805E-01    0.471E-01
RMM:   3    -0.199521903019E+02    0.79681E-02   -0.10475E-02   336   0.495E-01    0.732E-02
RMM:   4    -0.199522550297E+02   -0.64728E-04   -0.76516E-04   336   0.170E-01    0.210E-02
RMM:   5    -0.199522585730E+02   -0.35432E-05   -0.70793E-05   322   0.546E-02
   2 F= -.19952259E+02 E0= -.19944062E+02  d E =-.703271E-02
 trial-energy change:   -0.007033  1 .order   -0.006825   -0.011052   -0.002598
 step:   1.2591(harm=  1.3073)  dis= 0.00000  next Energy=   -19.952599 (dE=-0.737E-02)
 bond charge predicted
       N       E                     dE             d eps       ncg     rms          rms(c)
DAV:   1    -0.199548021098E+02   -0.25471E-02   -0.11329E-01   336   0.139E+00    0.233E-01
RMM:   2    -0.199531146730E+02    0.16874E-02   -0.16136E-03   336   0.210E-01    0.122E-01
RMM:   3    -0.199525763200E+02    0.53835E-03   -0.70739E-04   336   0.128E-01    0.177E-02
RMM:   4    -0.199525789841E+02   -0.26641E-05   -0.48846E-05   332   0.429E-02
   3 F= -.19952579E+02 E0= -.19944770E+02  d E =-.735312E-02
 curvature:  -0.64 expect dE=-0.192E-02 dE for cont linesearch -0.419E-07
 trial: gam= 0.27559 g(F)=  0.112E-42 g(S)=  0.302E-02 ort =-0.270E-04 (trialstep = 0.105E+01)
 search vector abs. value=  0.384E-02
 bond charge predicted
       N       E                     dE             d eps       ncg     rms          rms(c)
DAV:   1    -0.199659297872E+02   -0.13353E-01   -0.65592E-01   364   0.335E+00    0.573E-01
RMM:   2    -0.199556690560E+02    0.10261E-01   -0.88265E-03   336   0.478E-01    0.305E-01
RMM:   3    -0.199520775841E+02    0.35915E-02   -0.52534E-03   336   0.343E-01    0.323E-02
RMM:   4    -0.199521214108E+02   -0.43827E-04   -0.34073E-04   336   0.112E-01    0.129E-02
RMM:   5    -0.199521286703E+02   -0.72595E-05   -0.27568E-05   296   0.335E-02
   4 F= -.19952129E+02 E0= -.19945025E+02  d E =0.450314E-03
 trial-energy change:    0.000450  1 .order    0.000409   -0.003167    0.003985
 step:   0.4568(harm=  0.4658)  dis= 0.00000  next Energy=   -19.953263 (dE=-0.684E-03)
 bond charge predicted
       N       E                     dE             d eps       ncg     rms          rms(c)
DAV:   1    -0.199577980233E+02   -0.56766E-02   -0.21124E-01   364   0.189E+00    0.325E-01
RMM:   2    -0.199544402996E+02    0.33577E-02   -0.29083E-03   336   0.275E-01    0.173E-01
RMM:   3    -0.199532651204E+02    0.11752E-02   -0.17212E-03   336   0.196E-01    0.182E-02
RMM:   4    -0.199532730115E+02   -0.78911E-05   -0.10701E-04   336   0.633E-02    0.633E-03
RMM:   5    -0.199532723876E+02    0.62390E-06   -0.10405E-05   243   0.203E-02
   5 F= -.19953272E+02 E0= -.19945815E+02  d E =-.693403E-03
 curvature:  -0.30 expect dE=-0.592E-05 dE for cont linesearch -0.127E-06
 trial: gam=-0.04147 g(F)=  0.135E-43 g(S)=  0.199E-04 ort = 0.405E-04 (trialstep = 0.933E+00)
 search vector abs. value=  0.232E-04
 reached required accuracy - stopping structural energy minimisation
