HECN                                    
           1
     3.194600    0.000000    0.000000
    -1.597300    2.766605    0.000000
     0.000000    0.000000    5.051100
   Hf
     2
Direct configuration=     1
   0.33333334  0.66666669  0.25000000
   0.66666666  0.33333331  0.75000000
HECN                                    
           1
     3.228078    0.000000    0.000000
    -1.614039    2.795597    0.000000
    -0.000000   -0.000000    5.016494
   Hf
     2
Direct configuration=     2
   0.33333334  0.66666669  0.25000000
   0.66666666  0.33333331  0.75000000
HECN                                    
           1
     3.236752    0.000000    0.000000
    -1.618376    2.803110    0.000000
    -0.000000   -0.000000    5.007527
   Hf
     2
Direct configuration=     3
   0.33333334  0.66666669  0.25000000
   0.66666666  0.33333331  0.75000000
HECN                                    
           1
     3.237878    0.000000    0.000000
    -1.618939    2.804085    0.000000
    -0.000000    0.000000    4.956874
   Hf
     2
Direct configuration=     4
   0.33333334  0.66666669  0.25000000
   0.66666666  0.33333331  0.75000000
HECN                                    
           1
     3.237241    0.000000    0.000000
    -1.618621    2.803533    0.000000
    -0.000000    0.000000    4.985529
   Hf
     2
Direct configuration=     5
   0.33333334  0.66666669  0.25000000
   0.66666666  0.33333331  0.75000000
